 Gaussian 16, Revision B.01,
 Gaussian 16:  ES64L-G16RevB.01 20-Dec-2017

 -------------------------
 #P B3LYP/6-311+g(d) force
 -------------------------

 -----
 DPGEN
 -----
 Symbolic Z-matrix:
 Charge =  0 Multiplicity = 2

                         Standard orientation:
 ---------------------------------------------------------------------
 Center     Atomic      Atomic             Coordinates (Angstroms)
 Number     Number       Type             X           Y           Z
 ---------------------------------------------------------------------
      1         11           0        0.945323   -1.222660    1.632759
      2         11           0       -1.018808    1.677914    1.344510
      3         11           0       -3.351457    0.660655   -1.164313
      4         11           0        2.032266    1.886947   -0.074467
      5         11           0        4.008577   -0.723968   -0.628369
      6         11           0       -2.555918   -1.606633    0.589846
      7         11           0       -0.059982   -0.672255   -1.699966
 ---------------------------------------------------------------------

 SCF Done:  E(UB3LYP) =  -1136.12068216     A.U. after   30 cycles

 The electronic state is 2-A.
 Alpha  occ. eigenvalues --  -38.44891 -38.44611 -38.44416 -38.44374 -38.44327
 Alpha  occ. eigenvalues --  -38.43663 -38.41854  -2.20726  -2.20488  -2.20267
 Alpha  occ. eigenvalues --   -2.20204  -2.20190  -2.19534  -2.17738  -1.14436
 Alpha  occ. eigenvalues --   -1.14398  -1.14321  -1.14244  -1.14127  -1.14106
 Alpha  occ. eigenvalues --   -1.13933  -1.13906  -1.13891  -1.13885  -1.13879
 Alpha  occ. eigenvalues --   -1.13869  -1.13832  -1.13819  -1.13811  -1.13228
 Alpha  occ. eigenvalues --   -1.13189  -1.13143  -1.11414  -1.11409  -1.11377
 Alpha  occ. eigenvalues --   -0.18606  -0.14214  -0.11541  -0.10723
 Alpha virt. eigenvalues --   -0.07073  -0.05353  -0.04493  -0.03139  -0.02896
 Alpha virt. eigenvalues --   -0.02563  -0.02344  -0.01153  -0.00816  -0.00287
 Alpha virt. eigenvalues --    0.00080   0.00221   0.00310   0.00660   0.00674

  Beta  occ. eigenvalues --  -38.44845 -38.44579 -38.44446 -38.44354 -38.44242
  Beta  occ. eigenvalues --  -38.43644 -38.41843  -2.20645  -2.20429  -2.20248
  Beta  occ. eigenvalues --   -2.20237  -2.20051  -2.19499  -2.17720  -1.14365
  Beta  occ. eigenvalues --   -1.14333  -1.14264  -1.14213  -1.14081  -1.14056
  Beta  occ. eigenvalues --   -1.13918  -1.13905  -1.13898  -1.13881  -1.13866
  Beta  occ. eigenvalues --   -1.13837  -1.13788  -1.13711  -1.13697  -1.13202
  Beta  occ. eigenvalues --   -1.13164  -1.13126  -1.11411  -1.11373  -1.11364
  Beta  occ. eigenvalues --   -0.17784  -0.14147  -0.10529
  Beta virt. eigenvalues --   -0.07601  -0.06893  -0.04881  -0.04222  -0.02809
  Beta virt. eigenvalues --   -0.02717  -0.01870  -0.01713  -0.00840  -0.00644
  Beta virt. eigenvalues --   -0.00224   0.00102   0.00301   0.00356   0.00726

 Mulliken charges and spin densities:
               1          2
     1  Na  -0.198738   0.348084
     2  Na  -0.363608   0.394290
     3  Na   0.562916   0.004295
     4  Na  -0.117454  -0.079779
     5  Na   0.387320  -0.204765
     6  Na   0.244486   0.058275
     7  Na  -0.514922   0.479599
 Sum of Mulliken charges =  -0.00000   1.00000

 Dipole moment (field-independent basis, Debye):
    X=              0.0206    Y=             -0.1586    Z=             -0.1159  Tot=              0.1975
 Quadrupole moment (field-independent basis, Debye-Ang):
   XX=            -52.4298   YY=            -73.0587   ZZ=            -71.5795
   XY=             -0.8804   XZ=              0.0116   YZ=             -7.2903

 Normal termination of Gaussian 16 at Tue Dec  5 12:31:55 2023.
