 Gaussian 16, Revision B.01,
 Gaussian 16:  ES64L-G16RevB.01 20-Dec-2017

 -------------------------
 #P B3LYP/6-311+g(d) force
 -------------------------

 -----
 DPGEN
 -----
 Symbolic Z-matrix:
 Charge =  0 Multiplicity = 2

                         Standard orientation:
 ---------------------------------------------------------------------
 Center     Atomic      Atomic             Coordinates (Angstroms)
 Number     Number       Type             X           Y           Z
 ---------------------------------------------------------------------
      1         11           0        0.057829   -1.875694    0.347386
      2         11           0       -0.002088    0.374571    1.953624
      3         11           0        1.463851    1.692757   -0.041952
      4         11           0        2.630281   -0.889030   -0.188339
      5         11           0       -0.134116    0.068938   -1.930435
      6         11           0       -2.491868   -0.967633   -0.070359
      7         11           0       -1.523888    1.596091   -0.069925
 ---------------------------------------------------------------------

 SCF Done:  E(UB3LYP) =  -1136.08108183     A.U. after   20 cycles

 The electronic state is 2-A.
 Alpha  occ. eigenvalues --  -38.44830 -38.44530 -38.44029 -38.44024 -38.43462
 Alpha  occ. eigenvalues --  -38.43224 -38.43188  -2.21009  -2.20701  -2.20110
 Alpha  occ. eigenvalues --   -2.20038  -2.19656  -2.19391  -2.19372  -1.14779
 Alpha  occ. eigenvalues --   -1.14701  -1.14610  -1.14494  -1.14339  -1.14326
 Alpha  occ. eigenvalues --   -1.13935  -1.13925  -1.13797  -1.13773  -1.13692
 Alpha  occ. eigenvalues --   -1.13637  -1.13345  -1.13292  -1.13191  -1.13044
 Alpha  occ. eigenvalues --   -1.13039  -1.13015  -1.13000  -1.12943  -1.12918
 Alpha  occ. eigenvalues --   -0.21607  -0.14044  -0.12695  -0.12404
 Alpha virt. eigenvalues --   -0.05383  -0.04165  -0.04022  -0.03826  -0.03163
 Alpha virt. eigenvalues --   -0.03076  -0.01219  -0.00357  -0.00208   0.00325
 Alpha virt. eigenvalues --    0.00739   0.00835   0.01074   0.01109   0.01211

  Beta  occ. eigenvalues --  -38.44727 -38.44433 -38.44021 -38.44020 -38.43444
  Beta  occ. eigenvalues --  -38.43209 -38.43166  -2.20823  -2.20524  -2.20101
  Beta  occ. eigenvalues --   -2.20034  -2.19632  -2.19359  -2.19353  -1.14667
  Beta  occ. eigenvalues --   -1.14560  -1.14476  -1.14386  -1.14212  -1.14198
  Beta  occ. eigenvalues --   -1.13926  -1.13924  -1.13795  -1.13775  -1.13642
  Beta  occ. eigenvalues --   -1.13603  -1.13336  -1.13205  -1.13185  -1.13024
  Beta  occ. eigenvalues --   -1.13013  -1.12951  -1.12934  -1.12925  -1.12913
  Beta  occ. eigenvalues --   -0.20729  -0.13673  -0.12064
  Beta virt. eigenvalues --   -0.08470  -0.05395  -0.04160  -0.03597  -0.03034
  Beta virt. eigenvalues --   -0.02264  -0.02176  -0.01134  -0.00338  -0.00030
  Beta virt. eigenvalues --    0.00345   0.00754   0.00822   0.01082   0.01151

 Mulliken charges and spin densities:
               1          2
     1  Na   0.128702   0.077491
     2  Na   0.099909   0.500663
     3  Na  -0.041787  -0.025747
     4  Na  -0.204788  -0.040057
     5  Na   0.008147   0.535220
     6  Na  -0.033109  -0.022496
     7  Na   0.042926  -0.025073
 Sum of Mulliken charges =  -0.00000   1.00000

 Dipole moment (field-independent basis, Debye):
    X=              0.1560    Y=             -0.0741    Z=             -0.1117  Tot=              0.2057
 Quadrupole moment (field-independent basis, Debye-Ang):
   XX=            -58.7251   YY=            -73.8304   ZZ=            -65.6321
   XY=              0.1200   XZ=             -0.3951   YZ=              0.0379

 Normal termination of Gaussian 16 at Fri Dec  8 17:00:27 2023.
