 Gaussian 16, Revision B.01,
 Gaussian 16:  ES64L-G16RevB.01 20-Dec-2017

 -------------------------
 #P B3LYP/6-311+g(d) force
 -------------------------

 -----
 DPGEN
 -----
 Symbolic Z-matrix:
 Charge =  0 Multiplicity = 2

                         Standard orientation:
 ---------------------------------------------------------------------
 Center     Atomic      Atomic             Coordinates (Angstroms)
 Number     Number       Type             X           Y           Z
 ---------------------------------------------------------------------
      1         11           0        3.741719    1.736792    0.982924
      2         11           0       -3.926602    2.086697   -0.160607
      3         11           0        3.361044   -0.360977   -1.307579
      4         11           0       -0.674049    1.028540   -1.154869
      5         11           0       -0.286203   -2.294265   -0.846559
      6         11           0       -2.978537   -1.234987    0.756658
      7         11           0        0.762628   -0.961800    1.730032
 ---------------------------------------------------------------------

 SCF Done:  E(UB3LYP) =  -1136.11874394     A.U. after   23 cycles

 The electronic state is 2-A.
 Alpha  occ. eigenvalues --  -38.44799 -38.44704 -38.44533 -38.44469 -38.44053
 Alpha  occ. eigenvalues --  -38.43124 -38.43117  -2.20605  -2.20539  -2.20368
 Alpha  occ. eigenvalues --   -2.20319  -2.19864  -2.19042  -2.18910  -1.14286
 Alpha  occ. eigenvalues --   -1.14276  -1.14242  -1.14241  -1.14204  -1.14135
 Alpha  occ. eigenvalues --   -1.14071  -1.14047  -1.14012  -1.14006  -1.13950
 Alpha  occ. eigenvalues --   -1.13904  -1.13525  -1.13511  -1.13498  -1.12721
 Alpha  occ. eigenvalues --   -1.12714  -1.12661  -1.12580  -1.12578  -1.12550
 Alpha  occ. eigenvalues --   -0.17818  -0.13974  -0.11472  -0.10552
 Alpha virt. eigenvalues --   -0.06803  -0.05818  -0.04682  -0.03160  -0.02878
 Alpha virt. eigenvalues --   -0.02478  -0.02197  -0.01390  -0.00849  -0.00525
 Alpha virt. eigenvalues --   -0.00167   0.00058   0.00271   0.00404   0.00572

  Beta  occ. eigenvalues --  -38.44789 -38.44680 -38.44486 -38.44429 -38.44025
  Beta  occ. eigenvalues --  -38.43130 -38.43098  -2.20588  -2.20495  -2.20284
  Beta  occ. eigenvalues --   -2.20245  -2.19811  -2.19011  -2.18921  -1.14276
  Beta  occ. eigenvalues --   -1.14258  -1.14215  -1.14208  -1.14175  -1.14102
  Beta  occ. eigenvalues --   -1.14008  -1.13992  -1.13960  -1.13950  -1.13881
  Beta  occ. eigenvalues --   -1.13845  -1.13493  -1.13473  -1.13458  -1.12705
  Beta  occ. eigenvalues --   -1.12697  -1.12599  -1.12588  -1.12580  -1.12558
  Beta  occ. eigenvalues --   -0.17162  -0.13749  -0.11341
  Beta virt. eigenvalues --   -0.06958  -0.06503  -0.05568  -0.04211  -0.02897
  Beta virt. eigenvalues --   -0.02632  -0.02041  -0.01740  -0.01161  -0.00583
  Beta virt. eigenvalues --   -0.00343  -0.00063   0.00120   0.00438   0.00516

 Mulliken charges and spin densities:
               1          2
     1  Na   0.096854   0.166936
     2  Na   0.487373  -0.024365
     3  Na   0.208384  -0.036872
     4  Na  -1.051350   0.187059
     5  Na   0.436237   0.292160
     6  Na   0.072510   0.114101
     7  Na  -0.250008   0.300982
 Sum of Mulliken charges =  -0.00000   1.00000

 Dipole moment (field-independent basis, Debye):
    X=              0.4040    Y=             -0.6639    Z=             -0.0174  Tot=              0.7774
 Quadrupole moment (field-independent basis, Debye-Ang):
   XX=            -60.6087   YY=            -67.4908   ZZ=            -71.1378
   XY=              2.7321   XZ=             -3.4654   YZ=              3.7474

 Normal termination of Gaussian 16 at Thu Dec  7 16:28:18 2023.
