 Gaussian 16, Revision B.01,
 Gaussian 16:  ES64L-G16RevB.01 20-Dec-2017

 -------------------------
 #P B3LYP/6-311+g(d) force
 -------------------------

 -----
 DPGEN
 -----
 Symbolic Z-matrix:
 Charge =  0 Multiplicity = 2

                         Standard orientation:
 ---------------------------------------------------------------------
 Center     Atomic      Atomic             Coordinates (Angstroms)
 Number     Number       Type             X           Y           Z
 ---------------------------------------------------------------------
      1         11           0        0.727814   -0.427381    1.382383
      2         11           0       -2.158042   -1.471164    0.428240
      3         11           0       -0.693396    2.655551   -0.329522
      4         11           0        3.355157   -0.921452   -0.458767
      5         11           0        3.067877    2.591365   -0.032303
      6         11           0       -4.977295    0.748982   -0.353485
      7         11           0        0.677886   -3.175901   -0.636546
 ---------------------------------------------------------------------

 SCF Done:  E(UB3LYP) =  -1136.12091586     A.U. after   20 cycles

 The electronic state is 2-A.
 Alpha  occ. eigenvalues --  -38.44727 -38.44563 -38.44470 -38.44385 -38.43777
 Alpha  occ. eigenvalues --  -38.43753 -38.43516  -2.20476  -2.20467  -2.20239
 Alpha  occ. eigenvalues --   -2.20211  -2.19591  -2.19568  -2.19375  -1.14174
 Alpha  occ. eigenvalues --   -1.14169  -1.14159  -1.14135  -1.14079  -1.14075
 Alpha  occ. eigenvalues --   -1.13926  -1.13895  -1.13889  -1.13876  -1.13861
 Alpha  occ. eigenvalues --   -1.13855  -1.13299  -1.13272  -1.13216  -1.13210
 Alpha  occ. eigenvalues --   -1.13199  -1.13166  -1.13059  -1.13035  -1.12976
 Alpha  occ. eigenvalues --   -0.17321  -0.13423  -0.12746  -0.10342
 Alpha virt. eigenvalues --   -0.06517  -0.06138  -0.04501  -0.03502  -0.02647
 Alpha virt. eigenvalues --   -0.02316  -0.02094  -0.01492  -0.01096  -0.00871
 Alpha virt. eigenvalues --   -0.00269   0.00080   0.00439   0.00495   0.00606

  Beta  occ. eigenvalues --  -38.44711 -38.44534 -38.44470 -38.44386 -38.43746
  Beta  occ. eigenvalues --  -38.43669 -38.43469  -2.20442  -2.20424  -2.20241
  Beta  occ. eigenvalues --   -2.20215  -2.19585  -2.19368  -2.19287  -1.14143
  Beta  occ. eigenvalues --   -1.14139  -1.14122  -1.14109  -1.14060  -1.14041
  Beta  occ. eigenvalues --   -1.13929  -1.13894  -1.13893  -1.13864  -1.13863
  Beta  occ. eigenvalues --   -1.13841  -1.13289  -1.13265  -1.13175  -1.13074
  Beta  occ. eigenvalues --   -1.13068  -1.13042  -1.13001  -1.12975  -1.12914
  Beta  occ. eigenvalues --   -0.16913  -0.12832  -0.12239
  Beta virt. eigenvalues --   -0.06917  -0.06352  -0.06077  -0.04152  -0.02981
  Beta virt. eigenvalues --   -0.02417  -0.02031  -0.01820  -0.01236  -0.00844
  Beta virt. eigenvalues --   -0.00709   0.00009   0.00319   0.00482   0.00639

 Mulliken charges and spin densities:
               1          2
     1  Na   0.506566   0.111196
     2  Na  -0.501474  -0.018875
     3  Na  -0.294067  -0.022687
     4  Na  -0.160703   0.352524
     5  Na   0.195817   0.005580
     6  Na   0.181884   0.622311
     7  Na   0.071976  -0.050049
 Sum of Mulliken charges =  -0.00000   1.00000

 Dipole moment (field-independent basis, Debye):
    X=              1.3000    Y=             -0.0120    Z=             -0.2152  Tot=              1.3178
 Quadrupole moment (field-independent basis, Debye-Ang):
   XX=            -75.1914   YY=            -59.4916   ZZ=            -68.9123
   XY=              3.2683   XZ=              0.4074   YZ=              0.5687

 Normal termination of Gaussian 16 at Wed Nov 29 03:55:51 2023.
