 Gaussian 16, Revision B.01,
 Gaussian 16:  ES64L-G16RevB.01 20-Dec-2017

 -------------------------
 #P B3LYP/6-311+g(d) force
 -------------------------

 -----
 DPGEN
 -----
 Symbolic Z-matrix:
 Charge =  0 Multiplicity = 2

                         Standard orientation:
 ---------------------------------------------------------------------
 Center     Atomic      Atomic             Coordinates (Angstroms)
 Number     Number       Type             X           Y           Z
 ---------------------------------------------------------------------
      1         11           0       -0.588109    0.467489    1.811919
      2         11           0       -2.738271   -2.297815    0.453844
      3         11           0        2.661017    1.149679    0.741782
      4         11           0        3.464760   -1.998555   -0.182263
      5         11           0       -0.056114    2.876760   -0.689926
      6         11           0        0.362611   -0.750777   -1.644786
      7         11           0       -3.105895    0.553219   -0.490570
 ---------------------------------------------------------------------

 SCF Done:  E(UB3LYP) =  -1136.12816587     A.U. after   21 cycles

 The electronic state is 2-A.
 Alpha  occ. eigenvalues --  -38.44643 -38.44100 -38.44088 -38.43969 -38.43889
 Alpha  occ. eigenvalues --  -38.43804 -38.42903  -2.20517  -2.19930  -2.19922
 Alpha  occ. eigenvalues --   -2.19823  -2.19773  -2.19587  -2.18743  -1.14216
 Alpha  occ. eigenvalues --   -1.14185  -1.14156  -1.13625  -1.13593  -1.13583
 Alpha  occ. eigenvalues --   -1.13563  -1.13560  -1.13534  -1.13521  -1.13490
 Alpha  occ. eigenvalues --   -1.13454  -1.13444  -1.13431  -1.13364  -1.13253
 Alpha  occ. eigenvalues --   -1.13250  -1.13224  -1.12415  -1.12399  -1.12386
 Alpha  occ. eigenvalues --   -0.18072  -0.13787  -0.11700  -0.10587
 Alpha virt. eigenvalues --   -0.06291  -0.05757  -0.04465  -0.03393  -0.02803
 Alpha virt. eigenvalues --   -0.02283  -0.02045  -0.01348  -0.00812  -0.00237
 Alpha virt. eigenvalues --   -0.00096   0.00250   0.00519   0.00615   0.00730

  Beta  occ. eigenvalues --  -38.44633 -38.44080 -38.44037 -38.43949 -38.43826
  Beta  occ. eigenvalues --  -38.43810 -38.42890  -2.20502  -2.19910  -2.19815
  Beta  occ. eigenvalues --   -2.19787  -2.19657  -2.19599  -2.18720  -1.14205
  Beta  occ. eigenvalues --   -1.14172  -1.14126  -1.13587  -1.13555  -1.13544
  Beta  occ. eigenvalues --   -1.13538  -1.13502  -1.13484  -1.13461  -1.13446
  Beta  occ. eigenvalues --   -1.13425  -1.13376  -1.13347  -1.13279  -1.13263
  Beta  occ. eigenvalues --   -1.13251  -1.13231  -1.12401  -1.12385  -1.12349
  Beta  occ. eigenvalues --   -0.17368  -0.13603  -0.11515
  Beta virt. eigenvalues --   -0.06819  -0.06109  -0.05640  -0.04203  -0.02882
  Beta virt. eigenvalues --   -0.02213  -0.01919  -0.01555  -0.01078  -0.00780
  Beta virt. eigenvalues --   -0.00170   0.00060   0.00293   0.00647   0.00714

 Mulliken charges and spin densities:
               1          2
     1  Na  -0.116720   0.304421
     2  Na   0.054489   0.008176
     3  Na   0.266787   0.108681
     4  Na   0.016268  -0.095563
     5  Na  -0.160588   0.105125
     6  Na  -0.388014   0.425945
     7  Na   0.327777   0.143215
 Sum of Mulliken charges =  -0.00000   1.00000

 Dipole moment (field-independent basis, Debye):
    X=             -0.4794    Y=             -0.1817    Z=              0.0120  Tot=              0.5128
 Quadrupole moment (field-independent basis, Debye-Ang):
   XX=            -56.4643   YY=            -64.3888   ZZ=            -74.3489
   XY=              0.2243   XZ=              2.1158   YZ=             -2.1915

 Normal termination of Gaussian 16 at Thu Dec  7 22:53:15 2023.
