 Gaussian 16, Revision B.01,
 Gaussian 16:  ES64L-G16RevB.01 20-Dec-2017

 -------------------------
 #P B3LYP/6-311+g(d) force
 -------------------------

 -----
 DPGEN
 -----
 Symbolic Z-matrix:
 Charge =  0 Multiplicity = 2

                         Standard orientation:
 ---------------------------------------------------------------------
 Center     Atomic      Atomic             Coordinates (Angstroms)
 Number     Number       Type             X           Y           Z
 ---------------------------------------------------------------------
      1         11           0        3.474593   -2.213736   -0.942078
      2         11           0       -0.425677   -2.911677   -0.137294
      3         11           0        4.086156    0.698178    0.717098
      4         11           0        1.052627    2.949264    0.580260
      5         11           0       -1.683485    3.376375   -0.654456
      6         11           0       -3.248824   -0.138648   -1.060694
      7         11           0       -3.255390   -1.759757    1.497164
 ---------------------------------------------------------------------

 SCF Done:  E(UB3LYP) =  -1136.10810659     A.U. after   24 cycles

 The electronic state is 2-A.
 Alpha  occ. eigenvalues --  -38.46037 -38.45304 -38.44621 -38.44417 -38.44156
 Alpha  occ. eigenvalues --  -38.43612 -38.43160  -2.21839  -2.21072  -2.20479
 Alpha  occ. eigenvalues --   -2.20211  -2.19914  -2.19406  -2.18991  -1.15553
 Alpha  occ. eigenvalues --   -1.15496  -1.15459  -1.14771  -1.14751  -1.14660
 Alpha  occ. eigenvalues --   -1.14157  -1.14115  -1.14093  -1.13898  -1.13887
 Alpha  occ. eigenvalues --   -1.13864  -1.13596  -1.13580  -1.13555  -1.13071
 Alpha  occ. eigenvalues --   -1.13058  -1.13032  -1.12665  -1.12635  -1.12622
 Alpha  occ. eigenvalues --   -0.16247  -0.13816  -0.12996  -0.10197
 Alpha virt. eigenvalues --   -0.07472  -0.05800  -0.04101  -0.03874  -0.03186
 Alpha virt. eigenvalues --   -0.02482  -0.01834  -0.01562  -0.01095  -0.00972
 Alpha virt. eigenvalues --   -0.00775  -0.00251   0.00174   0.00406   0.00469

  Beta  occ. eigenvalues --  -38.46023 -38.45259 -38.44581 -38.44415 -38.44153
  Beta  occ. eigenvalues --  -38.43566 -38.43136  -2.21818  -2.20991  -2.20406
  Beta  occ. eigenvalues --   -2.20209  -2.19910  -2.19320  -2.18944  -1.15528
  Beta  occ. eigenvalues --   -1.15486  -1.15429  -1.14716  -1.14699  -1.14584
  Beta  occ. eigenvalues --   -1.14102  -1.14064  -1.14048  -1.13895  -1.13886
  Beta  occ. eigenvalues --   -1.13843  -1.13596  -1.13581  -1.13535  -1.13013
  Beta  occ. eigenvalues --   -1.13000  -1.12973  -1.12642  -1.12602  -1.12587
  Beta  occ. eigenvalues --   -0.15831  -0.13389  -0.12599
  Beta virt. eigenvalues --   -0.07408  -0.06821  -0.05310  -0.03826  -0.03528
  Beta virt. eigenvalues --   -0.02836  -0.02311  -0.01521  -0.01374  -0.00980
  Beta virt. eigenvalues --   -0.00776  -0.00509   0.00086   0.00265   0.00534

 Mulliken charges and spin densities:
               1          2
     1  Na  -0.040536   0.031975
     2  Na  -0.413307   0.268572
     3  Na  -0.146343   0.150474
     4  Na  -0.477676   0.025211
     5  Na   0.596539   0.219710
     6  Na  -0.038132   0.063299
     7  Na   0.519454   0.240758
 Sum of Mulliken charges =  -0.00000   1.00000

 Dipole moment (field-independent basis, Debye):
    X=             -2.0602    Y=             -1.0801    Z=              0.1081  Tot=              2.3287
 Quadrupole moment (field-independent basis, Debye-Ang):
   XX=            -62.7239   YY=            -73.1972   ZZ=            -66.7721
   XY=              0.0512   XZ=              0.3352   YZ=             -0.6858

 Normal termination of Gaussian 16 at Sun Dec  3 20:52:24 2023.
