 Gaussian 16, Revision B.01,
 Gaussian 16:  ES64L-G16RevB.01 20-Dec-2017

 -------------------------
 #P B3LYP/6-311+g(d) force
 -------------------------

 -----
 DPGEN
 -----
 Symbolic Z-matrix:
 Charge =  0 Multiplicity = 2

                         Standard orientation:
 ---------------------------------------------------------------------
 Center     Atomic      Atomic             Coordinates (Angstroms)
 Number     Number       Type             X           Y           Z
 ---------------------------------------------------------------------
      1         11           0       -2.321261    1.928368   -0.154830
      2         11           0       -2.787530   -1.484085    0.149476
      3         11           0       -0.074917    0.393612    1.904383
      4         11           0        0.069327    0.072950   -1.758299
      5         11           0        0.449826   -2.628490   -0.195299
      6         11           0        1.607422    2.555651   -0.167527
      7         11           0        3.057133   -0.838008    0.222095
 ---------------------------------------------------------------------

 SCF Done:  E(UB3LYP) =  -1136.13833808     A.U. after   19 cycles

 The electronic state is 2-A.
 Alpha  occ. eigenvalues --  -38.44057 -38.43912 -38.43830 -38.43604 -38.43434
 Alpha  occ. eigenvalues --  -38.43209 -38.42977  -2.19896  -2.19756  -2.19660
 Alpha  occ. eigenvalues --   -2.19442  -2.19348  -2.19183  -2.18886  -1.13579
 Alpha  occ. eigenvalues --   -1.13558  -1.13534  -1.13441  -1.13435  -1.13389
 Alpha  occ. eigenvalues --   -1.13329  -1.13319  -1.13299  -1.13136  -1.13121
 Alpha  occ. eigenvalues --   -1.13066  -1.13021  -1.12975  -1.12960  -1.12882
 Alpha  occ. eigenvalues --   -1.12828  -1.12791  -1.12566  -1.12537  -1.12513
 Alpha  occ. eigenvalues --   -0.18785  -0.13092  -0.12449  -0.10713
 Alpha virt. eigenvalues --   -0.05658  -0.05410  -0.04405  -0.03201  -0.02888
 Alpha virt. eigenvalues --   -0.02491  -0.01575  -0.01223  -0.00364  -0.00167
 Alpha virt. eigenvalues --    0.00003   0.00362   0.00783   0.00855   0.00928

  Beta  occ. eigenvalues --  -38.44054 -38.43906 -38.43828 -38.43598 -38.43353
  Beta  occ. eigenvalues --  -38.43130 -38.42970  -2.19892  -2.19749  -2.19659
  Beta  occ. eigenvalues --   -2.19435  -2.19199  -2.19039  -2.18876  -1.13579
  Beta  occ. eigenvalues --   -1.13536  -1.13532  -1.13439  -1.13404  -1.13387
  Beta  occ. eigenvalues --   -1.13325  -1.13305  -1.13299  -1.13126  -1.13090
  Beta  occ. eigenvalues --   -1.13064  -1.12924  -1.12871  -1.12853  -1.12786
  Beta  occ. eigenvalues --   -1.12729  -1.12690  -1.12549  -1.12513  -1.12500
  Beta  occ. eigenvalues --   -0.18047  -0.12867  -0.12192
  Beta virt. eigenvalues --   -0.06807  -0.05638  -0.05376  -0.04391  -0.02416
  Beta virt. eigenvalues --   -0.02095  -0.01482  -0.01433  -0.01162  -0.00433
  Beta virt. eigenvalues --   -0.00195   0.00129   0.00378   0.00818   0.00865

 Mulliken charges and spin densities:
               1          2
     1  Na   0.216633  -0.119741
     2  Na   0.026144  -0.045000
     3  Na  -0.439972   0.735218
     4  Na  -0.214706   0.628998
     5  Na   0.203586  -0.031780
     6  Na   0.143145  -0.137752
     7  Na   0.065171  -0.029944
 Sum of Mulliken charges =  -0.00000   1.00000

 Dipole moment (field-independent basis, Debye):
    X=             -0.0336    Y=              0.2913    Z=              0.1281  Tot=              0.3200
 Quadrupole moment (field-independent basis, Debye-Ang):
   XX=            -54.8629   YY=            -63.6815   ZZ=            -74.5355
   XY=              0.3434   XZ=              0.4442   YZ=             -0.9041

 Normal termination of Gaussian 16 at Thu Dec  7 12:31:47 2023.
