 Gaussian 16, Revision B.01,
 Gaussian 16:  ES64L-G16RevB.01 20-Dec-2017

 -------------------------
 #P B3LYP/6-311+g(d) force
 -------------------------

 -----
 DPGEN
 -----
 Symbolic Z-matrix:
 Charge =  0 Multiplicity = 2

                         Standard orientation:
 ---------------------------------------------------------------------
 Center     Atomic      Atomic             Coordinates (Angstroms)
 Number     Number       Type             X           Y           Z
 ---------------------------------------------------------------------
      1         11           0       -2.082352   -1.232989   -1.324224
      2         11           0       -2.232978    1.769841    0.139214
      3         11           0       -4.920477    0.108434   -0.471276
      4         11           0       -1.170226   -1.083064    2.001359
      5         11           0        1.036940    0.331545    0.218480
      6         11           0        4.741393   -1.625374   -0.370267
      7         11           0        4.627702    1.731607   -0.193286
 ---------------------------------------------------------------------

 SCF Done:  E(UB3LYP) =  -1136.11142509     A.U. after   24 cycles

 The electronic state is 2-A.
 Alpha  occ. eigenvalues --  -38.45238 -38.45016 -38.44229 -38.44121 -38.43263
 Alpha  occ. eigenvalues --  -38.42943 -38.42535  -2.21000  -2.20784  -2.20125
 Alpha  occ. eigenvalues --   -2.19980  -2.19190  -2.18820  -2.18389  -1.14668
 Alpha  occ. eigenvalues --   -1.14658  -1.14630  -1.14456  -1.14446  -1.14405
 Alpha  occ. eigenvalues --   -1.13816  -1.13797  -1.13725  -1.13648  -1.13630
 Alpha  occ. eigenvalues --   -1.13618  -1.12886  -1.12849  -1.12780  -1.12528
 Alpha  occ. eigenvalues --   -1.12495  -1.12425  -1.12057  -1.12044  -1.12037
 Alpha  occ. eigenvalues --   -0.17379  -0.14266  -0.11122  -0.09957
 Alpha virt. eigenvalues --   -0.06760  -0.06402  -0.04564  -0.03003  -0.02522
 Alpha virt. eigenvalues --   -0.02314  -0.01836  -0.01587  -0.01265  -0.00895
 Alpha virt. eigenvalues --   -0.00437   0.00114   0.00247   0.00330   0.00442

  Beta  occ. eigenvalues --  -38.45222 -38.45018 -38.44184 -38.44107 -38.43194
  Beta  occ. eigenvalues --  -38.42926 -38.42533  -2.20968  -2.20787  -2.20042
  Beta  occ. eigenvalues --   -2.19957  -2.19061  -2.18792  -2.18386  -1.14646
  Beta  occ. eigenvalues --   -1.14636  -1.14610  -1.14459  -1.14444  -1.14405
  Beta  occ. eigenvalues --   -1.13750  -1.13740  -1.13664  -1.13634  -1.13607
  Beta  occ. eigenvalues --   -1.13583  -1.12799  -1.12762  -1.12681  -1.12514
  Beta  occ. eigenvalues --   -1.12440  -1.12409  -1.12055  -1.12041  -1.12023
  Beta  occ. eigenvalues --   -0.16736  -0.14118  -0.10940
  Beta virt. eigenvalues --   -0.06769  -0.06362  -0.05656  -0.04489  -0.02974
  Beta virt. eigenvalues --   -0.02253  -0.01669  -0.01531  -0.01498  -0.00892
  Beta virt. eigenvalues --   -0.00537  -0.00191   0.00242   0.00360   0.00443

 Mulliken charges and spin densities:
               1          2
     1  Na   0.196951   0.297787
     2  Na   0.198553   0.365351
     3  Na   0.190082  -0.014778
     4  Na   0.473840   0.118799
     5  Na  -1.427311   0.210393
     6  Na   0.229045   0.057871
     7  Na   0.138840  -0.035423
 Sum of Mulliken charges =  -0.00000   1.00000

 Dipole moment (field-independent basis, Debye):
    X=              2.1789    Y=             -0.6360    Z=              0.4551  Tot=              2.3150
 Quadrupole moment (field-independent basis, Debye-Ang):
   XX=            -65.3203   YY=            -66.7278   ZZ=            -66.4643
   XY=              1.7860   XZ=             -5.8951   YZ=              0.0943

 Normal termination of Gaussian 16 at Sat Dec  9 05:44:59 2023.
