 Gaussian 16, Revision B.01,
 Gaussian 16:  ES64L-G16RevB.01 20-Dec-2017

 -------------------------
 #P B3LYP/6-311+g(d) force
 -------------------------

 -----
 DPGEN
 -----
 Symbolic Z-matrix:
 Charge =  0 Multiplicity = 2

                         Standard orientation:
 ---------------------------------------------------------------------
 Center     Atomic      Atomic             Coordinates (Angstroms)
 Number     Number       Type             X           Y           Z
 ---------------------------------------------------------------------
      1         11           0        2.118076   -2.513976    0.332229
      2         11           0       -0.315835   -1.402773    1.807618
      3         11           0        1.315406    2.806689    0.256307
      4         11           0       -2.166494    1.939119    0.980208
      5         11           0       -4.378237   -1.061798   -0.908707
      6         11           0        3.828079    0.197543   -0.783708
      7         11           0       -0.400995    0.035196   -1.683947
 ---------------------------------------------------------------------

 SCF Done:  E(UB3LYP) =  -1136.11616324     A.U. after   22 cycles

 The electronic state is 2-A.
 Alpha  occ. eigenvalues --  -38.46258 -38.44845 -38.44438 -38.44341 -38.43822
 Alpha  occ. eigenvalues --  -38.43360 -38.43294  -2.22007  -2.20603  -2.20227
 Alpha  occ. eigenvalues --   -2.20129  -2.19669  -2.19143  -2.19135  -1.15706
 Alpha  occ. eigenvalues --   -1.15670  -1.15621  -1.14256  -1.14254  -1.14206
 Alpha  occ. eigenvalues --   -1.13908  -1.13887  -1.13847  -1.13801  -1.13778
 Alpha  occ. eigenvalues --   -1.13758  -1.13364  -1.13307  -1.13295  -1.12825
 Alpha  occ. eigenvalues --   -1.12820  -1.12807  -1.12797  -1.12781  -1.12772
 Alpha  occ. eigenvalues --   -0.17159  -0.13403  -0.11840  -0.10866
 Alpha virt. eigenvalues --   -0.07015  -0.05556  -0.04807  -0.03159  -0.02995
 Alpha virt. eigenvalues --   -0.02613  -0.02287  -0.01557  -0.00874  -0.00541
 Alpha virt. eigenvalues --   -0.00253  -0.00117   0.00266   0.00355   0.00660

  Beta  occ. eigenvalues --  -38.46252 -38.44762 -38.44416 -38.44311 -38.43761
  Beta  occ. eigenvalues --  -38.43370 -38.43291  -2.21995  -2.20447  -2.20188
  Beta  occ. eigenvalues --   -2.20072  -2.19556  -2.19155  -2.19142  -1.15691
  Beta  occ. eigenvalues --   -1.15665  -1.15612  -1.14149  -1.14145  -1.14104
  Beta  occ. eigenvalues --   -1.13872  -1.13863  -1.13814  -1.13761  -1.13742
  Beta  occ. eigenvalues --   -1.13722  -1.13291  -1.13229  -1.13216  -1.12839
  Beta  occ. eigenvalues --   -1.12822  -1.12809  -1.12800  -1.12770  -1.12764
  Beta  occ. eigenvalues --   -0.16741  -0.12866  -0.11461
  Beta virt. eigenvalues --   -0.07539  -0.06668  -0.05340  -0.04397  -0.02919
  Beta virt. eigenvalues --   -0.02628  -0.02244  -0.01771  -0.01419  -0.00686
  Beta virt. eigenvalues --   -0.00274  -0.00201   0.00039   0.00422   0.00513

 Mulliken charges and spin densities:
               1          2
     1  Na   0.252062  -0.059423
     2  Na  -0.173191   0.268741
     3  Na  -0.055983  -0.088309
     4  Na   0.254009   0.128955
     5  Na   0.052406   0.441691
     6  Na  -0.045780   0.190807
     7  Na  -0.283522   0.117538
 Sum of Mulliken charges =  -0.00000   1.00000

 Dipole moment (field-independent basis, Debye):
    X=             -0.3818    Y=              0.1728    Z=             -0.0494  Tot=              0.4220
 Quadrupole moment (field-independent basis, Debye-Ang):
   XX=            -59.0832   YY=            -72.8413   ZZ=            -68.8594
   XY=             -1.8342   XZ=             -2.9499   YZ=              3.6264

 Normal termination of Gaussian 16 at Thu Dec  7 07:09:44 2023.
