 Gaussian 16, Revision B.01,
 Gaussian 16:  ES64L-G16RevB.01 20-Dec-2017

 -------------------------
 #P B3LYP/6-311+g(d) force
 -------------------------

 -----
 DPGEN
 -----
 Symbolic Z-matrix:
 Charge =  0 Multiplicity = 2

                         Standard orientation:
 ---------------------------------------------------------------------
 Center     Atomic      Atomic             Coordinates (Angstroms)
 Number     Number       Type             X           Y           Z
 ---------------------------------------------------------------------
      1         11           0        1.820610    3.337170   -0.687726
      2         11           0        3.156061   -2.890538    0.640492
      3         11           0        3.513791    0.474884   -0.095450
      4         11           0       -2.384636   -2.605552   -0.625232
      5         11           0       -4.680755    0.314132    0.136758
      6         11           0       -1.403723    2.412723    0.919654
      7         11           0       -0.021349   -1.042818   -0.288495
 ---------------------------------------------------------------------

 SCF Done:  E(UB3LYP) =  -1136.11249168     A.U. after   25 cycles

 The electronic state is 2-A.
 Alpha  occ. eigenvalues --  -38.45346 -38.44726 -38.44538 -38.44212 -38.44100
 Alpha  occ. eigenvalues --  -38.43940 -38.43878  -2.21079  -2.20495  -2.20346
 Alpha  occ. eigenvalues --   -2.20084  -2.19962  -2.19734  -2.19671  -1.14784
 Alpha  occ. eigenvalues --   -1.14768  -1.14679  -1.14160  -1.14136  -1.14111
 Alpha  occ. eigenvalues --   -1.14036  -1.14019  -1.13974  -1.13946  -1.13766
 Alpha  occ. eigenvalues --   -1.13698  -1.13586  -1.13549  -1.13525  -1.13402
 Alpha  occ. eigenvalues --   -1.13396  -1.13361  -1.13333  -1.13318  -1.13295
 Alpha  occ. eigenvalues --   -0.16474  -0.13871  -0.12722  -0.10382
 Alpha virt. eigenvalues --   -0.07328  -0.05350  -0.04200  -0.03584  -0.03106
 Alpha virt. eigenvalues --   -0.02789  -0.02070  -0.01432  -0.01270  -0.00541
 Alpha virt. eigenvalues --   -0.00371  -0.00121   0.00241   0.00495   0.00532

  Beta  occ. eigenvalues --  -38.45345 -38.44656 -38.44528 -38.44182 -38.44047
  Beta  occ. eigenvalues --  -38.43923 -38.43838  -2.21079  -2.20364  -2.20331
  Beta  occ. eigenvalues --   -2.20033  -2.19868  -2.19701  -2.19596  -1.14786
  Beta  occ. eigenvalues --   -1.14771  -1.14660  -1.14071  -1.14038  -1.14029
  Beta  occ. eigenvalues --   -1.14026  -1.14012  -1.13938  -1.13873  -1.13732
  Beta  occ. eigenvalues --   -1.13674  -1.13524  -1.13484  -1.13462  -1.13380
  Beta  occ. eigenvalues --   -1.13374  -1.13341  -1.13282  -1.13260  -1.13247
  Beta  occ. eigenvalues --   -0.16134  -0.13208  -0.12164
  Beta virt. eigenvalues --   -0.07331  -0.06956  -0.05171  -0.03975  -0.03158
  Beta virt. eigenvalues --   -0.02673  -0.02553  -0.01791  -0.01248  -0.01041
  Beta virt. eigenvalues --   -0.00322  -0.00122   0.00115   0.00423   0.00559

 Mulliken charges and spin densities:
               1          2
     1  Na  -0.006040   0.019802
     2  Na   0.651295   0.233172
     3  Na   1.062859   0.246709
     4  Na   0.968118  -0.195089
     5  Na  -0.117234   0.339117
     6  Na   0.345441   0.125849
     7  Na  -2.904439   0.230440
 Sum of Mulliken charges =  -0.00000   1.00000

 Dipole moment (field-independent basis, Debye):
    X=             -0.0220    Y=             -0.0946    Z=             -0.0303  Tot=              0.1017
 Quadrupole moment (field-independent basis, Debye-Ang):
   XX=            -62.2521   YY=            -63.4469   ZZ=            -72.1618
   XY=              6.6346   XZ=              0.3263   YZ=             -1.5413

 Normal termination of Gaussian 16 at Mon Dec  4 05:00:42 2023.
