 Gaussian 16, Revision B.01,
 Gaussian 16:  ES64L-G16RevB.01 20-Dec-2017

 -------------------------
 #P B3LYP/6-311+g(d) force
 -------------------------

 -----
 DPGEN
 -----
 Symbolic Z-matrix:
 Charge =  0 Multiplicity = 2

                         Standard orientation:
 ---------------------------------------------------------------------
 Center     Atomic      Atomic             Coordinates (Angstroms)
 Number     Number       Type             X           Y           Z
 ---------------------------------------------------------------------
      1         11           0       -3.136770   -0.467633    0.163254
      2         11           0       -1.298603    2.530942   -0.375088
      3         11           0       -0.096078   -0.206789   -1.669720
      4         11           0        2.024601    2.115070   -0.001617
      5         11           0        2.886564   -1.074678    0.053000
      6         11           0       -0.164510   -0.069294    2.144706
      7         11           0       -0.215204   -2.827618   -0.314534
 ---------------------------------------------------------------------

 SCF Done:  E(UB3LYP) =  -1136.13819566     A.U. after   18 cycles

 The electronic state is 2-A.
 Alpha  occ. eigenvalues --  -38.44060 -38.43894 -38.43786 -38.43399 -38.43328
 Alpha  occ. eigenvalues --  -38.43281 -38.43268  -2.19881  -2.19764  -2.19628
 Alpha  occ. eigenvalues --   -2.19290  -2.19267  -2.19192  -2.19151  -1.13556
 Alpha  occ. eigenvalues --   -1.13544  -1.13522  -1.13425  -1.13394  -1.13381
 Alpha  occ. eigenvalues --   -1.13308  -1.13290  -1.13273  -1.13147  -1.12969
 Alpha  occ. eigenvalues --   -1.12923  -1.12902  -1.12873  -1.12871  -1.12858
 Alpha  occ. eigenvalues --   -1.12847  -1.12838  -1.12805  -1.12795  -1.12762
 Alpha  occ. eigenvalues --   -0.18775  -0.12933  -0.12541  -0.11006
 Alpha virt. eigenvalues --   -0.05624  -0.04915  -0.04647  -0.03230  -0.02987
 Alpha virt. eigenvalues --   -0.02808  -0.01509  -0.00992  -0.00265  -0.00179
 Alpha virt. eigenvalues --   -0.00021   0.00364   0.00839   0.00901   0.00936

  Beta  occ. eigenvalues --  -38.44056 -38.43796 -38.43784 -38.43388 -38.43326
  Beta  occ. eigenvalues --  -38.43272 -38.43201  -2.19877  -2.19627  -2.19584
  Beta  occ. eigenvalues --   -2.19267  -2.19190  -2.19153  -2.19137  -1.13544
  Beta  occ. eigenvalues --   -1.13527  -1.13524  -1.13314  -1.13303  -1.13280
  Beta  occ. eigenvalues --   -1.13268  -1.13267  -1.13246  -1.13099  -1.12916
  Beta  occ. eigenvalues --   -1.12893  -1.12877  -1.12857  -1.12854  -1.12828
  Beta  occ. eigenvalues --   -1.12818  -1.12779  -1.12778  -1.12757  -1.12749
  Beta  occ. eigenvalues --   -0.18038  -0.12717  -0.12274
  Beta virt. eigenvalues --   -0.07059  -0.05576  -0.04936  -0.04593  -0.02442
  Beta virt. eigenvalues --   -0.02194  -0.01715  -0.01413  -0.00923  -0.00319
  Beta virt. eigenvalues --   -0.00225   0.00114   0.00384   0.00878   0.00898

 Mulliken charges and spin densities:
               1          2
     1  Na   0.174761  -0.023750
     2  Na   0.185857  -0.025799
     3  Na  -0.244604   0.390107
     4  Na   0.060310  -0.030217
     5  Na   0.114586  -0.030491
     6  Na  -0.604872   0.775674
     7  Na   0.313962  -0.055523
 Sum of Mulliken charges =  -0.00000   1.00000

 Dipole moment (field-independent basis, Debye):
    X=             -0.1812    Y=             -0.1551    Z=              0.2768  Tot=              0.3654
 Quadrupole moment (field-independent basis, Debye-Ang):
   XX=            -56.9832   YY=            -63.9799   ZZ=            -73.1707
   XY=             -0.0678   XZ=              0.1530   YZ=             -0.4301

 Normal termination of Gaussian 16 at Fri Dec  8 04:32:47 2023.
