 Gaussian 16, Revision B.01,
 Gaussian 16:  ES64L-G16RevB.01 20-Dec-2017

 -------------------------
 #P B3LYP/6-311+g(d) force
 -------------------------

 -----
 DPGEN
 -----
 Symbolic Z-matrix:
 Charge =  0 Multiplicity = 2

                         Standard orientation:
 ---------------------------------------------------------------------
 Center     Atomic      Atomic             Coordinates (Angstroms)
 Number     Number       Type             X           Y           Z
 ---------------------------------------------------------------------
      1         11           0       -1.365178   -0.259803   -1.569028
      2         11           0        0.467464   -0.624436    1.823548
      3         11           0        3.764655   -0.092771    0.616254
      4         11           0        0.712871   -2.340982   -0.924707
      5         11           0       -3.446911   -1.029898    0.674266
      6         11           0       -1.590867    2.602224    0.467941
      7         11           0        1.457965    1.745665   -1.088273
 ---------------------------------------------------------------------

 SCF Done:  E(UB3LYP) =  -1136.12493936     A.U. after   21 cycles

 The electronic state is 2-A.
 Alpha  occ. eigenvalues --  -38.44942 -38.44810 -38.44462 -38.43496 -38.43240
 Alpha  occ. eigenvalues --  -38.43214 -38.43112  -2.20734  -2.20603  -2.20312
 Alpha  occ. eigenvalues --   -2.19378  -2.19199  -2.19043  -2.18966  -1.14430
 Alpha  occ. eigenvalues --   -1.14372  -1.14358  -1.14275  -1.14262  -1.14230
 Alpha  occ. eigenvalues --   -1.14012  -1.13967  -1.13914  -1.13158  -1.13035
 Alpha  occ. eigenvalues --   -1.12971  -1.12875  -1.12843  -1.12794  -1.12724
 Alpha  occ. eigenvalues --   -1.12703  -1.12681  -1.12647  -1.12628  -1.12584
 Alpha  occ. eigenvalues --   -0.18259  -0.13394  -0.11532  -0.11081
 Alpha virt. eigenvalues --   -0.06810  -0.04846  -0.04216  -0.03360  -0.02871
 Alpha virt. eigenvalues --   -0.02521  -0.02357  -0.00962  -0.00693  -0.00118
 Alpha virt. eigenvalues --    0.00127   0.00206   0.00298   0.00786   0.00835

  Beta  occ. eigenvalues --  -38.44921 -38.44798 -38.44417 -38.43458 -38.43239
  Beta  occ. eigenvalues --  -38.43159 -38.43090  -2.20695  -2.20581  -2.20228
  Beta  occ. eigenvalues --   -2.19313  -2.19103  -2.19042  -2.18928  -1.14404
  Beta  occ. eigenvalues --   -1.14342  -1.14329  -1.14255  -1.14244  -1.14217
  Beta  occ. eigenvalues --   -1.13952  -1.13910  -1.13848  -1.13094  -1.12975
  Beta  occ. eigenvalues --   -1.12931  -1.12806  -1.12763  -1.12738  -1.12720
  Beta  occ. eigenvalues --   -1.12685  -1.12673  -1.12618  -1.12585  -1.12565
  Beta  occ. eigenvalues --   -0.17537  -0.13142  -0.11320
  Beta virt. eigenvalues --   -0.07285  -0.06625  -0.04705  -0.03840  -0.03070
  Beta virt. eigenvalues --   -0.02397  -0.02054  -0.01608  -0.00868  -0.00456
  Beta virt. eigenvalues --   -0.00024   0.00137   0.00233   0.00425   0.00831

 Mulliken charges and spin densities:
               1          2
     1  Na   0.585292   0.056712
     2  Na  -0.349582   0.457609
     3  Na   0.428121   0.025800
     4  Na  -0.157433   0.065942
     5  Na   0.011881   0.224967
     6  Na  -0.119296   0.114308
     7  Na  -0.398982   0.054663
 Sum of Mulliken charges =  -0.00000   1.00000

 Dipole moment (field-independent basis, Debye):
    X=              0.2240    Y=             -0.3995    Z=              0.6164  Tot=              0.7680
 Quadrupole moment (field-independent basis, Debye-Ang):
   XX=            -49.8699   YY=            -73.0952   ZZ=            -70.0019
   XY=              0.1985   XZ=             -2.1623   YZ=              0.9154

 Normal termination of Gaussian 16 at Tue Dec  5 22:14:10 2023.
