 Gaussian 16, Revision B.01,
 Gaussian 16:  ES64L-G16RevB.01 20-Dec-2017

 -------------------------
 #P B3LYP/6-311+g(d) force
 -------------------------

 -----
 DPGEN
 -----
 Symbolic Z-matrix:
 Charge =  0 Multiplicity = 2

                         Standard orientation:
 ---------------------------------------------------------------------
 Center     Atomic      Atomic             Coordinates (Angstroms)
 Number     Number       Type             X           Y           Z
 ---------------------------------------------------------------------
      1         11           0        0.042836   -0.013401    1.940646
      2         11           0        3.131406    1.048618    0.226043
      3         11           0        2.044513   -1.960720   -0.066364
      4         11           0       -0.592751    2.891414   -0.492108
      5         11           0       -1.489583   -2.535869   -0.410803
      6         11           0       -2.982932    0.441915    0.615913
      7         11           0       -0.153489    0.128042   -1.813328
 ---------------------------------------------------------------------

 SCF Done:  E(UB3LYP) =  -1136.13707127     A.U. after   19 cycles

 The electronic state is 2-A.
 Alpha  occ. eigenvalues --  -38.44121 -38.44006 -38.43876 -38.43439 -38.43437
 Alpha  occ. eigenvalues --  -38.43265 -38.43114  -2.19933  -2.19859  -2.19780
 Alpha  occ. eigenvalues --   -2.19401  -2.19319  -2.19110  -2.18974  -1.13615
 Alpha  occ. eigenvalues --   -1.13600  -1.13568  -1.13564  -1.13513  -1.13486
 Alpha  occ. eigenvalues --   -1.13451  -1.13411  -1.13391  -1.13099  -1.13073
 Alpha  occ. eigenvalues --   -1.13029  -1.12994  -1.12982  -1.12942  -1.12790
 Alpha  occ. eigenvalues --   -1.12751  -1.12730  -1.12656  -1.12623  -1.12611
 Alpha  occ. eigenvalues --   -0.18672  -0.13155  -0.12219  -0.11115
 Alpha virt. eigenvalues --   -0.05692  -0.04915  -0.04528  -0.03405  -0.02948
 Alpha virt. eigenvalues --   -0.02762  -0.01586  -0.01023  -0.00347  -0.00114
 Alpha virt. eigenvalues --    0.00012   0.00359   0.00826   0.00883   0.00914

  Beta  occ. eigenvalues --  -38.44120 -38.43988 -38.43798 -38.43433 -38.43359
  Beta  occ. eigenvalues --  -38.43252 -38.43106  -2.19933  -2.19828  -2.19637
  Beta  occ. eigenvalues --   -2.19314  -2.19256  -2.19091  -2.18963  -1.13618
  Beta  occ. eigenvalues --   -1.13587  -1.13566  -1.13524  -1.13485  -1.13466
  Beta  occ. eigenvalues --   -1.13357  -1.13316  -1.13285  -1.13009  -1.13003
  Beta  occ. eigenvalues --   -1.12977  -1.12958  -1.12931  -1.12915  -1.12754
  Beta  occ. eigenvalues --   -1.12730  -1.12719  -1.12639  -1.12614  -1.12593
  Beta  occ. eigenvalues --   -0.17943  -0.12908  -0.11933
  Beta virt. eigenvalues --   -0.07213  -0.05609  -0.04914  -0.04463  -0.02651
  Beta virt. eigenvalues --   -0.02201  -0.01740  -0.01453  -0.00944  -0.00334
  Beta virt. eigenvalues --   -0.00147   0.00109   0.00386   0.00867   0.00893

 Mulliken charges and spin densities:
               1          2
     1  Na  -0.236364   0.559268
     2  Na  -0.010482  -0.080063
     3  Na   0.094893  -0.037809
     4  Na  -0.004267  -0.072269
     5  Na   0.105401  -0.028639
     6  Na   0.167257   0.101101
     7  Na  -0.116439   0.558411
 Sum of Mulliken charges =  -0.00000   1.00000

 Dipole moment (field-independent basis, Debye):
    X=              0.1223    Y=              0.1454    Z=              0.2256  Tot=              0.2950
 Quadrupole moment (field-independent basis, Debye-Ang):
   XX=            -56.9277   YY=            -64.6550   ZZ=            -72.6992
   XY=              1.0394   XZ=             -0.6611   YZ=              0.6872

 Normal termination of Gaussian 16 at Fri Dec  8 04:12:26 2023.
