 Gaussian 16, Revision B.01,
 Gaussian 16:  ES64L-G16RevB.01 20-Dec-2017

 -------------------------
 #P B3LYP/6-311+g(d) force
 -------------------------

 -----
 DPGEN
 -----
 Symbolic Z-matrix:
 Charge =  0 Multiplicity = 2

                         Standard orientation:
 ---------------------------------------------------------------------
 Center     Atomic      Atomic             Coordinates (Angstroms)
 Number     Number       Type             X           Y           Z
 ---------------------------------------------------------------------
      1         11           0       -3.924590   -0.704976   -0.619066
      2         11           0       -1.560883    2.305079    0.419513
      3         11           0        1.973436    1.636114   -1.093615
      4         11           0        2.800029   -1.652654   -0.556323
      5         11           0        1.852531    0.447514    1.643369
      6         11           0       -0.234319   -0.654392   -1.364035
      7         11           0       -0.906205   -1.376685    1.570157
 ---------------------------------------------------------------------

 SCF Done:  E(UB3LYP) =  -1136.12181780     A.U. after   24 cycles

 The electronic state is 2-A.
 Alpha  occ. eigenvalues --  -38.45146 -38.43980 -38.43851 -38.43847 -38.43735
 Alpha  occ. eigenvalues --  -38.43328 -38.43296  -2.20907  -2.19949  -2.19820
 Alpha  occ. eigenvalues --   -2.19730  -2.19618  -2.19260  -2.19081  -1.14584
 Alpha  occ. eigenvalues --   -1.14561  -1.14525  -1.13673  -1.13640  -1.13594
 Alpha  occ. eigenvalues --   -1.13561  -1.13488  -1.13442  -1.13400  -1.13363
 Alpha  occ. eigenvalues --   -1.13312  -1.13284  -1.13266  -1.13239  -1.12947
 Alpha  occ. eigenvalues --   -1.12936  -1.12830  -1.12766  -1.12757  -1.12699
 Alpha  occ. eigenvalues --   -0.18857  -0.13779  -0.11451  -0.10963
 Alpha virt. eigenvalues --   -0.06715  -0.05125  -0.04240  -0.03085  -0.02662
 Alpha virt. eigenvalues --   -0.02431  -0.02338  -0.01100  -0.00596  -0.00129
 Alpha virt. eigenvalues --    0.00219   0.00255   0.00374   0.00642   0.00809

  Beta  occ. eigenvalues --  -38.45134 -38.43923 -38.43812 -38.43794 -38.43722
  Beta  occ. eigenvalues --  -38.43302 -38.43295  -2.20884  -2.19847  -2.19750
  Beta  occ. eigenvalues --   -2.19637  -2.19598  -2.19217  -2.19079  -1.14564
  Beta  occ. eigenvalues --   -1.14546  -1.14511  -1.13601  -1.13561  -1.13526
  Beta  occ. eigenvalues --   -1.13493  -1.13439  -1.13394  -1.13335  -1.13284
  Beta  occ. eigenvalues --   -1.13265  -1.13245  -1.13235  -1.13214  -1.12913
  Beta  occ. eigenvalues --   -1.12901  -1.12791  -1.12759  -1.12751  -1.12700
  Beta  occ. eigenvalues --   -0.18079  -0.13574  -0.10807
  Beta virt. eigenvalues --   -0.07379  -0.06490  -0.05108  -0.03718  -0.02876
  Beta virt. eigenvalues --   -0.02282  -0.01896  -0.01575  -0.00993  -0.00300
  Beta virt. eigenvalues --   -0.00064   0.00245   0.00295   0.00513   0.00698

 Mulliken charges and spin densities:
               1          2
     1  Na   0.282402   0.047832
     2  Na  -0.427061  -0.048863
     3  Na   0.188303   0.114005
     4  Na   0.274129  -0.002130
     5  Na   0.271074   0.372988
     6  Na  -0.426513   0.361609
     7  Na  -0.162335   0.154559
 Sum of Mulliken charges =  -0.00000   1.00000

 Dipole moment (field-independent basis, Debye):
    X=             -0.8375    Y=             -0.2414    Z=             -0.0644  Tot=              0.8739
 Quadrupole moment (field-independent basis, Debye-Ang):
   XX=            -47.6533   YY=            -75.6709   ZZ=            -68.6780
   XY=             -0.4713   XZ=              0.6322   YZ=              0.6619

 Normal termination of Gaussian 16 at Fri Dec  8 07:11:01 2023.
