 Gaussian 16, Revision B.01,
 Gaussian 16:  ES64L-G16RevB.01 20-Dec-2017

 -------------------------
 #P B3LYP/6-311+g(d) force
 -------------------------

 -----
 DPGEN
 -----
 Symbolic Z-matrix:
 Charge =  0 Multiplicity = 2

                         Standard orientation:
 ---------------------------------------------------------------------
 Center     Atomic      Atomic             Coordinates (Angstroms)
 Number     Number       Type             X           Y           Z
 ---------------------------------------------------------------------
      1         11           0        1.466995    1.581912   -1.760861
      2         11           0        2.207130    0.171737    1.766364
      3         11           0       -4.171136   -0.649457   -0.074502
      4         11           0        2.437236   -2.658974   -0.753411
      5         11           0        0.024939    2.620561    0.401958
      6         11           0       -0.805706   -0.647932    1.943549
      7         11           0       -1.159456   -0.417847   -1.523097
 ---------------------------------------------------------------------

 SCF Done:  E(UB3LYP) =  -1136.11900777     A.U. after   22 cycles

 The electronic state is 2-A.
 Alpha  occ. eigenvalues --  -38.44462 -38.44268 -38.44197 -38.43937 -38.43835
 Alpha  occ. eigenvalues --  -38.43785 -38.43519  -2.20222  -2.20125  -2.19972
 Alpha  occ. eigenvalues --   -2.19813  -2.19705  -2.19694  -2.19438  -1.13882
 Alpha  occ. eigenvalues --   -1.13875  -1.13835  -1.13832  -1.13785  -1.13748
 Alpha  occ. eigenvalues --   -1.13652  -1.13636  -1.13605  -1.13565  -1.13502
 Alpha  occ. eigenvalues --   -1.13456  -1.13439  -1.13393  -1.13352  -1.13332
 Alpha  occ. eigenvalues --   -1.13323  -1.13293  -1.13084  -1.13039  -1.13018
 Alpha  occ. eigenvalues --   -0.18201  -0.12772  -0.12131  -0.11715
 Alpha virt. eigenvalues --   -0.06106  -0.05140  -0.04268  -0.03441  -0.03113
 Alpha virt. eigenvalues --   -0.03025  -0.01925  -0.01064  -0.00701  -0.00118
 Alpha virt. eigenvalues --    0.00187   0.00300   0.00375   0.00732   0.00773

  Beta  occ. eigenvalues --  -38.44403 -38.44223 -38.44200 -38.43900 -38.43811
  Beta  occ. eigenvalues --  -38.43769 -38.43495  -2.20112  -2.20045  -2.19977
  Beta  occ. eigenvalues --   -2.19747  -2.19677  -2.19654  -2.19396  -1.13808
  Beta  occ. eigenvalues --   -1.13792  -1.13780  -1.13767  -1.13715  -1.13692
  Beta  occ. eigenvalues --   -1.13652  -1.13640  -1.13607  -1.13545  -1.13462
  Beta  occ. eigenvalues --   -1.13411  -1.13379  -1.13352  -1.13322  -1.13314
  Beta  occ. eigenvalues --   -1.13288  -1.13256  -1.13043  -1.13014  -1.12987
  Beta  occ. eigenvalues --   -0.17403  -0.12670  -0.11469
  Beta virt. eigenvalues --   -0.08146  -0.05925  -0.04599  -0.03920  -0.03093
  Beta virt. eigenvalues --   -0.02843  -0.02251  -0.01827  -0.00765  -0.00537
  Beta virt. eigenvalues --    0.00037   0.00244   0.00355   0.00437   0.00847

 Mulliken charges and spin densities:
               1          2
     1  Na   0.244421   0.145438
     2  Na   0.130954  -0.042854
     3  Na   0.139443  -0.062515
     4  Na  -0.203896   0.363653
     5  Na   0.126787   0.166957
     6  Na  -0.066447   0.176541
     7  Na  -0.371262   0.252780
 Sum of Mulliken charges =  -0.00000   1.00000

 Dipole moment (field-independent basis, Debye):
    X=             -0.4466    Y=              0.0639    Z=              0.1115  Tot=              0.4647
 Quadrupole moment (field-independent basis, Debye-Ang):
   XX=            -57.7258   YY=            -70.4489   ZZ=            -67.9996
   XY=             -0.0352   XZ=             -2.9711   YZ=              5.7577

 Normal termination of Gaussian 16 at Tue Dec  5 15:01:47 2023.
