 Gaussian 16, Revision B.01,
 Gaussian 16:  ES64L-G16RevB.01 20-Dec-2017

 -------------------------
 #P B3LYP/6-311+g(d) force
 -------------------------

 -----
 DPGEN
 -----
 Symbolic Z-matrix:
 Charge =  0 Multiplicity = 2

                         Standard orientation:
 ---------------------------------------------------------------------
 Center     Atomic      Atomic             Coordinates (Angstroms)
 Number     Number       Type             X           Y           Z
 ---------------------------------------------------------------------
      1         11           0       -1.569144   -1.600145    0.224749
      2         11           0        1.184193   -1.921691    0.011752
      3         11           0        2.323623    0.500476   -0.116482
      4         11           0       -0.208531   -0.325890   -1.964682
      5         11           0       -2.201229    1.004235    0.007527
      6         11           0        0.329530    2.196065   -0.232923
      7         11           0        0.141558    0.146951    2.070059
 ---------------------------------------------------------------------

 SCF Done:  E(UB3LYP) =  -1136.08077504     A.U. after   21 cycles

 The electronic state is 2-A.
 Alpha  occ. eigenvalues --  -38.44589 -38.44524 -38.43961 -38.43660 -38.43641
 Alpha  occ. eigenvalues --  -38.43525 -38.43524  -2.20703  -2.20695  -2.20112
 Alpha  occ. eigenvalues --   -2.19850  -2.19744  -2.19680  -2.19656  -1.14490
 Alpha  occ. eigenvalues --   -1.14423  -1.14352  -1.14340  -1.14334  -1.14320
 Alpha  occ. eigenvalues --   -1.14105  -1.13952  -1.13833  -1.13677  -1.13662
 Alpha  occ. eigenvalues --   -1.13586  -1.13448  -1.13335  -1.13284  -1.13246
 Alpha  occ. eigenvalues --   -1.13244  -1.13223  -1.13204  -1.13171  -1.13067
 Alpha  occ. eigenvalues --   -0.21753  -0.13501  -0.13076  -0.12910
 Alpha virt. eigenvalues --   -0.04872  -0.04099  -0.04023  -0.03877  -0.03588
 Alpha virt. eigenvalues --   -0.03536  -0.00641  -0.00429  -0.00295   0.00324
 Alpha virt. eigenvalues --    0.00976   0.01000   0.01021   0.01140   0.01236

  Beta  occ. eigenvalues --  -38.44486 -38.44428 -38.43948 -38.43644 -38.43631
  Beta  occ. eigenvalues --  -38.43511 -38.43510  -2.20523  -2.20517  -2.20097
  Beta  occ. eigenvalues --   -2.19829  -2.19730  -2.19662  -2.19637  -1.14391
  Beta  occ. eigenvalues --   -1.14310  -1.14226  -1.14214  -1.14205  -1.14186
  Beta  occ. eigenvalues --   -1.14098  -1.13938  -1.13826  -1.13650  -1.13611
  Beta  occ. eigenvalues --   -1.13580  -1.13372  -1.13274  -1.13247  -1.13217
  Beta  occ. eigenvalues --   -1.13204  -1.13196  -1.13176  -1.13165  -1.13062
  Beta  occ. eigenvalues --   -0.20824  -0.13121  -0.12654
  Beta virt. eigenvalues --   -0.08732  -0.04872  -0.04091  -0.03987  -0.02918
  Beta virt. eigenvalues --   -0.02678  -0.02435  -0.00585  -0.00382  -0.00085
  Beta virt. eigenvalues --    0.00335   0.00954   0.00977   0.01153   0.01195

 Mulliken charges and spin densities:
               1          2
     1  Na   1.009667   0.130412
     2  Na   0.981476   0.094562
     3  Na   0.391348   0.053835
     4  Na  -1.909789   0.264027
     5  Na   0.451764   0.036054
     6  Na   0.877098   0.129645
     7  Na  -1.801564   0.291466
 Sum of Mulliken charges =  -0.00000   1.00000

 Dipole moment (field-independent basis, Debye):
    X=             -0.0568    Y=              0.0744    Z=              0.1588  Tot=              0.1844
 Quadrupole moment (field-independent basis, Debye-Ang):
   XX=            -66.2013   YY=            -70.0178   ZZ=            -63.7719
   XY=             -0.3248   XZ=             -0.4491   YZ=             -0.7080

 Normal termination of Gaussian 16 at Sat Dec  9 05:28:06 2023.
