 Gaussian 16, Revision B.01,
 Gaussian 16:  ES64L-G16RevB.01 20-Dec-2017

 -------------------------
 #P B3LYP/6-311+g(d) force
 -------------------------

 -----
 DPGEN
 -----
 Symbolic Z-matrix:
 Charge =  0 Multiplicity = 2

                         Standard orientation:
 ---------------------------------------------------------------------
 Center     Atomic      Atomic             Coordinates (Angstroms)
 Number     Number       Type             X           Y           Z
 ---------------------------------------------------------------------
      1         11           0        0.852326   -2.846793   -0.069993
      2         11           0       -2.521262    1.949785    0.009020
      3         11           0        0.999944    2.910728   -0.139487
      4         11           0       -2.870460   -1.827966   -0.026885
      5         11           0        3.229167   -0.256444   -0.424372
      6         11           0        0.547671    0.037610    2.126957
      7         11           0       -0.237386    0.033079   -1.475240
 ---------------------------------------------------------------------

 SCF Done:  E(UB3LYP) =  -1136.13704011     A.U. after   19 cycles

 The electronic state is 2-A.
 Alpha  occ. eigenvalues --  -38.44103 -38.44089 -38.44064 -38.43680 -38.43660
 Alpha  occ. eigenvalues --  -38.43441 -38.43060  -2.19915  -2.19894  -2.19841
 Alpha  occ. eigenvalues --   -2.19512  -2.19481  -2.19302  -2.19022  -1.13586
 Alpha  occ. eigenvalues --   -1.13585  -1.13569  -1.13560  -1.13559  -1.13523
 Alpha  occ. eigenvalues --   -1.13518  -1.13494  -1.13481  -1.13203  -1.13183
 Alpha  occ. eigenvalues --   -1.13165  -1.13148  -1.13133  -1.13111  -1.12962
 Alpha  occ. eigenvalues --   -1.12924  -1.12918  -1.12718  -1.12665  -1.12643
 Alpha  occ. eigenvalues --   -0.18174  -0.12836  -0.12440  -0.10354
 Alpha virt. eigenvalues --   -0.05658  -0.05575  -0.04965  -0.02985  -0.02765
 Alpha virt. eigenvalues --   -0.02361  -0.01641  -0.01345  -0.00696  -0.00663
 Alpha virt. eigenvalues --   -0.00021   0.00323   0.00749   0.00800   0.00824

  Beta  occ. eigenvalues --  -38.44092 -38.44088 -38.44066 -38.43675 -38.43655
  Beta  occ. eigenvalues --  -38.43338 -38.43012  -2.19897  -2.19894  -2.19845
  Beta  occ. eigenvalues --   -2.19505  -2.19475  -2.19112  -2.18935  -1.13580
  Beta  occ. eigenvalues --   -1.13562  -1.13550  -1.13550  -1.13548  -1.13527
  Beta  occ. eigenvalues --   -1.13511  -1.13497  -1.13487  -1.13197  -1.13158
  Beta  occ. eigenvalues --   -1.13154  -1.13132  -1.13124  -1.13110  -1.12835
  Beta  occ. eigenvalues --   -1.12792  -1.12783  -1.12652  -1.12602  -1.12576
  Beta  occ. eigenvalues --   -0.17480  -0.12633  -0.12247
  Beta virt. eigenvalues --   -0.06437  -0.05614  -0.05579  -0.04888  -0.02273
  Beta virt. eigenvalues --   -0.02046  -0.01556  -0.01288  -0.01277  -0.00739
  Beta virt. eigenvalues --   -0.00702   0.00152   0.00373   0.00796   0.00821

 Mulliken charges and spin densities:
               1          2
     1  Na   0.142943  -0.024643
     2  Na   0.076801  -0.065457
     3  Na   0.143788  -0.038263
     4  Na   0.017830  -0.063168
     5  Na   0.197459   0.020729
     6  Na  -0.500897   0.797005
     7  Na  -0.077924   0.373796
 Sum of Mulliken charges =  -0.00000   1.00000

 Dipole moment (field-independent basis, Debye):
    X=             -0.0859    Y=              0.0436    Z=              0.0638  Tot=              0.1156
 Quadrupole moment (field-independent basis, Debye-Ang):
   XX=            -55.3061   YY=            -60.1645   ZZ=            -76.6832
   XY=              0.2449   XZ=             -1.9014   YZ=             -0.0336

 Normal termination of Gaussian 16 at Thu Dec  7 01:53:49 2023.
