 Gaussian 16, Revision B.01,
 Gaussian 16:  ES64L-G16RevB.01 20-Dec-2017

 -------------------------
 #P B3LYP/6-311+g(d) force
 -------------------------

 -----
 DPGEN
 -----
 Symbolic Z-matrix:
 Charge =  0 Multiplicity = 2

                         Standard orientation:
 ---------------------------------------------------------------------
 Center     Atomic      Atomic             Coordinates (Angstroms)
 Number     Number       Type             X           Y           Z
 ---------------------------------------------------------------------
      1         11           0       -0.144010    0.331145   -1.004321
      2         11           0       -3.350441   -0.569286   -0.017425
      3         11           0       -0.589645   -2.773247    0.128269
      4         11           0        2.335106   -1.291928   -1.290111
      5         11           0        1.364734   -0.417837    2.214154
      6         11           0        2.630341    2.193457   -0.042084
      7         11           0       -2.246084    2.527696    0.011518
 ---------------------------------------------------------------------

 SCF Done:  E(UB3LYP) =  -1136.12895750     A.U. after   21 cycles

 The electronic state is 2-A.
 Alpha  occ. eigenvalues --  -38.44358 -38.44217 -38.43964 -38.43942 -38.43834
 Alpha  occ. eigenvalues --  -38.42947 -38.42929  -2.20186  -2.20009  -2.19862
 Alpha  occ. eigenvalues --   -2.19764  -2.19681  -2.18978  -2.18802  -1.13860
 Alpha  occ. eigenvalues --   -1.13853  -1.13826  -1.13676  -1.13671  -1.13658
 Alpha  occ. eigenvalues --   -1.13611  -1.13490  -1.13454  -1.13452  -1.13420
 Alpha  occ. eigenvalues --   -1.13389  -1.13342  -1.13310  -1.13287  -1.12671
 Alpha  occ. eigenvalues --   -1.12658  -1.12602  -1.12474  -1.12460  -1.12441
 Alpha  occ. eigenvalues --   -0.18221  -0.13537  -0.11996  -0.10644
 Alpha virt. eigenvalues --   -0.06075  -0.05463  -0.04460  -0.03207  -0.02612
 Alpha virt. eigenvalues --   -0.02488  -0.01783  -0.01252  -0.00723  -0.00354
 Alpha virt. eigenvalues --   -0.00062   0.00295   0.00715   0.00748   0.00836

  Beta  occ. eigenvalues --  -38.44360 -38.44213 -38.43945 -38.43912 -38.43734
  Beta  occ. eigenvalues --  -38.42944 -38.42896  -2.20190  -2.20005  -2.19772
  Beta  occ. eigenvalues --   -2.19769  -2.19495  -2.18922  -2.18798  -1.13859
  Beta  occ. eigenvalues --   -1.13855  -1.13831  -1.13673  -1.13658  -1.13646
  Beta  occ. eigenvalues --   -1.13541  -1.13457  -1.13421  -1.13414  -1.13394
  Beta  occ. eigenvalues --   -1.13389  -1.13215  -1.13188  -1.13152  -1.12629
  Beta  occ. eigenvalues --   -1.12593  -1.12571  -1.12470  -1.12443  -1.12430
  Beta  occ. eigenvalues --   -0.17577  -0.13321  -0.11830
  Beta virt. eigenvalues --   -0.06615  -0.06021  -0.05311  -0.04417  -0.02658
  Beta virt. eigenvalues --   -0.01938  -0.01716  -0.01564  -0.01036  -0.00711
  Beta virt. eigenvalues --   -0.00305   0.00162   0.00360   0.00759   0.00825

 Mulliken charges and spin densities:
               1          2
     1  Na  -0.335976   0.345622
     2  Na  -0.098790  -0.042145
     3  Na   0.167015   0.060054
     4  Na   0.796318   0.048619
     5  Na  -0.762158   0.614391
     6  Na  -0.100311   0.017068
     7  Na   0.333903  -0.043610
 Sum of Mulliken charges =  -0.00000   1.00000

 Dipole moment (field-independent basis, Debye):
    X=             -0.1594    Y=              0.3109    Z=              0.1908  Tot=              0.3981
 Quadrupole moment (field-independent basis, Debye-Ang):
   XX=            -54.7756   YY=            -62.8111   ZZ=            -74.9921
   XY=              1.8048   XZ=             -2.4178   YZ=              1.1222

 Normal termination of Gaussian 16 at Fri Dec  8 17:13:23 2023.
