 Gaussian 16, Revision B.01,
 Gaussian 16:  ES64L-G16RevB.01 20-Dec-2017

 -------------------------
 #P B3LYP/6-311+g(d) force
 -------------------------

 -----
 DPGEN
 -----
 Symbolic Z-matrix:
 Charge =  0 Multiplicity = 2

                         Standard orientation:
 ---------------------------------------------------------------------
 Center     Atomic      Atomic             Coordinates (Angstroms)
 Number     Number       Type             X           Y           Z
 ---------------------------------------------------------------------
      1         11           0        0.917457   -2.839196   -1.267715
      2         11           0        5.315701   -0.020089    1.911163
      3         11           0        3.090307   -0.179726   -0.880178
      4         11           0        0.653509    3.128703   -1.406597
      5         11           0       -0.287905   -0.047288    0.153063
      6         11           0       -3.692330    0.414201    1.572607
      7         11           0       -5.996739   -0.456607   -0.082344
 ---------------------------------------------------------------------

 SCF Done:  E(UB3LYP) =  -1136.10126485     A.U. after   25 cycles

 The electronic state is 2-A.
 Alpha  occ. eigenvalues --  -38.45294 -38.44517 -38.44229 -38.44196 -38.44171
 Alpha  occ. eigenvalues --  -38.44070 -38.44048  -2.21124  -2.20306  -2.20003
 Alpha  occ. eigenvalues --   -2.19993  -2.19971  -2.19880  -2.19874  -1.14770
 Alpha  occ. eigenvalues --   -1.14756  -1.14736  -1.14038  -1.13960  -1.13956
 Alpha  occ. eigenvalues --   -1.13697  -1.13665  -1.13650  -1.13650  -1.13647
 Alpha  occ. eigenvalues --   -1.13626  -1.13625  -1.13620  -1.13579  -1.13577
 Alpha  occ. eigenvalues --   -1.13561  -1.13528  -1.13521  -1.13498  -1.13494
 Alpha  occ. eigenvalues --   -0.16453  -0.13550  -0.11983  -0.11514
 Alpha virt. eigenvalues --   -0.06968  -0.05361  -0.04560  -0.03399  -0.03060
 Alpha virt. eigenvalues --   -0.02429  -0.02232  -0.01579  -0.01201  -0.00888
 Alpha virt. eigenvalues --   -0.00738  -0.00639   0.00179   0.00291   0.00423

  Beta  occ. eigenvalues --  -38.45200 -38.44539 -38.44184 -38.44147 -38.44129
  Beta  occ. eigenvalues --  -38.44076 -38.44044  -2.20949  -2.20348  -2.20023
  Beta  occ. eigenvalues --   -2.19897  -2.19864  -2.19852  -2.19846  -1.14648
  Beta  occ. eigenvalues --   -1.14636  -1.14625  -1.14062  -1.13988  -1.13985
  Beta  occ. eigenvalues --   -1.13715  -1.13690  -1.13637  -1.13599  -1.13552
  Beta  occ. eigenvalues --   -1.13547  -1.13542  -1.13541  -1.13534  -1.13531
  Beta  occ. eigenvalues --   -1.13523  -1.13513  -1.13502  -1.13500  -1.13485
  Beta  occ. eigenvalues --   -0.15858  -0.13576  -0.10630
  Beta virt. eigenvalues --   -0.08319  -0.06965  -0.04656  -0.04453  -0.03177
  Beta virt. eigenvalues --   -0.02841  -0.02275  -0.01724  -0.01418  -0.00953
  Beta virt. eigenvalues --   -0.00730  -0.00446  -0.00357   0.00237   0.00491

 Mulliken charges and spin densities:
               1          2
     1  Na   0.805115   0.350772
     2  Na   0.256816   0.428462
     3  Na   0.549236   0.007207
     4  Na   0.232413   0.399369
     5  Na  -1.541641  -0.090390
     6  Na  -0.466437   0.001795
     7  Na   0.164499  -0.097216
 Sum of Mulliken charges =  -0.00000   1.00000

 Dipole moment (field-independent basis, Debye):
    X=             -1.0195    Y=             -0.6789    Z=             -0.6930  Tot=              1.4074
 Quadrupole moment (field-independent basis, Debye-Ang):
   XX=            -69.8107   YY=            -65.8022   ZZ=            -64.8039
   XY=              4.1236   XZ=              4.5219   YZ=              2.7847

 Normal termination of Gaussian 16 at Tue Nov 28 19:58:30 2023.
