 Gaussian 16, Revision B.01,
 Gaussian 16:  ES64L-G16RevB.01 20-Dec-2017

 -------------------------
 #P B3LYP/6-311+g(d) force
 -------------------------

 -----
 DPGEN
 -----
 Symbolic Z-matrix:
 Charge =  0 Multiplicity = 2

                         Standard orientation:
 ---------------------------------------------------------------------
 Center     Atomic      Atomic             Coordinates (Angstroms)
 Number     Number       Type             X           Y           Z
 ---------------------------------------------------------------------
      1         11           0        1.503727    3.343123   -0.828417
      2         11           0        3.203616   -1.833231    1.320082
      3         11           0       -2.142423    2.742883   -0.034914
      4         11           0        4.393103    0.746508   -0.145830
      5         11           0       -4.168789    0.743749    1.331382
      6         11           0        0.012260   -3.392544   -0.521769
      7         11           0       -2.801493   -2.350488   -1.120534
 ---------------------------------------------------------------------

 SCF Done:  E(UB3LYP) =  -1136.10648893     A.U. after   19 cycles

 The electronic state is 2-A.
 Alpha  occ. eigenvalues --  -38.44889 -38.44762 -38.44632 -38.44455 -38.44393
 Alpha  occ. eigenvalues --  -38.44379 -38.44028  -2.20658  -2.20556  -2.20427
 Alpha  occ. eigenvalues --   -2.20229  -2.20205  -2.20156  -2.19824  -1.14367
 Alpha  occ. eigenvalues --   -1.14332  -1.14308  -1.14208  -1.14193  -1.14168
 Alpha  occ. eigenvalues --   -1.14124  -1.14087  -1.14055  -1.13926  -1.13882
 Alpha  occ. eigenvalues --   -1.13871  -1.13852  -1.13844  -1.13838  -1.13828
 Alpha  occ. eigenvalues --   -1.13817  -1.13751  -1.13490  -1.13482  -1.13462
 Alpha  occ. eigenvalues --   -0.15381  -0.13905  -0.13219  -0.11107
 Alpha virt. eigenvalues --   -0.07289  -0.05005  -0.04511  -0.03548  -0.03434
 Alpha virt. eigenvalues --   -0.02294  -0.02184  -0.01559  -0.01291  -0.01158
 Alpha virt. eigenvalues --   -0.00923  -0.00353  -0.00020   0.00437   0.00665

  Beta  occ. eigenvalues --  -38.44894 -38.44716 -38.44609 -38.44380 -38.44364
  Beta  occ. eigenvalues --  -38.44331 -38.44014  -2.20672  -2.20471  -2.20388
  Beta  occ. eigenvalues --   -2.20166  -2.20090  -2.20059  -2.19804  -1.14357
  Beta  occ. eigenvalues --   -1.14345  -1.14302  -1.14151  -1.14140  -1.14115
  Beta  occ. eigenvalues --   -1.14089  -1.14062  -1.14022  -1.13877  -1.13848
  Beta  occ. eigenvalues --   -1.13829  -1.13768  -1.13767  -1.13756  -1.13751
  Beta  occ. eigenvalues --   -1.13731  -1.13696  -1.13474  -1.13471  -1.13435
  Beta  occ. eigenvalues --   -0.14859  -0.13279  -0.12401
  Beta virt. eigenvalues --   -0.07975  -0.07355  -0.04507  -0.04146  -0.03318
  Beta virt. eigenvalues --   -0.03153  -0.02149  -0.01889  -0.01374  -0.01015
  Beta virt. eigenvalues --   -0.00857  -0.00723  -0.00135   0.00178   0.00467

 Mulliken charges and spin densities:
               1          2
     1  Na   0.099531   0.470882
     2  Na  -0.091490   0.211110
     3  Na  -0.354216   0.009287
     4  Na  -0.038078  -0.026096
     5  Na   0.320769   0.239164
     6  Na  -0.082432   0.014203
     7  Na   0.145917   0.081451
 Sum of Mulliken charges =  -0.00000   1.00000

 Dipole moment (field-independent basis, Debye):
    X=              0.1463    Y=             -0.3748    Z=              0.2491  Tot=              0.4732
 Quadrupole moment (field-independent basis, Debye-Ang):
   XX=            -58.7212   YY=            -72.1232   ZZ=            -69.8583
   XY=              2.8427   XZ=             -1.2524   YZ=             -3.4537

 Normal termination of Gaussian 16 at Sun Dec  3 19:08:12 2023.
