 Gaussian 16, Revision B.01,
 Gaussian 16:  ES64L-G16RevB.01 20-Dec-2017

 -------------------------
 #P B3LYP/6-311+g(d) force
 -------------------------

 -----
 DPGEN
 -----
 Symbolic Z-matrix:
 Charge =  0 Multiplicity = 2

                         Standard orientation:
 ---------------------------------------------------------------------
 Center     Atomic      Atomic             Coordinates (Angstroms)
 Number     Number       Type             X           Y           Z
 ---------------------------------------------------------------------
      1         11           0        3.316981   -0.616082   -0.227866
      2         11           0        0.248727   -0.267244    1.966673
      3         11           0        0.221108   -2.928935    0.008646
      4         11           0       -2.117807    2.155527    0.198165
      5         11           0       -3.041847   -0.884622   -0.087301
      6         11           0        1.725080    2.660585   -0.113469
      7         11           0       -0.352243   -0.119229   -1.744848
 ---------------------------------------------------------------------

 SCF Done:  E(UB3LYP) =  -1136.13566114     A.U. after   19 cycles

 The electronic state is 2-A.
 Alpha  occ. eigenvalues --  -38.44650 -38.44136 -38.43655 -38.43619 -38.43463
 Alpha  occ. eigenvalues --  -38.43418 -38.43275  -2.20423  -2.19997  -2.19465
 Alpha  occ. eigenvalues --   -2.19439  -2.19351  -2.19345  -2.19122  -1.14103
 Alpha  occ. eigenvalues --   -1.14075  -1.14063  -1.13692  -1.13665  -1.13628
 Alpha  occ. eigenvalues --   -1.13144  -1.13129  -1.13117  -1.13110  -1.13097
 Alpha  occ. eigenvalues --   -1.13077  -1.13046  -1.13015  -1.12985  -1.12981
 Alpha  occ. eigenvalues --   -1.12970  -1.12964  -1.12793  -1.12791  -1.12742
 Alpha  occ. eigenvalues --   -0.18336  -0.13128  -0.12206  -0.10522
 Alpha virt. eigenvalues --   -0.06045  -0.05248  -0.04706  -0.03255  -0.02755
 Alpha virt. eigenvalues --   -0.02438  -0.01795  -0.01121  -0.00567  -0.00535
 Alpha virt. eigenvalues --   -0.00022   0.00346   0.00739   0.00841   0.00857

  Beta  occ. eigenvalues --  -38.44648 -38.44131 -38.43655 -38.43614 -38.43374
  Beta  occ. eigenvalues --  -38.43350 -38.43268  -2.20420  -2.19991  -2.19458
  Beta  occ. eigenvalues --   -2.19440  -2.19224  -2.19184  -2.19114  -1.14086
  Beta  occ. eigenvalues --   -1.14074  -1.14063  -1.13689  -1.13644  -1.13619
  Beta  occ. eigenvalues --   -1.13139  -1.13114  -1.13103  -1.13102  -1.13094
  Beta  occ. eigenvalues --   -1.13078  -1.12961  -1.12916  -1.12898  -1.12879
  Beta  occ. eigenvalues --   -1.12870  -1.12848  -1.12779  -1.12751  -1.12739
  Beta  occ. eigenvalues --   -0.17613  -0.12921  -0.11977
  Beta virt. eigenvalues --   -0.06657  -0.05991  -0.05251  -0.04634  -0.02490
  Beta virt. eigenvalues --   -0.02011  -0.01694  -0.01417  -0.01053  -0.00624
  Beta virt. eigenvalues --   -0.00573   0.00125   0.00383   0.00785   0.00854

 Mulliken charges and spin densities:
               1          2
     1  Na   0.005539  -0.095897
     2  Na  -0.290435   0.774186
     3  Na   0.148855  -0.158400
     4  Na  -0.046174  -0.050711
     5  Na   0.426238  -0.019424
     6  Na  -0.102780  -0.104001
     7  Na  -0.141243   0.654247
 Sum of Mulliken charges =  -0.00000   1.00000

 Dipole moment (field-independent basis, Debye):
    X=              0.1948    Y=             -0.1480    Z=              0.0046  Tot=              0.2447
 Quadrupole moment (field-independent basis, Debye-Ang):
   XX=            -54.3084   YY=            -63.3606   ZZ=            -75.4685
   XY=             -0.3178   XZ=             -1.2736   YZ=              0.5016

 Normal termination of Gaussian 16 at Thu Dec  7 09:55:30 2023.
