 Gaussian 16, Revision B.01,
 Gaussian 16:  ES64L-G16RevB.01 20-Dec-2017

 -------------------------
 #P B3LYP/6-311+g(d) force
 -------------------------

 -----
 DPGEN
 -----
 Symbolic Z-matrix:
 Charge =  0 Multiplicity = 2

                         Standard orientation:
 ---------------------------------------------------------------------
 Center     Atomic      Atomic             Coordinates (Angstroms)
 Number     Number       Type             X           Y           Z
 ---------------------------------------------------------------------
      1         11           0       -0.267162   -0.369477   -1.676458
      2         11           0       -0.983259    2.089603    1.246695
      3         11           0        2.534307    2.216834   -0.801205
      4         11           0       -1.077739   -1.915538    1.353172
      5         11           0        1.827638   -2.133547   -0.908044
      6         11           0       -3.639376    0.382720   -0.889356
      7         11           0        1.605591   -0.270596    1.675195
 ---------------------------------------------------------------------

 SCF Done:  E(UB3LYP) =  -1136.12649344     A.U. after   20 cycles

 The electronic state is 2-A.
 Alpha  occ. eigenvalues --  -38.44048 -38.43997 -38.43910 -38.43852 -38.43698
 Alpha  occ. eigenvalues --  -38.43692 -38.43637  -2.19867  -2.19825  -2.19811
 Alpha  occ. eigenvalues --   -2.19702  -2.19639  -2.19555  -2.19468  -1.13652
 Alpha  occ. eigenvalues --   -1.13601  -1.13524  -1.13501  -1.13481  -1.13467
 Alpha  occ. eigenvalues --   -1.13461  -1.13448  -1.13409  -1.13407  -1.13370
 Alpha  occ. eigenvalues --   -1.13333  -1.13319  -1.13303  -1.13236  -1.13186
 Alpha  occ. eigenvalues --   -1.13157  -1.13146  -1.13126  -1.13120  -1.13098
 Alpha  occ. eigenvalues --   -0.18487  -0.12756  -0.11843  -0.11720
 Alpha virt. eigenvalues --   -0.05621  -0.05165  -0.04369  -0.03314  -0.03111
 Alpha virt. eigenvalues --   -0.02979  -0.01545  -0.01022  -0.00684   0.00150
 Alpha virt. eigenvalues --    0.00252   0.00326   0.00507   0.00561   0.00800

  Beta  occ. eigenvalues --  -38.44036 -38.43953 -38.43893 -38.43790 -38.43689
  Beta  occ. eigenvalues --  -38.43641 -38.43617  -2.19804  -2.19789  -2.19700
  Beta  occ. eigenvalues --   -2.19673  -2.19549  -2.19520  -2.19453  -1.13583
  Beta  occ. eigenvalues --   -1.13532  -1.13479  -1.13468  -1.13454  -1.13440
  Beta  occ. eigenvalues --   -1.13416  -1.13384  -1.13370  -1.13341  -1.13330
  Beta  occ. eigenvalues --   -1.13293  -1.13279  -1.13247  -1.13167  -1.13134
  Beta  occ. eigenvalues --   -1.13130  -1.13126  -1.13105  -1.13095  -1.13088
  Beta  occ. eigenvalues --   -0.17680  -0.12533  -0.11553
  Beta virt. eigenvalues --   -0.07823  -0.05388  -0.05012  -0.04090  -0.02929
  Beta virt. eigenvalues --   -0.02539  -0.02053  -0.01436  -0.00897  -0.00389
  Beta virt. eigenvalues --    0.00233   0.00265   0.00355   0.00617   0.00657

 Mulliken charges and spin densities:
               1          2
     1  Na  -0.479614   0.577643
     2  Na  -0.278250  -0.003069
     3  Na  -0.150749  -0.053565
     4  Na  -0.075122   0.123306
     5  Na   0.491737   0.023044
     6  Na   0.184544  -0.032316
     7  Na   0.307455   0.364958
 Sum of Mulliken charges =  -0.00000   1.00000

 Dipole moment (field-independent basis, Debye):
    X=             -0.3083    Y=             -0.1463    Z=              0.0530  Tot=              0.3453
 Quadrupole moment (field-independent basis, Debye-Ang):
   XX=            -58.0621   YY=            -69.4238   ZZ=            -66.8924
   XY=             -0.8334   XZ=             -1.5417   YZ=             -1.5792

 Normal termination of Gaussian 16 at Tue Dec  5 12:53:25 2023.
