 Gaussian 16, Revision B.01,
 Gaussian 16:  ES64L-G16RevB.01 20-Dec-2017

 -------------------------
 #P B3LYP/6-311+g(d) force
 -------------------------

 -----
 DPGEN
 -----
 Symbolic Z-matrix:
 Charge =  0 Multiplicity = 2

                         Standard orientation:
 ---------------------------------------------------------------------
 Center     Atomic      Atomic             Coordinates (Angstroms)
 Number     Number       Type             X           Y           Z
 ---------------------------------------------------------------------
      1         11           0       -0.441414   -0.843580   -0.807586
      2         11           0        1.233161    0.449552    1.535814
      3         11           0       -3.260205   -0.806533   -0.460586
      4         11           0       -1.420639    0.453402    1.299614
      5         11           0       -0.069071    2.163627   -0.595186
      6         11           0        1.995460    0.533467   -1.183886
      7         11           0        1.962707   -1.949934    0.211814
 ---------------------------------------------------------------------

 SCF Done:  E(UB3LYP) =  -1136.06237589     A.U. after   22 cycles

 The electronic state is 2-A.
 Alpha  occ. eigenvalues --  -38.44584 -38.44582 -38.44475 -38.44298 -38.43735
 Alpha  occ. eigenvalues --  -38.43541 -38.43026  -2.20817  -2.20736  -2.20569
 Alpha  occ. eigenvalues --   -2.20519  -2.20112  -2.19604  -2.19170  -1.14839
 Alpha  occ. eigenvalues --   -1.14732  -1.14685  -1.14550  -1.14478  -1.14303
 Alpha  occ. eigenvalues --   -1.14258  -1.14195  -1.14173  -1.14100  -1.14080
 Alpha  occ. eigenvalues --   -1.13981  -1.13777  -1.13705  -1.13675  -1.13261
 Alpha  occ. eigenvalues --   -1.13210  -1.13181  -1.12873  -1.12814  -1.12722
 Alpha  occ. eigenvalues --   -0.21431  -0.14331  -0.12378  -0.12194
 Alpha virt. eigenvalues --   -0.06046  -0.04268  -0.03917  -0.03468  -0.02798
 Alpha virt. eigenvalues --   -0.02602  -0.01526  -0.00504  -0.00344   0.00286
 Alpha virt. eigenvalues --    0.00642   0.00804   0.00894   0.01012   0.01107

  Beta  occ. eigenvalues --  -38.44579 -38.44531 -38.44423 -38.44218 -38.43694
  Beta  occ. eigenvalues --  -38.43532 -38.43002  -2.20727  -2.20646  -2.20511
  Beta  occ. eigenvalues --   -2.20430  -2.20044  -2.19592  -2.19133  -1.14754
  Beta  occ. eigenvalues --   -1.14672  -1.14621  -1.14470  -1.14400  -1.14243
  Beta  occ. eigenvalues --   -1.14229  -1.14156  -1.14094  -1.14085  -1.13987
  Beta  occ. eigenvalues --   -1.13895  -1.13726  -1.13667  -1.13583  -1.13252
  Beta  occ. eigenvalues --   -1.13174  -1.13161  -1.12851  -1.12767  -1.12672
  Beta  occ. eigenvalues --   -0.20594  -0.14164  -0.11950
  Beta virt. eigenvalues --   -0.07892  -0.05886  -0.04225  -0.03357  -0.03177
  Beta virt. eigenvalues --   -0.02036  -0.01666  -0.01351  -0.00450  -0.00041
  Beta virt. eigenvalues --    0.00351   0.00680   0.00844   0.00967   0.01079

 Mulliken charges and spin densities:
               1          2
     1  Na  -0.710006   0.447417
     2  Na  -0.219001   0.187469
     3  Na   0.464493  -0.102266
     4  Na   0.149286   0.157073
     5  Na  -0.111251   0.094273
     6  Na   0.145729   0.197305
     7  Na   0.280749   0.018731
 Sum of Mulliken charges =  -0.00000   1.00000

 Dipole moment (field-independent basis, Debye):
    X=             -0.3441    Y=              0.0832    Z=             -0.1021  Tot=              0.3684
 Quadrupole moment (field-independent basis, Debye-Ang):
   XX=            -55.5291   YY=            -71.9552   ZZ=            -67.9959
   XY=             -0.2544   XZ=              0.7367   YZ=             -0.9929

 Normal termination of Gaussian 16 at Sat Dec  9 06:44:34 2023.
