 Gaussian 16, Revision B.01,
 Gaussian 16:  ES64L-G16RevB.01 20-Dec-2017

 -------------------------
 #P B3LYP/6-311+g(d) force
 -------------------------

 -----
 DPGEN
 -----
 Symbolic Z-matrix:
 Charge =  0 Multiplicity = 2

                         Standard orientation:
 ---------------------------------------------------------------------
 Center     Atomic      Atomic             Coordinates (Angstroms)
 Number     Number       Type             X           Y           Z
 ---------------------------------------------------------------------
      1         11           0        4.492375    0.967693   -0.069375
      2         11           0       -3.964284    0.747031    0.300632
      3         11           0        1.308285    3.049404    0.395794
      4         11           0        0.083048   -3.194112    0.439344
      5         11           0        3.516281   -2.366197   -0.293001
      6         11           0       -1.742998    3.154445   -0.449549
      7         11           0       -3.692707   -2.358265   -0.323845
 ---------------------------------------------------------------------

 SCF Done:  E(UB3LYP) =  -1136.10818381     A.U. after   23 cycles

 The electronic state is 2-A.
 Alpha  occ. eigenvalues --  -38.45169 -38.44995 -38.44964 -38.44650 -38.44523
 Alpha  occ. eigenvalues --  -38.43990 -38.43814  -2.20942  -2.20808  -2.20721
 Alpha  occ. eigenvalues --   -2.20416  -2.20315  -2.19787  -2.19643  -1.14624
 Alpha  occ. eigenvalues --   -1.14615  -1.14581  -1.14477  -1.14474  -1.14459
 Alpha  occ. eigenvalues --   -1.14407  -1.14392  -1.14366  -1.14082  -1.14074
 Alpha  occ. eigenvalues --   -1.14022  -1.13976  -1.13975  -1.13952  -1.13439
 Alpha  occ. eigenvalues --   -1.13424  -1.13419  -1.13308  -1.13292  -1.13287
 Alpha  occ. eigenvalues --   -0.15655  -0.14074  -0.13416  -0.10835
 Alpha virt. eigenvalues --   -0.07822  -0.04760  -0.04474  -0.03631  -0.03480
 Alpha virt. eigenvalues --   -0.02623  -0.02230  -0.01936  -0.01289  -0.00605
 Alpha virt. eigenvalues --   -0.00328  -0.00113  -0.00036   0.00354   0.00454

  Beta  occ. eigenvalues --  -38.45156 -38.44971 -38.44961 -38.44584 -38.44504
  Beta  occ. eigenvalues --  -38.43919 -38.43787  -2.20923  -2.20766  -2.20723
  Beta  occ. eigenvalues --   -2.20295  -2.20284  -2.19654  -2.19596  -1.14612
  Beta  occ. eigenvalues --   -1.14605  -1.14538  -1.14450  -1.14444  -1.14417
  Beta  occ. eigenvalues --   -1.14414  -1.14398  -1.14325  -1.14001  -1.13993
  Beta  occ. eigenvalues --   -1.13957  -1.13952  -1.13936  -1.13916  -1.13348
  Beta  occ. eigenvalues --   -1.13335  -1.13332  -1.13271  -1.13261  -1.13253
  Beta  occ. eigenvalues --   -0.15185  -0.13341  -0.12686
  Beta virt. eigenvalues --   -0.08014  -0.07621  -0.04373  -0.03924  -0.03443
  Beta virt. eigenvalues --   -0.03052  -0.02437  -0.02031  -0.01847  -0.01147
  Beta virt. eigenvalues --   -0.00265  -0.00022   0.00100   0.00168   0.00356

 Mulliken charges and spin densities:
               1          2
     1  Na   0.208089   0.333764
     2  Na  -0.153817   0.147278
     3  Na  -0.000323   0.127309
     4  Na  -0.288261   0.302900
     5  Na   0.186506  -0.020368
     6  Na  -0.194346   0.028165
     7  Na   0.242152   0.080952
 Sum of Mulliken charges =  -0.00000   1.00000

 Dipole moment (field-independent basis, Debye):
    X=             -0.4652    Y=             -0.1256    Z=             -0.0031  Tot=              0.4819
 Quadrupole moment (field-independent basis, Debye-Ang):
   XX=            -61.8018   YY=            -66.2101   ZZ=            -72.8022
   XY=             -0.7766   XZ=             -0.0897   YZ=              1.6365

 Normal termination of Gaussian 16 at Mon Dec  4 03:42:10 2023.
