 Gaussian 16, Revision B.01,
 Gaussian 16:  ES64L-G16RevB.01 20-Dec-2017

 -------------------------
 #P B3LYP/6-311+g(d) force
 -------------------------

 -----
 DPGEN
 -----
 Symbolic Z-matrix:
 Charge =  0 Multiplicity = 2

                         Standard orientation:
 ---------------------------------------------------------------------
 Center     Atomic      Atomic             Coordinates (Angstroms)
 Number     Number       Type             X           Y           Z
 ---------------------------------------------------------------------
      1         11           0       -1.805163   -3.312026   -0.265522
      2         11           0        1.792134   -2.600258    0.376859
      3         11           0       -3.808594   -1.173426   -0.160650
      4         11           0       -3.340711    2.360261    0.651155
      5         11           0        3.235348    2.621769    0.043614
      6         11           0        4.722440   -0.853921   -0.044538
      7         11           0       -0.795454    2.957600   -0.600917
 ---------------------------------------------------------------------

 SCF Done:  E(UB3LYP) =  -1136.10467147     A.U. after   22 cycles

 The electronic state is 2-A.
 Alpha  occ. eigenvalues --  -38.45149 -38.45080 -38.44904 -38.44771 -38.44265
 Alpha  occ. eigenvalues --  -38.43970 -38.43891  -2.20977  -2.20883  -2.20662
 Alpha  occ. eigenvalues --   -2.20546  -2.20043  -2.19828  -2.19725  -1.14693
 Alpha  occ. eigenvalues --   -1.14631  -1.14609  -1.14599  -1.14538  -1.14530
 Alpha  occ. eigenvalues --   -1.14343  -1.14332  -1.14311  -1.14216  -1.14206
 Alpha  occ. eigenvalues --   -1.14149  -1.13697  -1.13683  -1.13657  -1.13505
 Alpha  occ. eigenvalues --   -1.13455  -1.13449  -1.13415  -1.13369  -1.13358
 Alpha  occ. eigenvalues --   -0.15785  -0.14043  -0.13480  -0.10737
 Alpha virt. eigenvalues --   -0.07722  -0.04859  -0.04371  -0.03577  -0.03488
 Alpha virt. eigenvalues --   -0.02649  -0.02367  -0.02044  -0.01187  -0.00598
 Alpha virt. eigenvalues --   -0.00320  -0.00155   0.00117   0.00308   0.00602

  Beta  occ. eigenvalues --  -38.45119 -38.45074 -38.44907 -38.44720 -38.44171
  Beta  occ. eigenvalues --  -38.43936 -38.43880  -2.20926  -2.20877  -2.20673
  Beta  occ. eigenvalues --   -2.20453  -2.19867  -2.19766  -2.19709  -1.14647
  Beta  occ. eigenvalues --   -1.14599  -1.14586  -1.14555  -1.14539  -1.14512
  Beta  occ. eigenvalues --   -1.14354  -1.14334  -1.14293  -1.14154  -1.14143
  Beta  occ. eigenvalues --   -1.14087  -1.13577  -1.13563  -1.13541  -1.13464
  Beta  occ. eigenvalues --   -1.13412  -1.13407  -1.13390  -1.13360  -1.13343
  Beta  occ. eigenvalues --   -0.15364  -0.13411  -0.12787
  Beta virt. eigenvalues --   -0.07821  -0.07386  -0.04435  -0.04139  -0.03250
  Beta virt. eigenvalues --   -0.03098  -0.02430  -0.02180  -0.01763  -0.01085
  Beta virt. eigenvalues --   -0.00323  -0.00005   0.00031   0.00269   0.00404

 Mulliken charges and spin densities:
               1          2
     1  Na   0.723392   0.047425
     2  Na  -0.361823   0.237009
     3  Na  -0.336703   0.145710
     4  Na   0.418535   0.166101
     5  Na  -0.020087   0.467527
     6  Na   0.147020  -0.100312
     7  Na  -0.570334   0.036540
 Sum of Mulliken charges =  -0.00000   1.00000

 Dipole moment (field-independent basis, Debye):
    X=             -0.3098    Y=             -0.1605    Z=              0.0250  Tot=              0.3498
 Quadrupole moment (field-independent basis, Debye-Ang):
   XX=            -55.7180   YY=            -72.9726   ZZ=            -72.7118
   XY=             -2.1755   XZ=             -1.8707   YZ=              0.0464

 Normal termination of Gaussian 16 at Mon Dec  4 03:28:15 2023.
