 Gaussian 16, Revision B.01,
 Gaussian 16:  ES64L-G16RevB.01 20-Dec-2017

 -------------------------
 #P B3LYP/6-311+g(d) force
 -------------------------

 -----
 DPGEN
 -----
 Symbolic Z-matrix:
 Charge =  0 Multiplicity = 2

                         Standard orientation:
 ---------------------------------------------------------------------
 Center     Atomic      Atomic             Coordinates (Angstroms)
 Number     Number       Type             X           Y           Z
 ---------------------------------------------------------------------
      1         11           0        3.636086   -2.080395   -0.984178
      2         11           0       -1.061478    2.650134    0.135554
      3         11           0        3.472643    0.356947    1.419426
      4         11           0        1.655252    2.859892   -1.000412
      5         11           0        0.272627   -2.176715    0.604836
      6         11           0       -3.475423   -2.193065   -0.492188
      7         11           0       -4.499707    0.583201    0.316962
 ---------------------------------------------------------------------

 SCF Done:  E(UB3LYP) =  -1136.10818435     A.U. after   20 cycles

 The electronic state is 2-A.
 Alpha  occ. eigenvalues --  -38.45310 -38.45140 -38.44419 -38.44171 -38.43874
 Alpha  occ. eigenvalues --  -38.43872 -38.43470  -2.21089  -2.20905  -2.20208
 Alpha  occ. eigenvalues --   -2.19980  -2.19697  -2.19665  -2.19301  -1.14765
 Alpha  occ. eigenvalues --   -1.14734  -1.14715  -1.14582  -1.14562  -1.14536
 Alpha  occ. eigenvalues --   -1.13906  -1.13880  -1.13851  -1.13733  -1.13639
 Alpha  occ. eigenvalues --   -1.13620  -1.13348  -1.13339  -1.13327  -1.13322
 Alpha  occ. eigenvalues --   -1.13321  -1.13254  -1.12954  -1.12940  -1.12928
 Alpha  occ. eigenvalues --   -0.16010  -0.13869  -0.12640  -0.10027
 Alpha virt. eigenvalues --   -0.06943  -0.06164  -0.03984  -0.03529  -0.03014
 Alpha virt. eigenvalues --   -0.02687  -0.02321  -0.01513  -0.00891  -0.00580
 Alpha virt. eigenvalues --   -0.00524  -0.00161   0.00140   0.00309   0.00489

  Beta  occ. eigenvalues --  -38.45270 -38.45139 -38.44422 -38.44163 -38.43867
  Beta  occ. eigenvalues --  -38.43789 -38.43411  -2.21016  -2.20906  -2.20220
  Beta  occ. eigenvalues --   -2.19966  -2.19689  -2.19507  -2.19191  -1.14710
  Beta  occ. eigenvalues --   -1.14686  -1.14665  -1.14585  -1.14547  -1.14532
  Beta  occ. eigenvalues --   -1.13907  -1.13895  -1.13828  -1.13713  -1.13630
  Beta  occ. eigenvalues --   -1.13612  -1.13341  -1.13323  -1.13309  -1.13231
  Beta  occ. eigenvalues --   -1.13213  -1.13146  -1.12885  -1.12865  -1.12853
  Beta  occ. eigenvalues --   -0.15533  -0.13347  -0.12251
  Beta virt. eigenvalues --   -0.06829  -0.06599  -0.06042  -0.03652  -0.03122
  Beta virt. eigenvalues --   -0.02840  -0.02333  -0.01896  -0.01392  -0.00846
  Beta virt. eigenvalues --   -0.00483  -0.00207   0.00126   0.00262   0.00446

 Mulliken charges and spin densities:
               1          2
     1  Na   0.371530  -0.025375
     2  Na  -0.301423  -0.019867
     3  Na   0.226490   0.362321
     4  Na   0.417736  -0.016375
     5  Na  -0.733674   0.427634
     6  Na   0.167518  -0.039349
     7  Na  -0.148177   0.311012
 Sum of Mulliken charges =  -0.00000   1.00000

 Dipole moment (field-independent basis, Debye):
    X=              1.8251    Y=             -0.3200    Z=             -0.3044  Tot=              1.8777
 Quadrupole moment (field-independent basis, Debye-Ang):
   XX=            -67.7297   YY=            -70.2867   ZZ=            -64.4674
   XY=             -0.0648   XZ=             -2.7356   YZ=              5.6508

 Normal termination of Gaussian 16 at Sun Dec  3 23:33:57 2023.
