 Gaussian 16, Revision B.01,
 Gaussian 16:  ES64L-G16RevB.01 20-Dec-2017

 -------------------------
 #P B3LYP/6-311+g(d) force
 -------------------------

 -----
 DPGEN
 -----
 Symbolic Z-matrix:
 Charge =  0 Multiplicity = 2

                         Standard orientation:
 ---------------------------------------------------------------------
 Center     Atomic      Atomic             Coordinates (Angstroms)
 Number     Number       Type             X           Y           Z
 ---------------------------------------------------------------------
      1         11           0       -2.824351   -0.887119    1.590728
      2         11           0        3.473403    1.780907    0.778377
      3         11           0        1.452479   -1.573449    1.164556
      4         11           0        0.267797    1.114777   -0.072227
      5         11           0       -1.193867   -1.468039   -1.255104
      6         11           0       -3.505449    1.861697   -0.644219
      7         11           0        2.329987   -0.828774   -1.562111
 ---------------------------------------------------------------------

 SCF Done:  E(UB3LYP) =  -1136.11905296     A.U. after   25 cycles

 The electronic state is 2-A.
 Alpha  occ. eigenvalues --  -38.44571 -38.44303 -38.44191 -38.44152 -38.43868
 Alpha  occ. eigenvalues --  -38.43277 -38.43276  -2.20391  -2.20242  -2.20071
 Alpha  occ. eigenvalues --   -2.19967  -2.19832  -2.19186  -2.19088  -1.14074
 Alpha  occ. eigenvalues --   -1.14043  -1.14040  -1.13998  -1.13938  -1.13807
 Alpha  occ. eigenvalues --   -1.13790  -1.13693  -1.13636  -1.13634  -1.13630
 Alpha  occ. eigenvalues --   -1.13591  -1.13541  -1.13518  -1.13428  -1.12904
 Alpha  occ. eigenvalues --   -1.12853  -1.12770  -1.12760  -1.12751  -1.12723
 Alpha  occ. eigenvalues --   -0.18541  -0.14185  -0.11064  -0.10674
 Alpha virt. eigenvalues --   -0.06320  -0.05958  -0.04845  -0.03030  -0.02399
 Alpha virt. eigenvalues --   -0.02243  -0.02008  -0.01317  -0.00898  -0.00291
 Alpha virt. eigenvalues --    0.00111   0.00153   0.00308   0.00363   0.00539

  Beta  occ. eigenvalues --  -38.44523 -38.44272 -38.44171 -38.44127 -38.43847
  Beta  occ. eigenvalues --  -38.43275 -38.43251  -2.20303  -2.20187  -2.20026
  Beta  occ. eigenvalues --   -2.19930  -2.19801  -2.19146  -2.19086  -1.14015
  Beta  occ. eigenvalues --   -1.14008  -1.13983  -1.13928  -1.13890  -1.13761
  Beta  occ. eigenvalues --   -1.13758  -1.13651  -1.13609  -1.13600  -1.13598
  Beta  occ. eigenvalues --   -1.13569  -1.13506  -1.13470  -1.13411  -1.12878
  Beta  occ. eigenvalues --   -1.12785  -1.12759  -1.12749  -1.12746  -1.12721
  Beta  occ. eigenvalues --   -0.17895  -0.13934  -0.10857
  Beta virt. eigenvalues --   -0.07015  -0.06164  -0.05597  -0.04330  -0.02800
  Beta virt. eigenvalues --   -0.02306  -0.01777  -0.01485  -0.01050  -0.00427
  Beta virt. eigenvalues --   -0.00182   0.00169   0.00212   0.00386   0.00470

 Mulliken charges and spin densities:
               1          2
     1  Na   0.239171   0.239410
     2  Na   0.701820   0.021912
     3  Na  -0.134216   0.414764
     4  Na  -2.517569   0.140532
     5  Na   0.553991   0.214928
     6  Na   0.552814  -0.005473
     7  Na   0.603989  -0.026073
 Sum of Mulliken charges =  -0.00000   1.00000

 Dipole moment (field-independent basis, Debye):
    X=             -0.1411    Y=             -0.6730    Z=             -0.1391  Tot=              0.7016
 Quadrupole moment (field-independent basis, Debye-Ang):
   XX=            -52.7169   YY=            -72.9197   ZZ=            -68.4504
   XY=             -2.0458   XZ=             -1.4614   YZ=             -1.1067

 Normal termination of Gaussian 16 at Thu Dec  7 08:13:20 2023.
