 Gaussian 16, Revision B.01,
 Gaussian 16:  ES64L-G16RevB.01 20-Dec-2017

 -------------------------
 #P B3LYP/6-311+g(d) force
 -------------------------

 -----
 DPGEN
 -----
 Symbolic Z-matrix:
 Charge =  0 Multiplicity = 2

                         Standard orientation:
 ---------------------------------------------------------------------
 Center     Atomic      Atomic             Coordinates (Angstroms)
 Number     Number       Type             X           Y           Z
 ---------------------------------------------------------------------
      1         11           0        0.135965    0.570365    1.419791
      2         11           0        3.144282   -2.413299    0.117555
      3         11           0        3.239020    1.292162   -0.186186
      4         11           0       -0.460480   -2.663001   -0.827139
      5         11           0       -2.421692    0.515537   -1.503572
      6         11           0       -3.548437   -1.036667    1.125746
      7         11           0       -0.088658    3.734903   -0.146195
 ---------------------------------------------------------------------

 SCF Done:  E(UB3LYP) =  -1136.11893834     A.U. after   23 cycles

 The electronic state is 2-A.
 Alpha  occ. eigenvalues --  -38.45158 -38.44593 -38.44330 -38.44256 -38.44133
 Alpha  occ. eigenvalues --  -38.43998 -38.43921  -2.20914  -2.20399  -2.20146
 Alpha  occ. eigenvalues --   -2.20032  -2.19886  -2.19762  -2.19748  -1.14600
 Alpha  occ. eigenvalues --   -1.14583  -1.14525  -1.14102  -1.14054  -1.14020
 Alpha  occ. eigenvalues --   -1.13836  -1.13808  -1.13768  -1.13715  -1.13712
 Alpha  occ. eigenvalues --   -1.13634  -1.13571  -1.13539  -1.13534  -1.13442
 Alpha  occ. eigenvalues --   -1.13415  -1.13414  -1.13397  -1.13387  -1.13361
 Alpha  occ. eigenvalues --   -0.16972  -0.13433  -0.12344  -0.09681
 Alpha virt. eigenvalues --   -0.06773  -0.05900  -0.05540  -0.03236  -0.02548
 Alpha virt. eigenvalues --   -0.02342  -0.01854  -0.01600  -0.01397  -0.01031
 Alpha virt. eigenvalues --   -0.00261   0.00223   0.00297   0.00474   0.00618

  Beta  occ. eigenvalues --  -38.45149 -38.44570 -38.44298 -38.44222 -38.44140
  Beta  occ. eigenvalues --  -38.43985 -38.43862  -2.20899  -2.20356  -2.20087
  Beta  occ. eigenvalues --   -2.19969  -2.19901  -2.19739  -2.19637  -1.14585
  Beta  occ. eigenvalues --   -1.14571  -1.14521  -1.14067  -1.14026  -1.13986
  Beta  occ. eigenvalues --   -1.13782  -1.13766  -1.13726  -1.13673  -1.13658
  Beta  occ. eigenvalues --   -1.13594  -1.13582  -1.13544  -1.13537  -1.13426
  Beta  occ. eigenvalues --   -1.13394  -1.13379  -1.13339  -1.13304  -1.13289
  Beta  occ. eigenvalues --   -0.16519  -0.13187  -0.12074
  Beta virt. eigenvalues --   -0.06641  -0.06277  -0.05644  -0.05082  -0.02902
  Beta virt. eigenvalues --   -0.02199  -0.02106  -0.01551  -0.01438  -0.01086
  Beta virt. eigenvalues --   -0.00769   0.00041   0.00337   0.00500   0.00573

 Mulliken charges and spin densities:
               1          2
     1  Na   0.392206   0.128959
     2  Na   0.015242  -0.028687
     3  Na  -0.041948   0.029577
     4  Na  -0.306553   0.181814
     5  Na  -0.004753   0.337427
     6  Na   0.069253   0.259858
     7  Na  -0.123446   0.091052
 Sum of Mulliken charges =  -0.00000   1.00000

 Dipole moment (field-independent basis, Debye):
    X=              0.7457    Y=              0.3854    Z=             -0.2464  Tot=              0.8748
 Quadrupole moment (field-independent basis, Debye-Ang):
   XX=            -57.4706   YY=            -64.3372   ZZ=            -75.3067
   XY=              1.1350   XZ=              0.2390   YZ=             -2.0685

 Normal termination of Gaussian 16 at Mon Dec  4 01:40:07 2023.
