 Gaussian 16, Revision B.01,
 Gaussian 16:  ES64L-G16RevB.01 20-Dec-2017

 -------------------------
 #P B3LYP/6-311+g(d) force
 -------------------------

 -----
 DPGEN
 -----
 Symbolic Z-matrix:
 Charge =  0 Multiplicity = 2

                         Standard orientation:
 ---------------------------------------------------------------------
 Center     Atomic      Atomic             Coordinates (Angstroms)
 Number     Number       Type             X           Y           Z
 ---------------------------------------------------------------------
      1         11           0        0.078691   -0.169660    2.004510
      2         11           0        1.259045   -2.287457   -0.026543
      3         11           0       -2.361923   -2.137848   -0.006981
      4         11           0       -0.080709    0.319483   -1.721721
      5         11           0        3.371946    0.120148   -0.433320
      6         11           0       -2.900384    1.462237   -0.301325
      7         11           0        0.633334    2.693097    0.485381
 ---------------------------------------------------------------------

 SCF Done:  E(UB3LYP) =  -1136.13585393     A.U. after   19 cycles

 The electronic state is 2-A.
 Alpha  occ. eigenvalues --  -38.44313 -38.44160 -38.43648 -38.43610 -38.43555
 Alpha  occ. eigenvalues --  -38.43213 -38.43055  -2.20133  -2.19968  -2.19536
 Alpha  occ. eigenvalues --   -2.19494  -2.19455  -2.19070  -2.18970  -1.13808
 Alpha  occ. eigenvalues --   -1.13794  -1.13764  -1.13656  -1.13623  -1.13598
 Alpha  occ. eigenvalues --   -1.13226  -1.13191  -1.13176  -1.13149  -1.13147
 Alpha  occ. eigenvalues --   -1.13129  -1.13113  -1.13099  -1.13097  -1.12757
 Alpha  occ. eigenvalues --   -1.12736  -1.12678  -1.12663  -1.12642  -1.12579
 Alpha  occ. eigenvalues --   -0.18612  -0.13083  -0.12200  -0.10921
 Alpha virt. eigenvalues --   -0.05924  -0.05212  -0.04226  -0.03215  -0.02929
 Alpha virt. eigenvalues --   -0.02630  -0.01866  -0.01130  -0.00358  -0.00094
 Alpha virt. eigenvalues --   -0.00033   0.00318   0.00741   0.00859   0.00908

  Beta  occ. eigenvalues --  -38.44303 -38.44155 -38.43648 -38.43513 -38.43497
  Beta  occ. eigenvalues --  -38.43197 -38.43046  -2.20116  -2.19959  -2.19459
  Beta  occ. eigenvalues --   -2.19388  -2.19358  -2.19044  -2.18958  -1.13800
  Beta  occ. eigenvalues --   -1.13767  -1.13753  -1.13638  -1.13617  -1.13593
  Beta  occ. eigenvalues --   -1.13135  -1.13128  -1.13114  -1.13096  -1.13089
  Beta  occ. eigenvalues --   -1.13072  -1.13055  -1.13024  -1.13012  -1.12736
  Beta  occ. eigenvalues --   -1.12692  -1.12666  -1.12654  -1.12608  -1.12566
  Beta  occ. eigenvalues --   -0.17885  -0.12819  -0.11950
  Beta virt. eigenvalues --   -0.07033  -0.05820  -0.05208  -0.04187  -0.02515
  Beta virt. eigenvalues --   -0.02150  -0.01744  -0.01574  -0.01089  -0.00357
  Beta virt. eigenvalues --   -0.00122   0.00090   0.00353   0.00801   0.00864

 Mulliken charges and spin densities:
               1          2
     1  Na  -0.232879   0.610476
     2  Na   0.200085  -0.008542
     3  Na  -0.015347  -0.104450
     4  Na  -0.311680   0.579220
     5  Na   0.154753   0.013816
     6  Na   0.128615  -0.069290
     7  Na   0.076453  -0.021230
 Sum of Mulliken charges =  -0.00000   1.00000

 Dipole moment (field-independent basis, Debye):
    X=             -0.0836    Y=              0.1965    Z=             -0.0348  Tot=              0.2163
 Quadrupole moment (field-independent basis, Debye-Ang):
   XX=            -53.4694   YY=            -66.3750   ZZ=            -73.3472
   XY=              0.7143   XZ=             -0.6660   YZ=              0.7122

 Normal termination of Gaussian 16 at Thu Dec  7 10:19:12 2023.
