 Gaussian 16, Revision B.01,
 Gaussian 16:  ES64L-G16RevB.01 20-Dec-2017

 -------------------------
 #P B3LYP/6-311+g(d) force
 -------------------------

 -----
 DPGEN
 -----
 Symbolic Z-matrix:
 Charge =  0 Multiplicity = 2

                         Standard orientation:
 ---------------------------------------------------------------------
 Center     Atomic      Atomic             Coordinates (Angstroms)
 Number     Number       Type             X           Y           Z
 ---------------------------------------------------------------------
      1         11           0        0.894357   -0.723151    1.807094
      2         11           0        0.566259   -1.243591   -1.563417
      3         11           0        3.232223   -0.237004   -0.202929
      4         11           0        1.099602    2.067214   -0.308082
      5         11           0       -2.207727    0.687231   -1.566345
      6         11           0       -1.686209    1.486585    1.351779
      7         11           0       -1.898505   -2.037286    0.481900
 ---------------------------------------------------------------------

 SCF Done:  E(UB3LYP) =  -1136.13129698     A.U. after   21 cycles

 The electronic state is 2-A.
 Alpha  occ. eigenvalues --  -38.44120 -38.44098 -38.43955 -38.43374 -38.43266
 Alpha  occ. eigenvalues --  -38.43050 -38.42869  -2.20030  -2.20022  -2.19927
 Alpha  occ. eigenvalues --   -2.19339  -2.19193  -2.18940  -2.18790  -1.13751
 Alpha  occ. eigenvalues --   -1.13720  -1.13704  -1.13702  -1.13659  -1.13630
 Alpha  occ. eigenvalues --   -1.13606  -1.13538  -1.13527  -1.13022  -1.12984
 Alpha  occ. eigenvalues --   -1.12969  -1.12872  -1.12859  -1.12811  -1.12617
 Alpha  occ. eigenvalues --   -1.12594  -1.12575  -1.12479  -1.12458  -1.12411
 Alpha  occ. eigenvalues --   -0.19436  -0.13739  -0.12085  -0.11573
 Alpha virt. eigenvalues --   -0.05589  -0.04690  -0.04463  -0.03442  -0.03101
 Alpha virt. eigenvalues --   -0.03011  -0.01426  -0.00558  -0.00435   0.00284
 Alpha virt. eigenvalues --    0.00394   0.00546   0.00598   0.00929   0.00972

  Beta  occ. eigenvalues --  -38.44094 -38.44078 -38.43884 -38.43328 -38.43240
  Beta  occ. eigenvalues --  -38.43040 -38.42860  -2.20017  -2.19953  -2.19798
  Beta  occ. eigenvalues --   -2.19257  -2.19147  -2.18926  -2.18776  -1.13733
  Beta  occ. eigenvalues --   -1.13679  -1.13669  -1.13658  -1.13639  -1.13579
  Beta  occ. eigenvalues --   -1.13523  -1.13447  -1.13441  -1.12972  -1.12913
  Beta  occ. eigenvalues --   -1.12904  -1.12840  -1.12817  -1.12770  -1.12604
  Beta  occ. eigenvalues --   -1.12571  -1.12557  -1.12473  -1.12418  -1.12406
  Beta  occ. eigenvalues --   -0.18618  -0.13538  -0.11381
  Beta virt. eigenvalues --   -0.07966  -0.05451  -0.04541  -0.03888  -0.03226
  Beta virt. eigenvalues --   -0.02384  -0.02065  -0.01364  -0.00467  -0.00151
  Beta virt. eigenvalues --    0.00339   0.00454   0.00568   0.00746   0.00961

 Mulliken charges and spin densities:
               1          2
     1  Na  -0.321896   0.290336
     2  Na  -0.396284   0.395685
     3  Na   0.828042   0.020901
     4  Na  -0.548940   0.066800
     5  Na   0.166664   0.097714
     6  Na   0.209339   0.149398
     7  Na   0.063075  -0.020834
 Sum of Mulliken charges =  -0.00000   1.00000

 Dipole moment (field-independent basis, Debye):
    X=              0.2717    Y=             -0.1087    Z=             -0.0991  Tot=              0.3090
 Quadrupole moment (field-independent basis, Debye-Ang):
   XX=            -55.9227   YY=            -75.1200   ZZ=            -64.7927
   XY=             -0.0349   XZ=             -0.0923   YZ=             -1.5921

 Normal termination of Gaussian 16 at Tue Dec  5 13:02:53 2023.
