 Gaussian 16, Revision B.01,
 Gaussian 16:  ES64L-G16RevB.01 20-Dec-2017

 -------------------------
 #P B3LYP/6-311+g(d) force
 -------------------------

 -----
 DPGEN
 -----
 Symbolic Z-matrix:
 Charge =  0 Multiplicity = 2

                         Standard orientation:
 ---------------------------------------------------------------------
 Center     Atomic      Atomic             Coordinates (Angstroms)
 Number     Number       Type             X           Y           Z
 ---------------------------------------------------------------------
      1         11           0       -2.914657   -0.732808    0.199201
      2         11           0        0.126635   -0.244472   -1.802197
      3         11           0       -0.191203    0.084650    1.849278
      4         11           0       -0.220256   -2.882672   -0.099502
      5         11           0        1.859289    2.073939    0.138258
      6         11           0        2.972637   -0.825682    0.090796
      7         11           0       -1.632446    2.527045   -0.375835
 ---------------------------------------------------------------------

 SCF Done:  E(UB3LYP) =  -1136.13979576     A.U. after   19 cycles

 The electronic state is 2-A.
 Alpha  occ. eigenvalues --  -38.43874 -38.43821 -38.43374 -38.43372 -38.43364
 Alpha  occ. eigenvalues --  -38.43313 -38.43264  -2.19735  -2.19685  -2.19327
 Alpha  occ. eigenvalues --   -2.19270  -2.19232  -2.19214  -2.19185  -1.13431
 Alpha  occ. eigenvalues --   -1.13396  -1.13392  -1.13365  -1.13344  -1.13323
 Alpha  occ. eigenvalues --   -1.13028  -1.12990  -1.12968  -1.12948  -1.12943
 Alpha  occ. eigenvalues --   -1.12913  -1.12907  -1.12892  -1.12874  -1.12863
 Alpha  occ. eigenvalues --   -1.12849  -1.12840  -1.12838  -1.12806  -1.12796
 Alpha  occ. eigenvalues --   -0.18983  -0.13156  -0.12523  -0.10846
 Alpha virt. eigenvalues --   -0.05494  -0.04977  -0.04736  -0.03253  -0.02947
 Alpha virt. eigenvalues --   -0.02513  -0.01425  -0.01073  -0.00247  -0.00163
 Alpha virt. eigenvalues --    0.00011   0.00376   0.00847   0.00917   0.00939

  Beta  occ. eigenvalues --  -38.43867 -38.43818 -38.43364 -38.43356 -38.43307
  Beta  occ. eigenvalues --  -38.43294 -38.43185  -2.19726  -2.19682  -2.19261
  Beta  occ. eigenvalues --   -2.19202  -2.19181  -2.19177  -2.19087  -1.13416
  Beta  occ. eigenvalues --   -1.13393  -1.13372  -1.13364  -1.13325  -1.13315
  Beta  occ. eigenvalues --   -1.12975  -1.12931  -1.12915  -1.12901  -1.12890
  Beta  occ. eigenvalues --   -1.12870  -1.12857  -1.12843  -1.12837  -1.12830
  Beta  occ. eigenvalues --   -1.12812  -1.12801  -1.12791  -1.12742  -1.12721
  Beta  occ. eigenvalues --   -0.18242  -0.12897  -0.12263
  Beta virt. eigenvalues --   -0.06934  -0.05461  -0.04979  -0.04695  -0.02432
  Beta virt. eigenvalues --   -0.02162  -0.01470  -0.01338  -0.00995  -0.00301
  Beta virt. eigenvalues --   -0.00209   0.00128   0.00390   0.00883   0.00913

 Mulliken charges and spin densities:
               1          2
     1  Na   0.177206  -0.056952
     2  Na  -0.329243   0.716122
     3  Na  -0.291504   0.640281
     4  Na   0.146521  -0.137548
     5  Na   0.183744  -0.016650
     6  Na   0.096069  -0.102564
     7  Na   0.017208  -0.042688
 Sum of Mulliken charges =  -0.00000   1.00000

 Dipole moment (field-independent basis, Debye):
    X=             -0.0796    Y=             -0.1266    Z=              0.0389  Tot=              0.1545
 Quadrupole moment (field-independent basis, Debye-Ang):
   XX=            -57.3845   YY=            -62.4954   ZZ=            -73.8218
   XY=             -0.6686   XZ=              0.6457   YZ=             -0.9074

 Normal termination of Gaussian 16 at Thu Dec  7 18:18:37 2023.
