 Gaussian 16, Revision B.01,
 Gaussian 16:  ES64L-G16RevB.01 20-Dec-2017

 -------------------------
 #P B3LYP/6-311+g(d) force
 -------------------------

 -----
 DPGEN
 -----
 Symbolic Z-matrix:
 Charge =  0 Multiplicity = 2

                         Standard orientation:
 ---------------------------------------------------------------------
 Center     Atomic      Atomic             Coordinates (Angstroms)
 Number     Number       Type             X           Y           Z
 ---------------------------------------------------------------------
      1         11           0        1.542891   -0.027757    2.090370
      2         11           0        0.521625   -1.543170   -1.171808
      3         11           0        1.694486    1.436255   -1.342940
      4         11           0       -1.174272    3.393820   -0.204745
      5         11           0       -4.134354   -2.100114   -0.295073
      6         11           0       -2.154196    0.339777    0.891393
      7         11           0        3.703821   -1.498812    0.032803
 ---------------------------------------------------------------------

 SCF Done:  E(UB3LYP) =  -1136.11969168     A.U. after   22 cycles

 The electronic state is 2-A.
 Alpha  occ. eigenvalues --  -38.45057 -38.44817 -38.44535 -38.44238 -38.43822
 Alpha  occ. eigenvalues --  -38.43671 -38.43271  -2.20883  -2.20670  -2.20388
 Alpha  occ. eigenvalues --   -2.20093  -2.19578  -2.19450  -2.19111  -1.14560
 Alpha  occ. eigenvalues --   -1.14551  -1.14521  -1.14380  -1.14338  -1.14254
 Alpha  occ. eigenvalues --   -1.14048  -1.14025  -1.13994  -1.13799  -1.13755
 Alpha  occ. eigenvalues --   -1.13673  -1.13252  -1.13246  -1.13217  -1.13137
 Alpha  occ. eigenvalues --   -1.13115  -1.13084  -1.12814  -1.12794  -1.12709
 Alpha  occ. eigenvalues --   -0.17968  -0.13428  -0.11524  -0.11074
 Alpha virt. eigenvalues --   -0.06756  -0.06029  -0.04389  -0.03166  -0.02836
 Alpha virt. eigenvalues --   -0.02545  -0.02306  -0.01630  -0.00603  -0.00512
 Alpha virt. eigenvalues --   -0.00132   0.00098   0.00272   0.00456   0.00563

  Beta  occ. eigenvalues --  -38.45051 -38.44770 -38.44441 -38.44189 -38.43829
  Beta  occ. eigenvalues --  -38.43679 -38.43261  -2.20877  -2.20586  -2.20213
  Beta  occ. eigenvalues --   -2.20007  -2.19590  -2.19466  -2.19093  -1.14558
  Beta  occ. eigenvalues --   -1.14534  -1.14498  -1.14321  -1.14261  -1.14196
  Beta  occ. eigenvalues --   -1.13928  -1.13909  -1.13868  -1.13734  -1.13688
  Beta  occ. eigenvalues --   -1.13611  -1.13261  -1.13254  -1.13224  -1.13148
  Beta  occ. eigenvalues --   -1.13120  -1.13094  -1.12801  -1.12776  -1.12697
  Beta  occ. eigenvalues --   -0.17182  -0.13298  -0.11468
  Beta virt. eigenvalues --   -0.07084  -0.06524  -0.05836  -0.04088  -0.02718
  Beta virt. eigenvalues --   -0.02507  -0.02020  -0.01758  -0.01497  -0.00525
  Beta virt. eigenvalues --   -0.00234  -0.00008   0.00194   0.00428   0.00579

 Mulliken charges and spin densities:
               1          2
     1  Na  -0.156247   0.477377
     2  Na  -0.456181   0.328520
     3  Na  -0.004723   0.237039
     4  Na   0.093078  -0.121833
     5  Na   0.277931  -0.049509
     6  Na  -0.463173   0.153949
     7  Na   0.709314  -0.025544
 Sum of Mulliken charges =  -0.00000   1.00000

 Dipole moment (field-independent basis, Debye):
    X=              1.6794    Y=             -0.3020    Z=             -0.3810  Tot=              1.7484
 Quadrupole moment (field-independent basis, Debye-Ang):
   XX=            -54.4694   YY=            -66.3068   ZZ=            -73.8243
   XY=             -3.7358   XZ=             -0.3361   YZ=              1.6637

 Normal termination of Gaussian 16 at Fri Dec  8 17:14:59 2023.
