 Gaussian 16, Revision B.01,
 Gaussian 16:  ES64L-G16RevB.01 20-Dec-2017

 -------------------------
 #P B3LYP/6-311+g(d) force
 -------------------------

 -----
 DPGEN
 -----
 Symbolic Z-matrix:
 Charge =  0 Multiplicity = 2

                         Standard orientation:
 ---------------------------------------------------------------------
 Center     Atomic      Atomic             Coordinates (Angstroms)
 Number     Number       Type             X           Y           Z
 ---------------------------------------------------------------------
      1         11           0        1.330969   -2.313758    0.134242
      2         11           0        0.261606    2.757329    0.073383
      3         11           0        2.994200    0.379637    0.088447
      4         11           0        0.354324    0.220089   -1.941849
      5         11           0       -0.224902    0.016884    1.964576
      6         11           0       -2.794831    1.018570   -0.062572
      7         11           0       -1.921366   -2.078751   -0.256226
 ---------------------------------------------------------------------

 SCF Done:  E(UB3LYP) =  -1136.13949236     A.U. after   17 cycles

 The electronic state is 2-A.
 Alpha  occ. eigenvalues --  -38.43832 -38.43737 -38.43619 -38.43611 -38.43239
 Alpha  occ. eigenvalues --  -38.43143 -38.43054  -2.19709  -2.19605  -2.19569
 Alpha  occ. eigenvalues --   -2.19560  -2.19131  -2.19027  -2.18981  -1.13409
 Alpha  occ. eigenvalues --   -1.13375  -1.13349  -1.13304  -1.13277  -1.13254
 Alpha  occ. eigenvalues --   -1.13236  -1.13225  -1.13204  -1.13202  -1.13178
 Alpha  occ. eigenvalues --   -1.13172  -1.12811  -1.12788  -1.12783  -1.12708
 Alpha  occ. eigenvalues --   -1.12700  -1.12656  -1.12642  -1.12636  -1.12608
 Alpha  occ. eigenvalues --   -0.19187  -0.13144  -0.12531  -0.11229
 Alpha virt. eigenvalues --   -0.05481  -0.04783  -0.04503  -0.03398  -0.03091
 Alpha virt. eigenvalues --   -0.02857  -0.01346  -0.00855  -0.00068  -0.00057
 Alpha virt. eigenvalues --    0.00062   0.00390   0.00876   0.00954   0.00991

  Beta  occ. eigenvalues --  -38.43829 -38.43734 -38.43533 -38.43529 -38.43232
  Beta  occ. eigenvalues --  -38.43136 -38.43046  -2.19705  -2.19602  -2.19414
  Beta  occ. eigenvalues --   -2.19408  -2.19123  -2.19019  -2.18971  -1.13405
  Beta  occ. eigenvalues --   -1.13354  -1.13340  -1.13296  -1.13254  -1.13243
  Beta  occ. eigenvalues --   -1.13146  -1.13127  -1.13097  -1.13089  -1.13070
  Beta  occ. eigenvalues --   -1.13066  -1.12809  -1.12785  -1.12751  -1.12704
  Beta  occ. eigenvalues --   -1.12662  -1.12651  -1.12641  -1.12607  -1.12594
  Beta  occ. eigenvalues --   -0.18408  -0.12905  -0.12266
  Beta virt. eigenvalues --   -0.07272  -0.05444  -0.04791  -0.04466  -0.02572
  Beta virt. eigenvalues --   -0.02251  -0.01788  -0.01266  -0.00794  -0.00120
  Beta virt. eigenvalues --   -0.00000   0.00089   0.00402   0.00928   0.00940

 Mulliken charges and spin densities:
               1          2
     1  Na   0.251748  -0.000978
     2  Na   0.252430  -0.123780
     3  Na   0.292823  -0.073974
     4  Na  -0.561233   0.654969
     5  Na  -0.533785   0.642536
     6  Na   0.186904  -0.072305
     7  Na   0.111112  -0.026468
 Sum of Mulliken charges =  -0.00000   1.00000

 Dipole moment (field-independent basis, Debye):
    X=              0.0286    Y=              0.2109    Z=              0.0011  Tot=              0.2128
 Quadrupole moment (field-independent basis, Debye-Ang):
   XX=            -58.3618   YY=            -65.4448   ZZ=            -71.3015
   XY=              0.1749   XZ=              1.1697   YZ=              0.4867

 Normal termination of Gaussian 16 at Tue Dec  5 13:15:20 2023.
