 Gaussian 16, Revision B.01,
 Gaussian 16:  ES64L-G16RevB.01 20-Dec-2017

 -------------------------
 #P B3LYP/6-311+g(d) force
 -------------------------

 -----
 DPGEN
 -----
 Symbolic Z-matrix:
 Charge =  0 Multiplicity = 2

                         Standard orientation:
 ---------------------------------------------------------------------
 Center     Atomic      Atomic             Coordinates (Angstroms)
 Number     Number       Type             X           Y           Z
 ---------------------------------------------------------------------
      1         11           0       -1.991038    2.146613    0.390756
      2         11           0       -0.359457    0.598745   -1.736116
      3         11           0        0.830116   -2.441300   -0.492597
      4         11           0       -3.588259   -1.382413   -0.125022
      5         11           0       -0.089472   -0.454146    1.932520
      6         11           0        1.703975    2.145106   -0.100959
      7         11           0        3.494135   -0.612605    0.131417
 ---------------------------------------------------------------------

 SCF Done:  E(UB3LYP) =  -1136.12470817     A.U. after   21 cycles

 The electronic state is 2-A.
 Alpha  occ. eigenvalues --  -38.45199 -38.44760 -38.43827 -38.43752 -38.43437
 Alpha  occ. eigenvalues --  -38.43356 -38.43197  -2.20921  -2.20580  -2.19682
 Alpha  occ. eigenvalues --   -2.19629  -2.19316  -2.19296  -2.19086  -1.14600
 Alpha  occ. eigenvalues --   -1.14588  -1.14552  -1.14257  -1.14238  -1.14223
 Alpha  occ. eigenvalues --   -1.13412  -1.13358  -1.13324  -1.13285  -1.13268
 Alpha  occ. eigenvalues --   -1.13229  -1.13035  -1.12996  -1.12968  -1.12946
 Alpha  occ. eigenvalues --   -1.12929  -1.12909  -1.12749  -1.12737  -1.12703
 Alpha  occ. eigenvalues --   -0.18427  -0.13304  -0.11835  -0.10575
 Alpha virt. eigenvalues --   -0.06836  -0.05434  -0.03838  -0.03347  -0.02760
 Alpha virt. eigenvalues --   -0.02479  -0.02263  -0.01412  -0.00424  -0.00132
 Alpha virt. eigenvalues --   -0.00070   0.00215   0.00629   0.00667   0.00803

  Beta  occ. eigenvalues --  -38.45206 -38.44761 -38.43817 -38.43670 -38.43419
  Beta  occ. eigenvalues --  -38.43288 -38.43188  -2.20936  -2.20582  -2.19667
  Beta  occ. eigenvalues --   -2.19479  -2.19268  -2.19191  -2.19073  -1.14601
  Beta  occ. eigenvalues --   -1.14598  -1.14563  -1.14259  -1.14233  -1.14218
  Beta  occ. eigenvalues --   -1.13396  -1.13320  -1.13280  -1.13223  -1.13164
  Beta  occ. eigenvalues --   -1.13123  -1.12974  -1.12958  -1.12917  -1.12895
  Beta  occ. eigenvalues --   -1.12860  -1.12849  -1.12731  -1.12697  -1.12692
  Beta  occ. eigenvalues --   -0.17677  -0.13149  -0.11618
  Beta virt. eigenvalues --   -0.06771  -0.06660  -0.05405  -0.03774  -0.02654
  Beta virt. eigenvalues --   -0.02330  -0.01996  -0.01412  -0.01270  -0.00435
  Beta virt. eigenvalues --   -0.00084   0.00032   0.00233   0.00717   0.00773

 Mulliken charges and spin densities:
               1          2
     1  Na   0.106027  -0.053346
     2  Na  -0.118303   0.532067
     3  Na   0.133556  -0.024776
     4  Na  -0.043223  -0.133495
     5  Na  -0.429247   0.627754
     6  Na   0.306747   0.063874
     7  Na   0.044443  -0.012079
 Sum of Mulliken charges =  -0.00000   1.00000

 Dipole moment (field-independent basis, Debye):
    X=             -0.3086    Y=             -0.2093    Z=              0.1748  Tot=              0.4119
 Quadrupole moment (field-independent basis, Debye-Ang):
   XX=            -47.7620   YY=            -69.0886   ZZ=            -75.0822
   XY=              0.3706   XZ=              0.1782   YZ=              2.1144

 Normal termination of Gaussian 16 at Tue Dec  5 16:07:06 2023.
