 Gaussian 16, Revision B.01,
 Gaussian 16:  ES64L-G16RevB.01 20-Dec-2017

 -------------------------
 #P B3LYP/6-311+g(d) force
 -------------------------

 -----
 DPGEN
 -----
 Symbolic Z-matrix:
 Charge =  0 Multiplicity = 2

                         Standard orientation:
 ---------------------------------------------------------------------
 Center     Atomic      Atomic             Coordinates (Angstroms)
 Number     Number       Type             X           Y           Z
 ---------------------------------------------------------------------
      1         11           0       -2.590696    3.306982    0.136875
      2         11           0        0.770115    3.609132   -0.158284
      3         11           0       -2.839931   -2.804366    0.718779
      4         11           0        4.182797    1.577278    0.238373
      5         11           0        0.611650   -3.283923   -0.477122
      6         11           0       -4.207191   -0.366105   -0.444496
      7         11           0        4.073257   -2.038998   -0.014124
 ---------------------------------------------------------------------

 SCF Done:  E(UB3LYP) =  -1136.10438437     A.U. after   23 cycles

 The electronic state is 2-A.
 Alpha  occ. eigenvalues --  -38.45110 -38.45050 -38.44941 -38.44596 -38.44590
 Alpha  occ. eigenvalues --  -38.44271 -38.44259  -2.20858  -2.20842  -2.20685
 Alpha  occ. eigenvalues --   -2.20403  -2.20368  -2.20047  -2.20036  -1.14564
 Alpha  occ. eigenvalues --   -1.14534  -1.14515  -1.14506  -1.14488  -1.14486
 Alpha  occ. eigenvalues --   -1.14370  -1.14362  -1.14320  -1.14064  -1.14058
 Alpha  occ. eigenvalues --   -1.14051  -1.14030  -1.14021  -1.13972  -1.13709
 Alpha  occ. eigenvalues --   -1.13697  -1.13693  -1.13681  -1.13678  -1.13656
 Alpha  occ. eigenvalues --   -0.15356  -0.13854  -0.13380  -0.10867
 Alpha virt. eigenvalues --   -0.07910  -0.04859  -0.04757  -0.03543  -0.03391
 Alpha virt. eigenvalues --   -0.02606  -0.02277  -0.02007  -0.01427  -0.00715
 Alpha virt. eigenvalues --   -0.00492  -0.00225  -0.00066   0.00177   0.00299

  Beta  occ. eigenvalues --  -38.45125 -38.45009 -38.44938 -38.44584 -38.44524
  Beta  occ. eigenvalues --  -38.44235 -38.44183  -2.20876  -2.20785  -2.20683
  Beta  occ. eigenvalues --   -2.20396  -2.20236  -2.19981  -2.19894  -1.14561
  Beta  occ. eigenvalues --   -1.14542  -1.14510  -1.14477  -1.14458  -1.14433
  Beta  occ. eigenvalues --   -1.14373  -1.14365  -1.14287  -1.14058  -1.14057
  Beta  occ. eigenvalues --   -1.14018  -1.13941  -1.13932  -1.13886  -1.13665
  Beta  occ. eigenvalues --   -1.13654  -1.13629  -1.13595  -1.13583  -1.13565
  Beta  occ. eigenvalues --   -0.14826  -0.13173  -0.12683
  Beta virt. eigenvalues --   -0.08016  -0.07740  -0.04493  -0.04187  -0.03333
  Beta virt. eigenvalues --   -0.03024  -0.02429  -0.02091  -0.01890  -0.01308
  Beta virt. eigenvalues --   -0.00350  -0.00130  -0.00042   0.00080   0.00284

 Mulliken charges and spin densities:
               1          2
     1  Na  -0.047858   0.112685
     2  Na   0.054702   0.027670
     3  Na  -0.051996   0.024136
     4  Na   0.037787   0.382233
     5  Na  -0.296566   0.343250
     6  Na  -0.013134   0.179815
     7  Na   0.317065  -0.069789
 Sum of Mulliken charges =  -0.00000   1.00000

 Dipole moment (field-independent basis, Debye):
    X=             -0.5993    Y=             -0.3575    Z=             -0.0105  Tot=              0.6979
 Quadrupole moment (field-independent basis, Debye-Ang):
   XX=            -59.2650   YY=            -68.1788   ZZ=            -73.0700
   XY=             -2.2528   XZ=              0.6582   YZ=             -1.5723

 Normal termination of Gaussian 16 at Mon Dec  4 03:19:46 2023.
