 Gaussian 16, Revision B.01,
 Gaussian 16:  ES64L-G16RevB.01 20-Dec-2017

 -------------------------
 #P B3LYP/6-311+g(d) force
 -------------------------

 -----
 DPGEN
 -----
 Symbolic Z-matrix:
 Charge =  0 Multiplicity = 2

                         Standard orientation:
 ---------------------------------------------------------------------
 Center     Atomic      Atomic             Coordinates (Angstroms)
 Number     Number       Type             X           Y           Z
 ---------------------------------------------------------------------
      1         11           0        0.334198   -0.236802    2.053988
      2         11           0        3.375008   -0.349317   -0.142166
      3         11           0        0.420330   -2.728693   -0.055516
      4         11           0       -2.674931   -1.611821   -0.260001
      5         11           0       -2.544395    1.702830    0.126689
      6         11           0        0.774537    3.069754   -0.028857
      7         11           0        0.315252    0.154049   -1.694135
 ---------------------------------------------------------------------

 SCF Done:  E(UB3LYP) =  -1136.13642440     A.U. after   19 cycles

 The electronic state is 2-A.
 Alpha  occ. eigenvalues --  -38.44474 -38.43832 -38.43804 -38.43609 -38.43537
 Alpha  occ. eigenvalues --  -38.43442 -38.43285  -2.20261  -2.19633  -2.19623
 Alpha  occ. eigenvalues --   -2.19488  -2.19381  -2.19335  -2.19221  -1.13938
 Alpha  occ. eigenvalues --   -1.13912  -1.13903  -1.13322  -1.13303  -1.13301
 Alpha  occ. eigenvalues --   -1.13293  -1.13279  -1.13244  -1.13181  -1.13124
 Alpha  occ. eigenvalues --   -1.13100  -1.13079  -1.13040  -1.13035  -1.13019
 Alpha  occ. eigenvalues --   -1.12994  -1.12930  -1.12898  -1.12852  -1.12837
 Alpha  occ. eigenvalues --   -0.18395  -0.12806  -0.12549  -0.10629
 Alpha virt. eigenvalues --   -0.05985  -0.05096  -0.04785  -0.03059  -0.02948
 Alpha virt. eigenvalues --   -0.02548  -0.01728  -0.01182  -0.00517  -0.00360
 Alpha virt. eigenvalues --   -0.00025   0.00344   0.00790   0.00819   0.00897

  Beta  occ. eigenvalues --  -38.44471 -38.43831 -38.43803 -38.43534 -38.43513
  Beta  occ. eigenvalues --  -38.43432 -38.43221  -2.20258  -2.19633  -2.19622
  Beta  occ. eigenvalues --   -2.19377  -2.19322  -2.19311  -2.19104  -1.13919
  Beta  occ. eigenvalues --   -1.13912  -1.13902  -1.13317  -1.13303  -1.13288
  Beta  occ. eigenvalues --   -1.13282  -1.13275  -1.13246  -1.13099  -1.13059
  Beta  occ. eigenvalues --   -1.13035  -1.13017  -1.13005  -1.12995  -1.12974
  Beta  occ. eigenvalues --   -1.12939  -1.12923  -1.12821  -1.12768  -1.12751
  Beta  occ. eigenvalues --   -0.17667  -0.12602  -0.12325
  Beta virt. eigenvalues --   -0.06719  -0.05977  -0.05050  -0.04729  -0.02322
  Beta virt. eigenvalues --   -0.02172  -0.01658  -0.01483  -0.01110  -0.00562
  Beta virt. eigenvalues --   -0.00408   0.00124   0.00371   0.00801   0.00845

 Mulliken charges and spin densities:
               1          2
     1  Na  -0.438079   0.745220
     2  Na   0.166546  -0.139643
     3  Na   0.407111   0.025470
     4  Na  -0.032498  -0.026908
     5  Na   0.041736  -0.018411
     6  Na   0.016821  -0.137856
     7  Na  -0.161637   0.552130
 Sum of Mulliken charges =  -0.00000   1.00000

 Dipole moment (field-independent basis, Debye):
    X=              0.4921    Y=              0.1888    Z=              0.0777  Tot=              0.5327
 Quadrupole moment (field-independent basis, Debye-Ang):
   XX=            -55.7249   YY=            -62.4216   ZZ=            -75.1163
   XY=              0.3119   XZ=             -0.0330   YZ=              1.0181

 Normal termination of Gaussian 16 at Thu Dec  7 07:01:38 2023.
