 Gaussian 16, Revision B.01,
 Gaussian 16:  ES64L-G16RevB.01 20-Dec-2017

 -------------------------
 #P B3LYP/6-311+g(d) force
 -------------------------

 -----
 DPGEN
 -----
 Symbolic Z-matrix:
 Charge =  0 Multiplicity = 2

                         Standard orientation:
 ---------------------------------------------------------------------
 Center     Atomic      Atomic             Coordinates (Angstroms)
 Number     Number       Type             X           Y           Z
 ---------------------------------------------------------------------
      1         11           0        0.285281   -0.065015    1.935713
      2         11           0       -0.024119    0.273376   -1.790696
      3         11           0       -0.727468   -2.603564   -0.032607
      4         11           0       -3.000838   -0.349673   -0.095634
      5         11           0        2.762427    1.946969   -0.106993
      6         11           0       -1.676355    2.513025    0.203421
      7         11           0        2.381072   -1.715117   -0.113205
 ---------------------------------------------------------------------

 SCF Done:  E(UB3LYP) =  -1136.13617567     A.U. after   19 cycles

 The electronic state is 2-A.
 Alpha  occ. eigenvalues --  -38.44145 -38.43862 -38.43837 -38.43735 -38.43499
 Alpha  occ. eigenvalues --  -38.43374 -38.42828  -2.19923  -2.19754  -2.19712
 Alpha  occ. eigenvalues --   -2.19581  -2.19416  -2.19312  -2.18755  -1.13598
 Alpha  occ. eigenvalues --   -1.13575  -1.13572  -1.13450  -1.13432  -1.13405
 Alpha  occ. eigenvalues --   -1.13404  -1.13385  -1.13337  -1.13248  -1.13239
 Alpha  occ. eigenvalues --   -1.13208  -1.13093  -1.13040  -1.13033  -1.12993
 Alpha  occ. eigenvalues --   -1.12946  -1.12927  -1.12431  -1.12411  -1.12400
 Alpha  occ. eigenvalues --   -0.18827  -0.13257  -0.12287  -0.10788
 Alpha virt. eigenvalues --   -0.05798  -0.05375  -0.04348  -0.03321  -0.02832
 Alpha virt. eigenvalues --   -0.02559  -0.01580  -0.01187  -0.00408  -0.00131
 Alpha virt. eigenvalues --   -0.00017   0.00359   0.00769   0.00856   0.00927

  Beta  occ. eigenvalues --  -38.44145 -38.43858 -38.43831 -38.43730 -38.43412
  Beta  occ. eigenvalues --  -38.43301 -38.42820  -2.19926  -2.19749  -2.19705
  Beta  occ. eigenvalues --   -2.19575  -2.19256  -2.19177  -2.18745  -1.13583
  Beta  occ. eigenvalues --   -1.13580  -1.13575  -1.13451  -1.13430  -1.13400
  Beta  occ. eigenvalues --   -1.13375  -1.13352  -1.13334  -1.13241  -1.13215
  Beta  occ. eigenvalues --   -1.13207  -1.12989  -1.12924  -1.12920  -1.12903
  Beta  occ. eigenvalues --   -1.12848  -1.12827  -1.12427  -1.12407  -1.12358
  Beta  occ. eigenvalues --   -0.18068  -0.13029  -0.12049
  Beta virt. eigenvalues --   -0.06867  -0.05801  -0.05298  -0.04343  -0.02516
  Beta virt. eigenvalues --   -0.02063  -0.01580  -0.01428  -0.01097  -0.00464
  Beta virt. eigenvalues --   -0.00177   0.00124   0.00380   0.00811   0.00881

 Mulliken charges and spin densities:
               1          2
     1  Na  -0.433134   0.662657
     2  Na  -0.335421   0.561654
     3  Na   0.216753   0.026157
     4  Na   0.197847   0.037089
     5  Na  -0.013788  -0.151453
     6  Na   0.115965  -0.103675
     7  Na   0.251778  -0.032428
 Sum of Mulliken charges =  -0.00000   1.00000

 Dipole moment (field-independent basis, Debye):
    X=              0.2771    Y=              0.3643    Z=              0.0369  Tot=              0.4592
 Quadrupole moment (field-independent basis, Debye-Ang):
   XX=            -56.2298   YY=            -63.4402   ZZ=            -74.1101
   XY=              0.2901   XZ=             -0.5069   YZ=              0.8283

 Normal termination of Gaussian 16 at Thu Dec  7 07:42:32 2023.
