 Gaussian 16, Revision B.01,
 Gaussian 16:  ES64L-G16RevB.01 20-Dec-2017

 -------------------------
 #P B3LYP/6-311+g(d) force
 -------------------------

 -----
 DPGEN
 -----
 Symbolic Z-matrix:
 Charge =  0 Multiplicity = 2

                         Standard orientation:
 ---------------------------------------------------------------------
 Center     Atomic      Atomic             Coordinates (Angstroms)
 Number     Number       Type             X           Y           Z
 ---------------------------------------------------------------------
      1         11           0       -0.987104   -2.503599    0.294252
      2         11           0       -2.832367   -0.129881   -0.475251
      3         11           0       -0.959022    2.809876    0.172278
      4         11           0        0.244709   -0.207436   -1.649922
      5         11           0        2.460337    1.639934   -0.189871
      6         11           0       -0.165782    0.218624    1.729205
      7         11           0        2.239230   -1.827518    0.119308
 ---------------------------------------------------------------------

 SCF Done:  E(UB3LYP) =  -1136.13634085     A.U. after   19 cycles

 The electronic state is 2-A.
 Alpha  occ. eigenvalues --  -38.43683 -38.43561 -38.43472 -38.43466 -38.43214
 Alpha  occ. eigenvalues --  -38.43074 -38.43031  -2.19549  -2.19426  -2.19382
 Alpha  occ. eigenvalues --   -2.19380  -2.19181  -2.19101  -2.19084  -1.13254
 Alpha  occ. eigenvalues --   -1.13218  -1.13179  -1.13150  -1.13114  -1.13109
 Alpha  occ. eigenvalues --   -1.13085  -1.13056  -1.13046  -1.13041  -1.13011
 Alpha  occ. eigenvalues --   -1.13002  -1.12899  -1.12848  -1.12788  -1.12782
 Alpha  occ. eigenvalues --   -1.12731  -1.12709  -1.12700  -1.12696  -1.12689
 Alpha  occ. eigenvalues --   -0.19482  -0.13080  -0.12912  -0.10836
 Alpha virt. eigenvalues --   -0.05266  -0.04972  -0.04740  -0.03107  -0.03006
 Alpha virt. eigenvalues --   -0.02306  -0.01244  -0.01159  -0.00152  -0.00013
 Alpha virt. eigenvalues --    0.00093   0.00366   0.00907   0.00947   0.00964

  Beta  occ. eigenvalues --  -38.43677 -38.43555 -38.43466 -38.43452 -38.43201
  Beta  occ. eigenvalues --  -38.42995 -38.42959  -2.19542  -2.19419  -2.19373
  Beta  occ. eigenvalues --   -2.19359  -2.19163  -2.18956  -2.18953  -1.13243
  Beta  occ. eigenvalues --   -1.13198  -1.13173  -1.13134  -1.13101  -1.13100
  Beta  occ. eigenvalues --   -1.13065  -1.13052  -1.13015  -1.13012  -1.13001
  Beta  occ. eigenvalues --   -1.12980  -1.12874  -1.12802  -1.12772  -1.12699
  Beta  occ. eigenvalues --   -1.12640  -1.12607  -1.12604  -1.12602  -1.12595
  Beta  occ. eigenvalues --   -0.18749  -0.12793  -0.12630
  Beta virt. eigenvalues --   -0.06878  -0.05258  -0.04939  -0.04734  -0.02297
  Beta virt. eigenvalues --   -0.02201  -0.01277  -0.01159  -0.01078  -0.00168
  Beta virt. eigenvalues --   -0.00036   0.00164   0.00388   0.00909   0.00952

 Mulliken charges and spin densities:
               1          2
     1  Na   0.347167   0.053533
     2  Na   0.135147   0.034308
     3  Na   0.059266  -0.086967
     4  Na  -0.353240   0.571554
     5  Na   0.019014  -0.117896
     6  Na  -0.353848   0.611210
     7  Na   0.146494  -0.065741
 Sum of Mulliken charges =  -0.00000   1.00000

 Dipole moment (field-independent basis, Debye):
    X=              0.1638    Y=              0.2509    Z=              0.0143  Tot=              0.3000
 Quadrupole moment (field-independent basis, Debye-Ang):
   XX=            -58.7880   YY=            -60.2428   ZZ=            -74.1326
   XY=             -0.2497   XZ=              1.0341   YZ=             -1.0581

 Normal termination of Gaussian 16 at Tue Nov 28 21:26:44 2023.
