 Gaussian 16, Revision B.01,
 Gaussian 16:  ES64L-G16RevB.01 20-Dec-2017

 -------------------------
 #P B3LYP/6-311+g(d) force
 -------------------------

 -----
 DPGEN
 -----
 Symbolic Z-matrix:
 Charge =  0 Multiplicity = 2

                         Standard orientation:
 ---------------------------------------------------------------------
 Center     Atomic      Atomic             Coordinates (Angstroms)
 Number     Number       Type             X           Y           Z
 ---------------------------------------------------------------------
      1         11           0        0.211154    3.129353    0.188232
      2         11           0        1.759336   -2.615363   -0.082860
      3         11           0       -2.654485   -2.060272   -0.248679
      4         11           0        3.247592    0.724562   -0.321370
      5         11           0        0.208327   -0.501079    2.085585
      6         11           0       -2.822634    1.337886   -0.047788
      7         11           0        0.050711   -0.015087   -1.573121
 ---------------------------------------------------------------------

 SCF Done:  E(UB3LYP) =  -1136.13507591     A.U. after   19 cycles

 The electronic state is 2-A.
 Alpha  occ. eigenvalues --  -38.44497 -38.44020 -38.43950 -38.43916 -38.43557
 Alpha  occ. eigenvalues --  -38.43370 -38.43343  -2.20287  -2.19814  -2.19771
 Alpha  occ. eigenvalues --   -2.19742  -2.19412  -2.19291  -2.19143  -1.13966
 Alpha  occ. eigenvalues --   -1.13941  -1.13921  -1.13491  -1.13485  -1.13458
 Alpha  occ. eigenvalues --   -1.13449  -1.13447  -1.13422  -1.13405  -1.13399
 Alpha  occ. eigenvalues --   -1.13366  -1.13076  -1.13034  -1.13031  -1.12987
 Alpha  occ. eigenvalues --   -1.12935  -1.12912  -1.12813  -1.12806  -1.12786
 Alpha  occ. eigenvalues --   -0.18038  -0.13093  -0.12170  -0.10397
 Alpha virt. eigenvalues --   -0.05981  -0.05450  -0.04858  -0.03128  -0.02750
 Alpha virt. eigenvalues --   -0.02370  -0.01804  -0.01304  -0.00795  -0.00587
 Alpha virt. eigenvalues --   -0.00032   0.00318   0.00722   0.00759   0.00840

  Beta  occ. eigenvalues --  -38.44487 -38.44016 -38.43945 -38.43914 -38.43457
  Beta  occ. eigenvalues --  -38.43341 -38.43318  -2.20271  -2.19809  -2.19765
  Beta  occ. eigenvalues --   -2.19741  -2.19228  -2.19198  -2.19141  -1.13940
  Beta  occ. eigenvalues --   -1.13929  -1.13913  -1.13490  -1.13469  -1.13452
  Beta  occ. eigenvalues --   -1.13447  -1.13418  -1.13415  -1.13397  -1.13395
  Beta  occ. eigenvalues --   -1.13364  -1.12957  -1.12913  -1.12905  -1.12899
  Beta  occ. eigenvalues --   -1.12872  -1.12841  -1.12804  -1.12797  -1.12784
  Beta  occ. eigenvalues --   -0.17358  -0.12860  -0.11968
  Beta virt. eigenvalues --   -0.06565  -0.05913  -0.05406  -0.04790  -0.02399
  Beta virt. eigenvalues --   -0.02042  -0.01685  -0.01370  -0.01221  -0.00848
  Beta virt. eigenvalues --   -0.00618   0.00133   0.00369   0.00758   0.00807

 Mulliken charges and spin densities:
               1          2
     1  Na  -0.076800  -0.019537
     2  Na   0.202670  -0.091539
     3  Na   0.155138  -0.059624
     4  Na   0.120488   0.008707
     5  Na  -0.410990   0.777260
     6  Na   0.057003  -0.010705
     7  Na  -0.047509   0.395438
 Sum of Mulliken charges =  -0.00000   1.00000

 Dipole moment (field-independent basis, Debye):
    X=              0.2434    Y=             -0.2604    Z=              0.0019  Tot=              0.3565
 Quadrupole moment (field-independent basis, Debye-Ang):
   XX=            -55.1224   YY=            -61.5036   ZZ=            -76.3133
   XY=              0.5275   XZ=             -0.4972   YZ=              1.3112

 Normal termination of Gaussian 16 at Thu Dec  7 18:29:45 2023.
