 Gaussian 16, Revision B.01,
 Gaussian 16:  ES64L-G16RevB.01 20-Dec-2017

 -------------------------
 #P B3LYP/6-311+g(d) force
 -------------------------

 -----
 DPGEN
 -----
 Symbolic Z-matrix:
 Charge =  0 Multiplicity = 2

                         Standard orientation:
 ---------------------------------------------------------------------
 Center     Atomic      Atomic             Coordinates (Angstroms)
 Number     Number       Type             X           Y           Z
 ---------------------------------------------------------------------
      1         11           0        3.348375   -0.346164    1.636047
      2         11           0        1.821548   -1.834753   -1.344582
      3         11           0        2.425971    1.997996   -0.673151
      4         11           0       -3.619192    0.195704    0.903694
      5         11           0       -1.843656   -2.647349   -0.503968
      6         11           0       -0.444109   -0.055265    0.735200
      7         11           0       -1.688937    2.689831   -0.753240
 ---------------------------------------------------------------------

 SCF Done:  E(UB3LYP) =  -1136.12539147     A.U. after   22 cycles

 The electronic state is 2-A.
 Alpha  occ. eigenvalues --  -38.44619 -38.44161 -38.44130 -38.43835 -38.43667
 Alpha  occ. eigenvalues --  -38.43655 -38.43614  -2.20405  -2.20011  -2.19941
 Alpha  occ. eigenvalues --   -2.19676  -2.19615  -2.19479  -2.19413  -1.14092
 Alpha  occ. eigenvalues --   -1.14069  -1.14037  -1.13706  -1.13664  -1.13622
 Alpha  occ. eigenvalues --   -1.13618  -1.13607  -1.13551  -1.13341  -1.13328
 Alpha  occ. eigenvalues --   -1.13319  -1.13298  -1.13285  -1.13254  -1.13152
 Alpha  occ. eigenvalues --   -1.13138  -1.13100  -1.13086  -1.13077  -1.13036
 Alpha  occ. eigenvalues --   -0.17560  -0.14123  -0.11929  -0.10061
 Alpha virt. eigenvalues --   -0.06078  -0.05930  -0.05003  -0.03420  -0.02555
 Alpha virt. eigenvalues --   -0.02312  -0.01785  -0.01352  -0.00723  -0.00457
 Alpha virt. eigenvalues --   -0.00324   0.00181   0.00227   0.00416   0.00673

  Beta  occ. eigenvalues --  -38.44608 -38.44129 -38.44093 -38.43755 -38.43670
  Beta  occ. eigenvalues --  -38.43649 -38.43603  -2.20389  -2.19951  -2.19874
  Beta  occ. eigenvalues --   -2.19607  -2.19526  -2.19489  -2.19393  -1.14075
  Beta  occ. eigenvalues --   -1.14060  -1.14004  -1.13664  -1.13624  -1.13587
  Beta  occ. eigenvalues --   -1.13567  -1.13558  -1.13500  -1.13324  -1.13288
  Beta  occ. eigenvalues --   -1.13249  -1.13224  -1.13215  -1.13188  -1.13161
  Beta  occ. eigenvalues --   -1.13146  -1.13085  -1.13073  -1.13067  -1.13012
  Beta  occ. eigenvalues --   -0.17107  -0.13718  -0.11552
  Beta virt. eigenvalues --   -0.06723  -0.06025  -0.05696  -0.04368  -0.03165
  Beta virt. eigenvalues --   -0.02134  -0.02083  -0.01285  -0.01165  -0.00532
  Beta virt. eigenvalues --   -0.00228  -0.00085   0.00293   0.00373   0.00622

 Mulliken charges and spin densities:
               1          2
     1  Na   0.829805   0.456086
     2  Na   0.000582   0.114370
     3  Na   0.285400   0.094891
     4  Na   0.960514   0.088343
     5  Na   0.084147  -0.035861
     6  Na  -2.233392   0.285653
     7  Na   0.072943  -0.003484
 Sum of Mulliken charges =  -0.00000   1.00000

 Dipole moment (field-independent basis, Debye):
    X=             -0.3040    Y=             -0.0263    Z=             -0.6668  Tot=              0.7333
 Quadrupole moment (field-independent basis, Debye-Ang):
   XX=            -55.7979   YY=            -68.4843   ZZ=            -71.0482
   XY=              0.7850   XZ=             -3.0704   YZ=             -0.9079

 Normal termination of Gaussian 16 at Tue Dec  5 09:49:50 2023.
