 Gaussian 16, Revision B.01,
 Gaussian 16:  ES64L-G16RevB.01 20-Dec-2017

 -------------------------
 #P B3LYP/6-311+g(d) force
 -------------------------

 -----
 DPGEN
 -----
 Symbolic Z-matrix:
 Charge =  0 Multiplicity = 2

                         Standard orientation:
 ---------------------------------------------------------------------
 Center     Atomic      Atomic             Coordinates (Angstroms)
 Number     Number       Type             X           Y           Z
 ---------------------------------------------------------------------
      1         11           0       -0.356815   -1.676314    0.436044
      2         11           0        1.107514    0.715675    1.757677
      3         11           0        2.884461   -2.053244   -0.089020
      4         11           0        1.655040    0.297199   -1.687506
      5         11           0        0.355143    2.986817    0.311126
      6         11           0       -1.920446    1.093359   -0.867195
      7         11           0       -3.724896   -1.363491    0.138875
 ---------------------------------------------------------------------

 SCF Done:  E(UB3LYP) =  -1136.12607442     A.U. after   19 cycles

 The electronic state is 2-A.
 Alpha  occ. eigenvalues --  -38.43961 -38.43932 -38.43811 -38.43801 -38.43600
 Alpha  occ. eigenvalues --  -38.43428 -38.43330  -2.19829  -2.19809  -2.19752
 Alpha  occ. eigenvalues --   -2.19734  -2.19514  -2.19382  -2.19267  -1.13594
 Alpha  occ. eigenvalues --   -1.13566  -1.13507  -1.13491  -1.13466  -1.13439
 Alpha  occ. eigenvalues --   -1.13410  -1.13406  -1.13404  -1.13402  -1.13358
 Alpha  occ. eigenvalues --   -1.13308  -1.13213  -1.13190  -1.13135  -1.13090
 Alpha  occ. eigenvalues --   -1.13063  -1.12950  -1.12912  -1.12890  -1.12865
 Alpha  occ. eigenvalues --   -0.18965  -0.13455  -0.12670  -0.10968
 Alpha virt. eigenvalues --   -0.06040  -0.05195  -0.04262  -0.03312  -0.02866
 Alpha virt. eigenvalues --   -0.02572  -0.01808  -0.01271  -0.00218  -0.00187
 Alpha virt. eigenvalues --    0.00156   0.00365   0.00751   0.00808   0.00871

  Beta  occ. eigenvalues --  -38.43958 -38.43937 -38.43732 -38.43730 -38.43579
  Beta  occ. eigenvalues --  -38.43404 -38.43322  -2.19826  -2.19763  -2.19662
  Beta  occ. eigenvalues --   -2.19607  -2.19477  -2.19342  -2.19256  -1.13542
  Beta  occ. eigenvalues --   -1.13498  -1.13493  -1.13448  -1.13444  -1.13413
  Beta  occ. eigenvalues --   -1.13409  -1.13406  -1.13324  -1.13307  -1.13267
  Beta  occ. eigenvalues --   -1.13226  -1.13189  -1.13160  -1.13104  -1.13062
  Beta  occ. eigenvalues --   -1.13000  -1.12930  -1.12890  -1.12878  -1.12835
  Beta  occ. eigenvalues --   -0.18249  -0.13285  -0.12433
  Beta virt. eigenvalues --   -0.07013  -0.05799  -0.05085  -0.04173  -0.02675
  Beta virt. eigenvalues --   -0.02303  -0.01835  -0.01550  -0.01116  -0.00205
  Beta virt. eigenvalues --    0.00058   0.00241   0.00453   0.00815   0.00901

 Mulliken charges and spin densities:
               1          2
     1  Na  -0.540800   0.252105
     2  Na  -0.308916   0.189901
     3  Na   0.514460   0.088312
     4  Na  -0.403355   0.317540
     5  Na   0.664703   0.072065
     6  Na  -0.519448   0.198199
     7  Na   0.593355  -0.118123
 Sum of Mulliken charges =  -0.00000   1.00000

 Dipole moment (field-independent basis, Debye):
    X=              0.0733    Y=             -0.2962    Z=             -0.0193  Tot=              0.3058
 Quadrupole moment (field-independent basis, Debye-Ang):
   XX=            -55.7591   YY=            -64.5162   ZZ=            -73.1088
   XY=             -1.2800   XZ=             -0.0043   YZ=             -1.5709

 Normal termination of Gaussian 16 at Wed Dec  6 00:11:30 2023.
