 Gaussian 16, Revision B.01,
 Gaussian 16:  ES64L-G16RevB.01 20-Dec-2017

 -------------------------
 #P B3LYP/6-311+g(d) force
 -------------------------

 -----
 DPGEN
 -----
 Symbolic Z-matrix:
 Charge =  0 Multiplicity = 2

                         Standard orientation:
 ---------------------------------------------------------------------
 Center     Atomic      Atomic             Coordinates (Angstroms)
 Number     Number       Type             X           Y           Z
 ---------------------------------------------------------------------
      1         11           0       -3.737657    1.253241    0.077212
      2         11           0       -0.080782   -0.054058   -1.368833
      3         11           0       -2.969931   -2.406231   -0.132188
      4         11           0        0.729441   -2.053018    1.522808
      5         11           0        3.404639   -1.536935   -1.068990
      6         11           0        2.227392    1.230726    1.055301
      7         11           0        0.426898    3.566275   -0.085310
 ---------------------------------------------------------------------

 SCF Done:  E(UB3LYP) =  -1136.11845323     A.U. after   22 cycles

 The electronic state is 2-A.
 Alpha  occ. eigenvalues --  -38.45404 -38.45025 -38.44683 -38.43833 -38.43793
 Alpha  occ. eigenvalues --  -38.43648 -38.43324  -2.21131  -2.20828  -2.20431
 Alpha  occ. eigenvalues --   -2.19663  -2.19648  -2.19467  -2.19124  -1.14811
 Alpha  occ. eigenvalues --   -1.14779  -1.14758  -1.14547  -1.14481  -1.14445
 Alpha  occ. eigenvalues --   -1.14119  -1.14085  -1.14068  -1.13351  -1.13335
 Alpha  occ. eigenvalues --   -1.13315  -1.13298  -1.13291  -1.13252  -1.13147
 Alpha  occ. eigenvalues --   -1.13122  -1.13073  -1.12794  -1.12785  -1.12764
 Alpha  occ. eigenvalues --   -0.17183  -0.13291  -0.12195  -0.09972
 Alpha virt. eigenvalues --   -0.06880  -0.06003  -0.05041  -0.03029  -0.02662
 Alpha virt. eigenvalues --   -0.02437  -0.01885  -0.01559  -0.01260  -0.00918
 Alpha virt. eigenvalues --   -0.00350   0.00102   0.00300   0.00536   0.00579

  Beta  occ. eigenvalues --  -38.45385 -38.45008 -38.44683 -38.43770 -38.43766
  Beta  occ. eigenvalues --  -38.43596 -38.43326  -2.21096  -2.20798  -2.20432
  Beta  occ. eigenvalues --   -2.19622  -2.19523  -2.19371  -2.19131  -1.14784
  Beta  occ. eigenvalues --   -1.14755  -1.14736  -1.14514  -1.14467  -1.14418
  Beta  occ. eigenvalues --   -1.14120  -1.14082  -1.14059  -1.13324  -1.13294
  Beta  occ. eigenvalues --   -1.13267  -1.13222  -1.13204  -1.13175  -1.13081
  Beta  occ. eigenvalues --   -1.13051  -1.13006  -1.12792  -1.12788  -1.12769
  Beta  occ. eigenvalues --   -0.16719  -0.13028  -0.11890
  Beta virt. eigenvalues --   -0.06750  -0.06415  -0.05654  -0.04786  -0.02715
  Beta virt. eigenvalues --   -0.02323  -0.02117  -0.01565  -0.01329  -0.01015
  Beta virt. eigenvalues --   -0.00710  -0.00045   0.00270   0.00457   0.00582

 Mulliken charges and spin densities:
               1          2
     1  Na  -0.034902   0.122965
     2  Na   0.346285   0.174244
     3  Na   0.101860   0.018306
     4  Na  -0.390027   0.260858
     5  Na   0.009831   0.277825
     6  Na   0.136300   0.228964
     7  Na  -0.169346  -0.083161
 Sum of Mulliken charges =  -0.00000   1.00000

 Dipole moment (field-independent basis, Debye):
    X=             -1.1274    Y=             -0.1363    Z=              0.1927  Tot=              1.1518
 Quadrupole moment (field-independent basis, Debye-Ang):
   XX=            -57.7234   YY=            -65.1798   ZZ=            -73.9642
   XY=             -0.8982   XZ=              0.9754   YZ=              0.7479

 Normal termination of Gaussian 16 at Thu Dec  7 11:41:38 2023.
