 Gaussian 16, Revision B.01,
 Gaussian 16:  ES64L-G16RevB.01 20-Dec-2017

 -------------------------
 #P B3LYP/6-311+g(d) force
 -------------------------

 -----
 DPGEN
 -----
 Symbolic Z-matrix:
 Charge =  0 Multiplicity = 2

                         Standard orientation:
 ---------------------------------------------------------------------
 Center     Atomic      Atomic             Coordinates (Angstroms)
 Number     Number       Type             X           Y           Z
 ---------------------------------------------------------------------
      1         11           0        0.261004    3.117440    0.426107
      2         11           0        5.225510   -0.540939   -1.404829
      3         11           0        2.951081    0.902768    0.402210
      4         11           0        1.792826   -2.258154    1.665637
      5         11           0       -0.303993   -0.256439   -0.124308
      6         11           0       -3.698662   -1.062973   -1.182184
      7         11           0       -6.227767    0.098298    0.217367
 ---------------------------------------------------------------------

 SCF Done:  E(UB3LYP) =  -1136.10822107     A.U. after   22 cycles

 The electronic state is 2-A.
 Alpha  occ. eigenvalues --  -38.45242 -38.44908 -38.44241 -38.44079 -38.43773
 Alpha  occ. eigenvalues --  -38.43566 -38.43477  -2.21049  -2.20683  -2.20043
 Alpha  occ. eigenvalues --   -2.19929  -2.19566  -2.19382  -2.19367  -1.14703
 Alpha  occ. eigenvalues --   -1.14700  -1.14649  -1.14353  -1.14339  -1.14337
 Alpha  occ. eigenvalues --   -1.13702  -1.13697  -1.13694  -1.13618  -1.13594
 Alpha  occ. eigenvalues --   -1.13567  -1.13245  -1.13214  -1.13189  -1.13070
 Alpha  occ. eigenvalues --   -1.13053  -1.13046  -1.13034  -1.13007  -1.12943
 Alpha  occ. eigenvalues --   -0.16683  -0.13693  -0.11743  -0.11485
 Alpha virt. eigenvalues --   -0.07231  -0.04768  -0.04519  -0.03441  -0.03164
 Alpha virt. eigenvalues --   -0.02282  -0.02031  -0.01663  -0.01317  -0.00780
 Alpha virt. eigenvalues --   -0.00690  -0.00256   0.00299   0.00448   0.00554

  Beta  occ. eigenvalues --  -38.45155 -38.44906 -38.44242 -38.44065 -38.43723
  Beta  occ. eigenvalues --  -38.43525 -38.43455  -2.20889  -2.20681  -2.20044
  Beta  occ. eigenvalues --   -2.19909  -2.19473  -2.19331  -2.19306  -1.14596
  Beta  occ. eigenvalues --   -1.14583  -1.14540  -1.14351  -1.14338  -1.14335
  Beta  occ. eigenvalues --   -1.13702  -1.13700  -1.13693  -1.13606  -1.13586
  Beta  occ. eigenvalues --   -1.13520  -1.13178  -1.13151  -1.13130  -1.13046
  Beta  occ. eigenvalues --   -1.13009  -1.12991  -1.12982  -1.12963  -1.12908
  Beta  occ. eigenvalues --   -0.15979  -0.13575  -0.11030
  Beta virt. eigenvalues --   -0.08041  -0.06886  -0.04346  -0.04332  -0.03211
  Beta virt. eigenvalues --   -0.02841  -0.01948  -0.01735  -0.01384  -0.01157
  Beta virt. eigenvalues --   -0.00496  -0.00436  -0.00066   0.00340   0.00541

 Mulliken charges and spin densities:
               1          2
     1  Na   0.421264   0.179145
     2  Na   0.361206   0.182435
     3  Na   0.289560   0.388926
     4  Na   0.723475   0.223397
     5  Na  -1.228811   0.087087
     6  Na  -0.724188  -0.069534
     7  Na   0.157494   0.008543
 Sum of Mulliken charges =  -0.00000   1.00000

 Dipole moment (field-independent basis, Debye):
    X=             -1.4349    Y=             -0.2215    Z=              0.6343  Tot=              1.5844
 Quadrupole moment (field-independent basis, Debye-Ang):
   XX=            -63.4664   YY=            -65.8299   ZZ=            -66.6074
   XY=             -5.8284   XZ=             -3.8455   YZ=              1.3562

 Normal termination of Gaussian 16 at Tue Nov 28 21:01:32 2023.
