 Gaussian 16, Revision B.01,
 Gaussian 16:  ES64L-G16RevB.01 20-Dec-2017

 -------------------------
 #P B3LYP/6-311+g(d) force
 -------------------------

 -----
 DPGEN
 -----
 Symbolic Z-matrix:
 Charge =  0 Multiplicity = 2

                         Standard orientation:
 ---------------------------------------------------------------------
 Center     Atomic      Atomic             Coordinates (Angstroms)
 Number     Number       Type             X           Y           Z
 ---------------------------------------------------------------------
      1         11           0       -2.413684    1.798949    0.501340
      2         11           0       -0.240460   -0.016506   -1.573978
      3         11           0        0.185307   -2.167178    0.284291
      4         11           0        3.318643   -0.810877   -0.424765
      5         11           0        0.812536    2.408278   -0.639710
      6         11           0        1.342480    0.420968    1.903652
      7         11           0       -3.004821   -1.633633   -0.050829
 ---------------------------------------------------------------------

 SCF Done:  E(UB3LYP) =  -1136.12483718     A.U. after   20 cycles

 The electronic state is 2-A.
 Alpha  occ. eigenvalues --  -38.44784 -38.44086 -38.43788 -38.43634 -38.43464
 Alpha  occ. eigenvalues --  -38.43180 -38.43137  -2.20605  -2.19905  -2.19624
 Alpha  occ. eigenvalues --   -2.19561  -2.19532  -2.19142  -2.19077  -1.14282
 Alpha  occ. eigenvalues --   -1.14258  -1.14247  -1.13577  -1.13570  -1.13544
 Alpha  occ. eigenvalues --   -1.13381  -1.13301  -1.13290  -1.13281  -1.13269
 Alpha  occ. eigenvalues --   -1.13239  -1.13210  -1.13163  -1.13089  -1.12831
 Alpha  occ. eigenvalues --   -1.12804  -1.12732  -1.12714  -1.12706  -1.12650
 Alpha  occ. eigenvalues --   -0.18967  -0.13466  -0.12208  -0.10751
 Alpha virt. eigenvalues --   -0.06234  -0.05218  -0.03910  -0.03450  -0.02774
 Alpha virt. eigenvalues --   -0.02377  -0.02078  -0.01020  -0.00219  -0.00049
 Alpha virt. eigenvalues --    0.00136   0.00287   0.00750   0.00818   0.00853

  Beta  occ. eigenvalues --  -38.44780 -38.44078 -38.43790 -38.43559 -38.43391
  Beta  occ. eigenvalues --  -38.43166 -38.43116  -2.20603  -2.19891  -2.19629
  Beta  occ. eigenvalues --   -2.19422  -2.19401  -2.19121  -2.19044  -1.14269
  Beta  occ. eigenvalues --   -1.14257  -1.14233  -1.13565  -1.13551  -1.13537
  Beta  occ. eigenvalues --   -1.13313  -1.13292  -1.13273  -1.13262  -1.13219
  Beta  occ. eigenvalues --   -1.13144  -1.13115  -1.13064  -1.12987  -1.12806
  Beta  occ. eigenvalues --   -1.12750  -1.12706  -1.12693  -1.12658  -1.12625
  Beta  occ. eigenvalues --   -0.18249  -0.13265  -0.11963
  Beta virt. eigenvalues --   -0.06844  -0.06090  -0.05144  -0.03905  -0.02777
  Beta virt. eigenvalues --   -0.02066  -0.01978  -0.01356  -0.00948  -0.00158
  Beta virt. eigenvalues --    0.00079   0.00155   0.00322   0.00787   0.00859

 Mulliken charges and spin densities:
               1          2
     1  Na  -0.074013   0.091116
     2  Na  -0.406729   0.337622
     3  Na   0.173294   0.113347
     4  Na   0.440498  -0.030909
     5  Na   0.311479   0.014482
     6  Na  -0.591775   0.496954
     7  Na   0.147245  -0.022612
 Sum of Mulliken charges =  -0.00000   1.00000

 Dipole moment (field-independent basis, Debye):
    X=              0.2264    Y=             -0.0007    Z=              0.1787  Tot=              0.2885
 Quadrupole moment (field-independent basis, Debye-Ang):
   XX=            -49.6236   YY=            -69.4111   ZZ=            -73.3399
   XY=             -0.9057   XZ=             -3.0743   YZ=              0.8097

 Normal termination of Gaussian 16 at Tue Dec  5 17:10:51 2023.
