 Gaussian 16, Revision B.01,
 Gaussian 16:  ES64L-G16RevB.01 20-Dec-2017

 -------------------------
 #P B3LYP/6-311+g(d) force
 -------------------------

 -----
 DPGEN
 -----
 Symbolic Z-matrix:
 Charge =  0 Multiplicity = 2

                         Standard orientation:
 ---------------------------------------------------------------------
 Center     Atomic      Atomic             Coordinates (Angstroms)
 Number     Number       Type             X           Y           Z
 ---------------------------------------------------------------------
      1         11           0       -3.548367    1.812487   -0.095245
      2         11           0        0.520008   -2.721006   -1.514707
      3         11           0       -2.739088   -1.601150    0.214516
      4         11           0        3.142456   -1.081608    0.282786
      5         11           0        2.783795    2.765996   -0.177004
      6         11           0       -0.373045    1.732118   -0.621634
      7         11           0        0.214241   -0.906837    1.911287
 ---------------------------------------------------------------------

 SCF Done:  E(UB3LYP) =  -1136.11995665     A.U. after   23 cycles

 The electronic state is 2-A.
 Alpha  occ. eigenvalues --  -38.45125 -38.44849 -38.44802 -38.44373 -38.43851
 Alpha  occ. eigenvalues --  -38.43373 -38.43334  -2.20911  -2.20642  -2.20601
 Alpha  occ. eigenvalues --   -2.20138  -2.19688  -2.19205  -2.19186  -1.14604
 Alpha  occ. eigenvalues --   -1.14576  -1.14538  -1.14324  -1.14311  -1.14289
 Alpha  occ. eigenvalues --   -1.14284  -1.14257  -1.14220  -1.13816  -1.13806
 Alpha  occ. eigenvalues --   -1.13776  -1.13385  -1.13362  -1.13309  -1.12872
 Alpha  occ. eigenvalues --   -1.12846  -1.12843  -1.12829  -1.12826  -1.12802
 Alpha  occ. eigenvalues --   -0.17411  -0.13494  -0.12387  -0.10001
 Alpha virt. eigenvalues --   -0.07060  -0.06276  -0.04254  -0.03242  -0.02859
 Alpha virt. eigenvalues --   -0.02304  -0.02063  -0.01855  -0.01296  -0.00372
 Alpha virt. eigenvalues --   -0.00014   0.00145   0.00202   0.00391   0.00680

  Beta  occ. eigenvalues --  -38.45120 -38.44841 -38.44800 -38.44379 -38.43843
  Beta  occ. eigenvalues --  -38.43300 -38.43250  -2.20906  -2.20632  -2.20598
  Beta  occ. eigenvalues --   -2.20151  -2.19675  -2.19052  -2.19047  -1.14587
  Beta  occ. eigenvalues --   -1.14565  -1.14531  -1.14308  -1.14290  -1.14286
  Beta  occ. eigenvalues --   -1.14281  -1.14251  -1.14217  -1.13824  -1.13812
  Beta  occ. eigenvalues --   -1.13783  -1.13361  -1.13353  -1.13303  -1.12767
  Beta  occ. eigenvalues --   -1.12752  -1.12735  -1.12730  -1.12724  -1.12706
  Beta  occ. eigenvalues --   -0.16863  -0.13337  -0.12104
  Beta virt. eigenvalues --   -0.06945  -0.06274  -0.06184  -0.03985  -0.02635
  Beta virt. eigenvalues --   -0.02402  -0.02209  -0.02013  -0.01255  -0.01083
  Beta virt. eigenvalues --   -0.00243   0.00220   0.00273   0.00345   0.00436

 Mulliken charges and spin densities:
               1          2
     1  Na   0.698927  -0.075095
     2  Na  -0.052885   0.280442
     3  Na   0.085444   0.195412
     4  Na   0.142856   0.205299
     5  Na   0.536279  -0.109568
     6  Na  -1.394544   0.164445
     7  Na  -0.016077   0.339065
 Sum of Mulliken charges =  -0.00000   1.00000

 Dipole moment (field-independent basis, Debye):
    X=             -0.3603    Y=              0.5000    Z=              0.3731  Tot=              0.7204
 Quadrupole moment (field-independent basis, Debye-Ang):
   XX=            -47.3587   YY=            -68.6891   ZZ=            -78.0771
   XY=              1.1912   XZ=              0.7416   YZ=              0.0259

 Normal termination of Gaussian 16 at Sun Dec  3 23:33:16 2023.
