 Gaussian 16, Revision B.01,
 Gaussian 16:  ES64L-G16RevB.01 20-Dec-2017

 -------------------------
 #P B3LYP/6-311+g(d) force
 -------------------------

 -----
 DPGEN
 -----
 Symbolic Z-matrix:
 Charge =  0 Multiplicity = 2

                         Standard orientation:
 ---------------------------------------------------------------------
 Center     Atomic      Atomic             Coordinates (Angstroms)
 Number     Number       Type             X           Y           Z
 ---------------------------------------------------------------------
      1         11           0        3.362306   -0.784334   -0.984534
      2         11           0       -0.555172   -2.184122   -1.468738
      3         11           0       -4.621275    1.240686    0.160974
      4         11           0       -0.728496    1.653840    0.582606
      5         11           0        2.361997    2.759753   -0.773669
      6         11           0        4.191655   -1.088478    1.883709
      7         11           0       -4.011015   -1.597345    0.599653
 ---------------------------------------------------------------------

 SCF Done:  E(UB3LYP) =  -1136.10166927     A.U. after   23 cycles

 The electronic state is 2-A.
 Alpha  occ. eigenvalues --  -38.45189 -38.45054 -38.44972 -38.44147 -38.44038
 Alpha  occ. eigenvalues --  -38.43932 -38.43776  -2.20963  -2.20892  -2.20779
 Alpha  occ. eigenvalues --   -2.19963  -2.19783  -2.19753  -2.19545  -1.14695
 Alpha  occ. eigenvalues --   -1.14604  -1.14592  -1.14567  -1.14531  -1.14510
 Alpha  occ. eigenvalues --   -1.14435  -1.14410  -1.14369  -1.13700  -1.13599
 Alpha  occ. eigenvalues --   -1.13593  -1.13485  -1.13472  -1.13413  -1.13402
 Alpha  occ. eigenvalues --   -1.13392  -1.13379  -1.13222  -1.13200  -1.13173
 Alpha  occ. eigenvalues --   -0.16128  -0.14367  -0.11669  -0.10975
 Alpha virt. eigenvalues --   -0.06669  -0.06174  -0.04481  -0.03484  -0.03089
 Alpha virt. eigenvalues --   -0.02479  -0.02159  -0.01876  -0.01162  -0.00591
 Alpha virt. eigenvalues --   -0.00384  -0.00187   0.00045   0.00234   0.00496

  Beta  occ. eigenvalues --  -38.45060 -38.45009 -38.44977 -38.44097 -38.44049
  Beta  occ. eigenvalues --  -38.43939 -38.43769  -2.20814  -2.20788  -2.20723
  Beta  occ. eigenvalues --   -2.19872  -2.19804  -2.19771  -2.19532  -1.14659
  Beta  occ. eigenvalues --   -1.14480  -1.14461  -1.14443  -1.14438  -1.14428
  Beta  occ. eigenvalues --   -1.14411  -1.14401  -1.14342  -1.13653  -1.13536
  Beta  occ. eigenvalues --   -1.13530  -1.13501  -1.13481  -1.13422  -1.13409
  Beta  occ. eigenvalues --   -1.13407  -1.13360  -1.13212  -1.13191  -1.13165
  Beta  occ. eigenvalues --   -0.15543  -0.13986  -0.10818
  Beta virt. eigenvalues --   -0.07769  -0.06589  -0.05786  -0.04072  -0.03129
  Beta virt. eigenvalues --   -0.02835  -0.02282  -0.01893  -0.01392  -0.01069
  Beta virt. eigenvalues --   -0.00371  -0.00133  -0.00068   0.00164   0.00332

 Mulliken charges and spin densities:
               1          2
     1  Na  -0.444036  -0.175099
     2  Na   0.110564   0.664601
     3  Na   0.225374   0.236462
     4  Na  -0.574071  -0.109725
     5  Na   0.351880   0.117388
     6  Na   0.268467   0.306163
     7  Na   0.061821  -0.039790
 Sum of Mulliken charges =  -0.00000   1.00000

 Dipole moment (field-independent basis, Debye):
    X=             -1.4121    Y=             -0.0356    Z=              0.3026  Tot=              1.4446
 Quadrupole moment (field-independent basis, Debye-Ang):
   XX=            -63.2724   YY=            -73.3035   ZZ=            -65.0816
   XY=              3.6209   XZ=             -1.1900   YZ=             -1.9879

 Normal termination of Gaussian 16 at Mon Dec  4 04:00:44 2023.
