 Gaussian 16, Revision B.01,
 Gaussian 16:  ES64L-G16RevB.01 20-Dec-2017

 -------------------------
 #P B3LYP/6-311+g(d) force
 -------------------------

 -----
 DPGEN
 -----
 Symbolic Z-matrix:
 Charge =  0 Multiplicity = 2

                         Standard orientation:
 ---------------------------------------------------------------------
 Center     Atomic      Atomic             Coordinates (Angstroms)
 Number     Number       Type             X           Y           Z
 ---------------------------------------------------------------------
      1         11           0       -0.137232    1.325024   -0.973694
      2         11           0       -2.607922    2.760724   -0.026005
      3         11           0        2.091413   -0.823164    2.279940
      4         11           0        3.073856    1.795832   -0.558529
      5         11           0       -1.830630   -2.716201   -1.061837
      6         11           0       -2.032009   -0.572561    1.636873
      7         11           0        1.442524   -1.769654   -1.296748
 ---------------------------------------------------------------------

 SCF Done:  E(UB3LYP) =  -1136.12309209     A.U. after   20 cycles

 The electronic state is 2-A.
 Alpha  occ. eigenvalues --  -38.44819 -38.44470 -38.44459 -38.44110 -38.43700
 Alpha  occ. eigenvalues --  -38.43609 -38.43096  -2.20607  -2.20254  -2.20254
 Alpha  occ. eigenvalues --   -2.19937  -2.19503  -2.19423  -2.19023  -1.14261
 Alpha  occ. eigenvalues --   -1.14245  -1.14210  -1.13942  -1.13937  -1.13918
 Alpha  occ. eigenvalues --   -1.13917  -1.13877  -1.13868  -1.13642  -1.13604
 Alpha  occ. eigenvalues --   -1.13539  -1.13166  -1.13164  -1.13157  -1.13145
 Alpha  occ. eigenvalues --   -1.13074  -1.13049  -1.12696  -1.12681  -1.12646
 Alpha  occ. eigenvalues --   -0.17440  -0.12867  -0.12118  -0.11333
 Alpha virt. eigenvalues --   -0.06276  -0.05232  -0.04651  -0.03454  -0.03043
 Alpha virt. eigenvalues --   -0.02769  -0.01712  -0.01297  -0.00552  -0.00237
 Alpha virt. eigenvalues --   -0.00082   0.00148   0.00295   0.00561   0.00714

  Beta  occ. eigenvalues --  -38.44719 -38.44467 -38.44430 -38.44081 -38.43688
  Beta  occ. eigenvalues --  -38.43619 -38.43075  -2.20419  -2.20249  -2.20200
  Beta  occ. eigenvalues --   -2.19887  -2.19481  -2.19442  -2.18984  -1.14132
  Beta  occ. eigenvalues --   -1.14117  -1.14080  -1.13936  -1.13903  -1.13898
  Beta  occ. eigenvalues --   -1.13878  -1.13876  -1.13830  -1.13601  -1.13561
  Beta  occ. eigenvalues --   -1.13501  -1.13173  -1.13145  -1.13141  -1.13130
  Beta  occ. eigenvalues --   -1.13086  -1.13059  -1.12668  -1.12654  -1.12617
  Beta  occ. eigenvalues --   -0.16813  -0.12707  -0.11901
  Beta virt. eigenvalues --   -0.07462  -0.06130  -0.04924  -0.04199  -0.03122
  Beta virt. eigenvalues --   -0.02498  -0.02055  -0.01665  -0.01148  -0.00170
  Beta virt. eigenvalues --   -0.00076  -0.00007   0.00215   0.00351   0.00594

 Mulliken charges and spin densities:
               1          2
     1  Na  -1.441981   0.260074
     2  Na   0.373115  -0.111917
     3  Na  -0.330543   0.463239
     4  Na   0.761402  -0.043570
     5  Na  -0.071542   0.058758
     6  Na   0.150382   0.229940
     7  Na   0.559166   0.143477
 Sum of Mulliken charges =  -0.00000   1.00000

 Dipole moment (field-independent basis, Debye):
    X=              0.3912    Y=              0.0310    Z=              0.2332  Tot=              0.4565
 Quadrupole moment (field-independent basis, Debye-Ang):
   XX=            -57.8595   YY=            -67.4170   ZZ=            -69.4847
   XY=              1.8245   XZ=             -1.0596   YZ=              0.6901

 Normal termination of Gaussian 16 at Sun Dec  3 22:04:17 2023.
