 Gaussian 16, Revision B.01,
 Gaussian 16:  ES64L-G16RevB.01 20-Dec-2017

 -------------------------
 #P B3LYP/6-311+g(d) force
 -------------------------

 -----
 DPGEN
 -----
 Symbolic Z-matrix:
 Charge =  0 Multiplicity = 2

                         Standard orientation:
 ---------------------------------------------------------------------
 Center     Atomic      Atomic             Coordinates (Angstroms)
 Number     Number       Type             X           Y           Z
 ---------------------------------------------------------------------
      1         11           0       -1.533292   -2.239039    0.936795
      2         11           0       -3.447149    0.687977   -1.004799
      3         11           0        2.590792   -2.075871   -0.808690
      4         11           0       -1.336119    1.446637    1.239338
      5         11           0       -0.017766   -0.346879   -1.901395
      6         11           0        1.348354   -0.181781    1.906355
      7         11           0        2.395180    2.708954   -0.367604
 ---------------------------------------------------------------------

 SCF Done:  E(UB3LYP) =  -1136.12484197     A.U. after   23 cycles

 The electronic state is 2-A.
 Alpha  occ. eigenvalues --  -38.44503 -38.44201 -38.44160 -38.43886 -38.43869
 Alpha  occ. eigenvalues --  -38.43858 -38.43496  -2.20299  -2.20024  -2.20015
 Alpha  occ. eigenvalues --   -2.19738  -2.19684  -2.19607  -2.19381  -1.13982
 Alpha  occ. eigenvalues --   -1.13957  -1.13914  -1.13710  -1.13692  -1.13686
 Alpha  occ. eigenvalues --   -1.13655  -1.13654  -1.13638  -1.13468  -1.13391
 Alpha  occ. eigenvalues --   -1.13361  -1.13337  -1.13326  -1.13308  -1.13286
 Alpha  occ. eigenvalues --   -1.13269  -1.13236  -1.13083  -1.13048  -1.12978
 Alpha  occ. eigenvalues --   -0.18015  -0.12984  -0.11673  -0.11273
 Alpha virt. eigenvalues --   -0.05980  -0.05502  -0.04546  -0.03161  -0.03027
 Alpha virt. eigenvalues --   -0.02792  -0.01766  -0.01400  -0.00764   0.00016
 Alpha virt. eigenvalues --    0.00144   0.00261   0.00323   0.00587   0.00748

  Beta  occ. eigenvalues --  -38.44467 -38.44181 -38.44101 -38.43878 -38.43866
  Beta  occ. eigenvalues --  -38.43804 -38.43474  -2.20236  -2.19987  -2.19906
  Beta  occ. eigenvalues --   -2.19673  -2.19641  -2.19603  -2.19346  -1.13930
  Beta  occ. eigenvalues --   -1.13901  -1.13874  -1.13688  -1.13646  -1.13626
  Beta  occ. eigenvalues --   -1.13618  -1.13578  -1.13566  -1.13395  -1.13353
  Beta  occ. eigenvalues --   -1.13335  -1.13306  -1.13291  -1.13280  -1.13266
  Beta  occ. eigenvalues --   -1.13259  -1.13231  -1.13048  -1.13002  -1.12959
  Beta  occ. eigenvalues --   -0.17198  -0.12783  -0.11117
  Beta virt. eigenvalues --   -0.07761  -0.05846  -0.05248  -0.04067  -0.02898
  Beta virt. eigenvalues --   -0.02459  -0.02052  -0.01597  -0.01202  -0.00485
  Beta virt. eigenvalues --    0.00065   0.00177   0.00341   0.00378   0.00689

 Mulliken charges and spin densities:
               1          2
     1  Na  -0.122042   0.104617
     2  Na   0.219061  -0.055852
     3  Na   0.186123  -0.047281
     4  Na  -0.092652   0.189245
     5  Na  -0.347966   0.620114
     6  Na   0.271023   0.238427
     7  Na  -0.113546  -0.049270
 Sum of Mulliken charges =  -0.00000   1.00000

 Dipole moment (field-independent basis, Debye):
    X=             -0.4046    Y=             -0.4972    Z=             -0.2902  Tot=              0.7036
 Quadrupole moment (field-independent basis, Debye-Ang):
   XX=            -56.4654   YY=            -69.9390   ZZ=            -68.2026
   XY=             -0.5156   XZ=              0.0923   YZ=             -4.0783

 Normal termination of Gaussian 16 at Fri Dec  8 06:16:25 2023.
