 Gaussian 16, Revision B.01,
 Gaussian 16:  ES64L-G16RevB.01 20-Dec-2017

 -------------------------
 #P B3LYP/6-311+g(d) force
 -------------------------

 -----
 DPGEN
 -----
 Symbolic Z-matrix:
 Charge =  0 Multiplicity = 2

                         Standard orientation:
 ---------------------------------------------------------------------
 Center     Atomic      Atomic             Coordinates (Angstroms)
 Number     Number       Type             X           Y           Z
 ---------------------------------------------------------------------
      1         11           0        3.074711    3.141639   -0.027295
      2         11           0       -3.970529   -1.197506   -0.883086
      3         11           0       -0.451456    3.267833   -0.154629
      4         11           0        2.250781   -3.271793   -0.433846
      5         11           0        4.144995   -0.407923    0.110171
      6         11           0       -4.154799    1.610970    0.530896
      7         11           0       -0.893703   -3.143221    0.857788
 ---------------------------------------------------------------------

 SCF Done:  E(UB3LYP) =  -1136.10626871     A.U. after   23 cycles

 The electronic state is 2-A.
 Alpha  occ. eigenvalues --  -38.45374 -38.44815 -38.44769 -38.44527 -38.44361
 Alpha  occ. eigenvalues --  -38.44170 -38.44037  -2.21154  -2.20572  -2.20564
 Alpha  occ. eigenvalues --   -2.20274  -2.20132  -2.19957  -2.19831  -1.14828
 Alpha  occ. eigenvalues --   -1.14818  -1.14799  -1.14241  -1.14230  -1.14219
 Alpha  occ. eigenvalues --   -1.14214  -1.14206  -1.14182  -1.13960  -1.13944
 Alpha  occ. eigenvalues --   -1.13920  -1.13814  -1.13811  -1.13793  -1.13610
 Alpha  occ. eigenvalues --   -1.13601  -1.13573  -1.13488  -1.13473  -1.13447
 Alpha  occ. eigenvalues --   -0.15357  -0.13913  -0.13184  -0.10606
 Alpha virt. eigenvalues --   -0.07731  -0.05151  -0.04646  -0.03308  -0.03137
 Alpha virt. eigenvalues --   -0.02790  -0.02369  -0.01993  -0.01378  -0.00494
 Alpha virt. eigenvalues --   -0.00272  -0.00151  -0.00054   0.00159   0.00379

  Beta  occ. eigenvalues --  -38.45360 -38.44759 -38.44743 -38.44540 -38.44372
  Beta  occ. eigenvalues --  -38.44102 -38.43960  -2.21131  -2.20519  -2.20469
  Beta  occ. eigenvalues --   -2.20304  -2.20158  -2.19831  -2.19687  -1.14810
  Beta  occ. eigenvalues --   -1.14805  -1.14765  -1.14189  -1.14182  -1.14172
  Beta  occ. eigenvalues --   -1.14166  -1.14161  -1.14110  -1.13984  -1.13967
  Beta  occ. eigenvalues --   -1.13911  -1.13838  -1.13833  -1.13767  -1.13523
  Beta  occ. eigenvalues --   -1.13517  -1.13493  -1.13389  -1.13378  -1.13356
  Beta  occ. eigenvalues --   -0.14827  -0.13303  -0.12511
  Beta virt. eigenvalues --   -0.07775  -0.07462  -0.04775  -0.04243  -0.02970
  Beta virt. eigenvalues --   -0.02727  -0.02586  -0.02177  -0.01944  -0.01256
  Beta virt. eigenvalues --   -0.00247  -0.00104   0.00008   0.00189   0.00314

 Mulliken charges and spin densities:
               1          2
     1  Na   0.273595  -0.111413
     2  Na   0.073039   0.084348
     3  Na  -0.205242   0.273825
     4  Na   0.063632  -0.091382
     5  Na  -0.053156   0.373390
     6  Na   0.135364   0.145575
     7  Na  -0.287231   0.325658
 Sum of Mulliken charges =  -0.00000   1.00000

 Dipole moment (field-independent basis, Debye):
    X=             -1.3101    Y=              0.2617    Z=             -0.1423  Tot=              1.3435
 Quadrupole moment (field-independent basis, Debye-Ang):
   XX=            -62.5195   YY=            -67.5324   ZZ=            -70.7456
   XY=              1.3609   XZ=             -0.3157   YZ=              3.8877

 Normal termination of Gaussian 16 at Mon Dec  4 00:41:35 2023.
