 Gaussian 16, Revision B.01,
 Gaussian 16:  ES64L-G16RevB.01 20-Dec-2017

 -------------------------
 #P B3LYP/6-311+g(d) force
 -------------------------

 -----
 DPGEN
 -----
 Symbolic Z-matrix:
 Charge =  0 Multiplicity = 2

                         Standard orientation:
 ---------------------------------------------------------------------
 Center     Atomic      Atomic             Coordinates (Angstroms)
 Number     Number       Type             X           Y           Z
 ---------------------------------------------------------------------
      1         11           0       -3.745130   -0.565226    1.092978
      2         11           0        1.366507   -2.170047   -0.943394
      3         11           0        3.678832    0.015199    1.104102
      4         11           0        1.693392    1.556529   -1.163695
      5         11           0       -1.483141   -1.021186   -1.527545
      6         11           0       -1.562705    2.149847   -0.588635
      7         11           0        0.052245    0.034884    2.026190
 ---------------------------------------------------------------------

 SCF Done:  E(UB3LYP) =  -1136.12265062     A.U. after   32 cycles

 The electronic state is 2-A.
 Alpha  occ. eigenvalues --  -38.45485 -38.45352 -38.45030 -38.43748 -38.43132
 Alpha  occ. eigenvalues --  -38.43026 -38.42437  -2.21278  -2.21134  -2.20831
 Alpha  occ. eigenvalues --   -2.19604  -2.19035  -2.18891  -2.18287  -1.14961
 Alpha  occ. eigenvalues --   -1.14929  -1.14893  -1.14798  -1.14782  -1.14754
 Alpha  occ. eigenvalues --   -1.14506  -1.14474  -1.14459  -1.13288  -1.13254
 Alpha  occ. eigenvalues --   -1.13241  -1.12735  -1.12711  -1.12673  -1.12573
 Alpha  occ. eigenvalues --   -1.12546  -1.12503  -1.11982  -1.11948  -1.11907
 Alpha  occ. eigenvalues --   -0.18158  -0.13856  -0.11687  -0.10858
 Alpha virt. eigenvalues --   -0.06943  -0.05350  -0.04373  -0.03302  -0.02783
 Alpha virt. eigenvalues --   -0.02546  -0.02467  -0.01373  -0.00541  -0.00219
 Alpha virt. eigenvalues --    0.00082   0.00168   0.00364   0.00624   0.00716

  Beta  occ. eigenvalues --  -38.45435 -38.45314 -38.45008 -38.43720 -38.43102
  Beta  occ. eigenvalues --  -38.43002 -38.42426  -2.21184  -2.21062  -2.20790
  Beta  occ. eigenvalues --   -2.19555  -2.18984  -2.18851  -2.18270  -1.14894
  Beta  occ. eigenvalues --   -1.14869  -1.14818  -1.14744  -1.14734  -1.14708
  Beta  occ. eigenvalues --   -1.14475  -1.14445  -1.14433  -1.13250  -1.13212
  Beta  occ. eigenvalues --   -1.13203  -1.12699  -1.12676  -1.12620  -1.12538
  Beta  occ. eigenvalues --   -1.12519  -1.12464  -1.11964  -1.11931  -1.11893
  Beta  occ. eigenvalues --   -0.17451  -0.13589  -0.10547
  Beta virt. eigenvalues --   -0.08000  -0.06645  -0.04731  -0.04356  -0.02971
  Beta virt. eigenvalues --   -0.02398  -0.02004  -0.01880  -0.00997  -0.00519
  Beta virt. eigenvalues --   -0.00102   0.00161   0.00267   0.00369   0.00729

 Mulliken charges and spin densities:
               1          2
     1  Na   0.399667   0.095115
     2  Na  -0.186369  -0.069940
     3  Na   0.771240   0.162879
     4  Na  -0.307739   0.089318
     5  Na  -0.218292   0.270150
     6  Na   0.095873   0.041804
     7  Na  -0.554379   0.410675
 Sum of Mulliken charges =  -0.00000   1.00000

 Dipole moment (field-independent basis, Debye):
    X=             -0.0712    Y=              0.1328    Z=              1.2872  Tot=              1.2959
 Quadrupole moment (field-independent basis, Debye-Ang):
   XX=            -45.8666   YY=            -80.9080   ZZ=            -67.0084
   XY=              0.4509   XZ=             -0.5675   YZ=             -4.1665

 Normal termination of Gaussian 16 at Tue Dec  5 19:37:30 2023.
