 Gaussian 16, Revision B.01,
 Gaussian 16:  ES64L-G16RevB.01 20-Dec-2017

 -------------------------
 #P B3LYP/6-311+g(d) force
 -------------------------

 -----
 DPGEN
 -----
 Symbolic Z-matrix:
 Charge =  0 Multiplicity = 2

                         Standard orientation:
 ---------------------------------------------------------------------
 Center     Atomic      Atomic             Coordinates (Angstroms)
 Number     Number       Type             X           Y           Z
 ---------------------------------------------------------------------
      1         11           0        2.172603    2.067024   -0.902568
      2         11           0       -3.352447    0.521486    0.985323
      3         11           0        0.542601   -2.022463   -0.297383
      4         11           0        4.192318   -0.944865    0.099779
      5         11           0        0.228080   -0.037788    2.238246
      6         11           0       -1.153434    2.316741   -0.736454
      7         11           0       -2.629720   -1.900136   -1.386943
 ---------------------------------------------------------------------

 SCF Done:  E(UB3LYP) =  -1136.11730664     A.U. after   25 cycles

 The electronic state is 2-A.
 Alpha  occ. eigenvalues --  -38.45723 -38.45299 -38.44511 -38.43806 -38.43712
 Alpha  occ. eigenvalues --  -38.43680 -38.43205  -2.21454  -2.21103  -2.20349
 Alpha  occ. eigenvalues --   -2.19628  -2.19503  -2.19502  -2.19022  -1.15134
 Alpha  occ. eigenvalues --   -1.15115  -1.15084  -1.14779  -1.14760  -1.14745
 Alpha  occ. eigenvalues --   -1.14037  -1.13970  -1.13945  -1.13341  -1.13314
 Alpha  occ. eigenvalues --   -1.13248  -1.13191  -1.13171  -1.13159  -1.13134
 Alpha  occ. eigenvalues --   -1.13129  -1.13125  -1.12704  -1.12685  -1.12666
 Alpha  occ. eigenvalues --   -0.17442  -0.13575  -0.11732  -0.10838
 Alpha virt. eigenvalues --   -0.07467  -0.05459  -0.04162  -0.03454  -0.03165
 Alpha virt. eigenvalues --   -0.02653  -0.02235  -0.01497  -0.00728  -0.00411
 Alpha virt. eigenvalues --   -0.00050   0.00014   0.00127   0.00608   0.00720

  Beta  occ. eigenvalues --  -38.45728 -38.45291 -38.44403 -38.43795 -38.43695
  Beta  occ. eigenvalues --  -38.43630 -38.43202  -2.21463  -2.21092  -2.20149
  Beta  occ. eigenvalues --   -2.19612  -2.19471  -2.19410  -2.19018  -1.15140
  Beta  occ. eigenvalues --   -1.15118  -1.15090  -1.14773  -1.14743  -1.14725
  Beta  occ. eigenvalues --   -1.13903  -1.13833  -1.13801  -1.13319  -1.13286
  Beta  occ. eigenvalues --   -1.13232  -1.13168  -1.13148  -1.13105  -1.13096
  Beta  occ. eigenvalues --   -1.13075  -1.13069  -1.12701  -1.12669  -1.12667
  Beta  occ. eigenvalues --   -0.16786  -0.13372  -0.11414
  Beta virt. eigenvalues --   -0.07348  -0.07161  -0.05236  -0.03663  -0.03246
  Beta virt. eigenvalues --   -0.02804  -0.02200  -0.01542  -0.01383  -0.00502
  Beta virt. eigenvalues --   -0.00345   0.00038   0.00054   0.00339   0.00714

 Mulliken charges and spin densities:
               1          2
     1  Na  -0.022476  -0.011111
     2  Na   0.325058   0.268759
     3  Na  -0.959398   0.317386
     4  Na   0.386664   0.004637
     5  Na   0.095847   0.301467
     6  Na  -0.427223   0.130919
     7  Na   0.601528  -0.012057
 Sum of Mulliken charges =  -0.00000   1.00000

 Dipole moment (field-independent basis, Debye):
    X=              0.6369    Y=             -0.2852    Z=              0.6485  Tot=              0.9527
 Quadrupole moment (field-independent basis, Debye-Ang):
   XX=            -45.3705   YY=            -77.5829   ZZ=            -71.5427
   XY=             -3.9067   XZ=             -1.0855   YZ=              1.2530

 Normal termination of Gaussian 16 at Sun Dec  3 15:42:06 2023.
