 Gaussian 16, Revision B.01,
 Gaussian 16:  ES64L-G16RevB.01 20-Dec-2017

 -------------------------
 #P B3LYP/6-311+g(d) force
 -------------------------

 -----
 DPGEN
 -----
 Symbolic Z-matrix:
 Charge =  0 Multiplicity = 2

                         Standard orientation:
 ---------------------------------------------------------------------
 Center     Atomic      Atomic             Coordinates (Angstroms)
 Number     Number       Type             X           Y           Z
 ---------------------------------------------------------------------
      1         11           0       -3.616090    0.451382   -0.957510
      2         11           0        1.278471   -0.923514    1.890405
      3         11           0       -0.555866   -1.734459   -1.480819
      4         11           0       -2.077610   -0.633098    1.955638
      5         11           0        2.815792   -1.342701   -1.113707
      6         11           0        2.623413    2.028791    0.116118
      7         11           0       -0.468110    2.153600   -0.410124
 ---------------------------------------------------------------------

 SCF Done:  E(UB3LYP) =  -1136.12811228     A.U. after   21 cycles

 The electronic state is 2-A.
 Alpha  occ. eigenvalues --  -38.44701 -38.44581 -38.44242 -38.44119 -38.44018
 Alpha  occ. eigenvalues --  -38.43150 -38.42977  -2.20508  -2.20423  -2.20101
 Alpha  occ. eigenvalues --   -2.19955  -2.19834  -2.18977  -2.18821  -1.14182
 Alpha  occ. eigenvalues --   -1.14156  -1.14147  -1.14109  -1.14065  -1.14029
 Alpha  occ. eigenvalues --   -1.13785  -1.13747  -1.13728  -1.13635  -1.13599
 Alpha  occ. eigenvalues --   -1.13587  -1.13522  -1.13490  -1.13437  -1.12685
 Alpha  occ. eigenvalues --   -1.12665  -1.12632  -1.12485  -1.12462  -1.12448
 Alpha  occ. eigenvalues --   -0.17987  -0.13774  -0.11817  -0.11302
 Alpha virt. eigenvalues --   -0.06334  -0.05193  -0.04936  -0.03515  -0.02791
 Alpha virt. eigenvalues --   -0.02609  -0.02089  -0.00987  -0.00813  -0.00136
 Alpha virt. eigenvalues --    0.00172   0.00226   0.00279   0.00557   0.00772

  Beta  occ. eigenvalues --  -38.44684 -38.44516 -38.44186 -38.44099 -38.43976
  Beta  occ. eigenvalues --  -38.43151 -38.42977  -2.20476  -2.20306  -2.20001
  Beta  occ. eigenvalues --   -2.19918  -2.19758  -2.18979  -2.18823  -1.14153
  Beta  occ. eigenvalues --   -1.14133  -1.14125  -1.14019  -1.13990  -1.13939
  Beta  occ. eigenvalues --   -1.13714  -1.13673  -1.13657  -1.13599  -1.13572
  Beta  occ. eigenvalues --   -1.13556  -1.13471  -1.13433  -1.13380  -1.12688
  Beta  occ. eigenvalues --   -1.12651  -1.12638  -1.12478  -1.12464  -1.12454
  Beta  occ. eigenvalues --   -0.17303  -0.13616  -0.11114
  Beta virt. eigenvalues --   -0.07774  -0.06187  -0.04891  -0.04488  -0.03178
  Beta virt. eigenvalues --   -0.02158  -0.02009  -0.01969  -0.00769  -0.00522
  Beta virt. eigenvalues --    0.00014   0.00237   0.00254   0.00384   0.00696

 Mulliken charges and spin densities:
               1          2
     1  Na   0.571590   0.201212
     2  Na  -0.363821   0.330254
     3  Na  -0.476155   0.265066
     4  Na   0.212479   0.109036
     5  Na   0.444298   0.102467
     6  Na   0.384192  -0.138549
     7  Na  -0.772582   0.130514
 Sum of Mulliken charges =  -0.00000   1.00000

 Dipole moment (field-independent basis, Debye):
    X=             -0.7866    Y=             -0.5603    Z=             -0.0947  Tot=              0.9704
 Quadrupole moment (field-independent basis, Debye-Ang):
   XX=            -49.8532   YY=            -79.4571   ZZ=            -66.9345
   XY=             -1.3664   XZ=              0.7319   YZ=             -0.1113

 Normal termination of Gaussian 16 at Sun Dec  3 18:36:06 2023.
