 Gaussian 16, Revision B.01,
 Gaussian 16:  ES64L-G16RevB.01 20-Dec-2017

 -------------------------
 #P B3LYP/6-311+g(d) force
 -------------------------

 -----
 DPGEN
 -----
 Symbolic Z-matrix:
 Charge =  0 Multiplicity = 2

                         Standard orientation:
 ---------------------------------------------------------------------
 Center     Atomic      Atomic             Coordinates (Angstroms)
 Number     Number       Type             X           Y           Z
 ---------------------------------------------------------------------
      1         11           0       -0.044361    3.539374    0.139868
      2         11           0       -3.063611    0.776535   -0.226139
      3         11           0        3.881263   -0.056732    0.015744
      4         11           0        0.993425   -2.578669   -0.636442
      5         11           0        0.367313    0.061376    1.999655
      6         11           0       -2.159719   -2.443534    0.373725
      7         11           0        0.025689    0.701651   -1.666412
 ---------------------------------------------------------------------

 SCF Done:  E(UB3LYP) =  -1136.12618010     A.U. after   22 cycles

 The electronic state is 2-A.
 Alpha  occ. eigenvalues --  -38.45028 -38.44597 -38.44307 -38.43784 -38.43764
 Alpha  occ. eigenvalues --  -38.43468 -38.43424  -2.20749  -2.20397  -2.20078
 Alpha  occ. eigenvalues --   -2.19613  -2.19591  -2.19309  -2.19295  -1.14426
 Alpha  occ. eigenvalues --   -1.14416  -1.14381  -1.14087  -1.14062  -1.14021
 Alpha  occ. eigenvalues --   -1.13759  -1.13734  -1.13716  -1.13305  -1.13287
 Alpha  occ. eigenvalues --   -1.13265  -1.13238  -1.13216  -1.13207  -1.12994
 Alpha  occ. eigenvalues --   -1.12963  -1.12952  -1.12949  -1.12945  -1.12927
 Alpha  occ. eigenvalues --   -0.17715  -0.12580  -0.12369  -0.10309
 Alpha virt. eigenvalues --   -0.06652  -0.05545  -0.04549  -0.03060  -0.02917
 Alpha virt. eigenvalues --   -0.02412  -0.02093  -0.01552  -0.00739  -0.00493
 Alpha virt. eigenvalues --   -0.00069   0.00297   0.00565   0.00633   0.00774

  Beta  occ. eigenvalues --  -38.45036 -38.44589 -38.44308 -38.43766 -38.43675
  Beta  occ. eigenvalues --  -38.43464 -38.43365  -2.20765  -2.20385  -2.20082
  Beta  occ. eigenvalues --   -2.19581  -2.19426  -2.19290  -2.19201  -1.14433
  Beta  occ. eigenvalues --   -1.14421  -1.14393  -1.14072  -1.14041  -1.14016
  Beta  occ. eigenvalues --   -1.13757  -1.13728  -1.13719  -1.13283  -1.13243
  Beta  occ. eigenvalues --   -1.13221  -1.13154  -1.13101  -1.13088  -1.12960
  Beta  occ. eigenvalues --   -1.12944  -1.12928  -1.12920  -1.12872  -1.12847
  Beta  occ. eigenvalues --   -0.17000  -0.12399  -0.12216
  Beta virt. eigenvalues --   -0.06661  -0.06467  -0.05380  -0.04495  -0.02388
  Beta virt. eigenvalues --   -0.02259  -0.02062  -0.01513  -0.01297  -0.00783
  Beta virt. eigenvalues --   -0.00471   0.00087   0.00333   0.00634   0.00667

 Mulliken charges and spin densities:
               1          2
     1  Na  -0.089150  -0.111881
     2  Na   0.023820   0.001176
     3  Na  -0.038604  -0.098648
     4  Na   0.035927   0.115352
     5  Na  -0.259690   0.753084
     6  Na   0.021576   0.029375
     7  Na   0.306122   0.311542
 Sum of Mulliken charges =  -0.00000   1.00000

 Dipole moment (field-independent basis, Debye):
    X=              0.3550    Y=              0.6220    Z=              0.0548  Tot=              0.7182
 Quadrupole moment (field-independent basis, Debye-Ang):
   XX=            -54.6320   YY=            -60.4802   ZZ=            -76.9469
   XY=              0.7811   XZ=             -0.6114   YZ=              1.1874

 Normal termination of Gaussian 16 at Thu Dec  7 18:30:30 2023.
