 Gaussian 16, Revision B.01,
 Gaussian 16:  ES64L-G16RevB.01 20-Dec-2017

 -------------------------
 #P B3LYP/6-311+g(d) force
 -------------------------

 -----
 DPGEN
 -----
 Symbolic Z-matrix:
 Charge =  0 Multiplicity = 2

                         Standard orientation:
 ---------------------------------------------------------------------
 Center     Atomic      Atomic             Coordinates (Angstroms)
 Number     Number       Type             X           Y           Z
 ---------------------------------------------------------------------
      1         11           0        0.207866   -1.938752   -0.298035
      2         11           0        3.274515   -3.157673   -0.137435
      3         11           0        3.428550    0.749494    0.321494
      4         11           0        1.619508    3.675564   -0.535882
      5         11           0       -0.076113    0.906421    1.167932
      6         11           0       -2.514026    0.260711   -0.791247
      7         11           0       -5.940299   -0.495765    0.273173
 ---------------------------------------------------------------------

 SCF Done:  E(UB3LYP) =  -1136.11982694     A.U. after   20 cycles

 The electronic state is 2-A.
 Alpha  occ. eigenvalues --  -38.44740 -38.44458 -38.44439 -38.44245 -38.43702
 Alpha  occ. eigenvalues --  -38.43639 -38.43514  -2.20530  -2.20337  -2.20248
 Alpha  occ. eigenvalues --   -2.20019  -2.19571  -2.19431  -2.19349  -1.14162
 Alpha  occ. eigenvalues --   -1.14161  -1.14135  -1.14041  -1.14020  -1.13957
 Alpha  occ. eigenvalues --   -1.13940  -1.13916  -1.13831  -1.13692  -1.13680
 Alpha  occ. eigenvalues --   -1.13640  -1.13280  -1.13251  -1.13194  -1.13094
 Alpha  occ. eigenvalues --   -1.13081  -1.13052  -1.13041  -1.13006  -1.12997
 Alpha  occ. eigenvalues --   -0.17010  -0.13569  -0.12314  -0.11159
 Alpha virt. eigenvalues --   -0.06203  -0.05283  -0.05049  -0.03647  -0.02675
 Alpha virt. eigenvalues --   -0.02255  -0.01946  -0.01366  -0.01262  -0.00915
 Alpha virt. eigenvalues --   -0.00556  -0.00097   0.00324   0.00357   0.00517

  Beta  occ. eigenvalues --  -38.44608 -38.44436 -38.44409 -38.44240 -38.43682
  Beta  occ. eigenvalues --  -38.43627 -38.43517  -2.20285  -2.20283  -2.20207
  Beta  occ. eigenvalues --   -2.20009  -2.19538  -2.19409  -2.19362  -1.14009
  Beta  occ. eigenvalues --   -1.13995  -1.13993  -1.13978  -1.13972  -1.13927
  Beta  occ. eigenvalues --   -1.13908  -1.13880  -1.13799  -1.13686  -1.13669
  Beta  occ. eigenvalues --   -1.13634  -1.13255  -1.13229  -1.13167  -1.13079
  Beta  occ. eigenvalues --   -1.13062  -1.13055  -1.13036  -1.13020  -1.12952
  Beta  occ. eigenvalues --   -0.16570  -0.12614  -0.12246
  Beta virt. eigenvalues --   -0.07525  -0.06092  -0.05058  -0.04601  -0.03316
  Beta virt. eigenvalues --   -0.02393  -0.02160  -0.01540  -0.01206  -0.00763
  Beta virt. eigenvalues --   -0.00487  -0.00371   0.00100   0.00444   0.00501

 Mulliken charges and spin densities:
               1          2
     1  Na  -0.596309  -0.013701
     2  Na   0.527153   0.087965
     3  Na  -0.034801   0.221037
     4  Na   0.198085   0.020630
     5  Na  -0.500071   0.119192
     6  Na   0.469335  -0.112240
     7  Na  -0.063392   0.677117
 Sum of Mulliken charges =  -0.00000   1.00000

 Dipole moment (field-independent basis, Debye):
    X=              0.5704    Y=              0.5893    Z=             -0.0352  Tot=              0.8209
 Quadrupole moment (field-independent basis, Debye-Ang):
   XX=            -68.6060   YY=            -63.9773   ZZ=            -68.1142
   XY=             -1.3764   XZ=             -1.0713   YZ=             -2.3058

 Normal termination of Gaussian 16 at Tue Nov 28 18:58:16 2023.
