 Gaussian 16, Revision B.01,
 Gaussian 16:  ES64L-G16RevB.01 20-Dec-2017

 -------------------------
 #P B3LYP/6-311+g(d) force
 -------------------------

 -----
 DPGEN
 -----
 Symbolic Z-matrix:
 Charge =  0 Multiplicity = 2

                         Standard orientation:
 ---------------------------------------------------------------------
 Center     Atomic      Atomic             Coordinates (Angstroms)
 Number     Number       Type             X           Y           Z
 ---------------------------------------------------------------------
      1         11           0       -1.575791    0.301862    1.347768
      2         11           0        2.316420    0.532706    1.185000
      3         11           0        0.744773   -2.356892    0.433688
      4         11           0       -3.932240    0.985529   -0.874129
      5         11           0       -2.547779   -2.138706   -0.629056
      6         11           0        4.905754   -0.169054   -1.215329
      7         11           0        0.088863    2.844556   -0.247941
 ---------------------------------------------------------------------

 SCF Done:  E(UB3LYP) =  -1136.12311172     A.U. after   19 cycles

 The electronic state is 2-A.
 Alpha  occ. eigenvalues --  -38.44998 -38.44329 -38.44116 -38.43714 -38.43705
 Alpha  occ. eigenvalues --  -38.43689 -38.43274  -2.20787  -2.20155  -2.20024
 Alpha  occ. eigenvalues --   -2.19536  -2.19536  -2.19502  -2.19101  -1.14422
 Alpha  occ. eigenvalues --   -1.14417  -1.14391  -1.13833  -1.13814  -1.13776
 Alpha  occ. eigenvalues --   -1.13725  -1.13672  -1.13659  -1.13230  -1.13223
 Alpha  occ. eigenvalues --   -1.13214  -1.13212  -1.13189  -1.13175  -1.13161
 Alpha  occ. eigenvalues --   -1.13155  -1.13123  -1.12776  -1.12774  -1.12718
 Alpha  occ. eigenvalues --   -0.17262  -0.14056  -0.11648  -0.11300
 Alpha virt. eigenvalues --   -0.05852  -0.05497  -0.05004  -0.03568  -0.02443
 Alpha virt. eigenvalues --   -0.02268  -0.02173  -0.01387  -0.00645  -0.00595
 Alpha virt. eigenvalues --   -0.00366   0.00111   0.00253   0.00361   0.00511

  Beta  occ. eigenvalues --  -38.44875 -38.44284 -38.44102 -38.43707 -38.43705
  Beta  occ. eigenvalues --  -38.43684 -38.43260  -2.20557  -2.20071  -2.20003
  Beta  occ. eigenvalues --   -2.19544  -2.19530  -2.19491  -2.19075  -1.14265
  Beta  occ. eigenvalues --   -1.14261  -1.14239  -1.13785  -1.13759  -1.13716
  Beta  occ. eigenvalues --   -1.13709  -1.13648  -1.13622  -1.13240  -1.13226
  Beta  occ. eigenvalues --   -1.13214  -1.13212  -1.13170  -1.13158  -1.13141
  Beta  occ. eigenvalues --   -1.13134  -1.13114  -1.12759  -1.12749  -1.12704
  Beta  occ. eigenvalues --   -0.16806  -0.13185  -0.11499
  Beta virt. eigenvalues --   -0.07683  -0.05775  -0.04992  -0.04677  -0.03462
  Beta virt. eigenvalues --   -0.02077  -0.01809  -0.01615  -0.01130  -0.00489
  Beta virt. eigenvalues --   -0.00360  -0.00278   0.00286   0.00398   0.00528

 Mulliken charges and spin densities:
               1          2
     1  Na   0.733101   0.034830
     2  Na  -0.006865  -0.087488
     3  Na  -0.379639   0.013285
     4  Na   0.057547   0.277976
     5  Na  -0.164991   0.101112
     6  Na   0.066410   0.635600
     7  Na  -0.305562   0.024684
 Sum of Mulliken charges =  -0.00000   1.00000

 Dipole moment (field-independent basis, Debye):
    X=             -0.5254    Y=              0.1897    Z=             -0.7792  Tot=              0.9587
 Quadrupole moment (field-independent basis, Debye-Ang):
   XX=            -61.8639   YY=            -71.1967   ZZ=            -65.2317
   XY=             -0.6484   XZ=              0.6262   YZ=             -0.5727

 Normal termination of Gaussian 16 at Wed Nov 29 03:22:30 2023.
