 Gaussian 16, Revision B.01,
 Gaussian 16:  ES64L-G16RevB.01 20-Dec-2017

 -------------------------
 #P B3LYP/6-311+g(d) force
 -------------------------

 -----
 DPGEN
 -----
 Symbolic Z-matrix:
 Charge =  0 Multiplicity = 2

                         Standard orientation:
 ---------------------------------------------------------------------
 Center     Atomic      Atomic             Coordinates (Angstroms)
 Number     Number       Type             X           Y           Z
 ---------------------------------------------------------------------
      1         11           0        2.976905    0.869771    1.200246
      2         11           0       -0.497861   -0.457973   -0.871051
      3         11           0        0.337672    2.465997   -0.091708
      4         11           0       -3.089817    1.533978   -0.470735
      5         11           0        0.426443   -1.378401    1.573378
      6         11           0       -3.613058   -1.720994    0.207088
      7         11           0        3.459716   -1.312379   -1.547218
 ---------------------------------------------------------------------

 SCF Done:  E(UB3LYP) =  -1136.11237446     A.U. after   25 cycles

 The electronic state is 2-A.
 Alpha  occ. eigenvalues --  -38.45178 -38.44755 -38.44679 -38.44135 -38.44017
 Alpha  occ. eigenvalues --  -38.43980 -38.42573  -2.21016  -2.20749  -2.20466
 Alpha  occ. eigenvalues --   -2.19946  -2.19915  -2.19828  -2.18443  -1.14693
 Alpha  occ. eigenvalues --   -1.14677  -1.14652  -1.14614  -1.14394  -1.14340
 Alpha  occ. eigenvalues --   -1.14149  -1.14132  -1.14099  -1.13629  -1.13597
 Alpha  occ. eigenvalues --   -1.13583  -1.13546  -1.13519  -1.13505  -1.13493
 Alpha  occ. eigenvalues --   -1.13469  -1.13442  -1.12159  -1.12101  -1.12061
 Alpha  occ. eigenvalues --   -0.18196  -0.14305  -0.11401  -0.10672
 Alpha virt. eigenvalues --   -0.07297  -0.05544  -0.04349  -0.03163  -0.03080
 Alpha virt. eigenvalues --   -0.02397  -0.01796  -0.01687  -0.00786  -0.00395
 Alpha virt. eigenvalues --   -0.00039   0.00073   0.00327   0.00530   0.00690

  Beta  occ. eigenvalues --  -38.45161 -38.44748 -38.44690 -38.44027 -38.43970
  Beta  occ. eigenvalues --  -38.43954 -38.42573  -2.20990  -2.20740  -2.20488
  Beta  occ. eigenvalues --   -2.19808  -2.19801  -2.19745  -2.18443  -1.14667
  Beta  occ. eigenvalues --   -1.14646  -1.14621  -1.14571  -1.14396  -1.14339
  Beta  occ. eigenvalues --   -1.14166  -1.14141  -1.14109  -1.13557  -1.13488
  Beta  occ. eigenvalues --   -1.13479  -1.13458  -1.13444  -1.13435  -1.13433
  Beta  occ. eigenvalues --   -1.13414  -1.13391  -1.12162  -1.12094  -1.12056
  Beta  occ. eigenvalues --   -0.17705  -0.13891  -0.11159
  Beta virt. eigenvalues --   -0.07159  -0.06900  -0.05336  -0.03885  -0.03040
  Beta virt. eigenvalues --   -0.02834  -0.01746  -0.01491  -0.01206  -0.00553
  Beta virt. eigenvalues --   -0.00240   0.00106   0.00134   0.00490   0.00673

 Mulliken charges and spin densities:
               1          2
     1  Na   0.570818   0.197184
     2  Na  -0.916421  -0.023811
     3  Na  -0.297906   0.062256
     4  Na   0.481492   0.079673
     5  Na  -0.251582   0.226250
     6  Na   0.462240  -0.074271
     7  Na  -0.048641   0.532720
 Sum of Mulliken charges =  -0.00000   1.00000

 Dipole moment (field-independent basis, Debye):
    X=             -0.7545    Y=             -0.0209    Z=              0.9923  Tot=              1.2467
 Quadrupole moment (field-independent basis, Debye-Ang):
   XX=            -51.5689   YY=            -74.1152   ZZ=            -70.6783
   XY=              4.8889   XZ=              3.7385   YZ=              2.1396

 Normal termination of Gaussian 16 at Tue Dec  5 19:44:24 2023.
