 Gaussian 16, Revision B.01,
 Gaussian 16:  ES64L-G16RevB.01 20-Dec-2017

 -------------------------
 #P B3LYP/6-311+g(d) force
 -------------------------

 -----
 DPGEN
 -----
 Symbolic Z-matrix:
 Charge =  0 Multiplicity = 2

                         Standard orientation:
 ---------------------------------------------------------------------
 Center     Atomic      Atomic             Coordinates (Angstroms)
 Number     Number       Type             X           Y           Z
 ---------------------------------------------------------------------
      1         11           0       -4.034187   -0.551578   -0.982038
      2         11           0        2.070940   -0.459006    0.925731
      3         11           0        3.952693   -2.164964   -0.455896
      4         11           0        2.008279    3.233781   -0.240971
      5         11           0       -0.831298    2.090280   -0.577044
      6         11           0       -0.972870   -1.791392   -0.945936
      7         11           0       -2.193557   -0.357121    2.276154
 ---------------------------------------------------------------------

 SCF Done:  E(UB3LYP) =  -1136.11624883     A.U. after   19 cycles

 The electronic state is 2-A.
 Alpha  occ. eigenvalues --  -38.45462 -38.44843 -38.44200 -38.44141 -38.43696
 Alpha  occ. eigenvalues --  -38.43664 -38.43459  -2.21261  -2.20657  -2.20015
 Alpha  occ. eigenvalues --   -2.19967  -2.19529  -2.19526  -2.19270  -1.14954
 Alpha  occ. eigenvalues --   -1.14938  -1.14875  -1.14320  -1.14310  -1.14278
 Alpha  occ. eigenvalues --   -1.13781  -1.13653  -1.13642  -1.13617  -1.13606
 Alpha  occ. eigenvalues --   -1.13570  -1.13222  -1.13205  -1.13200  -1.13187
 Alpha  occ. eigenvalues --   -1.13187  -1.13131  -1.12924  -1.12916  -1.12898
 Alpha  occ. eigenvalues --   -0.17330  -0.13706  -0.11967  -0.10668
 Alpha virt. eigenvalues --   -0.06909  -0.05682  -0.04682  -0.03169  -0.02734
 Alpha virt. eigenvalues --   -0.02547  -0.02159  -0.01636  -0.01303  -0.00403
 Alpha virt. eigenvalues --   -0.00164   0.00071   0.00142   0.00449   0.00545

  Beta  occ. eigenvalues --  -38.45444 -38.44806 -38.44199 -38.44032 -38.43690
  Beta  occ. eigenvalues --  -38.43659 -38.43459  -2.21232  -2.20591  -2.20013
  Beta  occ. eigenvalues --   -2.19765  -2.19520  -2.19515  -2.19271  -1.14937
  Beta  occ. eigenvalues --   -1.14893  -1.14849  -1.14273  -1.14250  -1.14236
  Beta  occ. eigenvalues --   -1.13779  -1.13651  -1.13640  -1.13477  -1.13464
  Beta  occ. eigenvalues --   -1.13436  -1.13216  -1.13200  -1.13189  -1.13173
  Beta  occ. eigenvalues --   -1.13169  -1.13128  -1.12923  -1.12916  -1.12898
  Beta  occ. eigenvalues --   -0.16748  -0.13485  -0.11893
  Beta virt. eigenvalues --   -0.06839  -0.06559  -0.05521  -0.04346  -0.03014
  Beta virt. eigenvalues --   -0.02568  -0.01899  -0.01582  -0.01506  -0.00849
  Beta virt. eigenvalues --   -0.00269  -0.00011   0.00137   0.00421   0.00548

 Mulliken charges and spin densities:
               1          2
     1  Na   0.877773   0.350925
     2  Na  -0.305502   0.136621
     3  Na   0.238354  -0.036474
     4  Na   0.436459  -0.115134
     5  Na  -0.683891   0.075915
     6  Na  -0.507781   0.114753
     7  Na  -0.055413   0.473392
 Sum of Mulliken charges =  -0.00000   1.00000

 Dipole moment (field-independent basis, Debye):
    X=             -0.6587    Y=             -0.4203    Z=             -0.5428  Tot=              0.9514
 Quadrupole moment (field-independent basis, Debye-Ang):
   XX=            -50.8854   YY=            -70.8827   ZZ=            -74.4163
   XY=             -0.2216   XZ=             -1.2356   YZ=              2.7007

 Normal termination of Gaussian 16 at Mon Dec  4 02:56:28 2023.
