 Gaussian 16, Revision B.01,
 Gaussian 16:  ES64L-G16RevB.01 20-Dec-2017

 -------------------------
 #P B3LYP/6-311+g(d) force
 -------------------------

 -----
 DPGEN
 -----
 Symbolic Z-matrix:
 Charge =  0 Multiplicity = 2

                         Standard orientation:
 ---------------------------------------------------------------------
 Center     Atomic      Atomic             Coordinates (Angstroms)
 Number     Number       Type             X           Y           Z
 ---------------------------------------------------------------------
      1         11           0       -4.250750   -1.101913    0.217196
      2         11           0       -1.922374    1.721670   -0.524156
      3         11           0        4.059266   -2.116665   -0.064164
      4         11           0        2.676603    0.455721    0.265732
      5         11           0       -0.920605   -1.749687   -1.305005
      6         11           0       -0.892727   -0.418537    1.633170
      7         11           0        1.250588    3.209411   -0.222772
 ---------------------------------------------------------------------

 SCF Done:  E(UB3LYP) =  -1136.11011510     A.U. after   27 cycles

 The electronic state is 2-A.
 Alpha  occ. eigenvalues --  -38.46145 -38.45009 -38.44636 -38.44007 -38.43595
 Alpha  occ. eigenvalues --  -38.43402 -38.43020  -2.22008  -2.20845  -2.20482
 Alpha  occ. eigenvalues --   -2.19841  -2.19415  -2.19228  -2.18920  -1.15693
 Alpha  occ. eigenvalues --   -1.15667  -1.15617  -1.14515  -1.14501  -1.14444
 Alpha  occ. eigenvalues --   -1.14210  -1.14169  -1.14062  -1.13510  -1.13483
 Alpha  occ. eigenvalues --   -1.13444  -1.13130  -1.13075  -1.13034  -1.12982
 Alpha  occ. eigenvalues --   -1.12864  -1.12846  -1.12594  -1.12557  -1.12538
 Alpha  occ. eigenvalues --   -0.18018  -0.13988  -0.11903  -0.09984
 Alpha virt. eigenvalues --   -0.07317  -0.06422  -0.04288  -0.03195  -0.03003
 Alpha virt. eigenvalues --   -0.02275  -0.02088  -0.01534  -0.01114  -0.00588
 Alpha virt. eigenvalues --   -0.00389  -0.00079   0.00305   0.00399   0.00494

  Beta  occ. eigenvalues --  -38.46117 -38.44958 -38.44632 -38.43927 -38.43597
  Beta  occ. eigenvalues --  -38.43368 -38.43013  -2.21960  -2.20754  -2.20478
  Beta  occ. eigenvalues --   -2.19693  -2.19419  -2.19165  -2.18910  -1.15662
  Beta  occ. eigenvalues --   -1.15613  -1.15587  -1.14452  -1.14428  -1.14385
  Beta  occ. eigenvalues --   -1.14210  -1.14151  -1.14052  -1.13408  -1.13374
  Beta  occ. eigenvalues --   -1.13345  -1.13133  -1.13078  -1.13034  -1.12944
  Beta  occ. eigenvalues --   -1.12822  -1.12799  -1.12591  -1.12548  -1.12507
  Beta  occ. eigenvalues --   -0.17480  -0.13531  -0.11609
  Beta virt. eigenvalues --   -0.07152  -0.06459  -0.06119  -0.04103  -0.02923
  Beta virt. eigenvalues --   -0.02555  -0.02122  -0.01738  -0.01298  -0.00828
  Beta virt. eigenvalues --   -0.00273  -0.00161   0.00177   0.00419   0.00526

 Mulliken charges and spin densities:
               1          2
     1  Na   0.439631   0.568289
     2  Na  -0.481432   0.207315
     3  Na   0.300266   0.097979
     4  Na  -1.258099   0.272030
     5  Na  -0.061442  -0.054173
     6  Na   0.286176   0.006339
     7  Na   0.774901  -0.097778
 Sum of Mulliken charges =  -0.00000   1.00000

 Dipole moment (field-independent basis, Debye):
    X=             -1.2613    Y=             -0.7356    Z=             -0.0887  Tot=              1.4628
 Quadrupole moment (field-independent basis, Debye-Ang):
   XX=            -81.3285   YY=            -67.9620   ZZ=            -61.4558
   XY=              3.0153   XZ=              0.2213   YZ=              0.7607

 Normal termination of Gaussian 16 at Fri Dec  8 17:47:32 2023.
