 Gaussian 16, Revision B.01,
 Gaussian 16:  ES64L-G16RevB.01 20-Dec-2017

 -------------------------
 #P B3LYP/6-311+g(d) force
 -------------------------

 -----
 DPGEN
 -----
 Symbolic Z-matrix:
 Charge =  0 Multiplicity = 2

                         Standard orientation:
 ---------------------------------------------------------------------
 Center     Atomic      Atomic             Coordinates (Angstroms)
 Number     Number       Type             X           Y           Z
 ---------------------------------------------------------------------
      1         11           0       -0.101968    0.191206    2.250607
      2         11           0        1.335465   -2.470545   -0.055377
      3         11           0       -0.360825   -0.277629   -1.481755
      4         11           0       -2.187575    2.194371   -0.449747
      5         11           0        3.135447   -0.184356   -0.343120
      6         11           0        1.083803    2.553961    0.022906
      7         11           0       -2.904347   -2.007008    0.056486
 ---------------------------------------------------------------------

 SCF Done:  E(UB3LYP) =  -1136.13048828     A.U. after   20 cycles

 The electronic state is 2-A.
 Alpha  occ. eigenvalues --  -38.44255 -38.44057 -38.43891 -38.43838 -38.43804
 Alpha  occ. eigenvalues --  -38.43237 -38.43167  -2.20016  -2.19895  -2.19747
 Alpha  occ. eigenvalues --   -2.19727  -2.19698  -2.19152  -2.19116  -1.13693
 Alpha  occ. eigenvalues --   -1.13669  -1.13663  -1.13593  -1.13576  -1.13545
 Alpha  occ. eigenvalues --   -1.13523  -1.13413  -1.13403  -1.13374  -1.13363
 Alpha  occ. eigenvalues --   -1.13360  -1.13355  -1.13323  -1.13238  -1.12843
 Alpha  occ. eigenvalues --   -1.12819  -1.12789  -1.12783  -1.12754  -1.12748
 Alpha  occ. eigenvalues --   -0.18555  -0.13062  -0.12349  -0.10838
 Alpha virt. eigenvalues --   -0.05856  -0.05387  -0.04425  -0.03159  -0.02902
 Alpha virt. eigenvalues --   -0.02710  -0.01654  -0.01342  -0.00365  -0.00223
 Alpha virt. eigenvalues --   -0.00038   0.00314   0.00755   0.00813   0.00916

  Beta  occ. eigenvalues --  -38.44258 -38.44046 -38.43833 -38.43798 -38.43781
  Beta  occ. eigenvalues --  -38.43230 -38.43120  -2.20024  -2.19876  -2.19720
  Beta  occ. eigenvalues --   -2.19690  -2.19541  -2.19108  -2.19068  -1.13688
  Beta  occ. eigenvalues --   -1.13676  -1.13667  -1.13575  -1.13571  -1.13522
  Beta  occ. eigenvalues --   -1.13513  -1.13403  -1.13351  -1.13340  -1.13301
  Beta  occ. eigenvalues --   -1.13265  -1.13234  -1.13226  -1.13216  -1.12805
  Beta  occ. eigenvalues --   -1.12770  -1.12756  -1.12749  -1.12736  -1.12694
  Beta  occ. eigenvalues --   -0.17834  -0.12815  -0.12174
  Beta virt. eigenvalues --   -0.06860  -0.05837  -0.05306  -0.04394  -0.02413
  Beta virt. eigenvalues --   -0.02173  -0.01684  -0.01499  -0.01250  -0.00407
  Beta virt. eigenvalues --   -0.00246   0.00124   0.00352   0.00804   0.00847

 Mulliken charges and spin densities:
               1          2
     1  Na  -0.654631   0.704439
     2  Na   0.355842   0.091858
     3  Na  -0.362861   0.078255
     4  Na   0.210734  -0.012782
     5  Na   0.038988   0.030781
     6  Na   0.358255   0.134699
     7  Na   0.053674  -0.027251
 Sum of Mulliken charges =  -0.00000   1.00000

 Dipole moment (field-independent basis, Debye):
    X=             -0.4343    Y=             -0.0314    Z=              0.2057  Tot=              0.4815
 Quadrupole moment (field-independent basis, Debye-Ang):
   XX=            -56.2630   YY=            -63.2849   ZZ=            -74.3850
   XY=              0.4167   XZ=             -0.7936   YZ=             -1.3096

 Normal termination of Gaussian 16 at Thu Dec  7 15:11:33 2023.
