 Gaussian 16, Revision B.01,
 Gaussian 16:  ES64L-G16RevB.01 20-Dec-2017

 -------------------------
 #P B3LYP/6-311+g(d) force
 -------------------------

 -----
 DPGEN
 -----
 Symbolic Z-matrix:
 Charge =  0 Multiplicity = 2

                         Standard orientation:
 ---------------------------------------------------------------------
 Center     Atomic      Atomic             Coordinates (Angstroms)
 Number     Number       Type             X           Y           Z
 ---------------------------------------------------------------------
      1         11           0       -0.231616   -0.559816    1.913748
      2         11           0       -0.031684    0.344850   -1.717288
      3         11           0        2.725621   -1.336946   -0.215842
      4         11           0        2.048352    2.191808    0.201484
      5         11           0       -0.329357   -2.704607   -0.105711
      6         11           0       -1.298943    2.586891    0.195420
      7         11           0       -2.882373   -0.522181   -0.271811
 ---------------------------------------------------------------------

 SCF Done:  E(UB3LYP) =  -1136.13821755     A.U. after   21 cycles

 The electronic state is 2-A.
 Alpha  occ. eigenvalues --  -38.43651 -38.43589 -38.43534 -38.43513 -38.43472
 Alpha  occ. eigenvalues --  -38.43418 -38.43142  -2.19494  -2.19469  -2.19431
 Alpha  occ. eigenvalues --   -2.19410  -2.19363  -2.19361  -2.19138  -1.13290
 Alpha  occ. eigenvalues --   -1.13189  -1.13164  -1.13147  -1.13126  -1.13120
 Alpha  occ. eigenvalues --   -1.13106  -1.13099  -1.13074  -1.13072  -1.13065
 Alpha  occ. eigenvalues --   -1.13056  -1.13040  -1.13011  -1.13001  -1.12993
 Alpha  occ. eigenvalues --   -1.12967  -1.12939  -1.12808  -1.12763  -1.12751
 Alpha  occ. eigenvalues --   -0.19087  -0.12991  -0.12810  -0.10836
 Alpha virt. eigenvalues --   -0.05215  -0.05096  -0.04890  -0.03223  -0.03016
 Alpha virt. eigenvalues --   -0.02471  -0.01245  -0.01089  -0.00232  -0.00149
 Alpha virt. eigenvalues --    0.00004   0.00374   0.00891   0.00928   0.00935

  Beta  occ. eigenvalues --  -38.43648 -38.43585 -38.43527 -38.43462 -38.43429
  Beta  occ. eigenvalues --  -38.43408 -38.43071  -2.19490  -2.19427  -2.19403
  Beta  occ. eigenvalues --   -2.19353  -2.19350  -2.19309  -2.19008  -1.13224
  Beta  occ. eigenvalues --   -1.13186  -1.13148  -1.13140  -1.13114  -1.13104
  Beta  occ. eigenvalues --   -1.13075  -1.13073  -1.13058  -1.13043  -1.13034
  Beta  occ. eigenvalues --   -1.13000  -1.12995  -1.12993  -1.12971  -1.12944
  Beta  occ. eigenvalues --   -1.12931  -1.12898  -1.12725  -1.12670  -1.12656
  Beta  occ. eigenvalues --   -0.18342  -0.12740  -0.12564
  Beta virt. eigenvalues --   -0.06907  -0.05217  -0.05087  -0.04802  -0.02406
  Beta virt. eigenvalues --   -0.02245  -0.01426  -0.01169  -0.01016  -0.00276
  Beta virt. eigenvalues --   -0.00199   0.00139   0.00398   0.00910   0.00927

 Mulliken charges and spin densities:
               1          2
     1  Na  -0.554484   0.701726
     2  Na  -0.310439   0.562404
     3  Na   0.002696  -0.097749
     4  Na  -0.029886  -0.065696
     5  Na   0.507811  -0.000070
     6  Na   0.085553  -0.046785
     7  Na   0.298749  -0.053830
 Sum of Mulliken charges =  -0.00000   1.00000

 Dipole moment (field-independent basis, Debye):
    X=              0.0692    Y=              0.1344    Z=              0.0848  Tot=              0.1734
 Quadrupole moment (field-independent basis, Debye-Ang):
   XX=            -58.9468   YY=            -61.5577   ZZ=            -73.5285
   XY=             -0.1309   XZ=              0.4320   YZ=              1.9472

 Normal termination of Gaussian 16 at Thu Dec  7 05:55:42 2023.
