 Gaussian 16, Revision B.01,
 Gaussian 16:  ES64L-G16RevB.01 20-Dec-2017

 -------------------------
 #P B3LYP/6-311+g(d) force
 -------------------------

 -----
 DPGEN
 -----
 Symbolic Z-matrix:
 Charge =  0 Multiplicity = 2

                         Standard orientation:
 ---------------------------------------------------------------------
 Center     Atomic      Atomic             Coordinates (Angstroms)
 Number     Number       Type             X           Y           Z
 ---------------------------------------------------------------------
      1         11           0        2.590359   -0.879399   -1.879754
      2         11           0        1.849637    1.988231    0.162638
      3         11           0       -3.581876   -1.719936   -0.598828
      4         11           0       -1.862872    2.127476   -0.923546
      5         11           0       -2.298072    0.216520    1.738459
      6         11           0        3.150191   -0.945721    1.490893
      7         11           0        0.152634   -0.787171    0.010138
 ---------------------------------------------------------------------

 SCF Done:  E(UB3LYP) =  -1136.11531952     A.U. after   26 cycles

 The electronic state is 2-A.
 Alpha  occ. eigenvalues --  -38.44798 -38.44234 -38.44115 -38.43992 -38.43802
 Alpha  occ. eigenvalues --  -38.43715 -38.43487  -2.20683  -2.20020  -2.19981
 Alpha  occ. eigenvalues --   -2.19885  -2.19724  -2.19653  -2.19302  -1.14404
 Alpha  occ. eigenvalues --   -1.14336  -1.14273  -1.13692  -1.13684  -1.13660
 Alpha  occ. eigenvalues --   -1.13655  -1.13641  -1.13632  -1.13608  -1.13513
 Alpha  occ. eigenvalues --   -1.13481  -1.13439  -1.13406  -1.13337  -1.13325
 Alpha  occ. eigenvalues --   -1.13293  -1.13254  -1.12984  -1.12969  -1.12921
 Alpha  occ. eigenvalues --   -0.18258  -0.14622  -0.10726  -0.10505
 Alpha virt. eigenvalues --   -0.06480  -0.05723  -0.05471  -0.02968  -0.02566
 Alpha virt. eigenvalues --   -0.02153  -0.01953  -0.01200  -0.01018  -0.00344
 Alpha virt. eigenvalues --   -0.00028   0.00198   0.00233   0.00370   0.00474

  Beta  occ. eigenvalues --  -38.44780 -38.44243 -38.44066 -38.43923 -38.43785
  Beta  occ. eigenvalues --  -38.43689 -38.43486  -2.20649  -2.20036  -2.19893
  Beta  occ. eigenvalues --   -2.19756  -2.19685  -2.19625  -2.19300  -1.14378
  Beta  occ. eigenvalues --   -1.14310  -1.14254  -1.13700  -1.13695  -1.13666
  Beta  occ. eigenvalues --   -1.13600  -1.13579  -1.13552  -1.13529  -1.13429
  Beta  occ. eigenvalues --   -1.13391  -1.13390  -1.13336  -1.13313  -1.13277
  Beta  occ. eigenvalues --   -1.13275  -1.13234  -1.12977  -1.12968  -1.12920
  Beta  occ. eigenvalues --   -0.17608  -0.14418  -0.10624
  Beta virt. eigenvalues --   -0.06877  -0.06095  -0.05599  -0.04828  -0.02824
  Beta virt. eigenvalues --   -0.02408  -0.01761  -0.01340  -0.01048  -0.00461
  Beta virt. eigenvalues --   -0.00241   0.00204   0.00251   0.00325   0.00531

 Mulliken charges and spin densities:
               1          2
     1  Na   0.204835  -0.016190
     2  Na   0.449187   0.249216
     3  Na   0.014192  -0.120243
     4  Na  -0.212716  -0.066076
     5  Na   0.835465  -0.151521
     6  Na   0.616059   0.078590
     7  Na  -1.907022   1.026224
 Sum of Mulliken charges =  -0.00000   1.00000

 Dipole moment (field-independent basis, Debye):
    X=             -0.2134    Y=              0.2898    Z=              0.0290  Tot=              0.3611
 Quadrupole moment (field-independent basis, Debye-Ang):
   XX=            -52.0476   YY=            -75.8159   ZZ=            -66.8682
   XY=             -0.5477   XZ=              1.6033   YZ=              0.8632

 Normal termination of Gaussian 16 at Tue Dec  5 20:25:17 2023.
