 Gaussian 16, Revision B.01,
 Gaussian 16:  ES64L-G16RevB.01 20-Dec-2017

 -------------------------
 #P B3LYP/6-311+g(d) force
 -------------------------

 -----
 DPGEN
 -----
 Symbolic Z-matrix:
 Charge =  0 Multiplicity = 2

                         Standard orientation:
 ---------------------------------------------------------------------
 Center     Atomic      Atomic             Coordinates (Angstroms)
 Number     Number       Type             X           Y           Z
 ---------------------------------------------------------------------
      1         11           0        3.547457   -1.703307    0.947772
      2         11           0        0.589443    2.307320   -1.132619
      3         11           0        1.500534   -1.530256   -1.425986
      4         11           0        3.058187    1.790401    1.078294
      5         11           0       -2.794854    2.254012   -0.173995
      6         11           0       -3.939706   -0.853060    1.492526
      7         11           0       -1.961061   -2.265110   -0.785991
 ---------------------------------------------------------------------

 SCF Done:  E(UB3LYP) =  -1136.11375940     A.U. after   23 cycles

 The electronic state is 2-A.
 Alpha  occ. eigenvalues --  -38.45222 -38.45019 -38.44604 -38.44492 -38.44096
 Alpha  occ. eigenvalues --  -38.43791 -38.43182  -2.20970  -2.20809  -2.20417
 Alpha  occ. eigenvalues --   -2.20271  -2.19903  -2.19629  -2.18993  -1.14657
 Alpha  occ. eigenvalues --   -1.14637  -1.14594  -1.14485  -1.14468  -1.14437
 Alpha  occ. eigenvalues --   -1.14104  -1.14075  -1.14047  -1.13955  -1.13940
 Alpha  occ. eigenvalues --   -1.13911  -1.13555  -1.13549  -1.13529  -1.13298
 Alpha  occ. eigenvalues --   -1.13287  -1.13256  -1.12661  -1.12652  -1.12640
 Alpha  occ. eigenvalues --   -0.16492  -0.14097  -0.12054  -0.10878
 Alpha virt. eigenvalues --   -0.07229  -0.05301  -0.04114  -0.03900  -0.03516
 Alpha virt. eigenvalues --   -0.02232  -0.01837  -0.01428  -0.00967  -0.00744
 Alpha virt. eigenvalues --   -0.00253  -0.00086   0.00063   0.00426   0.00515

  Beta  occ. eigenvalues --  -38.45206 -38.44991 -38.44589 -38.44471 -38.44048
  Beta  occ. eigenvalues --  -38.43750 -38.43163  -2.20944  -2.20758  -2.20390
  Beta  occ. eigenvalues --   -2.20237  -2.19812  -2.19556  -2.18957  -1.14639
  Beta  occ. eigenvalues --   -1.14619  -1.14559  -1.14451  -1.14435  -1.14391
  Beta  occ. eigenvalues --   -1.14090  -1.14058  -1.14014  -1.13935  -1.13916
  Beta  occ. eigenvalues --   -1.13859  -1.13494  -1.13488  -1.13469  -1.13252
  Beta  occ. eigenvalues --   -1.13232  -1.13196  -1.12639  -1.12621  -1.12615
  Beta  occ. eigenvalues --   -0.15922  -0.13547  -0.11790
  Beta virt. eigenvalues --   -0.07444  -0.07273  -0.04634  -0.03756  -0.03591
  Beta virt. eigenvalues --   -0.03196  -0.01765  -0.01605  -0.01256  -0.00948
  Beta virt. eigenvalues --   -0.00579  -0.00059   0.00066   0.00297   0.00531

 Mulliken charges and spin densities:
               1          2
     1  Na   0.284140   0.219144
     2  Na  -0.419709   0.197498
     3  Na  -0.103729  -0.032674
     4  Na   0.172127   0.130407
     5  Na   0.091391   0.098164
     6  Na   0.154693   0.255758
     7  Na  -0.178913   0.131704
 Sum of Mulliken charges =  -0.00000   1.00000

 Dipole moment (field-independent basis, Debye):
    X=              0.0109    Y=              0.0570    Z=              0.8519  Tot=              0.8538
 Quadrupole moment (field-independent basis, Debye-Ang):
   XX=            -60.8081   YY=            -69.1936   ZZ=            -68.0145
   XY=             -1.9680   XZ=              0.8090   YZ=             -0.0751

 Normal termination of Gaussian 16 at Mon Dec  4 04:57:18 2023.
