 Gaussian 16, Revision B.01,
 Gaussian 16:  ES64L-G16RevB.01 20-Dec-2017

 -------------------------
 #P B3LYP/6-311+g(d) force
 -------------------------

 -----
 DPGEN
 -----
 Symbolic Z-matrix:
 Charge =  0 Multiplicity = 2

                         Standard orientation:
 ---------------------------------------------------------------------
 Center     Atomic      Atomic             Coordinates (Angstroms)
 Number     Number       Type             X           Y           Z
 ---------------------------------------------------------------------
      1         11           0        0.062709    0.069427   -1.292730
      2         11           0       -2.755229   -1.287985   -0.550889
      3         11           0        1.722321    2.752696   -0.328493
      4         11           0       -2.199105    2.133756    0.027349
      5         11           0        3.093520   -0.903005   -0.116489
      6         11           0       -0.203112    0.077047    2.242989
      7         11           0        0.278897   -2.841935    0.018264
 ---------------------------------------------------------------------

 SCF Done:  E(UB3LYP) =  -1136.13617521     A.U. after   19 cycles

 The electronic state is 2-A.
 Alpha  occ. eigenvalues --  -38.44049 -38.43901 -38.43899 -38.43724 -38.43588
 Alpha  occ. eigenvalues --  -38.43282 -38.42776  -2.19862  -2.19732  -2.19693
 Alpha  occ. eigenvalues --   -2.19583  -2.19452  -2.19163  -2.18828  -1.13545
 Alpha  occ. eigenvalues --   -1.13522  -1.13497  -1.13419  -1.13403  -1.13384
 Alpha  occ. eigenvalues --   -1.13362  -1.13348  -1.13319  -1.13243  -1.13203
 Alpha  occ. eigenvalues --   -1.13197  -1.13152  -1.13100  -1.13083  -1.12874
 Alpha  occ. eigenvalues --   -1.12820  -1.12787  -1.12521  -1.12465  -1.12459
 Alpha  occ. eigenvalues --   -0.18533  -0.12859  -0.12513  -0.10664
 Alpha virt. eigenvalues --   -0.05705  -0.05158  -0.04812  -0.02980  -0.02778
 Alpha virt. eigenvalues --   -0.02555  -0.01512  -0.01318  -0.00552  -0.00383
 Alpha virt. eigenvalues --   -0.00015   0.00328   0.00793   0.00830   0.00887

  Beta  occ. eigenvalues --  -38.44048 -38.43897 -38.43894 -38.43611 -38.43573
  Beta  occ. eigenvalues --  -38.43277 -38.42734  -2.19863  -2.19727  -2.19686
  Beta  occ. eigenvalues --   -2.19428  -2.19375  -2.19157  -2.18755  -1.13542
  Beta  occ. eigenvalues --   -1.13514  -1.13499  -1.13416  -1.13376  -1.13372
  Beta  occ. eigenvalues --   -1.13361  -1.13341  -1.13316  -1.13130  -1.13104
  Beta  occ. eigenvalues --   -1.13076  -1.13065  -1.13057  -1.13048  -1.12868
  Beta  occ. eigenvalues --   -1.12797  -1.12781  -1.12459  -1.12415  -1.12402
  Beta  occ. eigenvalues --   -0.17835  -0.12646  -0.12279
  Beta virt. eigenvalues --   -0.06692  -0.05687  -0.05090  -0.04776  -0.02228
  Beta virt. eigenvalues --   -0.02067  -0.01479  -0.01411  -0.01236  -0.00582
  Beta virt. eigenvalues --   -0.00413   0.00152   0.00376   0.00815   0.00870

 Mulliken charges and spin densities:
               1          2
     1  Na  -0.692357   0.002693
     2  Na   0.362517   0.107640
     3  Na   0.123804   0.003982
     4  Na   0.253739   0.052566
     5  Na   0.125559   0.001083
     6  Na  -0.525500   0.726723
     7  Na   0.352239   0.105313
 Sum of Mulliken charges =  -0.00000   1.00000

 Dipole moment (field-independent basis, Debye):
    X=              0.1273    Y=              0.2243    Z=              0.2356  Tot=              0.3493
 Quadrupole moment (field-independent basis, Debye-Ang):
   XX=            -56.5700   YY=            -60.4242   ZZ=            -75.3520
   XY=             -0.3752   XZ=              0.7524   YZ=              0.0384

 Normal termination of Gaussian 16 at Thu Dec  7 12:33:07 2023.
