 Gaussian 16, Revision B.01,
 Gaussian 16:  ES64L-G16RevB.01 20-Dec-2017

 -------------------------
 #P B3LYP/6-311+g(d) force
 -------------------------

 -----
 DPGEN
 -----
 Symbolic Z-matrix:
 Charge =  0 Multiplicity = 2

                         Standard orientation:
 ---------------------------------------------------------------------
 Center     Atomic      Atomic             Coordinates (Angstroms)
 Number     Number       Type             X           Y           Z
 ---------------------------------------------------------------------
      1         11           0       -2.357773   -2.110269   -0.409213
      2         11           0        0.534040    2.482363   -0.448926
      3         11           0        1.446279   -1.994100    0.618817
      4         11           0       -2.770640    1.437298    0.260059
      5         11           0       -0.095487    0.324128    1.999368
      6         11           0       -0.188140   -0.296820   -1.719350
      7         11           0        3.431721    0.157400   -0.300754
 ---------------------------------------------------------------------

 SCF Done:  E(UB3LYP) =  -1136.13091740     A.U. after   21 cycles

 The electronic state is 2-A.
 Alpha  occ. eigenvalues --  -38.44616 -38.44162 -38.43835 -38.43510 -38.43400
 Alpha  occ. eigenvalues --  -38.43252 -38.42894  -2.20441  -2.20001  -2.19777
 Alpha  occ. eigenvalues --   -2.19499  -2.19239  -2.19185  -2.18790  -1.14140
 Alpha  occ. eigenvalues --   -1.14096  -1.14070  -1.13693  -1.13659  -1.13630
 Alpha  occ. eigenvalues --   -1.13470  -1.13410  -1.13385  -1.13191  -1.13187
 Alpha  occ. eigenvalues --   -1.13124  -1.12910  -1.12879  -1.12876  -1.12868
 Alpha  occ. eigenvalues --   -1.12841  -1.12789  -1.12497  -1.12460  -1.12384
 Alpha  occ. eigenvalues --   -0.18943  -0.13367  -0.11990  -0.11226
 Alpha virt. eigenvalues --   -0.06154  -0.04951  -0.03881  -0.03453  -0.02881
 Alpha virt. eigenvalues --   -0.02778  -0.01959  -0.01029  -0.00161  -0.00046
 Alpha virt. eigenvalues --    0.00133   0.00310   0.00759   0.00816   0.00907

  Beta  occ. eigenvalues --  -38.44616 -38.44156 -38.43742 -38.43443 -38.43394
  Beta  occ. eigenvalues --  -38.43232 -38.42880  -2.20442  -2.19993  -2.19608
  Beta  occ. eigenvalues --   -2.19376  -2.19229  -2.19151  -2.18769  -1.14143
  Beta  occ. eigenvalues --   -1.14086  -1.14068  -1.13672  -1.13647  -1.13626
  Beta  occ. eigenvalues --   -1.13356  -1.13288  -1.13269  -1.13111  -1.13100
  Beta  occ. eigenvalues --   -1.13043  -1.12877  -1.12873  -1.12860  -1.12845
  Beta  occ. eigenvalues --   -1.12799  -1.12763  -1.12480  -1.12426  -1.12367
  Beta  occ. eigenvalues --   -0.18195  -0.13143  -0.11707
  Beta virt. eigenvalues --   -0.07265  -0.06072  -0.04919  -0.03818  -0.02737
  Beta virt. eigenvalues --   -0.02129  -0.01874  -0.01702  -0.00961  -0.00092
  Beta virt. eigenvalues --    0.00010   0.00135   0.00333   0.00838   0.00886

 Mulliken charges and spin densities:
               1          2
     1  Na   0.102363  -0.059353
     2  Na   0.178622  -0.004363
     3  Na   0.535411   0.118227
     4  Na   0.216173  -0.027769
     5  Na  -0.355262   0.497305
     6  Na  -0.528536   0.575539
     7  Na  -0.148772  -0.099586
 Sum of Mulliken charges =  -0.00000   1.00000

 Dipole moment (field-independent basis, Debye):
    X=              0.0602    Y=              0.2321    Z=              0.0734  Tot=              0.2507
 Quadrupole moment (field-independent basis, Debye-Ang):
   XX=            -51.7486   YY=            -69.4734   ZZ=            -72.2885
   XY=              0.2200   XZ=             -1.3984   YZ=             -0.9600

 Normal termination of Gaussian 16 at Thu Dec  7 08:31:27 2023.
