 Gaussian 16, Revision B.01,
 Gaussian 16:  ES64L-G16RevB.01 20-Dec-2017

 -------------------------
 #P B3LYP/6-311+g(d) force
 -------------------------

 -----
 DPGEN
 -----
 Symbolic Z-matrix:
 Charge =  0 Multiplicity = 2

                         Standard orientation:
 ---------------------------------------------------------------------
 Center     Atomic      Atomic             Coordinates (Angstroms)
 Number     Number       Type             X           Y           Z
 ---------------------------------------------------------------------
      1         11           0        0.032908   -0.010755    2.011633
      2         11           0        0.482585    2.688140    0.091099
      3         11           0        3.304244    0.481219   -0.183796
      4         11           0       -0.129505   -0.210683   -1.659825
      5         11           0       -2.654956    1.393965   -0.315449
      6         11           0       -2.744076   -1.842871    0.146329
      7         11           0        1.708799   -2.499015   -0.089991
 ---------------------------------------------------------------------

 SCF Done:  E(UB3LYP) =  -1136.13555231     A.U. after   21 cycles

 The electronic state is 2-A.
 Alpha  occ. eigenvalues --  -38.44652 -38.44069 -38.43841 -38.43551 -38.43532
 Alpha  occ. eigenvalues --  -38.43389 -38.42651  -2.20460  -2.19883  -2.19725
 Alpha  occ. eigenvalues --   -2.19426  -2.19385  -2.19343  -2.18532  -1.14133
 Alpha  occ. eigenvalues --   -1.14112  -1.14107  -1.13573  -1.13547  -1.13527
 Alpha  occ. eigenvalues --   -1.13417  -1.13375  -1.13349  -1.13112  -1.13090
 Alpha  occ. eigenvalues --   -1.13066  -1.13042  -1.13033  -1.13023  -1.13017
 Alpha  occ. eigenvalues --   -1.12968  -1.12954  -1.12218  -1.12197  -1.12165
 Alpha  occ. eigenvalues --   -0.18612  -0.13441  -0.12005  -0.10672
 Alpha virt. eigenvalues --   -0.06153  -0.05343  -0.04209  -0.03354  -0.02659
 Alpha virt. eigenvalues --   -0.02525  -0.01920  -0.01149  -0.00497  -0.00213
 Alpha virt. eigenvalues --   -0.00023   0.00325   0.00724   0.00824   0.00896

  Beta  occ. eigenvalues --  -38.44650 -38.44067 -38.43831 -38.43547 -38.43435
  Beta  occ. eigenvalues --  -38.43327 -38.42644  -2.20458  -2.19882  -2.19711
  Beta  occ. eigenvalues --   -2.19381  -2.19248  -2.19230  -2.18525  -1.14120
  Beta  occ. eigenvalues --   -1.14111  -1.14103  -1.13575  -1.13534  -1.13521
  Beta  occ. eigenvalues --   -1.13400  -1.13348  -1.13344  -1.13081  -1.13035
  Beta  occ. eigenvalues --   -1.13013  -1.12987  -1.12944  -1.12923  -1.12912
  Beta  occ. eigenvalues --   -1.12892  -1.12874  -1.12216  -1.12168  -1.12157
  Beta  occ. eigenvalues --   -0.17879  -0.13222  -0.11767
  Beta virt. eigenvalues --   -0.06761  -0.06099  -0.05330  -0.04196  -0.02585
  Beta virt. eigenvalues --   -0.01901  -0.01824  -0.01459  -0.01063  -0.00555
  Beta virt. eigenvalues --   -0.00239   0.00119   0.00355   0.00794   0.00825

 Mulliken charges and spin densities:
               1          2
     1  Na  -0.456212   0.767266
     2  Na   0.112109  -0.033475
     3  Na   0.065728  -0.035119
     4  Na  -0.195121   0.426305
     5  Na   0.298950   0.041456
     6  Na   0.077702  -0.068842
     7  Na   0.096843  -0.097591
 Sum of Mulliken charges =  -0.00000   1.00000

 Dipole moment (field-independent basis, Debye):
    X=              0.1711    Y=             -0.2291    Z=              0.0544  Tot=              0.2911
 Quadrupole moment (field-independent basis, Debye-Ang):
   XX=            -52.4766   YY=            -65.6516   ZZ=            -74.8970
   XY=              1.0581   XZ=             -0.3876   YZ=             -0.8350

 Normal termination of Gaussian 16 at Fri Dec  8 04:51:02 2023.
