 Gaussian 16, Revision B.01,
 Gaussian 16:  ES64L-G16RevB.01 20-Dec-2017

 -------------------------
 #P B3LYP/6-311+g(d) force
 -------------------------

 -----
 DPGEN
 -----
 Symbolic Z-matrix:
 Charge =  0 Multiplicity = 2

                         Standard orientation:
 ---------------------------------------------------------------------
 Center     Atomic      Atomic             Coordinates (Angstroms)
 Number     Number       Type             X           Y           Z
 ---------------------------------------------------------------------
      1         11           0       -3.007792   -2.622322   -0.430437
      2         11           0        3.901578   -0.856462   -0.733856
      3         11           0        1.294490   -1.999128    0.839884
      4         11           0       -1.574585    0.110739   -1.189214
      5         11           0       -1.336098    0.513917    1.597597
      6         11           0        1.759574    1.407586    0.234646
      7         11           0       -1.037167    3.445669   -0.318619
 ---------------------------------------------------------------------

 SCF Done:  E(UB3LYP) =  -1136.12612156     A.U. after   20 cycles

 The electronic state is 2-A.
 Alpha  occ. eigenvalues --  -38.44031 -38.43840 -38.43821 -38.43741 -38.43726
 Alpha  occ. eigenvalues --  -38.43715 -38.43714  -2.19874  -2.19801  -2.19712
 Alpha  occ. eigenvalues --   -2.19696  -2.19563  -2.19553  -2.19529  -1.13730
 Alpha  occ. eigenvalues --   -1.13569  -1.13551  -1.13501  -1.13460  -1.13417
 Alpha  occ. eigenvalues --   -1.13404  -1.13372  -1.13348  -1.13338  -1.13309
 Alpha  occ. eigenvalues --   -1.13287  -1.13219  -1.13215  -1.13210  -1.13204
 Alpha  occ. eigenvalues --   -1.13186  -1.13184  -1.13174  -1.13167  -1.13132
 Alpha  occ. eigenvalues --   -0.18201  -0.13643  -0.12530  -0.10099
 Alpha virt. eigenvalues --   -0.05646  -0.05619  -0.05200  -0.03171  -0.02688
 Alpha virt. eigenvalues --   -0.01870  -0.01732  -0.01554  -0.00860  -0.00644
 Alpha virt. eigenvalues --    0.00113   0.00189   0.00568   0.00669   0.00751

  Beta  occ. eigenvalues --  -38.44007 -38.43810 -38.43779 -38.43716 -38.43705
  Beta  occ. eigenvalues --  -38.43705 -38.43686  -2.19834  -2.19701  -2.19696
  Beta  occ. eigenvalues --   -2.19646  -2.19535  -2.19509  -2.19492  -1.13671
  Beta  occ. eigenvalues --   -1.13545  -1.13504  -1.13468  -1.13417  -1.13379
  Beta  occ. eigenvalues --   -1.13346  -1.13335  -1.13312  -1.13301  -1.13261
  Beta  occ. eigenvalues --   -1.13226  -1.13203  -1.13191  -1.13176  -1.13166
  Beta  occ. eigenvalues --   -1.13163  -1.13161  -1.13145  -1.13136  -1.13109
  Beta  occ. eigenvalues --   -0.17561  -0.13361  -0.12259
  Beta virt. eigenvalues --   -0.06507  -0.05478  -0.05350  -0.04977  -0.02753
  Beta virt. eigenvalues --   -0.02232  -0.01674  -0.01637  -0.01024  -0.00641
  Beta virt. eigenvalues --   -0.00327   0.00209   0.00322   0.00700   0.00716

 Mulliken charges and spin densities:
               1          2
     1  Na   0.248818  -0.012980
     2  Na   0.371487   0.127611
     3  Na  -0.140694   0.028313
     4  Na  -0.637107   0.329240
     5  Na   0.119599   0.344352
     6  Na  -0.582075   0.091519
     7  Na   0.619972   0.091944
 Sum of Mulliken charges =  -0.00000   1.00000

 Dipole moment (field-independent basis, Debye):
    X=              0.1228    Y=              0.0325    Z=              0.4782  Tot=              0.4948
 Quadrupole moment (field-independent basis, Debye-Ang):
   XX=            -63.4184   YY=            -57.9379   ZZ=            -72.9571
   XY=             -1.6157   XZ=             -3.4685   YZ=             -0.3614

 Normal termination of Gaussian 16 at Tue Dec  5 20:27:44 2023.
