 Gaussian 16, Revision B.01,
 Gaussian 16:  ES64L-G16RevB.01 20-Dec-2017

 -------------------------
 #P B3LYP/6-311+g(d) force
 -------------------------

 -----
 DPGEN
 -----
 Symbolic Z-matrix:
 Charge =  0 Multiplicity = 2

                         Standard orientation:
 ---------------------------------------------------------------------
 Center     Atomic      Atomic             Coordinates (Angstroms)
 Number     Number       Type             X           Y           Z
 ---------------------------------------------------------------------
      1         11           0        1.265091   -3.114246   -0.940123
      2         11           0        3.002860   -1.386398    1.183626
      3         11           0        2.598355    2.212102   -0.426036
      4         11           0       -1.330575    0.395917    1.957358
      5         11           0       -0.364856    3.221298   -0.499999
      6         11           0       -3.951005   -0.892097    0.143187
      7         11           0       -1.219870   -0.436576   -1.418012
 ---------------------------------------------------------------------

 SCF Done:  E(UB3LYP) =  -1136.11799367     A.U. after   19 cycles

 The electronic state is 2-A.
 Alpha  occ. eigenvalues --  -38.44958 -38.44657 -38.44597 -38.43853 -38.43778
 Alpha  occ. eigenvalues --  -38.43725 -38.43686  -2.20764  -2.20437  -2.20419
 Alpha  occ. eigenvalues --   -2.19646  -2.19600  -2.19560  -2.19518  -1.14447
 Alpha  occ. eigenvalues --   -1.14422  -1.14407  -1.14114  -1.14105  -1.14089
 Alpha  occ. eigenvalues --   -1.14082  -1.14067  -1.14022  -1.13325  -1.13310
 Alpha  occ. eigenvalues --   -1.13304  -1.13262  -1.13254  -1.13246  -1.13238
 Alpha  occ. eigenvalues --   -1.13203  -1.13186  -1.13179  -1.13165  -1.13143
 Alpha  occ. eigenvalues --   -0.17081  -0.13220  -0.12497  -0.10331
 Alpha virt. eigenvalues --   -0.06768  -0.05246  -0.05074  -0.03475  -0.02943
 Alpha virt. eigenvalues --   -0.02400  -0.02153  -0.01227  -0.00826  -0.00361
 Alpha virt. eigenvalues --   -0.00287   0.00119   0.00210   0.00544   0.00664

  Beta  occ. eigenvalues --  -38.44961 -38.44656 -38.44528 -38.43840 -38.43766
  Beta  occ. eigenvalues --  -38.43702 -38.43632  -2.20774  -2.20438  -2.20291
  Beta  occ. eigenvalues --   -2.19622  -2.19579  -2.19473  -2.19462  -1.14447
  Beta  occ. eigenvalues --   -1.14430  -1.14400  -1.14113  -1.14102  -1.14077
  Beta  occ. eigenvalues --   -1.14001  -1.13978  -1.13933  -1.13309  -1.13294
  Beta  occ. eigenvalues --   -1.13275  -1.13246  -1.13233  -1.13230  -1.13169
  Beta  occ. eigenvalues --   -1.13147  -1.13138  -1.13133  -1.13116  -1.13110
  Beta  occ. eigenvalues --   -0.16492  -0.13030  -0.12288
  Beta virt. eigenvalues --   -0.06855  -0.06535  -0.05060  -0.04523  -0.03104
  Beta virt. eigenvalues --   -0.02461  -0.02154  -0.01580  -0.01107  -0.00797
  Beta virt. eigenvalues --   -0.00221  -0.00041   0.00246   0.00343   0.00693

 Mulliken charges and spin densities:
               1          2
     1  Na   0.059473  -0.005881
     2  Na  -0.091251   0.203078
     3  Na  -0.157359  -0.012474
     4  Na  -0.257070   0.424688
     5  Na   0.265393   0.064248
     6  Na   0.118617   0.027675
     7  Na   0.062195   0.298666
 Sum of Mulliken charges =  -0.00000   1.00000

 Dipole moment (field-independent basis, Debye):
    X=             -1.0338    Y=              0.1972    Z=              0.0971  Tot=              1.0569
 Quadrupole moment (field-independent basis, Debye-Ang):
   XX=            -54.4986   YY=            -67.5398   ZZ=            -73.9858
   XY=              2.8626   XZ=              0.6865   YZ=              0.4827

 Normal termination of Gaussian 16 at Sun Dec  3 13:49:46 2023.
