 Gaussian 16, Revision B.01,
 Gaussian 16:  ES64L-G16RevB.01 20-Dec-2017

 -------------------------
 #P B3LYP/6-311+g(d) force
 -------------------------

 -----
 DPGEN
 -----
 Symbolic Z-matrix:
 Charge =  0 Multiplicity = 2

                         Standard orientation:
 ---------------------------------------------------------------------
 Center     Atomic      Atomic             Coordinates (Angstroms)
 Number     Number       Type             X           Y           Z
 ---------------------------------------------------------------------
      1         11           0        0.258640    2.790555   -0.087161
      2         11           0       -2.499825   -1.829071    0.398012
      3         11           0       -2.805667    0.885737   -0.781913
      4         11           0       -0.333156   -0.092100    2.162972
      5         11           0        2.195032   -2.488550   -0.526235
      6         11           0        2.969147    0.895081    0.345406
      7         11           0        0.215829   -0.161652   -1.511081
 ---------------------------------------------------------------------

 SCF Done:  E(UB3LYP) =  -1136.13123055     A.U. after   21 cycles

 The electronic state is 2-A.
 Alpha  occ. eigenvalues --  -38.44357 -38.44213 -38.44012 -38.43965 -38.43360
 Alpha  occ. eigenvalues --  -38.43292 -38.42698  -2.20196  -2.20082  -2.19917
 Alpha  occ. eigenvalues --   -2.19844  -2.19284  -2.19176  -2.18572  -1.13878
 Alpha  occ. eigenvalues --   -1.13866  -1.13820  -1.13755  -1.13713  -1.13708
 Alpha  occ. eigenvalues --   -1.13700  -1.13590  -1.13543  -1.13491  -1.13467
 Alpha  occ. eigenvalues --   -1.13421  -1.12976  -1.12971  -1.12921  -1.12833
 Alpha  occ. eigenvalues --   -1.12813  -1.12807  -1.12260  -1.12231  -1.12209
 Alpha  occ. eigenvalues --   -0.18643  -0.13577  -0.11902  -0.11159
 Alpha virt. eigenvalues --   -0.05892  -0.05166  -0.04328  -0.03500  -0.02910
 Alpha virt. eigenvalues --   -0.02639  -0.01722  -0.01052  -0.00393  -0.00084
 Alpha virt. eigenvalues --   -0.00037   0.00337   0.00722   0.00825   0.00864

  Beta  occ. eigenvalues --  -38.44354 -38.44113 -38.43989 -38.43955 -38.43353
  Beta  occ. eigenvalues --  -38.43239 -38.42696  -2.20191  -2.19899  -2.19878
  Beta  occ. eigenvalues --   -2.19829  -2.19190  -2.19165  -2.18572  -1.13873
  Beta  occ. eigenvalues --   -1.13855  -1.13815  -1.13698  -1.13632  -1.13584
  Beta  occ. eigenvalues --   -1.13576  -1.13546  -1.13511  -1.13463  -1.13441
  Beta  occ. eigenvalues --   -1.13405  -1.12920  -1.12905  -1.12859  -1.12813
  Beta  occ. eigenvalues --   -1.12805  -1.12778  -1.12260  -1.12227  -1.12192
  Beta  occ. eigenvalues --   -0.17925  -0.13353  -0.11621
  Beta virt. eigenvalues --   -0.07246  -0.05790  -0.05075  -0.04204  -0.02847
  Beta virt. eigenvalues --   -0.02067  -0.01780  -0.01603  -0.00939  -0.00378
  Beta virt. eigenvalues --   -0.00083   0.00093   0.00377   0.00826   0.00860

 Mulliken charges and spin densities:
               1          2
     1  Na  -0.049374   0.048413
     2  Na   0.216100   0.121615
     3  Na   0.259945   0.069782
     4  Na  -0.396005   0.558652
     5  Na   0.061747   0.005543
     6  Na   0.073246   0.041695
     7  Na  -0.165660   0.154300
 Sum of Mulliken charges =  -0.00000   1.00000

 Dipole moment (field-independent basis, Debye):
    X=              0.0083    Y=             -0.0414    Z=              0.3673  Tot=              0.3697
 Quadrupole moment (field-independent basis, Debye-Ang):
   XX=            -56.0300   YY=            -66.3206   ZZ=            -72.5471
   XY=              1.0197   XZ=              2.3307   YZ=             -0.4993

 Normal termination of Gaussian 16 at Thu Dec  7 11:16:59 2023.
