 Gaussian 16, Revision B.01,
 Gaussian 16:  ES64L-G16RevB.01 20-Dec-2017

 -------------------------
 #P B3LYP/6-311+g(d) force
 -------------------------

 -----
 DPGEN
 -----
 Symbolic Z-matrix:
 Charge =  0 Multiplicity = 2

                         Standard orientation:
 ---------------------------------------------------------------------
 Center     Atomic      Atomic             Coordinates (Angstroms)
 Number     Number       Type             X           Y           Z
 ---------------------------------------------------------------------
      1         11           0       -1.585486   -2.267679   -0.637683
      2         11           0        2.456552    2.401549   -0.320309
      3         11           0        3.029645   -2.083375    0.444935
      4         11           0        0.609675   -0.376338   -1.701753
      5         11           0       -3.642671    0.103924    0.284705
      6         11           0        0.214907   -0.130648    1.997644
      7         11           0       -1.082620    2.352567   -0.067538
 ---------------------------------------------------------------------

 SCF Done:  E(UB3LYP) =  -1136.12713421     A.U. after   21 cycles

 The electronic state is 2-A.
 Alpha  occ. eigenvalues --  -38.44497 -38.44460 -38.44238 -38.44165 -38.43737
 Alpha  occ. eigenvalues --  -38.43410 -38.43222  -2.20269  -2.20252  -2.20077
 Alpha  occ. eigenvalues --   -2.19948  -2.19601  -2.19328  -2.19075  -1.13944
 Alpha  occ. eigenvalues --   -1.13931  -1.13923  -1.13913  -1.13911  -1.13888
 Alpha  occ. eigenvalues --   -1.13758  -1.13717  -1.13684  -1.13622  -1.13598
 Alpha  occ. eigenvalues --   -1.13588  -1.13342  -1.13246  -1.13213  -1.13009
 Alpha  occ. eigenvalues --   -1.12953  -1.12937  -1.12768  -1.12756  -1.12687
 Alpha  occ. eigenvalues --   -0.18043  -0.13070  -0.12008  -0.10711
 Alpha virt. eigenvalues --   -0.06391  -0.05766  -0.04072  -0.03231  -0.02768
 Alpha virt. eigenvalues --   -0.02543  -0.02094  -0.01658  -0.00547  -0.00155
 Alpha virt. eigenvalues --   -0.00118   0.00219   0.00585   0.00677   0.00717

  Beta  occ. eigenvalues --  -38.44487 -38.44461 -38.44160 -38.44157 -38.43713
  Beta  occ. eigenvalues --  -38.43345 -38.43216  -2.20273  -2.20235  -2.19937
  Beta  occ. eigenvalues --   -2.19931  -2.19559  -2.19210  -2.19068  -1.13950
  Beta  occ. eigenvalues --   -1.13928  -1.13908  -1.13905  -1.13894  -1.13878
  Beta  occ. eigenvalues --   -1.13660  -1.13619  -1.13602  -1.13589  -1.13582
  Beta  occ. eigenvalues --   -1.13574  -1.13299  -1.13205  -1.13189  -1.12934
  Beta  occ. eigenvalues --   -1.12864  -1.12854  -1.12764  -1.12734  -1.12677
  Beta  occ. eigenvalues --   -0.17359  -0.12877  -0.11714
  Beta virt. eigenvalues --   -0.06965  -0.06178  -0.05705  -0.03955  -0.02672
  Beta virt. eigenvalues --   -0.02159  -0.01907  -0.01606  -0.01506  -0.00515
  Beta virt. eigenvalues --   -0.00142   0.00008   0.00256   0.00701   0.00725

 Mulliken charges and spin densities:
               1          2
     1  Na   0.302935   0.112122
     2  Na   0.113663   0.002964
     3  Na  -0.033800  -0.006100
     4  Na   0.005236   0.169169
     5  Na  -0.042384  -0.008716
     6  Na  -0.348817   0.652501
     7  Na   0.003168   0.078060
 Sum of Mulliken charges =  -0.00000   1.00000

 Dipole moment (field-independent basis, Debye):
    X=              0.2978    Y=             -0.0237    Z=              0.2582  Tot=              0.3949
 Quadrupole moment (field-independent basis, Debye-Ang):
   XX=            -50.7500   YY=            -67.6820   ZZ=            -74.6037
   XY=              0.3557   XZ=             -0.4948   YZ=             -0.6392

 Normal termination of Gaussian 16 at Thu Dec  7 15:19:59 2023.
