 Gaussian 16, Revision B.01,
 Gaussian 16:  ES64L-G16RevB.01 20-Dec-2017

 -------------------------
 #P B3LYP/6-311+g(d) force
 -------------------------

 -----
 DPGEN
 -----
 Symbolic Z-matrix:
 Charge =  0 Multiplicity = 2

                         Standard orientation:
 ---------------------------------------------------------------------
 Center     Atomic      Atomic             Coordinates (Angstroms)
 Number     Number       Type             X           Y           Z
 ---------------------------------------------------------------------
      1         11           0        2.184254   -2.941420    0.461992
      2         11           0        1.694336   -0.002114   -1.316340
      3         11           0        0.245382   -0.198407    1.767643
      4         11           0       -1.298005    1.672150   -0.874261
      5         11           0       -1.343748   -1.703777   -1.176931
      6         11           0       -3.454531   -0.018210    0.768976
      7         11           0        1.972312    3.191778    0.368920
 ---------------------------------------------------------------------

 SCF Done:  E(UB3LYP) =  -1136.13486947     A.U. after   19 cycles

 The electronic state is 2-A.
 Alpha  occ. eigenvalues --  -38.43831 -38.43803 -38.43777 -38.43720 -38.43670
 Alpha  occ. eigenvalues --  -38.43539 -38.43232  -2.19709  -2.19668  -2.19659
 Alpha  occ. eigenvalues --   -2.19514  -2.19454  -2.19442  -2.19149  -1.13422
 Alpha  occ. eigenvalues --   -1.13378  -1.13361  -1.13350  -1.13337  -1.13326
 Alpha  occ. eigenvalues --   -1.13307  -1.13294  -1.13240  -1.13189  -1.13176
 Alpha  occ. eigenvalues --   -1.13161  -1.13144  -1.13126  -1.13117  -1.13110
 Alpha  occ. eigenvalues --   -1.13073  -1.13031  -1.12862  -1.12813  -1.12730
 Alpha  occ. eigenvalues --   -0.18428  -0.12999  -0.12140  -0.10752
 Alpha virt. eigenvalues --   -0.05762  -0.05323  -0.04526  -0.03259  -0.02763
 Alpha virt. eigenvalues --   -0.02422  -0.01601  -0.01508  -0.00626  -0.00148
 Alpha virt. eigenvalues --    0.00253   0.00321   0.00677   0.00774   0.00796

  Beta  occ. eigenvalues --  -38.43790 -38.43763 -38.43737 -38.43717 -38.43671
  Beta  occ. eigenvalues --  -38.43518 -38.43195  -2.19637  -2.19599  -2.19584
  Beta  occ. eigenvalues --   -2.19510  -2.19445  -2.19419  -2.19085  -1.13361
  Beta  occ. eigenvalues --   -1.13334  -1.13322  -1.13306  -1.13272  -1.13254
  Beta  occ. eigenvalues --   -1.13242  -1.13234  -1.13203  -1.13186  -1.13159
  Beta  occ. eigenvalues --   -1.13142  -1.13135  -1.13120  -1.13105  -1.13074
  Beta  occ. eigenvalues --   -1.13068  -1.13014  -1.12821  -1.12740  -1.12690
  Beta  occ. eigenvalues --   -0.17639  -0.12829  -0.11996
  Beta virt. eigenvalues --   -0.06819  -0.05585  -0.05243  -0.04372  -0.02700
  Beta virt. eigenvalues --   -0.02257  -0.01650  -0.01426  -0.01330  -0.00248
  Beta virt. eigenvalues --   -0.00180   0.00278   0.00400   0.00726   0.00823

 Mulliken charges and spin densities:
               1          2
     1  Na   0.027080  -0.153340
     2  Na   0.166922   0.271740
     3  Na  -0.503428   0.786053
     4  Na  -0.084813   0.189186
     5  Na  -0.170391   0.098430
     6  Na   0.495228  -0.038007
     7  Na   0.069401  -0.154062
 Sum of Mulliken charges =  -0.00000   1.00000

 Dipole moment (field-independent basis, Debye):
    X=             -0.1970    Y=             -0.2099    Z=              0.1803  Tot=              0.3396
 Quadrupole moment (field-independent basis, Debye-Ang):
   XX=            -58.4036   YY=            -61.2859   ZZ=            -72.0415
   XY=             -0.0631   XZ=             -0.5548   YZ=              0.8505

 Normal termination of Gaussian 16 at Tue Dec  5 18:43:29 2023.
