 Gaussian 16, Revision B.01,
 Gaussian 16:  ES64L-G16RevB.01 20-Dec-2017

 -------------------------
 #P B3LYP/6-311+g(d) force
 -------------------------

 -----
 DPGEN
 -----
 Symbolic Z-matrix:
 Charge =  0 Multiplicity = 2

                         Standard orientation:
 ---------------------------------------------------------------------
 Center     Atomic      Atomic             Coordinates (Angstroms)
 Number     Number       Type             X           Y           Z
 ---------------------------------------------------------------------
      1         11           0       -0.578040   -0.362548    1.996877
      2         11           0        2.456584    0.745101    0.887576
      3         11           0       -2.381266    1.573343   -0.083384
      4         11           0        0.625273    3.113342   -0.692585
      5         11           0        3.088209   -2.237034   -0.350325
      6         11           0        0.100250   -0.794175   -1.621409
      7         11           0       -3.311010   -2.038029   -0.136752
 ---------------------------------------------------------------------

 SCF Done:  E(UB3LYP) =  -1136.12872063     A.U. after   21 cycles

 The electronic state is 2-A.
 Alpha  occ. eigenvalues --  -38.44492 -38.44292 -38.44102 -38.44060 -38.44001
 Alpha  occ. eigenvalues --  -38.43752 -38.43042  -2.20253  -2.20130  -2.19939
 Alpha  occ. eigenvalues --   -2.19928  -2.19799  -2.19631  -2.18863  -1.13929
 Alpha  occ. eigenvalues --   -1.13922  -1.13883  -1.13839  -1.13811  -1.13730
 Alpha  occ. eigenvalues --   -1.13641  -1.13595  -1.13586  -1.13571  -1.13554
 Alpha  occ. eigenvalues --   -1.13530  -1.13481  -1.13456  -1.13441  -1.13314
 Alpha  occ. eigenvalues --   -1.13294  -1.13243  -1.12536  -1.12519  -1.12504
 Alpha  occ. eigenvalues --   -0.17968  -0.13297  -0.11918  -0.10731
 Alpha virt. eigenvalues --   -0.06097  -0.05954  -0.04319  -0.03400  -0.02732
 Alpha virt. eigenvalues --   -0.02465  -0.02019  -0.01555  -0.00672  -0.00270
 Alpha virt. eigenvalues --    0.00032   0.00272   0.00495   0.00655   0.00756

  Beta  occ. eigenvalues --  -38.44495 -38.44284 -38.44046 -38.44001 -38.43970
  Beta  occ. eigenvalues --  -38.43730 -38.43033  -2.20260  -2.20117  -2.19837
  Beta  occ. eigenvalues --   -2.19800  -2.19762  -2.19594  -2.18847  -1.13934
  Beta  occ. eigenvalues --   -1.13917  -1.13889  -1.13821  -1.13786  -1.13724
  Beta  occ. eigenvalues --   -1.13567  -1.13512  -1.13490  -1.13487  -1.13481
  Beta  occ. eigenvalues --   -1.13459  -1.13450  -1.13430  -1.13405  -1.13281
  Beta  occ. eigenvalues --   -1.13251  -1.13222  -1.12526  -1.12497  -1.12495
  Beta  occ. eigenvalues --   -0.17244  -0.13157  -0.11705
  Beta virt. eigenvalues --   -0.06880  -0.06034  -0.05800  -0.04069  -0.02807
  Beta virt. eigenvalues --   -0.02136  -0.01931  -0.01706  -0.01288  -0.00659
  Beta virt. eigenvalues --   -0.00151   0.00127   0.00309   0.00629   0.00687

 Mulliken charges and spin densities:
               1          2
     1  Na  -0.059720   0.313287
     2  Na   0.271249   0.239550
     3  Na   0.178905   0.184682
     4  Na  -0.110265  -0.092487
     5  Na   0.032095  -0.085237
     6  Na  -0.382742   0.499116
     7  Na   0.070477  -0.058910
 Sum of Mulliken charges =  -0.00000   1.00000

 Dipole moment (field-independent basis, Debye):
    X=             -0.5471    Y=             -0.6908    Z=             -0.0545  Tot=              0.8829
 Quadrupole moment (field-independent basis, Debye-Ang):
   XX=            -54.8764   YY=            -64.5308   ZZ=            -74.1696
   XY=              0.8965   XZ=              0.8232   YZ=             -0.0034

 Normal termination of Gaussian 16 at Thu Dec  7 06:20:43 2023.
