 Gaussian 16, Revision B.01,
 Gaussian 16:  ES64L-G16RevB.01 20-Dec-2017

 -------------------------
 #P B3LYP/6-311+g(d) force
 -------------------------

 -----
 DPGEN
 -----
 Symbolic Z-matrix:
 Charge =  0 Multiplicity = 2

                         Standard orientation:
 ---------------------------------------------------------------------
 Center     Atomic      Atomic             Coordinates (Angstroms)
 Number     Number       Type             X           Y           Z
 ---------------------------------------------------------------------
      1         11           0       -1.675041   -0.650030    1.722765
      2         11           0        3.774607    1.397725   -0.420853
      3         11           0       -3.988447    1.381988   -0.286870
      4         11           0       -1.536442   -1.599363   -1.456179
      5         11           0        0.257337    1.847405   -0.335717
      6         11           0        1.603299   -1.684554   -0.942399
      7         11           0        1.564687   -0.693171    1.719254
 ---------------------------------------------------------------------

 SCF Done:  E(UB3LYP) =  -1136.11967443     A.U. after   25 cycles

 The electronic state is 2-A.
 Alpha  occ. eigenvalues --  -38.44640 -38.44414 -38.44033 -38.44025 -38.43967
 Alpha  occ. eigenvalues --  -38.43831 -38.43586  -2.20436  -2.20169  -2.20000
 Alpha  occ. eigenvalues --   -2.19862  -2.19821  -2.19702  -2.19523  -1.14155
 Alpha  occ. eigenvalues --   -1.14136  -1.14021  -1.13846  -1.13834  -1.13798
 Alpha  occ. eigenvalues --   -1.13795  -1.13693  -1.13583  -1.13538  -1.13531
 Alpha  occ. eigenvalues --   -1.13494  -1.13482  -1.13450  -1.13443  -1.13405
 Alpha  occ. eigenvalues --   -1.13348  -1.13315  -1.13188  -1.13166  -1.13086
 Alpha  occ. eigenvalues --   -0.18490  -0.13752  -0.11436  -0.11254
 Alpha virt. eigenvalues --   -0.06734  -0.05514  -0.04343  -0.03338  -0.02516
 Alpha virt. eigenvalues --   -0.02476  -0.02350  -0.01622  -0.00641  -0.00203
 Alpha virt. eigenvalues --    0.00066   0.00243   0.00366   0.00559   0.00692

  Beta  occ. eigenvalues --  -38.44636 -38.44410 -38.44021 -38.43976 -38.43911
  Beta  occ. eigenvalues --  -38.43779 -38.43561  -2.20431  -2.20161  -2.19899
  Beta  occ. eigenvalues --   -2.19814  -2.19764  -2.19608  -2.19479  -1.14141
  Beta  occ. eigenvalues --   -1.14122  -1.14020  -1.13838  -1.13829  -1.13791
  Beta  occ. eigenvalues --   -1.13734  -1.13608  -1.13512  -1.13484  -1.13479
  Beta  occ. eigenvalues --   -1.13469  -1.13457  -1.13441  -1.13366  -1.13335
  Beta  occ. eigenvalues --   -1.13285  -1.13246  -1.13138  -1.13132  -1.13052
  Beta  occ. eigenvalues --   -0.17789  -0.13613  -0.11049
  Beta virt. eigenvalues --   -0.07301  -0.06605  -0.05478  -0.03722  -0.03019
  Beta virt. eigenvalues --   -0.02439  -0.02012  -0.01671  -0.01347  -0.00221
  Beta virt. eigenvalues --   -0.00136   0.00108   0.00259   0.00494   0.00691

 Mulliken charges and spin densities:
               1          2
     1  Na  -0.002709   0.210442
     2  Na   0.565482  -0.116616
     3  Na   0.354315   0.094931
     4  Na  -0.057614   0.224520
     5  Na  -0.952998   0.090019
     6  Na  -0.211898   0.331507
     7  Na   0.305423   0.165196
 Sum of Mulliken charges =  -0.00000   1.00000

 Dipole moment (field-independent basis, Debye):
    X=             -0.0227    Y=              0.0432    Z=             -0.0636  Tot=              0.0802
 Quadrupole moment (field-independent basis, Debye-Ang):
   XX=            -50.4926   YY=            -74.9603   ZZ=            -70.0657
   XY=             -0.8656   XZ=              0.5511   YZ=             -0.8028

 Normal termination of Gaussian 16 at Fri Dec  8 02:14:01 2023.
