 Gaussian 16, Revision B.01,
 Gaussian 16:  ES64L-G16RevB.01 20-Dec-2017

 -------------------------
 #P B3LYP/6-311+g(d) force
 -------------------------

 -----
 DPGEN
 -----
 Symbolic Z-matrix:
 Charge =  0 Multiplicity = 2

                         Standard orientation:
 ---------------------------------------------------------------------
 Center     Atomic      Atomic             Coordinates (Angstroms)
 Number     Number       Type             X           Y           Z
 ---------------------------------------------------------------------
      1         11           0        0.899832   -2.666063    0.057321
      2         11           0       -0.048934   -0.407577    2.052598
      3         11           0       -2.550078   -1.772125   -0.378593
      4         11           0        3.447881    0.204916   -0.269715
      5         11           0        0.710021    2.684316    0.197331
      6         11           0       -2.545781    1.869758   -0.006717
      7         11           0        0.087060    0.086775   -1.652225
 ---------------------------------------------------------------------

 SCF Done:  E(UB3LYP) =  -1136.13779046     A.U. after   19 cycles

 The electronic state is 2-A.
 Alpha  occ. eigenvalues --  -38.44250 -38.43802 -38.43684 -38.43582 -38.43462
 Alpha  occ. eigenvalues --  -38.43327 -38.43292  -2.20029  -2.19631  -2.19512
 Alpha  occ. eigenvalues --   -2.19480  -2.19337  -2.19253  -2.19191  -1.13704
 Alpha  occ. eigenvalues --   -1.13682  -1.13671  -1.13311  -1.13294  -1.13269
 Alpha  occ. eigenvalues --   -1.13190  -1.13185  -1.13177  -1.13158  -1.13120
 Alpha  occ. eigenvalues --   -1.13090  -1.13032  -1.12994  -1.12972  -1.12938
 Alpha  occ. eigenvalues --   -1.12912  -1.12859  -1.12857  -1.12837  -1.12802
 Alpha  occ. eigenvalues --   -0.18535  -0.12743  -0.12599  -0.10720
 Alpha virt. eigenvalues --   -0.05781  -0.05163  -0.04639  -0.03040  -0.02977
 Alpha virt. eigenvalues --   -0.02536  -0.01753  -0.01145  -0.00385  -0.00276
 Alpha virt. eigenvalues --   -0.00035   0.00327   0.00770   0.00853   0.00890

  Beta  occ. eigenvalues --  -38.44247 -38.43793 -38.43683 -38.43485 -38.43453
  Beta  occ. eigenvalues --  -38.43321 -38.43232  -2.20026  -2.19616  -2.19512
  Beta  occ. eigenvalues --   -2.19326  -2.19301  -2.19182  -2.19144  -1.13689
  Beta  occ. eigenvalues --   -1.13681  -1.13671  -1.13293  -1.13276  -1.13257
  Beta  occ. eigenvalues --   -1.13185  -1.13165  -1.13154  -1.13105  -1.13003
  Beta  occ. eigenvalues --   -1.13000  -1.12970  -1.12936  -1.12928  -1.12921
  Beta  occ. eigenvalues --   -1.12850  -1.12832  -1.12803  -1.12791  -1.12768
  Beta  occ. eigenvalues --   -0.17812  -0.12517  -0.12353
  Beta virt. eigenvalues --   -0.06821  -0.05726  -0.05162  -0.04572  -0.02290
  Beta virt. eigenvalues --   -0.02221  -0.01659  -0.01480  -0.01088  -0.00425
  Beta virt. eigenvalues --   -0.00310   0.00109   0.00356   0.00831   0.00847

 Mulliken charges and spin densities:
               1          2
     1  Na   0.295903  -0.057326
     2  Na  -0.390103   0.680097
     3  Na   0.162126  -0.037076
     4  Na   0.070370  -0.064436
     5  Na   0.082197  -0.030820
     6  Na   0.046586  -0.060638
     7  Na  -0.267080   0.570199
 Sum of Mulliken charges =  -0.00000   1.00000

 Dipole moment (field-independent basis, Debye):
    X=              0.0923    Y=             -0.0844    Z=              0.0663  Tot=              0.1415
 Quadrupole moment (field-independent basis, Debye-Ang):
   XX=            -54.7031   YY=            -63.8192   ZZ=            -74.4532
   XY=              0.0342   XZ=              0.1620   YZ=              1.2073

 Normal termination of Gaussian 16 at Thu Dec  7 02:29:03 2023.
