 Gaussian 16, Revision B.01,
 Gaussian 16:  ES64L-G16RevB.01 20-Dec-2017

 -------------------------
 #P B3LYP/6-311+g(d) force
 -------------------------

 -----
 DPGEN
 -----
 Symbolic Z-matrix:
 Charge =  0 Multiplicity = 2

                         Standard orientation:
 ---------------------------------------------------------------------
 Center     Atomic      Atomic             Coordinates (Angstroms)
 Number     Number       Type             X           Y           Z
 ---------------------------------------------------------------------
      1         11           0        2.961598   -0.720761   -0.682225
      2         11           0       -0.455829   -0.076990   -1.447107
      3         11           0       -2.873122   -1.126702   -0.588481
      4         11           0        1.664168    2.251469   -0.445841
      5         11           0       -2.190669    2.403039    0.630097
      6         11           0        1.007235    0.062694    1.855775
      7         11           0       -0.113383   -2.792749    0.677781
 ---------------------------------------------------------------------

 SCF Done:  E(UB3LYP) =  -1136.12932884     A.U. after   20 cycles

 The electronic state is 2-A.
 Alpha  occ. eigenvalues --  -38.44106 -38.44047 -38.43920 -38.43612 -38.43520
 Alpha  occ. eigenvalues --  -38.43303 -38.43199  -2.19981  -2.19938  -2.19695
 Alpha  occ. eigenvalues --   -2.19508  -2.19464  -2.19337  -2.19062  -1.13800
 Alpha  occ. eigenvalues --   -1.13659  -1.13648  -1.13614  -1.13563  -1.13521
 Alpha  occ. eigenvalues --   -1.13369  -1.13342  -1.13337  -1.13232  -1.13199
 Alpha  occ. eigenvalues --   -1.13138  -1.13115  -1.13083  -1.13069  -1.12993
 Alpha  occ. eigenvalues --   -1.12976  -1.12920  -1.12746  -1.12714  -1.12686
 Alpha  occ. eigenvalues --   -0.18734  -0.13384  -0.12233  -0.10822
 Alpha virt. eigenvalues --   -0.05531  -0.05295  -0.04625  -0.03329  -0.02958
 Alpha virt. eigenvalues --   -0.02347  -0.01553  -0.01089  -0.00408  -0.00063
 Alpha virt. eigenvalues --    0.00058   0.00346   0.00778   0.00841   0.00853

  Beta  occ. eigenvalues --  -38.44086 -38.44035 -38.43908 -38.43600 -38.43446
  Beta  occ. eigenvalues --  -38.43254 -38.43184  -2.19948  -2.19918  -2.19674
  Beta  occ. eigenvalues --   -2.19490  -2.19327  -2.19249  -2.19037  -1.13772
  Beta  occ. eigenvalues --   -1.13642  -1.13611  -1.13578  -1.13541  -1.13512
  Beta  occ. eigenvalues --   -1.13350  -1.13329  -1.13320  -1.13212  -1.13166
  Beta  occ. eigenvalues --   -1.13088  -1.13050  -1.12997  -1.12970  -1.12926
  Beta  occ. eigenvalues --   -1.12913  -1.12863  -1.12722  -1.12691  -1.12660
  Beta  occ. eigenvalues --   -0.18058  -0.13117  -0.11958
  Beta virt. eigenvalues --   -0.07009  -0.05439  -0.05153  -0.04505  -0.02718
  Beta virt. eigenvalues --   -0.02284  -0.01500  -0.01313  -0.00994  -0.00323
  Beta virt. eigenvalues --   -0.00087   0.00158   0.00399   0.00852   0.00869

 Mulliken charges and spin densities:
               1          2
     1  Na   0.237079   0.041999
     2  Na   0.115554   0.192500
     3  Na   0.395188   0.029441
     4  Na   0.170199   0.069023
     5  Na  -0.448627   0.028024
     6  Na  -0.021971   0.702155
     7  Na  -0.447421  -0.063142
 Sum of Mulliken charges =  -0.00000   1.00000

 Dipole moment (field-independent basis, Debye):
    X=              0.1440    Y=              0.0478    Z=              0.1457  Tot=              0.2104
 Quadrupole moment (field-independent basis, Debye-Ang):
   XX=            -56.4572   YY=            -63.8584   ZZ=            -73.1065
   XY=             -0.4893   XZ=             -2.6596   YZ=              0.6017

 Normal termination of Gaussian 16 at Tue Dec  5 11:03:20 2023.
