 Gaussian 16, Revision B.01,
 Gaussian 16:  ES64L-G16RevB.01 20-Dec-2017

 -------------------------
 #P B3LYP/6-311+g(d) force
 -------------------------

 -----
 DPGEN
 -----
 Symbolic Z-matrix:
 Charge =  0 Multiplicity = 2

                         Standard orientation:
 ---------------------------------------------------------------------
 Center     Atomic      Atomic             Coordinates (Angstroms)
 Number     Number       Type             X           Y           Z
 ---------------------------------------------------------------------
      1         11           0       -0.233515    2.932780   -0.466204
      2         11           0        2.630453   -2.129740   -0.072712
      3         11           0        3.125516    1.180120    0.069024
      4         11           0       -3.510819    0.682480    0.226264
      5         11           0        0.154570    0.134088    1.705131
      6         11           0       -2.024695   -2.430825   -0.101241
      7         11           0       -0.141511   -0.368902   -1.360261
 ---------------------------------------------------------------------

 SCF Done:  E(UB3LYP) =  -1136.12709442     A.U. after   24 cycles

 The electronic state is 2-A.
 Alpha  occ. eigenvalues --  -38.45192 -38.44661 -38.44122 -38.43850 -38.43598
 Alpha  occ. eigenvalues --  -38.42870 -38.42756  -2.20966  -2.20477  -2.19929
 Alpha  occ. eigenvalues --   -2.19695  -2.19507  -2.18760  -2.18696  -1.14640
 Alpha  occ. eigenvalues --   -1.14618  -1.14603  -1.14153  -1.14140  -1.14114
 Alpha  occ. eigenvalues --   -1.13602  -1.13582  -1.13578  -1.13418  -1.13346
 Alpha  occ. eigenvalues --   -1.13317  -1.13252  -1.13128  -1.13102  -1.12479
 Alpha  occ. eigenvalues --   -1.12417  -1.12371  -1.12357  -1.12335  -1.12327
 Alpha  occ. eigenvalues --   -0.18319  -0.13576  -0.11928  -0.09756
 Alpha virt. eigenvalues --   -0.06658  -0.05708  -0.04403  -0.03139  -0.02436
 Alpha virt. eigenvalues --   -0.02297  -0.01699  -0.01515  -0.00795  -0.00528
 Alpha virt. eigenvalues --   -0.00027   0.00252   0.00631   0.00739   0.00817

  Beta  occ. eigenvalues --  -38.45183 -38.44657 -38.44121 -38.43843 -38.43533
  Beta  occ. eigenvalues --  -38.42856 -38.42690  -2.20951  -2.20472  -2.19931
  Beta  occ. eigenvalues --   -2.19687  -2.19389  -2.18672  -2.18642  -1.14616
  Beta  occ. eigenvalues --   -1.14608  -1.14595  -1.14141  -1.14134  -1.14105
  Beta  occ. eigenvalues --   -1.13600  -1.13584  -1.13565  -1.13405  -1.13331
  Beta  occ. eigenvalues --   -1.13304  -1.13164  -1.13047  -1.13013  -1.12393
  Beta  occ. eigenvalues --   -1.12367  -1.12326  -1.12315  -1.12297  -1.12261
  Beta  occ. eigenvalues --   -0.17666  -0.13350  -0.11658
  Beta virt. eigenvalues --   -0.06570  -0.05995  -0.05712  -0.04356  -0.02442
  Beta virt. eigenvalues --   -0.02256  -0.01653  -0.01491  -0.00851  -0.00781
  Beta virt. eigenvalues --   -0.00512   0.00148   0.00308   0.00687   0.00746

 Mulliken charges and spin densities:
               1          2
     1  Na  -0.160687   0.009146
     2  Na   0.083381  -0.074240
     3  Na   0.233009   0.046203
     4  Na   0.072478   0.092370
     5  Na  -0.295697   0.621644
     6  Na   0.190865  -0.044392
     7  Na  -0.123350   0.349269
 Sum of Mulliken charges =  -0.00000   1.00000

 Dipole moment (field-independent basis, Debye):
    X=             -0.1228    Y=             -0.0531    Z=              0.0946  Tot=              0.1639
 Quadrupole moment (field-independent basis, Debye-Ang):
   XX=            -46.9874   YY=            -63.3762   ZZ=            -79.1569
   XY=             -0.5504   XZ=             -0.7146   YZ=             -0.9586

 Normal termination of Gaussian 16 at Thu Dec  7 08:32:10 2023.
