 Gaussian 16, Revision B.01,
 Gaussian 16:  ES64L-G16RevB.01 20-Dec-2017

 -------------------------
 #P B3LYP/6-311+g(d) force
 -------------------------

 -----
 DPGEN
 -----
 Symbolic Z-matrix:
 Charge =  0 Multiplicity = 2

                         Standard orientation:
 ---------------------------------------------------------------------
 Center     Atomic      Atomic             Coordinates (Angstroms)
 Number     Number       Type             X           Y           Z
 ---------------------------------------------------------------------
      1         11           0        2.083582   -2.096953   -0.105306
      2         11           0       -0.244303   -0.076030   -1.756850
      3         11           0        2.693800    1.242086   -0.366370
      4         11           0        0.366699   -0.014072    1.898929
      5         11           0       -3.287561    0.500863   -0.131719
      6         11           0       -0.235591    2.863900    0.247866
      7         11           0       -1.376627   -2.419794    0.213449
 ---------------------------------------------------------------------

 SCF Done:  E(UB3LYP) =  -1136.14039841     A.U. after   19 cycles

 The electronic state is 2-A.
 Alpha  occ. eigenvalues --  -38.44116 -38.43668 -38.43373 -38.43366 -38.43337
 Alpha  occ. eigenvalues --  -38.43314 -38.43301  -2.19916  -2.19543  -2.19285
 Alpha  occ. eigenvalues --   -2.19260  -2.19257  -2.19246  -2.19165  -1.13592
 Alpha  occ. eigenvalues --   -1.13572  -1.13560  -1.13222  -1.13210  -1.13188
 Alpha  occ. eigenvalues --   -1.13022  -1.12972  -1.12955  -1.12947  -1.12926
 Alpha  occ. eigenvalues --   -1.12921  -1.12899  -1.12890  -1.12880  -1.12871
 Alpha  occ. eigenvalues --   -1.12859  -1.12850  -1.12828  -1.12823  -1.12788
 Alpha  occ. eigenvalues --   -0.18872  -0.13014  -0.12533  -0.10807
 Alpha virt. eigenvalues --   -0.05640  -0.04988  -0.04674  -0.03178  -0.02941
 Alpha virt. eigenvalues --   -0.02520  -0.01545  -0.01052  -0.00312  -0.00177
 Alpha virt. eigenvalues --   -0.00008   0.00359   0.00818   0.00904   0.00912

  Beta  occ. eigenvalues --  -38.44116 -38.43657 -38.43365 -38.43360 -38.43307
  Beta  occ. eigenvalues --  -38.43250 -38.43231  -2.19919  -2.19527  -2.19246
  Beta  occ. eigenvalues --   -2.19239  -2.19156  -2.19132  -2.19125  -1.13580
  Beta  occ. eigenvalues --   -1.13576  -1.13562  -1.13214  -1.13188  -1.13165
  Beta  occ. eigenvalues --   -1.12988  -1.12928  -1.12912  -1.12897  -1.12884
  Beta  occ. eigenvalues --   -1.12876  -1.12847  -1.12840  -1.12824  -1.12813
  Beta  occ. eigenvalues --   -1.12794  -1.12787  -1.12781  -1.12768  -1.12759
  Beta  occ. eigenvalues --   -0.18127  -0.12779  -0.12275
  Beta virt. eigenvalues --   -0.06883  -0.05596  -0.04996  -0.04631  -0.02409
  Beta virt. eigenvalues --   -0.02145  -0.01523  -0.01403  -0.00987  -0.00338
  Beta virt. eigenvalues --   -0.00233   0.00123   0.00381   0.00859   0.00900

 Mulliken charges and spin densities:
               1          2
     1  Na   0.235600  -0.042963
     2  Na  -0.315039   0.640227
     3  Na   0.178097  -0.000341
     4  Na  -0.304742   0.689185
     5  Na   0.007347  -0.108938
     6  Na   0.037999  -0.092960
     7  Na   0.160738  -0.084211
 Sum of Mulliken charges =  -0.00000   1.00000

 Dipole moment (field-independent basis, Debye):
    X=             -0.1915    Y=              0.0663    Z=              0.0054  Tot=              0.2028
 Quadrupole moment (field-independent basis, Debye-Ang):
   XX=            -56.1690   YY=            -63.2160   ZZ=            -73.9000
   XY=             -0.6939   XZ=             -1.3272   YZ=             -0.2023

 Normal termination of Gaussian 16 at Thu Dec  7 22:56:05 2023.
