 Gaussian 16, Revision B.01,
 Gaussian 16:  ES64L-G16RevB.01 20-Dec-2017

 -------------------------
 #P B3LYP/6-311+g(d) force
 -------------------------

 -----
 DPGEN
 -----
 Symbolic Z-matrix:
 Charge =  0 Multiplicity = 2

                         Standard orientation:
 ---------------------------------------------------------------------
 Center     Atomic      Atomic             Coordinates (Angstroms)
 Number     Number       Type             X           Y           Z
 ---------------------------------------------------------------------
      1         11           0       -2.072748    1.803720    0.589615
      2         11           0        2.048650   -2.351771    0.117867
      3         11           0        0.669042    0.313571    2.169953
      4         11           0        3.024266    0.206890   -1.326005
      5         11           0        1.279972    2.878434   -0.535222
      6         11           0       -0.943507   -2.410952    0.050137
      7         11           0       -4.005674   -0.439892   -1.066345
 ---------------------------------------------------------------------

 SCF Done:  E(UB3LYP) =  -1136.12426485     A.U. after   19 cycles

 The electronic state is 2-A.
 Alpha  occ. eigenvalues --  -38.44604 -38.44305 -38.44167 -38.44057 -38.44018
 Alpha  occ. eigenvalues --  -38.43918 -38.43660  -2.20449  -2.20124  -2.20027
 Alpha  occ. eigenvalues --   -2.19854  -2.19827  -2.19720  -2.19561  -1.14122
 Alpha  occ. eigenvalues --   -1.14088  -1.14053  -1.13843  -1.13794  -1.13769
 Alpha  occ. eigenvalues --   -1.13713  -1.13675  -1.13661  -1.13533  -1.13515
 Alpha  occ. eigenvalues --   -1.13509  -1.13502  -1.13484  -1.13429  -1.13398
 Alpha  occ. eigenvalues --   -1.13381  -1.13353  -1.13223  -1.13212  -1.13190
 Alpha  occ. eigenvalues --   -0.17598  -0.13566  -0.12647  -0.11081
 Alpha virt. eigenvalues --   -0.06218  -0.05662  -0.04469  -0.03754  -0.03320
 Alpha virt. eigenvalues --   -0.02272  -0.01600  -0.01067  -0.00757  -0.00616
 Alpha virt. eigenvalues --   -0.00428   0.00362   0.00431   0.00496   0.00714

  Beta  occ. eigenvalues --  -38.44516 -38.44306 -38.44109 -38.44014 -38.44008
  Beta  occ. eigenvalues --  -38.43915 -38.43655  -2.20289  -2.20129  -2.19918
  Beta  occ. eigenvalues --   -2.19823  -2.19762  -2.19717  -2.19556  -1.14013
  Beta  occ. eigenvalues --   -1.13982  -1.13935  -1.13847  -1.13782  -1.13770
  Beta  occ. eigenvalues --   -1.13639  -1.13604  -1.13591  -1.13513  -1.13505
  Beta  occ. eigenvalues --   -1.13474  -1.13444  -1.13425  -1.13398  -1.13392
  Beta  occ. eigenvalues --   -1.13380  -1.13332  -1.13224  -1.13203  -1.13164
  Beta  occ. eigenvalues --   -0.16981  -0.13008  -0.12405
  Beta virt. eigenvalues --   -0.07616  -0.06020  -0.05364  -0.04136  -0.03372
  Beta virt. eigenvalues --   -0.02664  -0.01678  -0.01449  -0.00933  -0.00716
  Beta virt. eigenvalues --   -0.00561  -0.00076   0.00464   0.00534   0.00687

 Mulliken charges and spin densities:
               1          2
     1  Na  -0.291946  -0.024663
     2  Na   0.366628   0.201410
     3  Na  -0.079272   0.353485
     4  Na  -0.170514   0.182150
     5  Na   0.108783   0.085731
     6  Na  -0.377354  -0.058423
     7  Na   0.443675   0.260309
 Sum of Mulliken charges =  -0.00000   1.00000

 Dipole moment (field-independent basis, Debye):
    X=              0.0280    Y=              0.0740    Z=              0.1375  Tot=              0.1587
 Quadrupole moment (field-independent basis, Debye-Ang):
   XX=            -64.1336   YY=            -66.3691   ZZ=            -69.2992
   XY=             -1.3489   XZ=              2.2140   YZ=              0.0798

 Normal termination of Gaussian 16 at Sun Dec  3 16:09:34 2023.
