 Gaussian 16, Revision B.01,
 Gaussian 16:  ES64L-G16RevB.01 20-Dec-2017

 -------------------------
 #P B3LYP/6-311+g(d) force
 -------------------------

 -----
 DPGEN
 -----
 Symbolic Z-matrix:
 Charge =  0 Multiplicity = 2

                         Standard orientation:
 ---------------------------------------------------------------------
 Center     Atomic      Atomic             Coordinates (Angstroms)
 Number     Number       Type             X           Y           Z
 ---------------------------------------------------------------------
      1         11           0        2.301412   -2.727323   -0.017578
      2         11           0        0.613528    2.893781    0.000812
      3         11           0        2.738498    0.711960    2.013215
      4         11           0       -4.301590   -1.064127    1.097622
      5         11           0       -2.780428    1.479667   -0.782488
      6         11           0        2.429613    0.231139   -1.527797
      7         11           0       -1.001032   -1.525096   -0.783785
 ---------------------------------------------------------------------

 SCF Done:  E(UB3LYP) =  -1136.12343307     A.U. after   21 cycles

 The electronic state is 2-A.
 Alpha  occ. eigenvalues --  -38.45002 -38.44434 -38.44421 -38.44219 -38.44128
 Alpha  occ. eigenvalues --  -38.43640 -38.42987  -2.20829  -2.20226  -2.20219
 Alpha  occ. eigenvalues --   -2.20016  -2.19943  -2.19448  -2.18785  -1.14510
 Alpha  occ. eigenvalues --   -1.14503  -1.14453  -1.13915  -1.13901  -1.13885
 Alpha  occ. eigenvalues --   -1.13881  -1.13854  -1.13807  -1.13725  -1.13708
 Alpha  occ. eigenvalues --   -1.13604  -1.13604  -1.13571  -1.13555  -1.13128
 Alpha  occ. eigenvalues --   -1.13105  -1.13092  -1.12471  -1.12456  -1.12420
 Alpha  occ. eigenvalues --   -0.17006  -0.14026  -0.11858  -0.10395
 Alpha virt. eigenvalues --   -0.06444  -0.05782  -0.04919  -0.03504  -0.02662
 Alpha virt. eigenvalues --   -0.02397  -0.02055  -0.01190  -0.01085  -0.00568
 Alpha virt. eigenvalues --   -0.00416   0.00177   0.00228   0.00309   0.00477

  Beta  occ. eigenvalues --  -38.44995 -38.44413 -38.44376 -38.44205 -38.44040
  Beta  occ. eigenvalues --  -38.43644 -38.42983  -2.20819  -2.20207  -2.20116
  Beta  occ. eigenvalues --   -2.19993  -2.19777  -2.19459  -2.18780  -1.14500
  Beta  occ. eigenvalues --   -1.14482  -1.14446  -1.13904  -1.13894  -1.13824
  Beta  occ. eigenvalues --   -1.13805  -1.13796  -1.13751  -1.13709  -1.13684
  Beta  occ. eigenvalues --   -1.13582  -1.13491  -1.13461  -1.13444  -1.13138
  Beta  occ. eigenvalues --   -1.13114  -1.13082  -1.12469  -1.12456  -1.12396
  Beta  occ. eigenvalues --   -0.16490  -0.13570  -0.11623
  Beta virt. eigenvalues --   -0.07016  -0.05979  -0.05682  -0.04504  -0.03319
  Beta virt. eigenvalues --   -0.02191  -0.01994  -0.01637  -0.01135  -0.00924
  Beta virt. eigenvalues --   -0.00314  -0.00117   0.00331   0.00364   0.00462

 Mulliken charges and spin densities:
               1          2
     1  Na   0.211285  -0.026761
     2  Na  -0.107473  -0.044765
     3  Na  -0.107765   0.477221
     4  Na   0.388604   0.339142
     5  Na   0.229041   0.046904
     6  Na   0.148823   0.284818
     7  Na  -0.762514  -0.076559
 Sum of Mulliken charges =  -0.00000   1.00000

 Dipole moment (field-independent basis, Debye):
    X=             -0.3074    Y=             -0.4108    Z=             -0.0878  Tot=              0.5206
 Quadrupole moment (field-independent basis, Debye-Ang):
   XX=            -60.9089   YY=            -70.0531   ZZ=            -67.6963
   XY=             -3.2230   XZ=             -3.9671   YZ=             -3.8950

 Normal termination of Gaussian 16 at Mon Dec  4 04:44:47 2023.
