 Gaussian 16, Revision B.01,
 Gaussian 16:  ES64L-G16RevB.01 20-Dec-2017

 -------------------------
 #P B3LYP/6-311+g(d) force
 -------------------------

 -----
 DPGEN
 -----
 Symbolic Z-matrix:
 Charge =  0 Multiplicity = 2

                         Standard orientation:
 ---------------------------------------------------------------------
 Center     Atomic      Atomic             Coordinates (Angstroms)
 Number     Number       Type             X           Y           Z
 ---------------------------------------------------------------------
      1         11           0        2.440147   -1.585767    0.279672
      2         11           0       -2.928455    0.390845   -0.261272
      3         11           0       -0.724719   -2.573185   -0.604163
      4         11           0       -0.800529   -0.802236    1.829118
      5         11           0       -0.678670    2.560416    0.338469
      6         11           0        0.222595    0.320009   -1.653325
      7         11           0        2.469631    1.689917    0.071500
 ---------------------------------------------------------------------

 SCF Done:  E(UB3LYP) =  -1136.13433623     A.U. after   19 cycles

 The electronic state is 2-A.
 Alpha  occ. eigenvalues --  -38.43800 -38.43725 -38.43536 -38.43459 -38.43426
 Alpha  occ. eigenvalues --  -38.43318 -38.43071  -2.19704  -2.19590  -2.19427
 Alpha  occ. eigenvalues --   -2.19416  -2.19356  -2.19244  -2.19114  -1.13408
 Alpha  occ. eigenvalues --   -1.13372  -1.13347  -1.13280  -1.13259  -1.13244
 Alpha  occ. eigenvalues --   -1.13194  -1.13143  -1.13086  -1.13068  -1.13058
 Alpha  occ. eigenvalues --   -1.13038  -1.13024  -1.12968  -1.12953  -1.12944
 Alpha  occ. eigenvalues --   -1.12892  -1.12861  -1.12769  -1.12732  -1.12716
 Alpha  occ. eigenvalues --   -0.19293  -0.13210  -0.12883  -0.10859
 Alpha virt. eigenvalues --   -0.05430  -0.05051  -0.04653  -0.03258  -0.03151
 Alpha virt. eigenvalues --   -0.02364  -0.01306  -0.00920  -0.00154  -0.00042
 Alpha virt. eigenvalues --    0.00037   0.00376   0.00883   0.00926   0.00980

  Beta  occ. eigenvalues --  -38.43792 -38.43719 -38.43534 -38.43407 -38.43390
  Beta  occ. eigenvalues --  -38.43309 -38.42999  -2.19694  -2.19582  -2.19424
  Beta  occ. eigenvalues --   -2.19330  -2.19285  -2.19231  -2.18983  -1.13401
  Beta  occ. eigenvalues --   -1.13355  -1.13319  -1.13277  -1.13245  -1.13223
  Beta  occ. eigenvalues --   -1.13144  -1.13135  -1.13076  -1.13051  -1.13006
  Beta  occ. eigenvalues --   -1.12971  -1.12947  -1.12946  -1.12921  -1.12880
  Beta  occ. eigenvalues --   -1.12867  -1.12848  -1.12688  -1.12636  -1.12627
  Beta  occ. eigenvalues --   -0.18559  -0.12975  -0.12638
  Beta virt. eigenvalues --   -0.06906  -0.05397  -0.05014  -0.04584  -0.02521
  Beta virt. eigenvalues --   -0.02347  -0.01324  -0.01237  -0.00860  -0.00151
  Beta virt. eigenvalues --   -0.00061   0.00165   0.00418   0.00902   0.00932

 Mulliken charges and spin densities:
               1          2
     1  Na   0.004505   0.001858
     2  Na   0.436984   0.030016
     3  Na   0.346526  -0.000449
     4  Na  -0.577826   0.536237
     5  Na   0.015043   0.026503
     6  Na  -0.340786   0.390590
     7  Na   0.115553   0.015245
 Sum of Mulliken charges =  -0.00000   1.00000

 Dipole moment (field-independent basis, Debye):
    X=             -0.0150    Y=             -0.0923    Z=              0.1520  Tot=              0.1784
 Quadrupole moment (field-independent basis, Debye-Ang):
   XX=            -58.0995   YY=            -63.5545   ZZ=            -72.9244
   XY=             -0.2961   XZ=              1.8980   YZ=              1.6500

 Normal termination of Gaussian 16 at Tue Dec  5 13:05:19 2023.
