 Gaussian 16, Revision B.01,
 Gaussian 16:  ES64L-G16RevB.01 20-Dec-2017

 -------------------------
 #P B3LYP/6-311+g(d) force
 -------------------------

 -----
 DPGEN
 -----
 Symbolic Z-matrix:
 Charge =  0 Multiplicity = 2

                         Standard orientation:
 ---------------------------------------------------------------------
 Center     Atomic      Atomic             Coordinates (Angstroms)
 Number     Number       Type             X           Y           Z
 ---------------------------------------------------------------------
      1         11           0        2.173684    2.174936   -0.454628
      2         11           0       -2.518553   -1.924737   -0.556615
      3         11           0        4.015838   -0.726854    0.754750
      4         11           0       -1.156780    1.126325   -1.040738
      5         11           0       -0.205317   -0.402124    1.655924
      6         11           0        1.290728   -1.293772   -1.145049
      7         11           0       -3.599601    1.046226    0.786356
 ---------------------------------------------------------------------

 SCF Done:  E(UB3LYP) =  -1136.11691258     A.U. after   35 cycles

 The electronic state is 2-A.
 Alpha  occ. eigenvalues --  -38.45760 -38.44546 -38.44119 -38.44021 -38.43487
 Alpha  occ. eigenvalues --  -38.43354 -38.42925  -2.21603  -2.20368  -2.19990
 Alpha  occ. eigenvalues --   -2.19881  -2.19299  -2.19268  -2.18924  -1.15340
 Alpha  occ. eigenvalues --   -1.15244  -1.15225  -1.14032  -1.13999  -1.13984
 Alpha  occ. eigenvalues --   -1.13687  -1.13640  -1.13621  -1.13562  -1.13527
 Alpha  occ. eigenvalues --   -1.13497  -1.12989  -1.12980  -1.12961  -1.12941
 Alpha  occ. eigenvalues --   -1.12932  -1.12863  -1.12629  -1.12582  -1.12539
 Alpha  occ. eigenvalues --   -0.18665  -0.14570  -0.10864  -0.10801
 Alpha virt. eigenvalues --   -0.07250  -0.05563  -0.04539  -0.03084  -0.02908
 Alpha virt. eigenvalues --   -0.02144  -0.01898  -0.01399  -0.01112  -0.00382
 Alpha virt. eigenvalues --   -0.00047   0.00159   0.00286   0.00536   0.00636

  Beta  occ. eigenvalues --  -38.45772 -38.44474 -38.44091 -38.43995 -38.43483
  Beta  occ. eigenvalues --  -38.43318 -38.42890  -2.21626  -2.20231  -2.19938
  Beta  occ. eigenvalues --   -2.19834  -2.19297  -2.19207  -2.18868  -1.15341
  Beta  occ. eigenvalues --   -1.15260  -1.15241  -1.13935  -1.13910  -1.13895
  Beta  occ. eigenvalues --   -1.13663  -1.13595  -1.13584  -1.13528  -1.13503
  Beta  occ. eigenvalues --   -1.13446  -1.12979  -1.12965  -1.12939  -1.12923
  Beta  occ. eigenvalues --   -1.12858  -1.12821  -1.12599  -1.12507  -1.12487
  Beta  occ. eigenvalues --   -0.18047  -0.14098  -0.10611
  Beta virt. eigenvalues --   -0.07166  -0.06982  -0.05490  -0.03875  -0.02899
  Beta virt. eigenvalues --   -0.02697  -0.01644  -0.01391  -0.01229  -0.00676
  Beta virt. eigenvalues --   -0.00302   0.00037   0.00225   0.00439   0.00631

 Mulliken charges and spin densities:
               1          2
     1  Na  -0.230273  -0.087260
     2  Na   0.252858   0.155003
     3  Na   0.362021   0.495079
     4  Na  -0.348279   0.133552
     5  Na  -0.431344   0.042307
     6  Na  -0.135095   0.085761
     7  Na   0.530112   0.175557
 Sum of Mulliken charges =  -0.00000   1.00000

 Dipole moment (field-independent basis, Debye):
    X=             -0.2203    Y=             -0.3634    Z=              0.4420  Tot=              0.6131
 Quadrupole moment (field-independent basis, Debye-Ang):
   XX=            -54.0323   YY=            -76.5800   ZZ=            -66.8564
   XY=              2.9453   XZ=              0.4788   YZ=              1.8419

 Normal termination of Gaussian 16 at Thu Dec  7 06:10:25 2023.
