 Gaussian 16, Revision B.01,
 Gaussian 16:  ES64L-G16RevB.01 20-Dec-2017

 -------------------------
 #P B3LYP/6-311+g(d) force
 -------------------------

 -----
 DPGEN
 -----
 Symbolic Z-matrix:
 Charge =  0 Multiplicity = 2

                         Standard orientation:
 ---------------------------------------------------------------------
 Center     Atomic      Atomic             Coordinates (Angstroms)
 Number     Number       Type             X           Y           Z
 ---------------------------------------------------------------------
      1         11           0        1.460910   -2.519707   -0.755164
      2         11           0        0.436684    3.088664   -0.206554
      3         11           0       -2.349766   -2.262496    0.401069
      4         11           0        0.353442    0.219787    2.149390
      5         11           0       -0.249888    0.405907   -1.387913
      6         11           0        3.417229    0.048801    0.063689
      7         11           0       -3.068611    1.019045   -0.264516
 ---------------------------------------------------------------------

 SCF Done:  E(UB3LYP) =  -1136.12973169     A.U. after   19 cycles

 The electronic state is 2-A.
 Alpha  occ. eigenvalues --  -38.44655 -38.44481 -38.43804 -38.43773 -38.43552
 Alpha  occ. eigenvalues --  -38.43480 -38.43125  -2.20446  -2.20312  -2.19650
 Alpha  occ. eigenvalues --   -2.19565  -2.19387  -2.19307  -2.19125  -1.14119
 Alpha  occ. eigenvalues --   -1.14108  -1.14086  -1.14030  -1.13966  -1.13926
 Alpha  occ. eigenvalues --   -1.13316  -1.13276  -1.13263  -1.13232  -1.13221
 Alpha  occ. eigenvalues --   -1.13216  -1.13151  -1.13037  -1.13004  -1.12996
 Alpha  occ. eigenvalues --   -1.12958  -1.12937  -1.12799  -1.12760  -1.12738
 Alpha  occ. eigenvalues --   -0.18122  -0.13121  -0.12174  -0.10554
 Alpha virt. eigenvalues --   -0.06141  -0.05250  -0.04655  -0.03212  -0.02813
 Alpha virt. eigenvalues --   -0.02457  -0.01882  -0.01236  -0.00589  -0.00438
 Alpha virt. eigenvalues --   -0.00033   0.00316   0.00746   0.00765   0.00786

  Beta  occ. eigenvalues --  -38.44654 -38.44475 -38.43768 -38.43704 -38.43549
  Beta  occ. eigenvalues --  -38.43460 -38.43078  -2.20448  -2.20305  -2.19557
  Beta  occ. eigenvalues --   -2.19464  -2.19384  -2.19272  -2.19041  -1.14117
  Beta  occ. eigenvalues --   -1.14100  -1.14085  -1.14019  -1.13952  -1.13922
  Beta  occ. eigenvalues --   -1.13218  -1.13215  -1.13210  -1.13191  -1.13151
  Beta  occ. eigenvalues --   -1.13139  -1.13126  -1.13024  -1.12996  -1.12967
  Beta  occ. eigenvalues --   -1.12931  -1.12912  -1.12732  -1.12701  -1.12681
  Beta  occ. eigenvalues --   -0.17450  -0.12903  -0.11934
  Beta virt. eigenvalues --   -0.06717  -0.06094  -0.05150  -0.04563  -0.02508
  Beta virt. eigenvalues --   -0.02134  -0.01813  -0.01428  -0.01151  -0.00624
  Beta virt. eigenvalues --   -0.00415   0.00126   0.00364   0.00761   0.00818

 Mulliken charges and spin densities:
               1          2
     1  Na   0.037143   0.100202
     2  Na  -0.018291  -0.045575
     3  Na  -0.045252   0.076120
     4  Na  -0.435348   0.778602
     5  Na   0.128467   0.090063
     6  Na   0.140338  -0.004115
     7  Na   0.192941   0.004703
 Sum of Mulliken charges =  -0.00000   1.00000

 Dipole moment (field-independent basis, Debye):
    X=              0.0936    Y=              0.2623    Z=              0.2323  Tot=              0.3627
 Quadrupole moment (field-independent basis, Debye-Ang):
   XX=            -54.0167   YY=            -63.1080   ZZ=            -75.7548
   XY=              0.9658   XZ=             -0.6306   YZ=              0.2065

 Normal termination of Gaussian 16 at Thu Dec  7 20:16:58 2023.
