 Gaussian 16, Revision B.01,
 Gaussian 16:  ES64L-G16RevB.01 20-Dec-2017

 -------------------------
 #P B3LYP/6-311+g(d) force
 -------------------------

 -----
 DPGEN
 -----
 Symbolic Z-matrix:
 Charge =  0 Multiplicity = 2

                         Standard orientation:
 ---------------------------------------------------------------------
 Center     Atomic      Atomic             Coordinates (Angstroms)
 Number     Number       Type             X           Y           Z
 ---------------------------------------------------------------------
      1         11           0       -1.980587   -2.278741   -0.031970
      2         11           0        2.058968   -1.962405    0.103780
      3         11           0        3.074332    0.807137   -0.265048
      4         11           0        0.045813   -0.093544    1.741392
      5         11           0       -0.117914    2.675147    0.244319
      6         11           0        0.018945    0.002463   -1.625457
      7         11           0       -3.099556    0.849943   -0.167015
 ---------------------------------------------------------------------

 SCF Done:  E(UB3LYP) =  -1136.13304212     A.U. after   20 cycles

 The electronic state is 2-A.
 Alpha  occ. eigenvalues --  -38.44447 -38.44357 -38.43587 -38.43407 -38.43219
 Alpha  occ. eigenvalues --  -38.43038 -38.42730  -2.20289  -2.20241  -2.19514
 Alpha  occ. eigenvalues --   -2.19261  -2.19225  -2.19044  -2.18630  -1.13968
 Alpha  occ. eigenvalues --   -1.13961  -1.13950  -1.13929  -1.13894  -1.13865
 Alpha  occ. eigenvalues --   -1.13213  -1.13171  -1.13143  -1.12960  -1.12934
 Alpha  occ. eigenvalues --   -1.12926  -1.12898  -1.12857  -1.12827  -1.12730
 Alpha  occ. eigenvalues --   -1.12686  -1.12644  -1.12319  -1.12293  -1.12240
 Alpha  occ. eigenvalues --   -0.19197  -0.13735  -0.12122  -0.10587
 Alpha virt. eigenvalues --   -0.06141  -0.05205  -0.04114  -0.03381  -0.02535
 Alpha virt. eigenvalues --   -0.02195  -0.01980  -0.01082  -0.00241  -0.00168
 Alpha virt. eigenvalues --    0.00023   0.00338   0.00746   0.00893   0.00916

  Beta  occ. eigenvalues --  -38.44443 -38.44349 -38.43577 -38.43404 -38.43154
  Beta  occ. eigenvalues --  -38.42949 -38.42719  -2.20284  -2.20229  -2.19501
  Beta  occ. eigenvalues --   -2.19258  -2.19108  -2.18883  -2.18616  -1.13964
  Beta  occ. eigenvalues --   -1.13950  -1.13942  -1.13923  -1.13870  -1.13847
  Beta  occ. eigenvalues --   -1.13204  -1.13142  -1.13122  -1.12945  -1.12916
  Beta  occ. eigenvalues --   -1.12890  -1.12853  -1.12778  -1.12741  -1.12624
  Beta  occ. eigenvalues --   -1.12569  -1.12532  -1.12307  -1.12249  -1.12235
  Beta  occ. eigenvalues --   -0.18472  -0.13462  -0.11848
  Beta virt. eigenvalues --   -0.06685  -0.06074  -0.05205  -0.04125  -0.02568
  Beta virt. eigenvalues --   -0.01863  -0.01769  -0.01180  -0.01019  -0.00295
  Beta virt. eigenvalues --   -0.00185   0.00150   0.00368   0.00797   0.00886

 Mulliken charges and spin densities:
               1          2
     1  Na   0.109146  -0.100203
     2  Na   0.337100  -0.042738
     3  Na   0.207754   0.038986
     4  Na  -0.381784   0.663310
     5  Na   0.135782  -0.070113
     6  Na  -0.473431   0.557630
     7  Na   0.065434  -0.046871
 Sum of Mulliken charges =  -0.00000   1.00000

 Dipole moment (field-independent basis, Debye):
    X=             -0.1334    Y=              0.0543    Z=             -0.0413  Tot=              0.1498
 Quadrupole moment (field-independent basis, Debye-Ang):
   XX=            -51.1501   YY=            -65.7015   ZZ=            -75.4468
   XY=              0.2227   XZ=             -0.1076   YZ=             -0.0976

 Normal termination of Gaussian 16 at Tue Nov 28 22:47:12 2023.
