 Gaussian 16, Revision B.01,
 Gaussian 16:  ES64L-G16RevB.01 20-Dec-2017

 -------------------------
 #P B3LYP/6-311+g(d) force
 -------------------------

 -----
 DPGEN
 -----
 Symbolic Z-matrix:
 Charge =  0 Multiplicity = 2

                         Standard orientation:
 ---------------------------------------------------------------------
 Center     Atomic      Atomic             Coordinates (Angstroms)
 Number     Number       Type             X           Y           Z
 ---------------------------------------------------------------------
      1         11           0       -0.007321   -0.129841   -1.655643
      2         11           0       -3.030953    1.711121    0.332799
      3         11           0       -3.265040   -1.455103   -1.506344
      4         11           0       -1.342138   -1.170642    2.089325
      5         11           0        0.906296    2.491939    0.788075
      6         11           0        2.670196   -1.783377    1.169314
      7         11           0        4.068959    0.335903   -1.217525
 ---------------------------------------------------------------------

 SCF Done:  E(UB3LYP) =  -1136.11241000     A.U. after   27 cycles

 The electronic state is 2-A.
 Alpha  occ. eigenvalues --  -38.45190 -38.45142 -38.45067 -38.44792 -38.44632
 Alpha  occ. eigenvalues --  -38.43533 -38.42996  -2.20948  -2.20933  -2.20845
 Alpha  occ. eigenvalues --   -2.20570  -2.20393  -2.19337  -2.18742  -1.14635
 Alpha  occ. eigenvalues --   -1.14625  -1.14594  -1.14587  -1.14581  -1.14545
 Alpha  occ. eigenvalues --   -1.14509  -1.14482  -1.14462  -1.14257  -1.14216
 Alpha  occ. eigenvalues --   -1.14183  -1.14072  -1.14057  -1.14021  -1.13003
 Alpha  occ. eigenvalues --   -1.12999  -1.12969  -1.12435  -1.12432  -1.12372
 Alpha  occ. eigenvalues --   -0.17094  -0.13678  -0.11419  -0.10613
 Alpha virt. eigenvalues --   -0.06970  -0.05854  -0.05085  -0.03235  -0.02742
 Alpha virt. eigenvalues --   -0.02716  -0.02313  -0.01492  -0.01201  -0.00593
 Alpha virt. eigenvalues --   -0.00286   0.00071   0.00097   0.00308   0.00530

  Beta  occ. eigenvalues --  -38.45181 -38.45101 -38.44980 -38.44767 -38.44614
  Beta  occ. eigenvalues --  -38.43511 -38.43024  -2.20929  -2.20859  -2.20685
  Beta  occ. eigenvalues --   -2.20521  -2.20360  -2.19298  -2.18795  -1.14610
  Beta  occ. eigenvalues --   -1.14589  -1.14577  -1.14568  -1.14540  -1.14482
  Beta  occ. eigenvalues --   -1.14400  -1.14369  -1.14344  -1.14212  -1.14184
  Beta  occ. eigenvalues --   -1.14158  -1.14051  -1.14034  -1.13987  -1.12972
  Beta  occ. eigenvalues --   -1.12963  -1.12949  -1.12472  -1.12464  -1.12404
  Beta  occ. eigenvalues --   -0.16451  -0.13611  -0.10450
  Beta virt. eigenvalues --   -0.07591  -0.06728  -0.05285  -0.04902  -0.02837
  Beta virt. eigenvalues --   -0.02571  -0.02216  -0.01770  -0.01060  -0.00916
  Beta virt. eigenvalues --   -0.00550  -0.00161   0.00122   0.00233   0.00344

 Mulliken charges and spin densities:
               1          2
     1  Na  -0.860719   0.533566
     2  Na   0.206048   0.110407
     3  Na   0.532466  -0.085372
     4  Na  -0.171500   0.531078
     5  Na  -0.151399  -0.119031
     6  Na  -0.031020   0.040132
     7  Na   0.476124  -0.010779
 Sum of Mulliken charges =  -0.00000   1.00000

 Dipole moment (field-independent basis, Debye):
    X=              0.3880    Y=              0.0551    Z=             -0.1731  Tot=              0.4284
 Quadrupole moment (field-independent basis, Debye-Ang):
   XX=            -49.7978   YY=            -77.8395   ZZ=            -69.0379
   XY=              0.2270   XZ=             -3.4257   YZ=             -3.0546

 Normal termination of Gaussian 16 at Thu Dec  7 19:58:48 2023.
