 Gaussian 16, Revision B.01,
 Gaussian 16:  ES64L-G16RevB.01 20-Dec-2017

 -------------------------
 #P B3LYP/6-311+g(d) force
 -------------------------

 -----
 DPGEN
 -----
 Symbolic Z-matrix:
 Charge =  0 Multiplicity = 2

                         Standard orientation:
 ---------------------------------------------------------------------
 Center     Atomic      Atomic             Coordinates (Angstroms)
 Number     Number       Type             X           Y           Z
 ---------------------------------------------------------------------
      1         11           0       -4.265797    1.208658   -0.560112
      2         11           0        2.805817   -2.841251   -0.120583
      3         11           0        2.304872    3.100920   -0.096594
      4         11           0       -0.987227    3.812493    0.219268
      5         11           0       -0.587017   -3.515365   -0.286674
      6         11           0        4.691937    0.079167    0.181062
      7         11           0       -3.962584   -1.844622    0.663633
 ---------------------------------------------------------------------

 SCF Done:  E(UB3LYP) =  -1136.10612670     A.U. after   22 cycles

 The electronic state is 2-A.
 Alpha  occ. eigenvalues --  -38.45212 -38.44999 -38.44845 -38.44685 -38.44383
 Alpha  occ. eigenvalues --  -38.44356 -38.44239  -2.20980  -2.20764  -2.20594
 Alpha  occ. eigenvalues --   -2.20447  -2.20165  -2.20127  -2.20032  -1.14644
 Alpha  occ. eigenvalues --   -1.14639  -1.14621  -1.14437  -1.14423  -1.14402
 Alpha  occ. eigenvalues --   -1.14279  -1.14271  -1.14231  -1.14134  -1.14127
 Alpha  occ. eigenvalues --   -1.14098  -1.13823  -1.13815  -1.13789  -1.13780
 Alpha  occ. eigenvalues --   -1.13779  -1.13754  -1.13683  -1.13667  -1.13660
 Alpha  occ. eigenvalues --   -0.15206  -0.13910  -0.13374  -0.11092
 Alpha virt. eigenvalues --   -0.07793  -0.05019  -0.04619  -0.03478  -0.03395
 Alpha virt. eigenvalues --   -0.02619  -0.02262  -0.01919  -0.01450  -0.00791
 Alpha virt. eigenvalues --   -0.00588  -0.00297  -0.00251   0.00239   0.00376

  Beta  occ. eigenvalues --  -38.45176 -38.44994 -38.44840 -38.44688 -38.44315
  Beta  occ. eigenvalues --  -38.44314 -38.44166  -2.20916  -2.20760  -2.20590
  Beta  occ. eigenvalues --   -2.20459  -2.20052  -2.20039  -2.19895  -1.14600
  Beta  occ. eigenvalues --   -1.14597  -1.14570  -1.14437  -1.14423  -1.14376
  Beta  occ. eigenvalues --   -1.14281  -1.14273  -1.14196  -1.14148  -1.14140
  Beta  occ. eigenvalues --   -1.14060  -1.13738  -1.13738  -1.13732  -1.13731
  Beta  occ. eigenvalues --   -1.13696  -1.13694  -1.13590  -1.13578  -1.13570
  Beta  occ. eigenvalues --   -0.14636  -0.13208  -0.12559
  Beta virt. eigenvalues --   -0.08056  -0.07941  -0.04581  -0.04046  -0.03274
  Beta virt. eigenvalues --   -0.03123  -0.02406  -0.02051  -0.01832  -0.01282
  Beta virt. eigenvalues --   -0.00425  -0.00289  -0.00123   0.00106   0.00267

 Mulliken charges and spin densities:
               1          2
     1  Na  -0.060212   0.164062
     2  Na   0.193792   0.002177
     3  Na  -0.040563   0.048897
     4  Na  -0.157472   0.132831
     5  Na  -0.155233   0.280731
     6  Na   0.288032   0.340806
     7  Na  -0.068345   0.030496
 Sum of Mulliken charges =  -0.00000   1.00000

 Dipole moment (field-independent basis, Debye):
    X=             -0.9300    Y=              0.0801    Z=             -0.0006  Tot=              0.9334
 Quadrupole moment (field-independent basis, Debye-Ang):
   XX=            -59.0740   YY=            -66.9301   ZZ=            -73.3093
   XY=             -0.3060   XZ=             -0.0966   YZ=             -1.9393

 Normal termination of Gaussian 16 at Sun Dec  3 21:50:12 2023.
