 Gaussian 16, Revision B.01,
 Gaussian 16:  ES64L-G16RevB.01 20-Dec-2017

 -------------------------
 #P B3LYP/6-311+g(d) force
 -------------------------

 -----
 DPGEN
 -----
 Symbolic Z-matrix:
 Charge =  0 Multiplicity = 2

                         Standard orientation:
 ---------------------------------------------------------------------
 Center     Atomic      Atomic             Coordinates (Angstroms)
 Number     Number       Type             X           Y           Z
 ---------------------------------------------------------------------
      1         11           0       -0.042363   -0.187284   -1.871184
      2         11           0       -1.224960   -1.869316    0.097510
      3         11           0       -2.667005    0.661630    0.041814
      4         11           0       -0.086915   -0.096793    1.906019
      5         11           0       -0.102926    2.151133   -0.239050
      6         11           0        2.459028    0.979657    0.232653
      7         11           0        1.665140   -1.639027   -0.167762
 ---------------------------------------------------------------------

 SCF Done:  E(UB3LYP) =  -1136.09388399     A.U. after   18 cycles

 The electronic state is 2-A.
 Alpha  occ. eigenvalues --  -38.44392 -38.44235 -38.43842 -38.43748 -38.43453
 Alpha  occ. eigenvalues --  -38.43308 -38.43015  -2.20579  -2.20383  -2.19890
 Alpha  occ. eigenvalues --   -2.19760  -2.19590  -2.19466  -2.19122  -1.14362
 Alpha  occ. eigenvalues --   -1.14268  -1.14197  -1.14169  -1.14038  -1.13986
 Alpha  occ. eigenvalues --   -1.13736  -1.13617  -1.13513  -1.13490  -1.13454
 Alpha  occ. eigenvalues --   -1.13384  -1.13338  -1.13208  -1.13137  -1.13100
 Alpha  occ. eigenvalues --   -1.13082  -1.12960  -1.12804  -1.12754  -1.12712
 Alpha  occ. eigenvalues --   -0.21345  -0.13839  -0.12695  -0.12383
 Alpha virt. eigenvalues --   -0.05251  -0.04245  -0.03947  -0.03815  -0.03226
 Alpha virt. eigenvalues --   -0.03107  -0.01158  -0.00424  -0.00141   0.00352
 Alpha virt. eigenvalues --    0.00710   0.00781   0.01053   0.01139   0.01200

  Beta  occ. eigenvalues --  -38.44293 -38.44139 -38.43834 -38.43742 -38.43438
  Beta  occ. eigenvalues --  -38.43292 -38.43000  -2.20401  -2.20209  -2.19880
  Beta  occ. eigenvalues --   -2.19753  -2.19570  -2.19444  -2.19101  -1.14253
  Beta  occ. eigenvalues --   -1.14138  -1.14071  -1.14057  -1.13918  -1.13862
  Beta  occ. eigenvalues --   -1.13731  -1.13612  -1.13511  -1.13455  -1.13441
  Beta  occ. eigenvalues --   -1.13342  -1.13327  -1.13149  -1.13115  -1.13073
  Beta  occ. eigenvalues --   -1.13019  -1.12953  -1.12787  -1.12708  -1.12692
  Beta  occ. eigenvalues --   -0.20500  -0.13483  -0.12335
  Beta virt. eigenvalues --   -0.08211  -0.05271  -0.04240  -0.03890  -0.02855
  Beta virt. eigenvalues --   -0.02299  -0.02041  -0.01082  -0.00392   0.00016
  Beta virt. eigenvalues --    0.00370   0.00702   0.00760   0.01071   0.01143

 Mulliken charges and spin densities:
               1          2
     1  Na  -0.122814   0.456118
     2  Na   0.123591  -0.007082
     3  Na  -0.088329  -0.075338
     4  Na  -0.209202   0.523789
     5  Na   0.152334   0.075636
     6  Na  -0.046582  -0.015918
     7  Na   0.191003   0.042795
 Sum of Mulliken charges =  -0.00000   1.00000

 Dipole moment (field-independent basis, Debye):
    X=             -0.1309    Y=              0.1958    Z=              0.1428  Tot=              0.2754
 Quadrupole moment (field-independent basis, Debye-Ang):
   XX=            -59.4495   YY=            -71.1912   ZZ=            -67.2459
   XY=             -0.2202   XZ=              0.2551   YZ=              0.1165

 Normal termination of Gaussian 16 at Fri Dec  8 17:29:05 2023.
