 Gaussian 16, Revision B.01,
 Gaussian 16:  ES64L-G16RevB.01 20-Dec-2017

 -------------------------
 #P B3LYP/6-311+g(d) force
 -------------------------

 -----
 DPGEN
 -----
 Symbolic Z-matrix:
 Charge =  0 Multiplicity = 2

                         Standard orientation:
 ---------------------------------------------------------------------
 Center     Atomic      Atomic             Coordinates (Angstroms)
 Number     Number       Type             X           Y           Z
 ---------------------------------------------------------------------
      1         11           0       -3.041250   -0.532492   -0.157966
      2         11           0       -1.393538    2.669412    0.268519
      3         11           0        2.280140    1.859527   -0.064370
      4         11           0       -0.703800   -2.698294   -0.016178
      5         11           0        2.549848   -1.592091   -0.066180
      6         11           0        0.207206   -0.082867    1.835766
      7         11           0        0.101394    0.376806   -1.799591
 ---------------------------------------------------------------------

 SCF Done:  E(UB3LYP) =  -1136.14019413     A.U. after   19 cycles

 The electronic state is 2-A.
 Alpha  occ. eigenvalues --  -38.43792 -38.43729 -38.43613 -38.43612 -38.43265
 Alpha  occ. eigenvalues --  -38.43251 -38.43179  -2.19636  -2.19610  -2.19481
 Alpha  occ. eigenvalues --   -2.19447  -2.19225  -2.19209  -2.19073  -1.13328
 Alpha  occ. eigenvalues --   -1.13322  -1.13298  -1.13283  -1.13279  -1.13234
 Alpha  occ. eigenvalues --   -1.13160  -1.13148  -1.13122  -1.13120  -1.13115
 Alpha  occ. eigenvalues --   -1.13076  -1.12910  -1.12879  -1.12854  -1.12851
 Alpha  occ. eigenvalues --   -1.12836  -1.12823  -1.12737  -1.12728  -1.12707
 Alpha  occ. eigenvalues --   -0.18951  -0.13036  -0.12651  -0.10753
 Alpha virt. eigenvalues --   -0.05444  -0.05216  -0.04693  -0.03129  -0.02984
 Alpha virt. eigenvalues --   -0.02467  -0.01369  -0.01167  -0.00316  -0.00188
 Alpha virt. eigenvalues --    0.00004   0.00371   0.00838   0.00895   0.00925

  Beta  occ. eigenvalues --  -38.43790 -38.43721 -38.43607 -38.43607 -38.43188
  Beta  occ. eigenvalues --  -38.43174 -38.43169  -2.19634  -2.19600  -2.19475
  Beta  occ. eigenvalues --   -2.19438  -2.19085  -2.19067  -2.19058  -1.13324
  Beta  occ. eigenvalues --   -1.13315  -1.13283  -1.13275  -1.13250  -1.13229
  Beta  occ. eigenvalues --   -1.13155  -1.13125  -1.13116  -1.13107  -1.13091
  Beta  occ. eigenvalues --   -1.13074  -1.12823  -1.12790  -1.12760  -1.12754
  Beta  occ. eigenvalues --   -1.12736  -1.12717  -1.12714  -1.12706  -1.12680
  Beta  occ. eigenvalues --   -0.18210  -0.12788  -0.12400
  Beta virt. eigenvalues --   -0.06835  -0.05438  -0.05186  -0.04665  -0.02328
  Beta virt. eigenvalues --   -0.02184  -0.01416  -0.01285  -0.01096  -0.00375
  Beta virt. eigenvalues --   -0.00241   0.00133   0.00391   0.00870   0.00908

 Mulliken charges and spin densities:
               1          2
     1  Na   0.006462  -0.072419
     2  Na   0.062011  -0.103653
     3  Na   0.323885  -0.097714
     4  Na   0.107830  -0.069149
     5  Na   0.210370  -0.070008
     6  Na  -0.350625   0.732470
     7  Na  -0.359932   0.680473
 Sum of Mulliken charges =  -0.00000   1.00000

 Dipole moment (field-independent basis, Debye):
    X=              0.0530    Y=              0.2141    Z=              0.0068  Tot=              0.2207
 Quadrupole moment (field-independent basis, Debye-Ang):
   XX=            -57.3569   YY=            -61.8613   ZZ=            -74.2829
   XY=             -0.5857   XZ=             -0.1660   YZ=              1.0803

 Normal termination of Gaussian 16 at Thu Dec  7 10:56:27 2023.
