 Gaussian 16, Revision B.01,
 Gaussian 16:  ES64L-G16RevB.01 20-Dec-2017

 -------------------------
 #P B3LYP/6-311+g(d) force
 -------------------------

 -----
 DPGEN
 -----
 Symbolic Z-matrix:
 Charge =  0 Multiplicity = 2

                         Standard orientation:
 ---------------------------------------------------------------------
 Center     Atomic      Atomic             Coordinates (Angstroms)
 Number     Number       Type             X           Y           Z
 ---------------------------------------------------------------------
      1         11           0        1.237357   -2.127720   -1.175967
      2         11           0        3.919264    0.129341    1.026505
      3         11           0       -1.886110    2.153432   -0.194679
      4         11           0       -1.555138   -0.382284   -1.698806
      5         11           0        0.061391   -0.165145    1.949193
      6         11           0       -3.442056   -0.969124    1.145977
      7         11           0        1.665292    1.361500   -1.052224
 ---------------------------------------------------------------------

 SCF Done:  E(UB3LYP) =  -1136.12169207     A.U. after   27 cycles

 The electronic state is 2-A.
 Alpha  occ. eigenvalues --  -38.44589 -38.44404 -38.44183 -38.44148 -38.44019
 Alpha  occ. eigenvalues --  -38.43802 -38.42878  -2.20482  -2.20190  -2.19974
 Alpha  occ. eigenvalues --   -2.19956  -2.19866  -2.19680  -2.18813  -1.14194
 Alpha  occ. eigenvalues --   -1.14137  -1.14056  -1.13880  -1.13845  -1.13818
 Alpha  occ. eigenvalues --   -1.13694  -1.13676  -1.13629  -1.13613  -1.13585
 Alpha  occ. eigenvalues --   -1.13548  -1.13541  -1.13500  -1.13481  -1.13377
 Alpha  occ. eigenvalues --   -1.13336  -1.13289  -1.12527  -1.12486  -1.12420
 Alpha  occ. eigenvalues --   -0.18358  -0.13860  -0.11626  -0.10876
 Alpha virt. eigenvalues --   -0.06796  -0.05218  -0.04647  -0.03274  -0.02692
 Alpha virt. eigenvalues --   -0.02454  -0.02297  -0.01303  -0.00789  -0.00166
 Alpha virt. eigenvalues --    0.00047   0.00183   0.00299   0.00637   0.00696

  Beta  occ. eigenvalues --  -38.44523 -38.44401 -38.44182 -38.44124 -38.43952
  Beta  occ. eigenvalues --  -38.43776 -38.42869  -2.20361  -2.20185  -2.19974
  Beta  occ. eigenvalues --   -2.19912  -2.19742  -2.19634  -2.18804  -1.14120
  Beta  occ. eigenvalues --   -1.14051  -1.13960  -1.13873  -1.13840  -1.13816
  Beta  occ. eigenvalues --   -1.13683  -1.13667  -1.13596  -1.13583  -1.13567
  Beta  occ. eigenvalues --   -1.13539  -1.13453  -1.13422  -1.13392  -1.13345
  Beta  occ. eigenvalues --   -1.13287  -1.13256  -1.12498  -1.12462  -1.12414
  Beta  occ. eigenvalues --   -0.17639  -0.13668  -0.10616
  Beta virt. eigenvalues --   -0.07761  -0.06598  -0.04838  -0.04234  -0.02876
  Beta virt. eigenvalues --   -0.02433  -0.02064  -0.01787  -0.01081  -0.00441
  Beta virt. eigenvalues --   -0.00037   0.00147   0.00291   0.00382   0.00701

 Mulliken charges and spin densities:
               1          2
     1  Na  -0.072469   0.137829
     2  Na   0.373562  -0.064168
     3  Na   0.250884   0.184790
     4  Na   0.231836   0.377871
     5  Na  -0.542770   0.121318
     6  Na   0.029048   0.025947
     7  Na  -0.270090   0.216413
 Sum of Mulliken charges =  -0.00000   1.00000

 Dipole moment (field-independent basis, Debye):
    X=              0.2517    Y=             -0.0148    Z=              0.0012  Tot=              0.2521
 Quadrupole moment (field-independent basis, Debye-Ang):
   XX=            -51.7601   YY=            -64.8460   ZZ=            -79.1725
   XY=             -0.9888   XZ=              0.5321   YZ=             -0.9061

 Normal termination of Gaussian 16 at Thu Dec  7 16:18:13 2023.
