 Gaussian 16, Revision B.01,
 Gaussian 16:  ES64L-G16RevB.01 20-Dec-2017

 -------------------------
 #P B3LYP/6-311+g(d) force
 -------------------------

 -----
 DPGEN
 -----
 Symbolic Z-matrix:
 Charge =  0 Multiplicity = 2

                         Standard orientation:
 ---------------------------------------------------------------------
 Center     Atomic      Atomic             Coordinates (Angstroms)
 Number     Number       Type             X           Y           Z
 ---------------------------------------------------------------------
      1         11           0        0.813565   -2.544120   -1.004079
      2         11           0        1.564972    2.594090   -0.231180
      3         11           0       -2.765404   -1.327438    0.190615
      4         11           0       -0.123173   -0.419205    2.077982
      5         11           0        2.826435   -0.572902    0.546078
      6         11           0       -2.058578    1.948066   -0.006162
      7         11           0       -0.257818    0.321509   -1.573255
 ---------------------------------------------------------------------

 SCF Done:  E(UB3LYP) =  -1136.13328576     A.U. after   19 cycles

 The electronic state is 2-A.
 Alpha  occ. eigenvalues --  -38.43960 -38.43732 -38.43703 -38.43631 -38.43433
 Alpha  occ. eigenvalues --  -38.43311 -38.43254  -2.19861  -2.19612  -2.19590
 Alpha  occ. eigenvalues --   -2.19509  -2.19323  -2.19312  -2.19152  -1.13528
 Alpha  occ. eigenvalues --   -1.13507  -1.13486  -1.13444  -1.13278  -1.13262
 Alpha  occ. eigenvalues --   -1.13254  -1.13234  -1.13193  -1.13184  -1.13175
 Alpha  occ. eigenvalues --   -1.13147  -1.13085  -1.12976  -1.12945  -1.12937
 Alpha  occ. eigenvalues --   -1.12924  -1.12895  -1.12815  -1.12799  -1.12778
 Alpha  occ. eigenvalues --   -0.18983  -0.13170  -0.12349  -0.11329
 Alpha virt. eigenvalues --   -0.05238  -0.05142  -0.04412  -0.03483  -0.03024
 Alpha virt. eigenvalues --   -0.02841  -0.01338  -0.00999  -0.00223   0.00044
 Alpha virt. eigenvalues --    0.00118   0.00378   0.00847   0.00912   0.00944

  Beta  occ. eigenvalues --  -38.43871 -38.43727 -38.43698 -38.43620 -38.43400
  Beta  occ. eigenvalues --  -38.43311 -38.43190  -2.19697  -2.19606  -2.19585
  Beta  occ. eigenvalues --   -2.19493  -2.19261  -2.19200  -2.19154  -1.13434
  Beta  occ. eigenvalues --   -1.13414  -1.13387  -1.13375  -1.13269  -1.13244
  Beta  occ. eigenvalues --   -1.13236  -1.13220  -1.13183  -1.13173  -1.13149
  Beta  occ. eigenvalues --   -1.13135  -1.13023  -1.12916  -1.12899  -1.12893
  Beta  occ. eigenvalues --   -1.12866  -1.12828  -1.12801  -1.12789  -1.12760
  Beta  occ. eigenvalues --   -0.18254  -0.12923  -0.12087
  Beta virt. eigenvalues --   -0.07356  -0.05198  -0.05092  -0.04298  -0.02707
  Beta virt. eigenvalues --   -0.02322  -0.01786  -0.01253  -0.00937  -0.00115
  Beta virt. eigenvalues --    0.00038   0.00158   0.00409   0.00884   0.00946

 Mulliken charges and spin densities:
               1          2
     1  Na   0.041597   0.069562
     2  Na  -0.086320  -0.031902
     3  Na   0.204661   0.032759
     4  Na  -0.369475   0.553068
     5  Na   0.166563   0.131859
     6  Na   0.094052   0.011079
     7  Na  -0.051078   0.233575
 Sum of Mulliken charges =  -0.00000   1.00000

 Dipole moment (field-independent basis, Debye):
    X=             -0.2133    Y=             -0.0891    Z=              0.3690  Tot=              0.4354
 Quadrupole moment (field-independent basis, Debye-Ang):
   XX=            -58.6489   YY=            -64.3440   ZZ=            -71.6349
   XY=              0.8016   XZ=              0.0213   YZ=              1.6430

 Normal termination of Gaussian 16 at Fri Dec  8 04:55:04 2023.
