 Gaussian 16, Revision B.01,
 Gaussian 16:  ES64L-G16RevB.01 20-Dec-2017

 -------------------------
 #P B3LYP/6-311+g(d) force
 -------------------------

 -----
 DPGEN
 -----
 Symbolic Z-matrix:
 Charge =  0 Multiplicity = 2

                         Standard orientation:
 ---------------------------------------------------------------------
 Center     Atomic      Atomic             Coordinates (Angstroms)
 Number     Number       Type             X           Y           Z
 ---------------------------------------------------------------------
      1         11           0       -1.291033   -2.392824    0.571082
      2         11           0       -0.488705    2.803282    0.067571
      3         11           0        1.883886   -2.029936   -0.245718
      4         11           0       -0.185015   -0.267026   -1.783626
      5         11           0        0.283151    0.324259    2.012173
      6         11           0       -2.964988    0.410691   -0.357987
      7         11           0        2.762703    1.151555   -0.263496
 ---------------------------------------------------------------------

 SCF Done:  E(UB3LYP) =  -1136.13910349     A.U. after   18 cycles

 The electronic state is 2-A.
 Alpha  occ. eigenvalues --  -38.43680 -38.43658 -38.43624 -38.43438 -38.43313
 Alpha  occ. eigenvalues --  -38.43260 -38.43223  -2.19611  -2.19517  -2.19494
 Alpha  occ. eigenvalues --   -2.19435  -2.19181  -2.19177  -2.19127  -1.13288
 Alpha  occ. eigenvalues --   -1.13254  -1.13248  -1.13230  -1.13193  -1.13181
 Alpha  occ. eigenvalues --   -1.13153  -1.13150  -1.13132  -1.13130  -1.13064
 Alpha  occ. eigenvalues --   -1.13042  -1.12863  -1.12862  -1.12844  -1.12839
 Alpha  occ. eigenvalues --   -1.12817  -1.12796  -1.12793  -1.12773  -1.12738
 Alpha  occ. eigenvalues --   -0.19124  -0.12993  -0.12630  -0.11258
 Alpha virt. eigenvalues --   -0.05282  -0.04801  -0.04625  -0.03322  -0.03203
 Alpha virt. eigenvalues --   -0.02819  -0.01257  -0.00941  -0.00148  -0.00006
 Alpha virt. eigenvalues --    0.00102   0.00379   0.00891   0.00945   0.00969

  Beta  occ. eigenvalues --  -38.43653 -38.43617 -38.43592 -38.43367 -38.43309
  Beta  occ. eigenvalues --  -38.43251 -38.43207  -2.19510  -2.19484  -2.19449
  Beta  occ. eigenvalues --   -2.19305  -2.19173  -2.19169  -2.19101  -1.13213
  Beta  occ. eigenvalues --   -1.13203  -1.13175  -1.13165  -1.13151  -1.13136
  Beta  occ. eigenvalues --   -1.13131  -1.13122  -1.13101  -1.13059  -1.12984
  Beta  occ. eigenvalues --   -1.12957  -1.12851  -1.12846  -1.12822  -1.12815
  Beta  occ. eigenvalues --   -1.12797  -1.12794  -1.12772  -1.12733  -1.12724
  Beta  occ. eigenvalues --   -0.18368  -0.12724  -0.12379
  Beta virt. eigenvalues --   -0.07296  -0.05261  -0.04795  -0.04556  -0.02540
  Beta virt. eigenvalues --   -0.02386  -0.01751  -0.01175  -0.00869  -0.00119
  Beta virt. eigenvalues --   -0.00002   0.00128   0.00398   0.00927   0.00948

 Mulliken charges and spin densities:
               1          2
     1  Na   0.162600   0.095246
     2  Na   0.104855  -0.090327
     3  Na   0.295602  -0.002047
     4  Na  -0.328085   0.505666
     5  Na  -0.446351   0.620241
     6  Na   0.144441  -0.040788
     7  Na   0.066938  -0.087990
 Sum of Mulliken charges =  -0.00000   1.00000

 Dipole moment (field-independent basis, Debye):
    X=              0.0288    Y=              0.1686    Z=              0.0782  Tot=              0.1880
 Quadrupole moment (field-independent basis, Debye-Ang):
   XX=            -59.4369   YY=            -63.9586   ZZ=            -71.4438
   XY=              0.3441   XZ=             -0.8491   YZ=             -1.3557

 Normal termination of Gaussian 16 at Tue Dec  5 18:27:47 2023.
