 Gaussian 16, Revision B.01,
 Gaussian 16:  ES64L-G16RevB.01 20-Dec-2017

 -------------------------
 #P B3LYP/6-311+g(d) force
 -------------------------

 -----
 DPGEN
 -----
 Symbolic Z-matrix:
 Charge =  0 Multiplicity = 2

                         Standard orientation:
 ---------------------------------------------------------------------
 Center     Atomic      Atomic             Coordinates (Angstroms)
 Number     Number       Type             X           Y           Z
 ---------------------------------------------------------------------
      1         11           0       -0.041485    0.137395   -1.529632
      2         11           0        2.810369   -1.676808   -0.182086
      3         11           0        2.759248    1.629316   -0.072188
      4         11           0       -0.998496    2.769030    0.025764
      5         11           0       -0.037132   -0.411620    2.181044
      6         11           0       -1.382602   -2.685612   -0.324789
      7         11           0       -3.109902    0.238300   -0.098111
 ---------------------------------------------------------------------

 SCF Done:  E(UB3LYP) =  -1136.13541803     A.U. after   19 cycles

 The electronic state is 2-A.
 Alpha  occ. eigenvalues --  -38.44265 -38.44193 -38.44124 -38.43684 -38.43324
 Alpha  occ. eigenvalues --  -38.43200 -38.43086  -2.20068  -2.20058  -2.19940
 Alpha  occ. eigenvalues --   -2.19533  -2.19179  -2.19164  -2.18943  -1.13749
 Alpha  occ. eigenvalues --   -1.13739  -1.13737  -1.13720  -1.13711  -1.13698
 Alpha  occ. eigenvalues --   -1.13613  -1.13595  -1.13569  -1.13192  -1.13155
 Alpha  occ. eigenvalues --   -1.13152  -1.12889  -1.12881  -1.12821  -1.12817
 Alpha  occ. eigenvalues --   -1.12800  -1.12786  -1.12616  -1.12596  -1.12578
 Alpha  occ. eigenvalues --   -0.18418  -0.13335  -0.12096  -0.10618
 Alpha virt. eigenvalues --   -0.05875  -0.05505  -0.04461  -0.03259  -0.02785
 Alpha virt. eigenvalues --   -0.02478  -0.01723  -0.01210  -0.00558  -0.00426
 Alpha virt. eigenvalues --   -0.00027   0.00340   0.00723   0.00821   0.00869

  Beta  occ. eigenvalues --  -38.44263 -38.44188 -38.44122 -38.43579 -38.43317
  Beta  occ. eigenvalues --  -38.43148 -38.43082  -2.20067  -2.20052  -2.19939
  Beta  occ. eigenvalues --   -2.19338  -2.19154  -2.19085  -2.18940  -1.13750
  Beta  occ. eigenvalues --   -1.13732  -1.13723  -1.13709  -1.13701  -1.13691
  Beta  occ. eigenvalues --   -1.13603  -1.13588  -1.13572  -1.13063  -1.13019
  Beta  occ. eigenvalues --   -1.13015  -1.12859  -1.12817  -1.12804  -1.12788
  Beta  occ. eigenvalues --   -1.12758  -1.12726  -1.12607  -1.12580  -1.12570
  Beta  occ. eigenvalues --   -0.17710  -0.13135  -0.11883
  Beta virt. eigenvalues --   -0.06667  -0.05817  -0.05508  -0.04425  -0.02503
  Beta virt. eigenvalues --   -0.01986  -0.01634  -0.01436  -0.01145  -0.00611
  Beta virt. eigenvalues --   -0.00463   0.00145   0.00380   0.00796   0.00827

 Mulliken charges and spin densities:
               1          2
     1  Na  -0.241474   0.256712
     2  Na   0.139586  -0.059418
     3  Na   0.117114  -0.003078
     4  Na   0.095297   0.010974
     5  Na  -0.615794   0.764520
     6  Na   0.168941  -0.035021
     7  Na   0.336331   0.065311
 Sum of Mulliken charges =  -0.00000   1.00000

 Dipole moment (field-independent basis, Debye):
    X=              0.2810    Y=             -0.1243    Z=              0.1209  Tot=              0.3302
 Quadrupole moment (field-independent basis, Debye-Ang):
   XX=            -54.4841   YY=            -63.5661   ZZ=            -75.3872
   XY=             -0.1365   XZ=             -0.0641   YZ=              1.3100

 Normal termination of Gaussian 16 at Thu Dec  7 12:19:19 2023.
