 Gaussian 16, Revision B.01,
 Gaussian 16:  ES64L-G16RevB.01 20-Dec-2017

 -------------------------
 #P B3LYP/6-311+g(d) force
 -------------------------

 -----
 DPGEN
 -----
 Symbolic Z-matrix:
 Charge =  0 Multiplicity = 2

                         Standard orientation:
 ---------------------------------------------------------------------
 Center     Atomic      Atomic             Coordinates (Angstroms)
 Number     Number       Type             X           Y           Z
 ---------------------------------------------------------------------
      1         11           0       -3.986633   -0.632128   -1.227383
      2         11           0        3.319321   -1.758530    0.471229
      3         11           0       -0.827061   -2.011221   -0.767575
      4         11           0       -2.290859   -0.198564    2.127623
      5         11           0        4.769303    0.963805   -0.860839
      6         11           0       -2.006726    2.349299   -0.536349
      7         11           0        1.022654    1.287339    0.793294
 ---------------------------------------------------------------------

 SCF Done:  E(UB3LYP) =  -1136.11285989     A.U. after   27 cycles

 The electronic state is 2-A.
 Alpha  occ. eigenvalues --  -38.45958 -38.44855 -38.44705 -38.43682 -38.43658
 Alpha  occ. eigenvalues --  -38.43580 -38.43460  -2.21739  -2.20642  -2.20472
 Alpha  occ. eigenvalues --   -2.19484  -2.19463  -2.19412  -2.19260  -1.15422
 Alpha  occ. eigenvalues --   -1.15385  -1.15355  -1.14297  -1.14294  -1.14268
 Alpha  occ. eigenvalues --   -1.14158  -1.14135  -1.14104  -1.13168  -1.13160
 Alpha  occ. eigenvalues --   -1.13149  -1.13124  -1.13109  -1.13105  -1.13074
 Alpha  occ. eigenvalues --   -1.13050  -1.13020  -1.12979  -1.12949  -1.12853
 Alpha  occ. eigenvalues --   -0.17065  -0.14243  -0.10867  -0.10709
 Alpha virt. eigenvalues --   -0.07118  -0.06002  -0.04705  -0.02978  -0.02851
 Alpha virt. eigenvalues --   -0.02393  -0.02222  -0.01642  -0.01429  -0.00805
 Alpha virt. eigenvalues --   -0.00179   0.00038   0.00204   0.00344   0.00475

  Beta  occ. eigenvalues --  -38.45929 -38.44799 -38.44712 -38.43661 -38.43634
  Beta  occ. eigenvalues --  -38.43524 -38.43464  -2.21687  -2.20537  -2.20490
  Beta  occ. eigenvalues --   -2.19469  -2.19397  -2.19310  -2.19268  -1.15364
  Beta  occ. eigenvalues --   -1.15351  -1.15324  -1.14228  -1.14225  -1.14205
  Beta  occ. eigenvalues --   -1.14171  -1.14143  -1.14088  -1.13167  -1.13127
  Beta  occ. eigenvalues --   -1.13112  -1.13093  -1.13085  -1.13038  -1.13005
  Beta  occ. eigenvalues --   -1.12987  -1.12978  -1.12952  -1.12936  -1.12862
  Beta  occ. eigenvalues --   -0.16460  -0.13809  -0.10743
  Beta virt. eigenvalues --   -0.07298  -0.06770  -0.05661  -0.04253  -0.02846
  Beta virt. eigenvalues --   -0.02667  -0.01913  -0.01728  -0.01330  -0.01146
  Beta virt. eigenvalues --   -0.00572  -0.00067   0.00111   0.00324   0.00431

 Mulliken charges and spin densities:
               1          2
     1  Na   0.191430   0.382181
     2  Na   0.198042  -0.060075
     3  Na  -0.354725   0.212199
     4  Na   0.288438   0.219548
     5  Na   0.133540   0.282419
     6  Na   0.108433   0.018322
     7  Na  -0.565157  -0.054594
 Sum of Mulliken charges =  -0.00000   1.00000

 Dipole moment (field-independent basis, Debye):
    X=              0.4552    Y=             -0.0262    Z=              0.7896  Tot=              0.9118
 Quadrupole moment (field-independent basis, Debye-Ang):
   XX=            -57.4448   YY=            -75.5595   ZZ=            -64.7669
   XY=             -0.8765   XZ=             -5.9764   YZ=             -6.6552

 Normal termination of Gaussian 16 at Thu Dec  7 20:39:57 2023.
