 Gaussian 16, Revision B.01,
 Gaussian 16:  ES64L-G16RevB.01 20-Dec-2017

 -------------------------
 #P B3LYP/6-311+g(d) force
 -------------------------

 -----
 DPGEN
 -----
 Symbolic Z-matrix:
 Charge =  0 Multiplicity = 2

                         Standard orientation:
 ---------------------------------------------------------------------
 Center     Atomic      Atomic             Coordinates (Angstroms)
 Number     Number       Type             X           Y           Z
 ---------------------------------------------------------------------
      1         11           0        3.921155    1.811829   -0.015560
      2         11           0        0.913407    3.603323    0.779785
      3         11           0       -4.533885   -0.550783   -0.273672
      4         11           0       -2.580713   -2.668890    0.557500
      5         11           0       -2.737561    3.068438   -0.632134
      6         11           0        1.191098   -3.324664    0.224742
      7         11           0        3.826500   -1.939253   -0.640661
 ---------------------------------------------------------------------

 SCF Done:  E(UB3LYP) =  -1136.10239975     A.U. after   22 cycles

 The electronic state is 2-A.
 Alpha  occ. eigenvalues --  -38.45007 -38.45005 -38.44816 -38.44608 -38.44561
 Alpha  occ. eigenvalues --  -38.44482 -38.44393  -2.20805  -2.20725  -2.20611
 Alpha  occ. eigenvalues --   -2.20374  -2.20360  -2.20298  -2.20171  -1.14530
 Alpha  occ. eigenvalues --   -1.14462  -1.14439  -1.14421  -1.14410  -1.14364
 Alpha  occ. eigenvalues --   -1.14322  -1.14273  -1.14253  -1.14026  -1.14015
 Alpha  occ. eigenvalues --   -1.14010  -1.14008  -1.13989  -1.13989  -1.13948
 Alpha  occ. eigenvalues --   -1.13944  -1.13930  -1.13830  -1.13815  -1.13792
 Alpha  occ. eigenvalues --   -0.15377  -0.14026  -0.13339  -0.10975
 Alpha virt. eigenvalues --   -0.07946  -0.05055  -0.04447  -0.03621  -0.03529
 Alpha virt. eigenvalues --   -0.02430  -0.02214  -0.01931  -0.01277  -0.01170
 Alpha virt. eigenvalues --   -0.00930  -0.00192   0.00130   0.00224   0.00457

  Beta  occ. eigenvalues --  -38.45026 -38.44995 -38.44808 -38.44531 -38.44512
  Beta  occ. eigenvalues --  -38.44449 -38.44327  -2.20791  -2.20767  -2.20599
  Beta  occ. eigenvalues --   -2.20308  -2.20240  -2.20195  -2.20047  -1.14504
  Beta  occ. eigenvalues --   -1.14456  -1.14454  -1.14442  -1.14417  -1.14358
  Beta  occ. eigenvalues --   -1.14299  -1.14269  -1.14236  -1.13981  -1.13976
  Beta  occ. eigenvalues --   -1.13945  -1.13910  -1.13907  -1.13905  -1.13890
  Beta  occ. eigenvalues --   -1.13884  -1.13870  -1.13746  -1.13732  -1.13711
  Beta  occ. eigenvalues --   -0.14891  -0.13346  -0.12586
  Beta virt. eigenvalues --   -0.08104  -0.07794  -0.04490  -0.03994  -0.03467
  Beta virt. eigenvalues --   -0.03278  -0.02204  -0.02055  -0.01716  -0.01179
  Beta virt. eigenvalues --   -0.00722  -0.00673   0.00013   0.00124   0.00343

 Mulliken charges and spin densities:
               1          2
     1  Na  -0.041551   0.335371
     2  Na  -0.135415  -0.148405
     3  Na   0.119469   0.051791
     4  Na   0.002850   0.135730
     5  Na  -0.133931   0.489731
     6  Na   0.045765   0.133053
     7  Na   0.142813   0.002729
 Sum of Mulliken charges =  -0.00000   1.00000

 Dipole moment (field-independent basis, Debye):
    X=             -0.0875    Y=             -0.4627    Z=             -0.0490  Tot=              0.4734
 Quadrupole moment (field-independent basis, Debye-Ang):
   XX=            -57.6520   YY=            -71.0274   ZZ=            -72.4699
   XY=             -1.9212   XZ=             -0.4609   YZ=             -0.1174

 Normal termination of Gaussian 16 at Sun Dec  3 20:03:28 2023.
