 Gaussian 16, Revision B.01,
 Gaussian 16:  ES64L-G16RevB.01 20-Dec-2017

 -------------------------
 #P B3LYP/6-311+g(d) force
 -------------------------

 -----
 DPGEN
 -----
 Symbolic Z-matrix:
 Charge =  0 Multiplicity = 2

                         Standard orientation:
 ---------------------------------------------------------------------
 Center     Atomic      Atomic             Coordinates (Angstroms)
 Number     Number       Type             X           Y           Z
 ---------------------------------------------------------------------
      1         11           0       -2.773091   -1.277735   -1.379990
      2         11           0       -2.503758    2.776148   -0.593404
      3         11           0        0.249422   -3.387686    0.367035
      4         11           0        3.391929   -1.736939   -0.456460
      5         11           0        4.112745    1.406137    0.127727
      6         11           0        0.642857    2.999725    0.440222
      7         11           0       -3.120104   -0.779651    1.494870
 ---------------------------------------------------------------------

 SCF Done:  E(UB3LYP) =  -1136.10894283     A.U. after   20 cycles

 The electronic state is 2-A.
 Alpha  occ. eigenvalues --  -38.45512 -38.45436 -38.44246 -38.44169 -38.43891
 Alpha  occ. eigenvalues --  -38.43882 -38.43347  -2.21338  -2.21255  -2.20020
 Alpha  occ. eigenvalues --   -2.19933  -2.19686  -2.19664  -2.19162  -1.15154
 Alpha  occ. eigenvalues --   -1.14978  -1.14952  -1.14893  -1.14868  -1.14838
 Alpha  occ. eigenvalues --   -1.13707  -1.13695  -1.13671  -1.13619  -1.13612
 Alpha  occ. eigenvalues --   -1.13570  -1.13359  -1.13333  -1.13333  -1.13314
 Alpha  occ. eigenvalues --   -1.13312  -1.13273  -1.12810  -1.12807  -1.12792
 Alpha  occ. eigenvalues --   -0.16115  -0.13784  -0.12866  -0.10186
 Alpha virt. eigenvalues --   -0.06726  -0.06344  -0.03959  -0.03449  -0.03035
 Alpha virt. eigenvalues --   -0.02430  -0.02232  -0.01607  -0.01307  -0.01018
 Alpha virt. eigenvalues --   -0.00433  -0.00035   0.00221   0.00364   0.00551

  Beta  occ. eigenvalues --  -38.45479 -38.45422 -38.44243 -38.44159 -38.43861
  Beta  occ. eigenvalues --  -38.43811 -38.43284  -2.21278  -2.21231  -2.20022
  Beta  occ. eigenvalues --   -2.19920  -2.19634  -2.19535  -2.19045  -1.15115
  Beta  occ. eigenvalues --   -1.14932  -1.14918  -1.14871  -1.14856  -1.14806
  Beta  occ. eigenvalues --   -1.13715  -1.13702  -1.13622  -1.13614  -1.13605
  Beta  occ. eigenvalues --   -1.13533  -1.13325  -1.13299  -1.13264  -1.13246
  Beta  occ. eigenvalues --   -1.13228  -1.13177  -1.12732  -1.12729  -1.12714
  Beta  occ. eigenvalues --   -0.15732  -0.13113  -0.12021
  Beta virt. eigenvalues --   -0.07033  -0.06790  -0.06263  -0.03611  -0.03061
  Beta virt. eigenvalues --   -0.02692  -0.02086  -0.01885  -0.01456  -0.01169
  Beta virt. eigenvalues --   -0.00839  -0.00080   0.00141   0.00272   0.00445

 Mulliken charges and spin densities:
               1          2
     1  Na   0.155953   0.118849
     2  Na   0.092986   0.077899
     3  Na  -0.228852   0.332019
     4  Na  -0.201581   0.001037
     5  Na   0.380722   0.327360
     6  Na  -0.380001   0.039096
     7  Na   0.180773   0.103740
 Sum of Mulliken charges =  -0.00000   1.00000

 Dipole moment (field-independent basis, Debye):
    X=             -2.2319    Y=             -0.4638    Z=              0.0693  Tot=              2.2806
 Quadrupole moment (field-independent basis, Debye-Ang):
   XX=            -66.3177   YY=            -76.5998   ZZ=            -62.0875
   XY=              0.9199   XZ=              0.0979   YZ=              1.3848

 Normal termination of Gaussian 16 at Mon Dec  4 02:12:46 2023.
