 Gaussian 16, Revision B.01,
 Gaussian 16:  ES64L-G16RevB.01 20-Dec-2017

 -------------------------
 #P B3LYP/6-311+g(d) force
 -------------------------

 -----
 DPGEN
 -----
 Symbolic Z-matrix:
 Charge =  0 Multiplicity = 2

                         Standard orientation:
 ---------------------------------------------------------------------
 Center     Atomic      Atomic             Coordinates (Angstroms)
 Number     Number       Type             X           Y           Z
 ---------------------------------------------------------------------
      1         11           0       -3.591920   -1.333684    0.015825
      2         11           0        1.854100    0.595746    1.858985
      3         11           0        4.182697    2.205714   -0.762390
      4         11           0        3.861977   -1.674844   -0.773770
      5         11           0       -0.059751   -1.987384   -0.074759
      6         11           0       -1.292251    0.573842    0.402780
      7         11           0       -4.954852    1.620610   -0.666671
 ---------------------------------------------------------------------

 SCF Done:  E(UB3LYP) =  -1136.10961057     A.U. after   25 cycles

 The electronic state is 2-A.
 Alpha  occ. eigenvalues --  -38.44716 -38.44654 -38.44620 -38.44383 -38.44181
 Alpha  occ. eigenvalues --  -38.43644 -38.43125  -2.20595  -2.20399  -2.20380
 Alpha  occ. eigenvalues --   -2.20206  -2.20154  -2.19430  -2.19020  -1.14343
 Alpha  occ. eigenvalues --   -1.14263  -1.14182  -1.14069  -1.14065  -1.14049
 Alpha  occ. eigenvalues --   -1.14039  -1.14019  -1.13994  -1.13896  -1.13882
 Alpha  occ. eigenvalues --   -1.13854  -1.13819  -1.13816  -1.13739  -1.13101
 Alpha  occ. eigenvalues --   -1.13097  -1.13066  -1.12722  -1.12660  -1.12639
 Alpha  occ. eigenvalues --   -0.17228  -0.14341  -0.11147  -0.10884
 Alpha virt. eigenvalues --   -0.07143  -0.05425  -0.04654  -0.03479  -0.02775
 Alpha virt. eigenvalues --   -0.02759  -0.01993  -0.01515  -0.01014  -0.00798
 Alpha virt. eigenvalues --   -0.00128  -0.00109   0.00174   0.00343   0.00513

  Beta  occ. eigenvalues --  -38.44706 -38.44665 -38.44536 -38.44322 -38.44154
  Beta  occ. eigenvalues --  -38.43648 -38.43109  -2.20576  -2.20402  -2.20242
  Beta  occ. eigenvalues --   -2.20107  -2.20095  -2.19438  -2.18992  -1.14330
  Beta  occ. eigenvalues --   -1.14249  -1.14169  -1.14081  -1.14054  -1.14032
  Beta  occ. eigenvalues --   -1.13961  -1.13933  -1.13887  -1.13853  -1.13808
  Beta  occ. eigenvalues --   -1.13789  -1.13777  -1.13741  -1.13679  -1.13105
  Beta  occ. eigenvalues --   -1.13103  -1.13071  -1.12699  -1.12631  -1.12617
  Beta  occ. eigenvalues --   -0.16714  -0.13934  -0.11105
  Beta virt. eigenvalues --   -0.07133  -0.06809  -0.05160  -0.04161  -0.03405
  Beta virt. eigenvalues --   -0.02613  -0.02009  -0.01578  -0.01357  -0.00829
  Beta virt. eigenvalues --   -0.00496  -0.00024   0.00010   0.00316   0.00413

 Mulliken charges and spin densities:
               1          2
     1  Na   0.331209   0.154974
     2  Na   0.686996   0.138073
     3  Na   0.233621  -0.116700
     4  Na   0.200072   0.374929
     5  Na   0.368508   0.077604
     6  Na  -2.141346   0.332734
     7  Na   0.320941   0.038386
 Sum of Mulliken charges =  -0.00000   1.00000

 Dipole moment (field-independent basis, Debye):
    X=             -0.2580    Y=              0.0696    Z=              0.0407  Tot=              0.2703
 Quadrupole moment (field-independent basis, Debye-Ang):
   XX=            -67.4248   YY=            -63.7441   ZZ=            -69.8887
   XY=              2.8773   XZ=              0.3234   YZ=             -3.2950

 Normal termination of Gaussian 16 at Tue Dec  5 11:21:03 2023.
