 Gaussian 16, Revision B.01,
 Gaussian 16:  ES64L-G16RevB.01 20-Dec-2017

 -------------------------
 #P B3LYP/6-311+g(d) force
 -------------------------

 -----
 DPGEN
 -----
 Symbolic Z-matrix:
 Charge =  0 Multiplicity = 2

                         Standard orientation:
 ---------------------------------------------------------------------
 Center     Atomic      Atomic             Coordinates (Angstroms)
 Number     Number       Type             X           Y           Z
 ---------------------------------------------------------------------
      1         11           0        0.174283   -1.584617   -0.290907
      2         11           0       -1.522407    1.889295   -0.174494
      3         11           0       -3.118388   -0.996786   -1.591862
      4         11           0        3.384899   -1.572268   -0.016147
      5         11           0        1.908671    1.652878   -1.588167
      6         11           0        1.317886    1.017342    1.663617
      7         11           0       -2.144943   -0.405844    1.997960
 ---------------------------------------------------------------------

 SCF Done:  E(UB3LYP) =  -1136.12977169     A.U. after   22 cycles

 The electronic state is 2-A.
 Alpha  occ. eigenvalues --  -38.44505 -38.44178 -38.44112 -38.43688 -38.43627
 Alpha  occ. eigenvalues --  -38.43149 -38.43041  -2.20375  -2.20004  -2.19926
 Alpha  occ. eigenvalues --   -2.19577  -2.19446  -2.19034  -2.18942  -1.14050
 Alpha  occ. eigenvalues --   -1.14044  -1.13971  -1.13678  -1.13658  -1.13612
 Alpha  occ. eigenvalues --   -1.13589  -1.13579  -1.13542  -1.13284  -1.13227
 Alpha  occ. eigenvalues --   -1.13193  -1.13125  -1.13110  -1.13080  -1.12726
 Alpha  occ. eigenvalues --   -1.12718  -1.12654  -1.12643  -1.12624  -1.12545
 Alpha  occ. eigenvalues --   -0.18402  -0.13763  -0.11438  -0.11095
 Alpha virt. eigenvalues --   -0.05818  -0.05334  -0.05096  -0.03163  -0.02641
 Alpha virt. eigenvalues --   -0.02473  -0.01875  -0.01011  -0.00894   0.00013
 Alpha virt. eigenvalues --    0.00226   0.00325   0.00369   0.00489   0.00558

  Beta  occ. eigenvalues --  -38.44452 -38.44131 -38.44069 -38.43664 -38.43629
  Beta  occ. eigenvalues --  -38.43137 -38.43031  -2.20278  -2.19917  -2.19846
  Beta  occ. eigenvalues --   -2.19536  -2.19450  -2.19016  -2.18928  -1.13985
  Beta  occ. eigenvalues --   -1.13977  -1.13890  -1.13615  -1.13604  -1.13550
  Beta  occ. eigenvalues --   -1.13528  -1.13522  -1.13494  -1.13258  -1.13174
  Beta  occ. eigenvalues --   -1.13165  -1.13129  -1.13106  -1.13083  -1.12716
  Beta  occ. eigenvalues --   -1.12674  -1.12634  -1.12626  -1.12602  -1.12540
  Beta  occ. eigenvalues --   -0.17690  -0.13528  -0.10882
  Beta virt. eigenvalues --   -0.07649  -0.05633  -0.04944  -0.04645  -0.02914
  Beta virt. eigenvalues --   -0.02138  -0.01920  -0.01663  -0.00831  -0.00489
  Beta virt. eigenvalues --    0.00121   0.00286   0.00403   0.00511   0.00595

 Mulliken charges and spin densities:
               1          2
     1  Na  -0.828626   0.299581
     2  Na  -0.011399   0.453611
     3  Na   0.146125   0.057486
     4  Na   0.381023  -0.189226
     5  Na  -0.136867   0.129606
     6  Na   0.180443   0.158066
     7  Na   0.269301   0.090876
 Sum of Mulliken charges =  -0.00000   1.00000

 Dipole moment (field-independent basis, Debye):
    X=             -0.0964    Y=              0.2602    Z=              0.0941  Tot=              0.2930
 Quadrupole moment (field-independent basis, Debye-Ang):
   XX=            -53.0596   YY=            -77.4265   ZZ=            -63.5843
   XY=              0.9940   XZ=             -0.6113   YZ=             -2.1849

 Normal termination of Gaussian 16 at Wed Nov 29 15:41:20 2023.
