 Gaussian 16, Revision B.01,
 Gaussian 16:  ES64L-G16RevB.01 20-Dec-2017

 -------------------------
 #P B3LYP/6-311+g(d) force
 -------------------------

 -----
 DPGEN
 -----
 Symbolic Z-matrix:
 Charge =  0 Multiplicity = 2

                         Standard orientation:
 ---------------------------------------------------------------------
 Center     Atomic      Atomic             Coordinates (Angstroms)
 Number     Number       Type             X           Y           Z
 ---------------------------------------------------------------------
      1         11           0       -2.396729   -1.410976    0.331364
      2         11           0        4.311039   -0.741326   -0.519826
      3         11           0       -0.703203    1.729107   -0.491869
      4         11           0        0.947488   -0.176579    2.229437
      5         11           0        0.218849   -1.963445   -1.013446
      6         11           0       -5.244488    0.705389   -0.287798
      7         11           0        2.867043    1.857831   -0.247862
 ---------------------------------------------------------------------

 SCF Done:  E(UB3LYP) =  -1136.10650648     A.U. after   39 cycles

 The electronic state is 2-A.
 Alpha  occ. eigenvalues --  -38.45963 -38.45202 -38.44639 -38.44028 -38.43682
 Alpha  occ. eigenvalues --  -38.43597 -38.43595  -2.21759  -2.21008  -2.20483
 Alpha  occ. eigenvalues --   -2.19871  -2.19546  -2.19479  -2.19339  -1.15431
 Alpha  occ. eigenvalues --   -1.15401  -1.15370  -1.14704  -1.14661  -1.14606
 Alpha  occ. eigenvalues --   -1.14175  -1.14117  -1.14092  -1.13603  -1.13544
 Alpha  occ. eigenvalues --   -1.13495  -1.13224  -1.13214  -1.13188  -1.13178
 Alpha  occ. eigenvalues --   -1.13151  -1.13062  -1.13015  -1.13009  -1.12970
 Alpha  occ. eigenvalues --   -0.17920  -0.13912  -0.11512  -0.10877
 Alpha virt. eigenvalues --   -0.07800  -0.05240  -0.04714  -0.03291  -0.03193
 Alpha virt. eigenvalues --   -0.02456  -0.02307  -0.01887  -0.01256  -0.00622
 Alpha virt. eigenvalues --   -0.00373   0.00050   0.00269   0.00478   0.00622

  Beta  occ. eigenvalues --  -38.45904 -38.45142 -38.44563 -38.44038 -38.43672
  Beta  occ. eigenvalues --  -38.43603 -38.43587  -2.21650  -2.20902  -2.20340
  Beta  occ. eigenvalues --   -2.19889  -2.19535  -2.19464  -2.19352  -1.15346
  Beta  occ. eigenvalues --   -1.15326  -1.15293  -1.14635  -1.14588  -1.14514
  Beta  occ. eigenvalues --   -1.14084  -1.14019  -1.13992  -1.13616  -1.13554
  Beta  occ. eigenvalues --   -1.13503  -1.13214  -1.13205  -1.13172  -1.13142
  Beta  occ. eigenvalues --   -1.13137  -1.13056  -1.13024  -1.13015  -1.12978
  Beta  occ. eigenvalues --   -0.17215  -0.13536  -0.10763
  Beta virt. eigenvalues --   -0.07960  -0.07299  -0.04978  -0.04245  -0.03075
  Beta virt. eigenvalues --   -0.02933  -0.01870  -0.01810  -0.01636  -0.00997
  Beta virt. eigenvalues --   -0.00546  -0.00276   0.00134   0.00345   0.00560

 Mulliken charges and spin densities:
               1          2
     1  Na  -0.060075   0.190158
     2  Na   0.044577   0.330104
     3  Na  -0.318614   0.273079
     4  Na   0.131716   0.308368
     5  Na  -0.110901   0.020079
     6  Na   0.277256  -0.068995
     7  Na   0.036041  -0.052792
 Sum of Mulliken charges =  -0.00000   1.00000

 Dipole moment (field-independent basis, Debye):
    X=              1.3933    Y=             -0.5010    Z=              0.9930  Tot=              1.7828
 Quadrupole moment (field-independent basis, Debye-Ang):
   XX=            -71.0739   YY=            -73.7942   ZZ=            -63.3052
   XY=             -1.8711   XZ=              1.1655   YZ=             -0.2066

 Normal termination of Gaussian 16 at Thu Dec  7 13:55:53 2023.
