 Gaussian 16, Revision B.01,
 Gaussian 16:  ES64L-G16RevB.01 20-Dec-2017

 -------------------------
 #P B3LYP/6-311+g(d) force
 -------------------------

 -----
 DPGEN
 -----
 Symbolic Z-matrix:
 Charge =  0 Multiplicity = 2

                         Standard orientation:
 ---------------------------------------------------------------------
 Center     Atomic      Atomic             Coordinates (Angstroms)
 Number     Number       Type             X           Y           Z
 ---------------------------------------------------------------------
      1         11           0       -1.837415   -1.847794   -0.669194
      2         11           0        0.941106    0.120473    1.381650
      3         11           0        1.480238    3.231742   -0.561434
      4         11           0       -1.533029    1.903826   -0.090068
      5         11           0       -4.523817   -0.127777    0.243780
      6         11           0        3.886212   -0.324664   -0.108958
      7         11           0        1.586705   -2.955806   -0.195775
 ---------------------------------------------------------------------

 SCF Done:  E(UB3LYP) =  -1136.12787982     A.U. after   20 cycles

 The electronic state is 2-A.
 Alpha  occ. eigenvalues --  -38.44860 -38.44264 -38.43849 -38.43771 -38.43751
 Alpha  occ. eigenvalues --  -38.43491 -38.43342  -2.20726  -2.20053  -2.19677
 Alpha  occ. eigenvalues --   -2.19629  -2.19574  -2.19338  -2.19180  -1.14423
 Alpha  occ. eigenvalues --   -1.14417  -1.14332  -1.13735  -1.13713  -1.13693
 Alpha  occ. eigenvalues --   -1.13375  -1.13354  -1.13340  -1.13323  -1.13308
 Alpha  occ. eigenvalues --   -1.13256  -1.13230  -1.13212  -1.13209  -1.12996
 Alpha  occ. eigenvalues --   -1.12976  -1.12947  -1.12832  -1.12823  -1.12791
 Alpha  occ. eigenvalues --   -0.17343  -0.13863  -0.12780  -0.10037
 Alpha virt. eigenvalues --   -0.06513  -0.05533  -0.04766  -0.03231  -0.02728
 Alpha virt. eigenvalues --   -0.02459  -0.01931  -0.01114  -0.01031  -0.00702
 Alpha virt. eigenvalues --   -0.00273  -0.00054   0.00501   0.00540   0.00726

  Beta  occ. eigenvalues --  -38.44851 -38.44271 -38.43831 -38.43761 -38.43736
  Beta  occ. eigenvalues --  -38.43410 -38.43271  -2.20712  -2.20067  -2.19650
  Beta  occ. eigenvalues --   -2.19613  -2.19552  -2.19186  -2.19048  -1.14412
  Beta  occ. eigenvalues --   -1.14384  -1.14326  -1.13745  -1.13711  -1.13702
  Beta  occ. eigenvalues --   -1.13360  -1.13340  -1.13329  -1.13306  -1.13253
  Beta  occ. eigenvalues --   -1.13244  -1.13219  -1.13188  -1.13160  -1.12892
  Beta  occ. eigenvalues --   -1.12875  -1.12848  -1.12741  -1.12731  -1.12708
  Beta  occ. eigenvalues --   -0.16890  -0.13188  -0.12416
  Beta virt. eigenvalues --   -0.06621  -0.06366  -0.05442  -0.04395  -0.02605
  Beta virt. eigenvalues --   -0.02484  -0.02350  -0.01405  -0.00980  -0.00897
  Beta virt. eigenvalues --   -0.00569   0.00084   0.00245   0.00630   0.00684

 Mulliken charges and spin densities:
               1          2
     1  Na  -0.360973   0.083307
     2  Na   0.498957   0.023786
     3  Na   0.049884  -0.037028
     4  Na  -0.606601  -0.009936
     5  Na   0.571342   0.408349
     6  Na  -0.122795   0.513678
     7  Na  -0.029815   0.017844
 Sum of Mulliken charges =  -0.00000   1.00000

 Dipole moment (field-independent basis, Debye):
    X=              0.4519    Y=              0.3464    Z=             -0.2322  Tot=              0.6149
 Quadrupole moment (field-independent basis, Debye-Ang):
   XX=            -73.0761   YY=            -62.8812   ZZ=            -66.8041
   XY=              1.5037   XZ=             -2.7934   YZ=             -0.4281

 Normal termination of Gaussian 16 at Tue Nov 28 20:46:15 2023.
