 Gaussian 16, Revision B.01,
 Gaussian 16:  ES64L-G16RevB.01 20-Dec-2017

 -------------------------
 #P B3LYP/6-311+g(d) force
 -------------------------

 -----
 DPGEN
 -----
 Symbolic Z-matrix:
 Charge =  0 Multiplicity = 2

                         Standard orientation:
 ---------------------------------------------------------------------
 Center     Atomic      Atomic             Coordinates (Angstroms)
 Number     Number       Type             X           Y           Z
 ---------------------------------------------------------------------
      1         11           0       -2.463604   -1.542722   -1.407831
      2         11           0       -2.259264    1.832324   -0.759042
      3         11           0        1.403016   -2.043273   -0.862399
      4         11           0        3.665562    0.002128   -0.058293
      5         11           0        1.096983    2.151050   -0.845657
      6         11           0       -0.567468    1.587843    1.983855
      7         11           0       -0.875224   -1.987351    1.949367
 ---------------------------------------------------------------------

 SCF Done:  E(UB3LYP) =  -1136.12896626     A.U. after   19 cycles

 The electronic state is 2-A.
 Alpha  occ. eigenvalues --  -38.44117 -38.44102 -38.44037 -38.43853 -38.43845
 Alpha  occ. eigenvalues --  -38.43787 -38.43785  -2.19973  -2.19928  -2.19838
 Alpha  occ. eigenvalues --   -2.19670  -2.19663  -2.19652  -2.19631  -1.13646
 Alpha  occ. eigenvalues --   -1.13638  -1.13613  -1.13586  -1.13568  -1.13545
 Alpha  occ. eigenvalues --   -1.13509  -1.13501  -1.13453  -1.13416  -1.13355
 Alpha  occ. eigenvalues --   -1.13352  -1.13337  -1.13327  -1.13316  -1.13313
 Alpha  occ. eigenvalues --   -1.13305  -1.13294  -1.13272  -1.13237  -1.13210
 Alpha  occ. eigenvalues --   -0.17622  -0.13022  -0.12402  -0.11509
 Alpha virt. eigenvalues --   -0.05623  -0.05325  -0.04591  -0.03795  -0.03239
 Alpha virt. eigenvalues --   -0.02968  -0.01440  -0.00912  -0.00403  -0.00177
 Alpha virt. eigenvalues --   -0.00095   0.00368   0.00591   0.00624   0.00816

  Beta  occ. eigenvalues --  -38.44059 -38.44041 -38.43993 -38.43849 -38.43849
  Beta  occ. eigenvalues --  -38.43779 -38.43764  -2.19860  -2.19821  -2.19758
  Beta  occ. eigenvalues --   -2.19673  -2.19662  -2.19621  -2.19612  -1.13578
  Beta  occ. eigenvalues --   -1.13563  -1.13526  -1.13511  -1.13490  -1.13462
  Beta  occ. eigenvalues --   -1.13448  -1.13447  -1.13418  -1.13395  -1.13347
  Beta  occ. eigenvalues --   -1.13336  -1.13331  -1.13322  -1.13314  -1.13294
  Beta  occ. eigenvalues --   -1.13283  -1.13276  -1.13240  -1.13236  -1.13201
  Beta  occ. eigenvalues --   -0.16994  -0.12771  -0.12286
  Beta virt. eigenvalues --   -0.07565  -0.05403  -0.05281  -0.03911  -0.03576
  Beta virt. eigenvalues --   -0.02785  -0.02093  -0.01289  -0.00904  -0.00168
  Beta virt. eigenvalues --   -0.00060   0.00014   0.00458   0.00711   0.00744

 Mulliken charges and spin densities:
               1          2
     1  Na   0.008102   0.279332
     2  Na   0.178619   0.132188
     3  Na  -0.114924   0.106247
     4  Na   0.292816  -0.070299
     5  Na  -0.373358   0.063054
     6  Na   0.262105   0.315186
     7  Na  -0.253359   0.174293
 Sum of Mulliken charges =  -0.00000   1.00000

 Dipole moment (field-independent basis, Debye):
    X=              0.1405    Y=              0.0861    Z=              0.1302  Tot=              0.2100
 Quadrupole moment (field-independent basis, Debye-Ang):
   XX=            -62.2778   YY=            -68.6595   ZZ=            -67.3083
   XY=              0.3940   XZ=              2.1337   YZ=             -0.2552

 Normal termination of Gaussian 16 at Mon Dec  4 04:24:56 2023.
