 Gaussian 16, Revision B.01,
 Gaussian 16:  ES64L-G16RevB.01 20-Dec-2017

 -------------------------
 #P B3LYP/6-311+g(d) force
 -------------------------

 -----
 DPGEN
 -----
 Symbolic Z-matrix:
 Charge =  0 Multiplicity = 2

                         Standard orientation:
 ---------------------------------------------------------------------
 Center     Atomic      Atomic             Coordinates (Angstroms)
 Number     Number       Type             X           Y           Z
 ---------------------------------------------------------------------
      1         11           0        0.969769    0.130527    2.090305
      2         11           0        2.229789    1.905760   -0.703370
      3         11           0       -1.498672    2.237698    0.269971
      4         11           0        2.951583   -1.374373   -0.174588
      5         11           0       -0.885825   -1.874442    0.552749
      6         11           0        0.042117   -0.657234   -1.765905
      7         11           0       -3.808761   -0.367936   -0.269162
 ---------------------------------------------------------------------

 SCF Done:  E(UB3LYP) =  -1136.12389022     A.U. after   24 cycles

 The electronic state is 2-A.
 Alpha  occ. eigenvalues --  -38.45107 -38.44393 -38.44255 -38.43809 -38.43419
 Alpha  occ. eigenvalues --  -38.43165 -38.43085  -2.20893  -2.20251  -2.20207
 Alpha  occ. eigenvalues --   -2.19740  -2.19268  -2.19131  -2.18891  -1.14568
 Alpha  occ. eigenvalues --   -1.14546  -1.14529  -1.14023  -1.13934  -1.13924
 Alpha  occ. eigenvalues --   -1.13883  -1.13826  -1.13775  -1.13443  -1.13365
 Alpha  occ. eigenvalues --   -1.13334  -1.12945  -1.12929  -1.12895  -1.12854
 Alpha  occ. eigenvalues --   -1.12795  -1.12680  -1.12576  -1.12573  -1.12513
 Alpha  occ. eigenvalues --   -0.18799  -0.13686  -0.11401  -0.11273
 Alpha virt. eigenvalues --   -0.06736  -0.05075  -0.03806  -0.03275  -0.02920
 Alpha virt. eigenvalues --   -0.02624  -0.02365  -0.01024  -0.00415  -0.00089
 Alpha virt. eigenvalues --    0.00198   0.00243   0.00450   0.00753   0.00874

  Beta  occ. eigenvalues --  -38.45110 -38.44385 -38.44198 -38.43711 -38.43401
  Beta  occ. eigenvalues --  -38.43144 -38.43083  -2.20898  -2.20240  -2.20102
  Beta  occ. eigenvalues --   -2.19561  -2.19237  -2.19098  -2.18888  -1.14569
  Beta  occ. eigenvalues --   -1.14551  -1.14531  -1.13953  -1.13919  -1.13897
  Beta  occ. eigenvalues --   -1.13869  -1.13753  -1.13702  -1.13319  -1.13246
  Beta  occ. eigenvalues --   -1.13202  -1.12916  -1.12908  -1.12864  -1.12829
  Beta  occ. eigenvalues --   -1.12733  -1.12660  -1.12573  -1.12557  -1.12515
  Beta  occ. eigenvalues --   -0.18020  -0.13498  -0.11139
  Beta virt. eigenvalues --   -0.07277  -0.06597  -0.05078  -0.03414  -0.02957
  Beta virt. eigenvalues --   -0.02330  -0.01963  -0.01718  -0.00991  -0.00222
  Beta virt. eigenvalues --   -0.00011   0.00184   0.00268   0.00671   0.00801

 Mulliken charges and spin densities:
               1          2
     1  Na   0.107269   0.562490
     2  Na  -0.290959   0.027799
     3  Na  -0.401244  -0.057282
     4  Na   0.459568  -0.043592
     5  Na   0.158198   0.005746
     6  Na  -0.231754   0.569967
     7  Na   0.198921  -0.065128
 Sum of Mulliken charges =  -0.00000   1.00000

 Dipole moment (field-independent basis, Debye):
    X=             -0.2899    Y=             -0.2617    Z=             -0.1642  Tot=              0.4236
 Quadrupole moment (field-independent basis, Debye-Ang):
   XX=            -46.9469   YY=            -75.1059   ZZ=            -70.6527
   XY=             -0.7382   XZ=              0.2376   YZ=             -0.9594

 Normal termination of Gaussian 16 at Tue Dec  5 17:12:36 2023.
