 Gaussian 16, Revision B.01,
 Gaussian 16:  ES64L-G16RevB.01 20-Dec-2017

 -------------------------
 #P B3LYP/6-311+g(d) force
 -------------------------

 -----
 DPGEN
 -----
 Symbolic Z-matrix:
 Charge =  0 Multiplicity = 2

                         Standard orientation:
 ---------------------------------------------------------------------
 Center     Atomic      Atomic             Coordinates (Angstroms)
 Number     Number       Type             X           Y           Z
 ---------------------------------------------------------------------
      1         11           0       -0.600217    1.691637    1.138576
      2         11           0        1.564288    3.406568   -0.675857
      3         11           0        3.336458    0.512430   -0.005001
      4         11           0        0.413116   -1.402783   -0.025126
      5         11           0       -3.056269   -1.119419    0.691107
      6         11           0        4.391987   -2.638355   -0.279443
      7         11           0       -6.049363   -0.450077   -0.844256
 ---------------------------------------------------------------------

 SCF Done:  E(UB3LYP) =  -1136.12337335     A.U. after   20 cycles

 The electronic state is 2-A.
 Alpha  occ. eigenvalues --  -38.44721 -38.44679 -38.44515 -38.43998 -38.43951
 Alpha  occ. eigenvalues --  -38.43561 -38.43424  -2.20521  -2.20508  -2.20340
 Alpha  occ. eigenvalues --   -2.19801  -2.19775  -2.19388  -2.19231  -1.14210
 Alpha  occ. eigenvalues --   -1.14193  -1.14152  -1.14151  -1.14136  -1.14090
 Alpha  occ. eigenvalues --   -1.14033  -1.14017  -1.13945  -1.13499  -1.13498
 Alpha  occ. eigenvalues --   -1.13466  -1.13441  -1.13417  -1.13352  -1.13050
 Alpha  occ. eigenvalues --   -1.13041  -1.13018  -1.12924  -1.12913  -1.12876
 Alpha  occ. eigenvalues --   -0.16844  -0.13914  -0.12267  -0.11411
 Alpha virt. eigenvalues --   -0.06026  -0.05256  -0.04952  -0.03736  -0.02549
 Alpha virt. eigenvalues --   -0.02343  -0.02056  -0.01737  -0.01422  -0.00766
 Alpha virt. eigenvalues --   -0.00434  -0.00049   0.00123   0.00406   0.00591

  Beta  occ. eigenvalues --  -38.44631 -38.44606 -38.44505 -38.43993 -38.43935
  Beta  occ. eigenvalues --  -38.43537 -38.43426  -2.20422  -2.20324  -2.20306
  Beta  occ. eigenvalues --   -2.19771  -2.19766  -2.19343  -2.19245  -1.14156
  Beta  occ. eigenvalues --   -1.14137  -1.14027  -1.14024  -1.14006  -1.14005
  Beta  occ. eigenvalues --   -1.13994  -1.13993  -1.13922  -1.13480  -1.13475
  Beta  occ. eigenvalues --   -1.13453  -1.13435  -1.13409  -1.13334  -1.13016
  Beta  occ. eigenvalues --   -1.13010  -1.12991  -1.12943  -1.12930  -1.12820
  Beta  occ. eigenvalues --   -0.16332  -0.13086  -0.12037
  Beta virt. eigenvalues --   -0.07882  -0.05884  -0.04889  -0.04556  -0.03535
  Beta virt. eigenvalues --   -0.02330  -0.01941  -0.01679  -0.01598  -0.01116
  Beta virt. eigenvalues --   -0.00335  -0.00258   0.00092   0.00268   0.00521

 Mulliken charges and spin densities:
               1          2
     1  Na  -0.270841  -0.015948
     2  Na   0.349563   0.108780
     3  Na  -0.292676   0.199107
     4  Na  -0.898893   0.196313
     5  Na  -0.081625  -0.087668
     6  Na   0.923719   0.032880
     7  Na   0.270754   0.566537
 Sum of Mulliken charges =  -0.00000   1.00000

 Dipole moment (field-independent basis, Debye):
    X=              0.3191    Y=              0.1831    Z=             -0.1996  Tot=              0.4186
 Quadrupole moment (field-independent basis, Debye-Ang):
   XX=            -62.9285   YY=            -64.6007   ZZ=            -69.6056
   XY=             -5.2176   XZ=              0.4072   YZ=             -0.1038

 Normal termination of Gaussian 16 at Wed Nov 29 00:58:25 2023.
