 Gaussian 16, Revision B.01,
 Gaussian 16:  ES64L-G16RevB.01 20-Dec-2017

 -------------------------
 #P B3LYP/6-311+g(d) force
 -------------------------

 -----
 DPGEN
 -----
 Symbolic Z-matrix:
 Charge =  0 Multiplicity = 2

                         Standard orientation:
 ---------------------------------------------------------------------
 Center     Atomic      Atomic             Coordinates (Angstroms)
 Number     Number       Type             X           Y           Z
 ---------------------------------------------------------------------
      1         11           0        0.503494    2.555639   -0.572347
      2         11           0       -2.909607    1.427997    0.815427
      3         11           0       -0.357594    0.031811   -1.619362
      4         11           0        3.374553    0.624037    0.608361
      5         11           0        0.267481   -1.072713    1.821747
      6         11           0       -2.714821   -1.672259   -0.324475
      7         11           0        1.836495   -1.894512   -0.729350
 ---------------------------------------------------------------------

 SCF Done:  E(UB3LYP) =  -1136.12167115     A.U. after   20 cycles

 The electronic state is 2-A.
 Alpha  occ. eigenvalues --  -38.44790 -38.44429 -38.44218 -38.44162 -38.43720
 Alpha  occ. eigenvalues --  -38.43268 -38.42755  -2.20607  -2.20238  -2.20064
 Alpha  occ. eigenvalues --   -2.20029  -2.19651  -2.19318  -2.18621  -1.14292
 Alpha  occ. eigenvalues --   -1.14256  -1.14236  -1.13917  -1.13901  -1.13865
 Alpha  occ. eigenvalues --   -1.13767  -1.13746  -1.13708  -1.13690  -1.13687
 Alpha  occ. eigenvalues --   -1.13629  -1.13384  -1.13296  -1.13261  -1.13059
 Alpha  occ. eigenvalues --   -1.12947  -1.12921  -1.12331  -1.12260  -1.12210
 Alpha  occ. eigenvalues --   -0.18633  -0.13771  -0.11638  -0.10947
 Alpha virt. eigenvalues --   -0.06406  -0.05513  -0.03827  -0.03586  -0.02736
 Alpha virt. eigenvalues --   -0.02540  -0.02106  -0.01121  -0.00332  -0.00100
 Alpha virt. eigenvalues --    0.00095   0.00297   0.00553   0.00685   0.00743

  Beta  occ. eigenvalues --  -38.44774 -38.44405 -38.44215 -38.44118 -38.43700
  Beta  occ. eigenvalues --  -38.43184 -38.42747  -2.20578  -2.20194  -2.20062
  Beta  occ. eigenvalues --   -2.19947  -2.19620  -2.19168  -2.18610  -1.14271
  Beta  occ. eigenvalues --   -1.14233  -1.14211  -1.13891  -1.13867  -1.13833
  Beta  occ. eigenvalues --   -1.13754  -1.13705  -1.13688  -1.13679  -1.13631
  Beta  occ. eigenvalues --   -1.13567  -1.13345  -1.13260  -1.13232  -1.12953
  Beta  occ. eigenvalues --   -1.12850  -1.12814  -1.12305  -1.12241  -1.12207
  Beta  occ. eigenvalues --   -0.17937  -0.13485  -0.11422
  Beta virt. eigenvalues --   -0.07187  -0.06212  -0.05325  -0.03621  -0.03134
  Beta virt. eigenvalues --   -0.02120  -0.01963  -0.01575  -0.00985  -0.00276
  Beta virt. eigenvalues --   -0.00005   0.00142   0.00346   0.00715   0.00749

 Mulliken charges and spin densities:
               1          2
     1  Na   0.196981   0.194684
     2  Na  -0.318688   0.190649
     3  Na  -0.140547  -0.076086
     4  Na  -0.300537   0.063752
     5  Na  -0.495355   0.341241
     6  Na   0.369719   0.087645
     7  Na   0.688427   0.198114
 Sum of Mulliken charges =  -0.00000   1.00000

 Dipole moment (field-independent basis, Debye):
    X=             -0.0303    Y=             -0.2979    Z=              0.6594  Tot=              0.7243
 Quadrupole moment (field-independent basis, Debye-Ang):
   XX=            -51.0859   YY=            -70.9575   ZZ=            -71.7467
   XY=              0.8091   XZ=             -0.5271   YZ=              3.6800

 Normal termination of Gaussian 16 at Tue Dec  5 10:42:21 2023.
