 Gaussian 16, Revision B.01,
 Gaussian 16:  ES64L-G16RevB.01 20-Dec-2017

 -------------------------
 #P B3LYP/6-311+g(d) force
 -------------------------

 -----
 DPGEN
 -----
 Symbolic Z-matrix:
 Charge =  0 Multiplicity = 2

                         Standard orientation:
 ---------------------------------------------------------------------
 Center     Atomic      Atomic             Coordinates (Angstroms)
 Number     Number       Type             X           Y           Z
 ---------------------------------------------------------------------
      1         11           0       -3.590292    1.092726   -0.757251
      2         11           0       -0.660633    0.087708    1.481321
      3         11           0       -0.103966    2.643068   -1.037951
      4         11           0        2.698462    2.174851    0.869336
      5         11           0        3.736592   -1.445394   -0.313910
      6         11           0        0.643840   -2.557792   -1.092372
      7         11           0       -2.724005   -1.995166    0.850827
 ---------------------------------------------------------------------

 SCF Done:  E(UB3LYP) =  -1136.11960740     A.U. after   21 cycles

 The electronic state is 2-A.
 Alpha  occ. eigenvalues --  -38.44340 -38.44295 -38.44175 -38.44153 -38.44144
 Alpha  occ. eigenvalues --  -38.44141 -38.44139  -2.20218  -2.20100  -2.20006
 Alpha  occ. eigenvalues --   -2.19966  -2.19942  -2.19915  -2.19912  -1.13949
 Alpha  occ. eigenvalues --   -1.13896  -1.13859  -1.13765  -1.13739  -1.13728
 Alpha  occ. eigenvalues --   -1.13657  -1.13650  -1.13641  -1.13628  -1.13626
 Alpha  occ. eigenvalues --   -1.13618  -1.13609  -1.13601  -1.13596  -1.13586
 Alpha  occ. eigenvalues --   -1.13583  -1.13567  -1.13553  -1.13549  -1.13509
 Alpha  occ. eigenvalues --   -0.17126  -0.13515  -0.12557  -0.10306
 Alpha virt. eigenvalues --   -0.06813  -0.05790  -0.04306  -0.03691  -0.03133
 Alpha virt. eigenvalues --   -0.02310  -0.01959  -0.01464  -0.00971  -0.00521
 Alpha virt. eigenvalues --   -0.00242   0.00020   0.00181   0.00497   0.00633

  Beta  occ. eigenvalues --  -38.44299 -38.44230 -38.44168 -38.44130 -38.44128
  Beta  occ. eigenvalues --  -38.44118 -38.44116  -2.20143  -2.19981  -2.19956
  Beta  occ. eigenvalues --   -2.19955  -2.19900  -2.19896  -2.19873  -1.13892
  Beta  occ. eigenvalues --   -1.13839  -1.13808  -1.13684  -1.13657  -1.13650
  Beta  occ. eigenvalues --   -1.13648  -1.13635  -1.13606  -1.13599  -1.13593
  Beta  occ. eigenvalues --   -1.13590  -1.13585  -1.13581  -1.13567  -1.13559
  Beta  occ. eigenvalues --   -1.13554  -1.13542  -1.13524  -1.13517  -1.13481
  Beta  occ. eigenvalues --   -0.16659  -0.13165  -0.11965
  Beta virt. eigenvalues --   -0.06976  -0.06751  -0.05605  -0.03776  -0.03438
  Beta virt. eigenvalues --   -0.02585  -0.02168  -0.01680  -0.01124  -0.00716
  Beta virt. eigenvalues --   -0.00230  -0.00181   0.00218   0.00290   0.00532

 Mulliken charges and spin densities:
               1          2
     1  Na  -0.205024   0.346426
     2  Na  -0.950949   0.221605
     3  Na  -0.196147   0.066123
     4  Na   0.646784   0.098553
     5  Na  -0.119234   0.074295
     6  Na  -0.162372   0.091024
     7  Na   0.986941   0.101974
 Sum of Mulliken charges =  -0.00000   1.00000

 Dipole moment (field-independent basis, Debye):
    X=             -0.1781    Y=             -0.0271    Z=              0.1620  Tot=              0.2423
 Quadrupole moment (field-independent basis, Debye-Ang):
   XX=            -55.7879   YY=            -71.6433   ZZ=            -71.5494
   XY=              8.3415   XZ=              2.1607   YZ=              0.1175

 Normal termination of Gaussian 16 at Sun Dec  3 17:13:22 2023.
