 Gaussian 16, Revision B.01,
 Gaussian 16:  ES64L-G16RevB.01 20-Dec-2017

 -------------------------
 #P B3LYP/6-311+g(d) force
 -------------------------

 -----
 DPGEN
 -----
 Symbolic Z-matrix:
 Charge =  0 Multiplicity = 2

                         Standard orientation:
 ---------------------------------------------------------------------
 Center     Atomic      Atomic             Coordinates (Angstroms)
 Number     Number       Type             X           Y           Z
 ---------------------------------------------------------------------
      1         11           0        0.178581    0.182507    2.093056
      2         11           0        2.327234   -2.256542   -0.402705
      3         11           0       -1.227918   -2.584821    0.213984
      4         11           0        0.052604   -0.031423   -1.528377
      5         11           0       -3.309770    0.084249   -0.132640
      6         11           0       -0.932301    2.883895   -0.305941
      7         11           0        2.911569    1.722136    0.062622
 ---------------------------------------------------------------------

 SCF Done:  E(UB3LYP) =  -1136.13626279     A.U. after   19 cycles

 The electronic state is 2-A.
 Alpha  occ. eigenvalues --  -38.44434 -38.44038 -38.43866 -38.43722 -38.43602
 Alpha  occ. eigenvalues --  -38.43340 -38.43112  -2.20200  -2.19848  -2.19671
 Alpha  occ. eigenvalues --   -2.19539  -2.19462  -2.19201  -2.19074  -1.13879
 Alpha  occ. eigenvalues --   -1.13853  -1.13841  -1.13521  -1.13510  -1.13493
 Alpha  occ. eigenvalues --   -1.13355  -1.13324  -1.13305  -1.13238  -1.13206
 Alpha  occ. eigenvalues --   -1.13156  -1.13132  -1.13088  -1.13075  -1.12901
 Alpha  occ. eigenvalues --   -1.12867  -1.12826  -1.12764  -1.12708  -1.12691
 Alpha  occ. eigenvalues --   -0.18227  -0.12740  -0.12443  -0.10495
 Alpha virt. eigenvalues --   -0.05923  -0.05373  -0.04730  -0.02994  -0.02828
 Alpha virt. eigenvalues --   -0.02435  -0.01728  -0.01388  -0.00626  -0.00466
 Alpha virt. eigenvalues --   -0.00024   0.00321   0.00730   0.00801   0.00865

  Beta  occ. eigenvalues --  -38.44433 -38.44037 -38.43856 -38.43714 -38.43503
  Beta  occ. eigenvalues --  -38.43333 -38.43058  -2.20201  -2.19849  -2.19655
  Beta  occ. eigenvalues --   -2.19527  -2.19279  -2.19191  -2.18977  -1.13862
  Beta  occ. eigenvalues --   -1.13855  -1.13844  -1.13521  -1.13500  -1.13491
  Beta  occ. eigenvalues --   -1.13334  -1.13308  -1.13298  -1.13223  -1.13186
  Beta  occ. eigenvalues --   -1.13147  -1.13010  -1.12963  -1.12942  -1.12891
  Beta  occ. eigenvalues --   -1.12838  -1.12818  -1.12694  -1.12639  -1.12620
  Beta  occ. eigenvalues --   -0.17527  -0.12533  -0.12198
  Beta virt. eigenvalues --   -0.06625  -0.05892  -0.05314  -0.04684  -0.02275
  Beta virt. eigenvalues --   -0.02100  -0.01652  -0.01384  -0.01293  -0.00672
  Beta virt. eigenvalues --   -0.00494   0.00125   0.00355   0.00760   0.00833

 Mulliken charges and spin densities:
               1          2
     1  Na  -0.404796   0.756766
     2  Na   0.140195  -0.009541
     3  Na   0.233457   0.054762
     4  Na  -0.227980   0.378715
     5  Na   0.074066  -0.035576
     6  Na   0.137605  -0.064260
     7  Na   0.047453  -0.080865
 Sum of Mulliken charges =  -0.00000   1.00000

 Dipole moment (field-independent basis, Debye):
    X=              0.2445    Y=              0.2309    Z=              0.0998  Tot=              0.3508
 Quadrupole moment (field-independent basis, Debye-Ang):
   XX=            -54.4588   YY=            -61.6429   ZZ=            -76.0081
   XY=              0.2165   XZ=             -0.3256   YZ=             -0.3897

 Normal termination of Gaussian 16 at Thu Dec  7 06:27:49 2023.
