 Gaussian 16, Revision B.01,
 Gaussian 16:  ES64L-G16RevB.01 20-Dec-2017

 -------------------------
 #P B3LYP/6-311+g(d) force
 -------------------------

 -----
 DPGEN
 -----
 Symbolic Z-matrix:
 Charge =  0 Multiplicity = 2

                         Standard orientation:
 ---------------------------------------------------------------------
 Center     Atomic      Atomic             Coordinates (Angstroms)
 Number     Number       Type             X           Y           Z
 ---------------------------------------------------------------------
      1         11           0        3.505275    0.394093   -1.052285
      2         11           0       -2.384443   -2.095540   -0.844913
      3         11           0       -2.152464    2.713170   -0.559756
      4         11           0        1.278837    1.134134    1.928051
      5         11           0        0.251076    0.588425   -1.085143
      6         11           0        1.256670   -2.302661    0.368044
      7         11           0       -1.754952   -0.431621    1.246002
 ---------------------------------------------------------------------

 SCF Done:  E(UB3LYP) =  -1136.12482751     A.U. after   20 cycles

 The electronic state is 2-A.
 Alpha  occ. eigenvalues --  -38.44253 -38.43984 -38.43954 -38.43953 -38.43493
 Alpha  occ. eigenvalues --  -38.43412 -38.42863  -2.20074  -2.19859  -2.19834
 Alpha  occ. eigenvalues --   -2.19781  -2.19498  -2.19215  -2.18895  -1.13755
 Alpha  occ. eigenvalues --   -1.13746  -1.13719  -1.13693  -1.13557  -1.13497
 Alpha  occ. eigenvalues --   -1.13488  -1.13467  -1.13461  -1.13451  -1.13417
 Alpha  occ. eigenvalues --   -1.13373  -1.13183  -1.13114  -1.13046  -1.12907
 Alpha  occ. eigenvalues --   -1.12859  -1.12851  -1.12617  -1.12540  -1.12504
 Alpha  occ. eigenvalues --   -0.18624  -0.13305  -0.11759  -0.11020
 Alpha virt. eigenvalues --   -0.05890  -0.05190  -0.04393  -0.03263  -0.02639
 Alpha virt. eigenvalues --   -0.02270  -0.01777  -0.01226  -0.00770   0.00061
 Alpha virt. eigenvalues --    0.00217   0.00275   0.00548   0.00707   0.00786

  Beta  occ. eigenvalues --  -38.44221 -38.43946 -38.43943 -38.43908 -38.43466
  Beta  occ. eigenvalues --  -38.43405 -38.42833  -2.20016  -2.19814  -2.19771
  Beta  occ. eigenvalues --   -2.19720  -2.19455  -2.19203  -2.18843  -1.13726
  Beta  occ. eigenvalues --   -1.13707  -1.13677  -1.13657  -1.13489  -1.13459
  Beta  occ. eigenvalues --   -1.13443  -1.13428  -1.13403  -1.13382  -1.13373
  Beta  occ. eigenvalues --   -1.13360  -1.13156  -1.13051  -1.13025  -1.12893
  Beta  occ. eigenvalues --   -1.12851  -1.12842  -1.12557  -1.12503  -1.12466
  Beta  occ. eigenvalues --   -0.17890  -0.13037  -0.11594
  Beta virt. eigenvalues --   -0.07105  -0.05725  -0.05064  -0.03988  -0.02962
  Beta virt. eigenvalues --   -0.02075  -0.01693  -0.01382  -0.01165  -0.00360
  Beta virt. eigenvalues --    0.00102   0.00265   0.00339   0.00613   0.00811

 Mulliken charges and spin densities:
               1          2
     1  Na   0.646725   0.080951
     2  Na   0.229280   0.026491
     3  Na   0.020131   0.066251
     4  Na  -0.023548   0.304883
     5  Na  -1.135399   0.283160
     6  Na  -0.085520   0.072501
     7  Na   0.348331   0.165764
 Sum of Mulliken charges =  -0.00000   1.00000

 Dipole moment (field-independent basis, Debye):
    X=              0.6503    Y=             -0.1249    Z=              0.0690  Tot=              0.6657
 Quadrupole moment (field-independent basis, Debye-Ang):
   XX=            -55.3389   YY=            -67.0449   ZZ=            -69.3371
   XY=             -0.0850   XZ=              1.0568   YZ=              1.3573

 Normal termination of Gaussian 16 at Tue Dec  5 16:40:13 2023.
