 Gaussian 16, Revision B.01,
 Gaussian 16:  ES64L-G16RevB.01 20-Dec-2017

 -------------------------
 #P B3LYP/6-311+g(d) force
 -------------------------

 -----
 DPGEN
 -----
 Symbolic Z-matrix:
 Charge =  0 Multiplicity = 2

                         Standard orientation:
 ---------------------------------------------------------------------
 Center     Atomic      Atomic             Coordinates (Angstroms)
 Number     Number       Type             X           Y           Z
 ---------------------------------------------------------------------
      1         11           0       -0.299677    0.208195    1.883828
      2         11           0        1.438655   -2.517290    0.276754
      3         11           0       -2.511540   -1.724862    0.047908
      4         11           0       -2.411934    1.603647   -0.225312
      5         11           0        0.992619    2.755708    0.002691
      6         11           0       -0.283872   -0.442076   -1.740862
      7         11           0        3.075749    0.116678   -0.245007
 ---------------------------------------------------------------------

 SCF Done:  E(UB3LYP) =  -1136.13753369     A.U. after   19 cycles

 The electronic state is 2-A.
 Alpha  occ. eigenvalues --  -38.43940 -38.43859 -38.43782 -38.43440 -38.43324
 Alpha  occ. eigenvalues --  -38.43321 -38.43159  -2.19796  -2.19741  -2.19678
 Alpha  occ. eigenvalues --   -2.19308  -2.19293  -2.19269  -2.19006  -1.13483
 Alpha  occ. eigenvalues --   -1.13462  -1.13458  -1.13445  -1.13413  -1.13383
 Alpha  occ. eigenvalues --   -1.13358  -1.13351  -1.13282  -1.13010  -1.12975
 Alpha  occ. eigenvalues --   -1.12962  -1.12943  -1.12934  -1.12915  -1.12896
 Alpha  occ. eigenvalues --   -1.12894  -1.12888  -1.12678  -1.12668  -1.12647
 Alpha  occ. eigenvalues --   -0.18958  -0.13387  -0.12388  -0.10781
 Alpha virt. eigenvalues --   -0.05533  -0.05383  -0.04503  -0.03336  -0.02858
 Alpha virt. eigenvalues --   -0.02468  -0.01456  -0.01077  -0.00318  -0.00199
 Alpha virt. eigenvalues --    0.00003   0.00368   0.00817   0.00883   0.00920

  Beta  occ. eigenvalues --  -38.43937 -38.43852 -38.43772 -38.43434 -38.43250
  Beta  occ. eigenvalues --  -38.43237 -38.43157  -2.19793  -2.19732  -2.19664
  Beta  occ. eigenvalues --   -2.19299  -2.19164  -2.19110  -2.19005  -1.13484
  Beta  occ. eigenvalues --   -1.13453  -1.13451  -1.13433  -1.13395  -1.13360
  Beta  occ. eigenvalues --   -1.13349  -1.13309  -1.13277  -1.12990  -1.12950
  Beta  occ. eigenvalues --   -1.12932  -1.12881  -1.12834  -1.12824  -1.12809
  Beta  occ. eigenvalues --   -1.12784  -1.12776  -1.12672  -1.12651  -1.12644
  Beta  occ. eigenvalues --   -0.18216  -0.13141  -0.12155
  Beta virt. eigenvalues --   -0.06854  -0.05476  -0.05376  -0.04473  -0.02525
  Beta virt. eigenvalues --   -0.02091  -0.01425  -0.01368  -0.01013  -0.00354
  Beta virt. eigenvalues --   -0.00249   0.00139   0.00396   0.00881   0.00885

 Mulliken charges and spin densities:
               1          2
     1  Na  -0.381251   0.734508
     2  Na   0.134553  -0.057522
     3  Na   0.363764  -0.065551
     4  Na   0.221284  -0.052795
     5  Na   0.010966  -0.084719
     6  Na  -0.303912   0.571207
     7  Na  -0.045404  -0.045128
 Sum of Mulliken charges =  -0.00000   1.00000

 Dipole moment (field-independent basis, Debye):
    X=             -0.1863    Y=             -0.1165    Z=              0.0201  Tot=              0.2206
 Quadrupole moment (field-independent basis, Debye-Ang):
   XX=            -56.5282   YY=            -63.4520   ZZ=            -74.1006
   XY=              0.4312   XZ=             -0.2146   YZ=             -1.5641

 Normal termination of Gaussian 16 at Thu Dec  7 12:41:28 2023.
