 Gaussian 16, Revision B.01,
 Gaussian 16:  ES64L-G16RevB.01 20-Dec-2017

 -------------------------
 #P B3LYP/6-311+g(d) force
 -------------------------

 -----
 DPGEN
 -----
 Symbolic Z-matrix:
 Charge =  0 Multiplicity = 2

                         Standard orientation:
 ---------------------------------------------------------------------
 Center     Atomic      Atomic             Coordinates (Angstroms)
 Number     Number       Type             X           Y           Z
 ---------------------------------------------------------------------
      1         11           0        1.017290   -1.342987   -1.383989
      2         11           0        1.974756    1.602313   -0.293361
      3         11           0       -1.839694    0.574809   -1.076823
      4         11           0       -3.160953   -2.232992    0.173862
      5         11           0        3.368642   -1.395630    0.452847
      6         11           0       -1.003906    3.245418    0.327330
      7         11           0       -0.356136   -0.450932    1.800134
 ---------------------------------------------------------------------

 SCF Done:  E(UB3LYP) =  -1136.12840393     A.U. after   21 cycles

 The electronic state is 2-A.
 Alpha  occ. eigenvalues --  -38.44393 -38.44105 -38.44061 -38.43762 -38.43671
 Alpha  occ. eigenvalues --  -38.43310 -38.43170  -2.20254  -2.19937  -2.19888
 Alpha  occ. eigenvalues --   -2.19630  -2.19615  -2.19149  -2.19114  -1.13979
 Alpha  occ. eigenvalues --   -1.13906  -1.13882  -1.13652  -1.13618  -1.13569
 Alpha  occ. eigenvalues --   -1.13549  -1.13540  -1.13522  -1.13339  -1.13294
 Alpha  occ. eigenvalues --   -1.13272  -1.13253  -1.13230  -1.13212  -1.12900
 Alpha  occ. eigenvalues --   -1.12815  -1.12795  -1.12786  -1.12760  -1.12682
 Alpha  occ. eigenvalues --   -0.18473  -0.13537  -0.12164  -0.10380
 Alpha virt. eigenvalues --   -0.06136  -0.05630  -0.04351  -0.03411  -0.02570
 Alpha virt. eigenvalues --   -0.02280  -0.01910  -0.01504  -0.00536  -0.00224
 Alpha virt. eigenvalues --    0.00163   0.00275   0.00663   0.00695   0.00808

  Beta  occ. eigenvalues --  -38.44389 -38.44110 -38.44050 -38.43687 -38.43619
  Beta  occ. eigenvalues --  -38.43310 -38.43139  -2.20249  -2.19921  -2.19897
  Beta  occ. eigenvalues --   -2.19523  -2.19491  -2.19151  -2.19060  -1.13972
  Beta  occ. eigenvalues --   -1.13905  -1.13863  -1.13638  -1.13577  -1.13576
  Beta  occ. eigenvalues --   -1.13545  -1.13535  -1.13529  -1.13256  -1.13220
  Beta  occ. eigenvalues --   -1.13181  -1.13163  -1.13149  -1.13127  -1.12889
  Beta  occ. eigenvalues --   -1.12796  -1.12784  -1.12768  -1.12705  -1.12655
  Beta  occ. eigenvalues --   -0.17733  -0.13384  -0.12016
  Beta virt. eigenvalues --   -0.06481  -0.05962  -0.05593  -0.04204  -0.02790
  Beta virt. eigenvalues --   -0.02015  -0.01894  -0.01468  -0.01212  -0.00481
  Beta virt. eigenvalues --   -0.00038   0.00213   0.00342   0.00705   0.00744

 Mulliken charges and spin densities:
               1          2
     1  Na  -0.066652   0.086826
     2  Na  -0.197149   0.143439
     3  Na   0.018199   0.243478
     4  Na   0.024280  -0.130115
     5  Na   0.465597   0.081826
     6  Na   0.402850  -0.113447
     7  Na  -0.647125   0.687992
 Sum of Mulliken charges =  -0.00000   1.00000

 Dipole moment (field-independent basis, Debye):
    X=              0.4808    Y=             -0.4169    Z=              0.2970  Tot=              0.7023
 Quadrupole moment (field-independent basis, Debye-Ang):
   XX=            -53.8961   YY=            -62.7672   ZZ=            -75.0739
   XY=             -0.1045   XZ=              1.4341   YZ=             -0.0076

 Normal termination of Gaussian 16 at Tue Dec  5 21:41:13 2023.
