 Gaussian 16, Revision B.01,
 Gaussian 16:  ES64L-G16RevB.01 20-Dec-2017

 -------------------------
 #P B3LYP/6-311+g(d) force
 -------------------------

 -----
 DPGEN
 -----
 Symbolic Z-matrix:
 Charge =  0 Multiplicity = 2

                         Standard orientation:
 ---------------------------------------------------------------------
 Center     Atomic      Atomic             Coordinates (Angstroms)
 Number     Number       Type             X           Y           Z
 ---------------------------------------------------------------------
      1         11           0       -1.631256    0.046268    2.051140
      2         11           0       -1.094232   -2.432010   -0.752417
      3         11           0        0.121978    0.588165   -0.826633
      4         11           0        2.340237   -2.228525   -0.946123
      5         11           0        1.480053    3.367217   -0.859998
      6         11           0       -3.143239    0.728869   -0.698362
      7         11           0        1.926458   -0.069985    2.032394
 ---------------------------------------------------------------------

 SCF Done:  E(UB3LYP) =  -1136.12544069     A.U. after   25 cycles

 The electronic state is 2-A.
 Alpha  occ. eigenvalues --  -38.44428 -38.44297 -38.44143 -38.43718 -38.43649
 Alpha  occ. eigenvalues --  -38.43598 -38.42474  -2.20249  -2.20184  -2.19993
 Alpha  occ. eigenvalues --   -2.19565  -2.19447  -2.19407  -2.18521  -1.13938
 Alpha  occ. eigenvalues --   -1.13883  -1.13866  -1.13857  -1.13841  -1.13805
 Alpha  occ. eigenvalues --   -1.13673  -1.13639  -1.13602  -1.13280  -1.13241
 Alpha  occ. eigenvalues --   -1.13164  -1.13142  -1.13083  -1.13081  -1.13067
 Alpha  occ. eigenvalues --   -1.13054  -1.13041  -1.12230  -1.12172  -1.12155
 Alpha  occ. eigenvalues --   -0.18218  -0.12767  -0.11913  -0.11622
 Alpha virt. eigenvalues --   -0.05687  -0.05093  -0.04678  -0.03351  -0.02837
 Alpha virt. eigenvalues --   -0.02615  -0.01522  -0.01207  -0.00737   0.00027
 Alpha virt. eigenvalues --    0.00166   0.00282   0.00595   0.00655   0.00803

  Beta  occ. eigenvalues --  -38.44367 -38.44229 -38.44136 -38.43708 -38.43616
  Beta  occ. eigenvalues --  -38.43594 -38.42446  -2.20139  -2.20061  -2.19982
  Beta  occ. eigenvalues --   -2.19549  -2.19400  -2.19387  -2.18474  -1.13856
  Beta  occ. eigenvalues --   -1.13798  -1.13794  -1.13785  -1.13755  -1.13721
  Beta  occ. eigenvalues --   -1.13657  -1.13618  -1.13588  -1.13266  -1.13222
  Beta  occ. eigenvalues --   -1.13155  -1.13095  -1.13071  -1.13049  -1.13044
  Beta  occ. eigenvalues --   -1.13036  -1.13029  -1.12169  -1.12141  -1.12124
  Beta  occ. eigenvalues --   -0.17535  -0.12649  -0.11482
  Beta virt. eigenvalues --   -0.07735  -0.05562  -0.04786  -0.04269  -0.02952
  Beta virt. eigenvalues --   -0.02395  -0.01885  -0.01500  -0.01035  -0.00322
  Beta virt. eigenvalues --    0.00114   0.00245   0.00321   0.00647   0.00741

 Mulliken charges and spin densities:
               1          2
     1  Na  -0.385109   0.396155
     2  Na   1.582088  -0.108327
     3  Na  -1.805664  -0.085309
     4  Na  -0.196544   0.099923
     5  Na   0.051145   0.379898
     6  Na   0.512807   0.078533
     7  Na   0.241277   0.239128
 Sum of Mulliken charges =  -0.00000   1.00000

 Dipole moment (field-independent basis, Debye):
    X=             -0.4443    Y=             -0.2965    Z=              0.4064  Tot=              0.6711
 Quadrupole moment (field-independent basis, Debye-Ang):
   XX=            -57.7714   YY=            -67.2872   ZZ=            -67.5876
   XY=             -1.6232   XZ=              1.8278   YZ=             -0.6144

 Normal termination of Gaussian 16 at Wed Nov 29 03:43:56 2023.
