 Gaussian 16, Revision B.01,
 Gaussian 16:  ES64L-G16RevB.01 20-Dec-2017

 -------------------------
 #P B3LYP/6-311+g(d) force
 -------------------------

 -----
 DPGEN
 -----
 Symbolic Z-matrix:
 Charge =  0 Multiplicity = 2

                         Standard orientation:
 ---------------------------------------------------------------------
 Center     Atomic      Atomic             Coordinates (Angstroms)
 Number     Number       Type             X           Y           Z
 ---------------------------------------------------------------------
      1         11           0        3.597918   -1.755097    0.229966
      2         11           0        0.914348    0.222334    2.164694
      3         11           0       -0.342011    2.318388   -0.808181
      4         11           0       -3.817315   -1.277220   -0.886210
      5         11           0       -0.189122   -1.251166   -1.019773
      6         11           0        2.602922    1.231719   -1.075469
      7         11           0       -2.766739    0.511043    1.394975
 ---------------------------------------------------------------------

 SCF Done:  E(UB3LYP) =  -1136.12295636     A.U. after   24 cycles

 The electronic state is 2-A.
 Alpha  occ. eigenvalues --  -38.45167 -38.44591 -38.44567 -38.44241 -38.44006
 Alpha  occ. eigenvalues --  -38.43469 -38.42425  -2.20981  -2.20440  -2.20403
 Alpha  occ. eigenvalues --   -2.20125  -2.19833  -2.19264  -2.18298  -1.14696
 Alpha  occ. eigenvalues --   -1.14653  -1.14574  -1.14124  -1.14110  -1.14094
 Alpha  occ. eigenvalues --   -1.14075  -1.14038  -1.13993  -1.13806  -1.13786
 Alpha  occ. eigenvalues --   -1.13747  -1.13504  -1.13479  -1.13466  -1.12946
 Alpha  occ. eigenvalues --   -1.12929  -1.12901  -1.11985  -1.11958  -1.11930
 Alpha  occ. eigenvalues --   -0.18125  -0.14045  -0.11362  -0.11175
 Alpha virt. eigenvalues --   -0.06870  -0.05389  -0.04610  -0.03284  -0.02769
 Alpha virt. eigenvalues --   -0.02615  -0.02330  -0.01345  -0.00841  -0.00255
 Alpha virt. eigenvalues --    0.00037   0.00133   0.00320   0.00397   0.00686

  Beta  occ. eigenvalues --  -38.45136 -38.44568 -38.44479 -38.44211 -38.43998
  Beta  occ. eigenvalues --  -38.43476 -38.42413  -2.20926  -2.20400  -2.20241
  Beta  occ. eigenvalues --   -2.20072  -2.19817  -2.19277  -2.18279  -1.14643
  Beta  occ. eigenvalues --   -1.14613  -1.14534  -1.14084  -1.14079  -1.14052
  Beta  occ. eigenvalues --   -1.13984  -1.13928  -1.13870  -1.13760  -1.13754
  Beta  occ. eigenvalues --   -1.13706  -1.13495  -1.13468  -1.13450  -1.12955
  Beta  occ. eigenvalues --   -1.12930  -1.12909  -1.11968  -1.11948  -1.11901
  Beta  occ. eigenvalues --   -0.17430  -0.13925  -0.10904
  Beta virt. eigenvalues --   -0.07473  -0.06706  -0.05113  -0.04165  -0.02911
  Beta virt. eigenvalues --   -0.02577  -0.02098  -0.01742  -0.01081  -0.00489
  Beta virt. eigenvalues --   -0.00238   0.00089   0.00216   0.00472   0.00498

 Mulliken charges and spin densities:
               1          2
     1  Na   0.663474  -0.016581
     2  Na  -0.387347   0.412706
     3  Na  -0.150220   0.044394
     4  Na   0.108080  -0.037514
     5  Na  -0.883884   0.350149
     6  Na   0.316733   0.105255
     7  Na   0.333164   0.141592
 Sum of Mulliken charges =  -0.00000   1.00000

 Dipole moment (field-independent basis, Debye):
    X=             -0.2749    Y=              0.1865    Z=              0.0824  Tot=              0.3422
 Quadrupole moment (field-independent basis, Debye-Ang):
   XX=            -54.8863   YY=            -74.2548   ZZ=            -69.1211
   XY=             -0.0694   XZ=             -0.7585   YZ=              1.4462

 Normal termination of Gaussian 16 at Fri Dec  8 05:27:41 2023.
