 Gaussian 16, Revision B.01,
 Gaussian 16:  ES64L-G16RevB.01 20-Dec-2017

 -------------------------
 #P B3LYP/6-311+g(d) force
 -------------------------

 -----
 DPGEN
 -----
 Symbolic Z-matrix:
 Charge =  0 Multiplicity = 2

                         Standard orientation:
 ---------------------------------------------------------------------
 Center     Atomic      Atomic             Coordinates (Angstroms)
 Number     Number       Type             X           Y           Z
 ---------------------------------------------------------------------
      1         11           0       -3.257283   -2.046717   -0.416748
      2         11           0        1.885368    1.399758    0.459873
      3         11           0       -0.200620    3.403242   -0.664996
      4         11           0       -0.537849   -0.485823   -1.622908
      5         11           0        0.662949   -1.613892    1.585299
      6         11           0        3.242353   -1.785271   -0.615025
      7         11           0       -1.794918    1.128703    1.274504
 ---------------------------------------------------------------------

 SCF Done:  E(UB3LYP) =  -1136.13336240     A.U. after   18 cycles

 The electronic state is 2-A.
 Alpha  occ. eigenvalues --  -38.44016 -38.43896 -38.43827 -38.43685 -38.43674
 Alpha  occ. eigenvalues --  -38.43644 -38.43394  -2.19816  -2.19688  -2.19677
 Alpha  occ. eigenvalues --   -2.19572  -2.19557  -2.19518  -2.19249  -1.13489
 Alpha  occ. eigenvalues --   -1.13474  -1.13454  -1.13386  -1.13361  -1.13357
 Alpha  occ. eigenvalues --   -1.13341  -1.13317  -1.13289  -1.13282  -1.13277
 Alpha  occ. eigenvalues --   -1.13245  -1.13209  -1.13201  -1.13189  -1.13167
 Alpha  occ. eigenvalues --   -1.13160  -1.13110  -1.12912  -1.12888  -1.12882
 Alpha  occ. eigenvalues --   -0.18149  -0.12837  -0.12516  -0.10544
 Alpha virt. eigenvalues --   -0.05760  -0.05449  -0.04698  -0.03145  -0.02968
 Alpha virt. eigenvalues --   -0.02303  -0.01701  -0.01490  -0.00659  -0.00274
 Alpha virt. eigenvalues --    0.00220   0.00276   0.00672   0.00725   0.00754

  Beta  occ. eigenvalues --  -38.44009 -38.43892 -38.43788 -38.43663 -38.43633
  Beta  occ. eigenvalues --  -38.43591 -38.43386  -2.19804  -2.19671  -2.19619
  Beta  occ. eigenvalues --   -2.19556  -2.19462  -2.19422  -2.19236  -1.13480
  Beta  occ. eigenvalues --   -1.13458  -1.13447  -1.13344  -1.13341  -1.13336
  Beta  occ. eigenvalues --   -1.13309  -1.13286  -1.13270  -1.13247  -1.13237
  Beta  occ. eigenvalues --   -1.13188  -1.13180  -1.13140  -1.13126  -1.13092
  Beta  occ. eigenvalues --   -1.13089  -1.13040  -1.12903  -1.12875  -1.12869
  Beta  occ. eigenvalues --   -0.17424  -0.12705  -0.12302
  Beta virt. eigenvalues --   -0.06735  -0.05570  -0.05335  -0.04493  -0.02673
  Beta virt. eigenvalues --   -0.02414  -0.01647  -0.01507  -0.01300  -0.00397
  Beta virt. eigenvalues --   -0.00163   0.00266   0.00363   0.00748   0.00788

 Mulliken charges and spin densities:
               1          2
     1  Na   0.045573  -0.095224
     2  Na  -0.215893   0.243156
     3  Na   0.450166  -0.100513
     4  Na  -0.492944   0.585802
     5  Na   0.002484   0.189561
     6  Na   0.208449  -0.042526
     7  Na   0.002165   0.219744
 Sum of Mulliken charges =  -0.00000   1.00000

 Dipole moment (field-independent basis, Debye):
    X=              0.0311    Y=             -0.2733    Z=             -0.0090  Tot=              0.2752
 Quadrupole moment (field-independent basis, Debye-Ang):
   XX=            -58.1311   YY=            -61.5739   ZZ=            -72.5869
   XY=             -1.2804   XZ=             -2.6317   YZ=             -0.7527

 Normal termination of Gaussian 16 at Tue Dec  5 11:58:10 2023.
