 Gaussian 16, Revision B.01,
 Gaussian 16:  ES64L-G16RevB.01 20-Dec-2017

 -------------------------
 #P B3LYP/6-311+g(d) force
 -------------------------

 -----
 DPGEN
 -----
 Symbolic Z-matrix:
 Charge =  0 Multiplicity = 2

                         Standard orientation:
 ---------------------------------------------------------------------
 Center     Atomic      Atomic             Coordinates (Angstroms)
 Number     Number       Type             X           Y           Z
 ---------------------------------------------------------------------
      1         11           0        0.279272   -3.564170   -0.799510
      2         11           0        3.707507    0.838252    0.895676
      3         11           0       -4.490206    0.134399    0.106429
      4         11           0       -2.514173   -2.545989    0.633913
      5         11           0        1.218803    3.864507   -0.489601
      6         11           0       -1.781268    3.203966   -0.151620
      7         11           0        3.580065   -1.930966   -0.195287
 ---------------------------------------------------------------------

 SCF Done:  E(UB3LYP) =  -1136.10773852     A.U. after   19 cycles

 The electronic state is 2-A.
 Alpha  occ. eigenvalues --  -38.44838 -38.44754 -38.44537 -38.44504 -38.44348
 Alpha  occ. eigenvalues --  -38.44320 -38.44212  -2.20653  -2.20533  -2.20323
 Alpha  occ. eigenvalues --   -2.20317  -2.20155  -2.20117  -2.20016  -1.14387
 Alpha  occ. eigenvalues --   -1.14297  -1.14275  -1.14223  -1.14203  -1.14180
 Alpha  occ. eigenvalues --   -1.14014  -1.14002  -1.13991  -1.13973  -1.13970
 Alpha  occ. eigenvalues --   -1.13951  -1.13801  -1.13795  -1.13774  -1.13763
 Alpha  occ. eigenvalues --   -1.13748  -1.13744  -1.13670  -1.13665  -1.13648
 Alpha  occ. eigenvalues --   -0.15530  -0.13899  -0.13649  -0.11136
 Alpha virt. eigenvalues --   -0.07367  -0.04791  -0.04348  -0.03615  -0.03499
 Alpha virt. eigenvalues --   -0.02438  -0.02222  -0.01784  -0.01557  -0.00961
 Alpha virt. eigenvalues --   -0.00421  -0.00177  -0.00012   0.00449   0.00691

  Beta  occ. eigenvalues --  -38.44792 -38.44744 -38.44539 -38.44497 -38.44273
  Beta  occ. eigenvalues --  -38.44244 -38.44182  -2.20572  -2.20519  -2.20335
  Beta  occ. eigenvalues --   -2.20311  -2.20018  -2.19977  -2.19962  -1.14328
  Beta  occ. eigenvalues --   -1.14243  -1.14218  -1.14205  -1.14197  -1.14154
  Beta  occ. eigenvalues --   -1.14019  -1.14014  -1.13973  -1.13965  -1.13954
  Beta  occ. eigenvalues --   -1.13915  -1.13707  -1.13704  -1.13685  -1.13667
  Beta  occ. eigenvalues --   -1.13656  -1.13653  -1.13633  -1.13629  -1.13608
  Beta  occ. eigenvalues --   -0.14963  -0.13104  -0.12933
  Beta virt. eigenvalues --   -0.08031  -0.07452  -0.04354  -0.03911  -0.03324
  Beta virt. eigenvalues --   -0.03193  -0.02214  -0.01967  -0.01648  -0.01407
  Beta virt. eigenvalues --   -0.00574  -0.00171   0.00041   0.00169   0.00420

 Mulliken charges and spin densities:
               1          2
     1  Na   0.037850   0.318692
     2  Na  -0.071268   0.173138
     3  Na   0.240182   0.369078
     4  Na  -0.367865  -0.029540
     5  Na   0.079654   0.088216
     6  Na  -0.115647   0.057850
     7  Na   0.197093   0.022566
 Sum of Mulliken charges =  -0.00000   1.00000

 Dipole moment (field-independent basis, Debye):
    X=              0.4161    Y=              0.1824    Z=             -0.0067  Tot=              0.4544
 Quadrupole moment (field-independent basis, Debye-Ang):
   XX=            -63.0269   YY=            -66.6693   ZZ=            -71.6214
   XY=             -0.3753   XZ=             -0.7011   YZ=              1.2221

 Normal termination of Gaussian 16 at Sun Dec  3 19:31:54 2023.
