 Gaussian 16, Revision B.01,
 Gaussian 16:  ES64L-G16RevB.01 20-Dec-2017

 -------------------------
 #P B3LYP/6-311+g(d) force
 -------------------------

 -----
 DPGEN
 -----
 Symbolic Z-matrix:
 Charge =  0 Multiplicity = 2

                         Standard orientation:
 ---------------------------------------------------------------------
 Center     Atomic      Atomic             Coordinates (Angstroms)
 Number     Number       Type             X           Y           Z
 ---------------------------------------------------------------------
      1         11           0       -0.098407    0.024385   -1.824574
      2         11           0        0.434286   -2.137482   -0.038592
      3         11           0        2.477780   -0.363917   -0.096295
      4         11           0       -1.756618    1.538104   -0.019972
      5         11           0        0.125300    0.034446    1.881906
      6         11           0        0.925670    2.121696    0.003464
      7         11           0       -2.108012   -1.217232    0.094063
 ---------------------------------------------------------------------

 SCF Done:  E(UB3LYP) =  -1136.08069193     A.U. after   17 cycles

 The electronic state is 2-A.
 Alpha  occ. eigenvalues --  -38.44252 -38.44231 -38.43699 -38.43694 -38.43680
 Alpha  occ. eigenvalues --  -38.43660 -38.43441  -2.20491  -2.20428  -2.19925
 Alpha  occ. eigenvalues --   -2.19843  -2.19795  -2.19767  -2.19578  -1.14316
 Alpha  occ. eigenvalues --   -1.14231  -1.14168  -1.14142  -1.14124  -1.14067
 Alpha  occ. eigenvalues --   -1.13936  -1.13760  -1.13702  -1.13630  -1.13502
 Alpha  occ. eigenvalues --   -1.13496  -1.13421  -1.13387  -1.13369  -1.13336
 Alpha  occ. eigenvalues --   -1.13278  -1.13194  -1.13191  -1.13176  -1.13056
 Alpha  occ. eigenvalues --   -0.21813  -0.13619  -0.13235  -0.12551
 Alpha virt. eigenvalues --   -0.04925  -0.04241  -0.04181  -0.03657  -0.03503
 Alpha virt. eigenvalues --   -0.03093  -0.00794  -0.00507  -0.00139   0.00355
 Alpha virt. eigenvalues --    0.00890   0.00930   0.01095   0.01206   0.01241

  Beta  occ. eigenvalues --  -38.44155 -38.44132 -38.43682 -38.43682 -38.43669
  Beta  occ. eigenvalues --  -38.43646 -38.43428  -2.20315  -2.20250  -2.19903
  Beta  occ. eigenvalues --   -2.19826  -2.19779  -2.19753  -2.19561  -1.14229
  Beta  occ. eigenvalues --   -1.14114  -1.14061  -1.14033  -1.14000  -1.13951
  Beta  occ. eigenvalues --   -1.13905  -1.13752  -1.13673  -1.13609  -1.13489
  Beta  occ. eigenvalues --   -1.13421  -1.13347  -1.13331  -1.13320  -1.13305
  Beta  occ. eigenvalues --   -1.13272  -1.13186  -1.13170  -1.13122  -1.13052
  Beta  occ. eigenvalues --   -0.20948  -0.13240  -0.12844
  Beta virt. eigenvalues --   -0.08335  -0.04964  -0.04227  -0.04164  -0.02687
  Beta virt. eigenvalues --   -0.02528  -0.01999  -0.00735  -0.00460   0.00016
  Beta virt. eigenvalues --    0.00372   0.00856   0.00894   0.01145   0.01198

 Mulliken charges and spin densities:
               1          2
     1  Na  -0.255236   0.415980
     2  Na   0.179492   0.086385
     3  Na   0.024130  -0.030958
     4  Na   0.158473   0.042807
     5  Na  -0.305161   0.456169
     6  Na   0.159469   0.032362
     7  Na   0.038834  -0.002744
 Sum of Mulliken charges =  -0.00000   1.00000

 Dipole moment (field-independent basis, Debye):
    X=              0.0853    Y=              0.0822    Z=              0.0983  Tot=              0.1540
 Quadrupole moment (field-independent basis, Debye-Ang):
   XX=            -63.6125   YY=            -68.3434   ZZ=            -67.0850
   XY=              0.3196   XZ=             -0.4445   YZ=             -0.0443

 Normal termination of Gaussian 16 at Fri Dec  8 19:25:16 2023.
