 Gaussian 16, Revision B.01,
 Gaussian 16:  ES64L-G16RevB.01 20-Dec-2017

 -------------------------
 #P B3LYP/6-311+g(d) force
 -------------------------

 -----
 DPGEN
 -----
 Symbolic Z-matrix:
 Charge =  0 Multiplicity = 2

                         Standard orientation:
 ---------------------------------------------------------------------
 Center     Atomic      Atomic             Coordinates (Angstroms)
 Number     Number       Type             X           Y           Z
 ---------------------------------------------------------------------
      1         11           0       -3.036545    0.912550    0.236328
      2         11           0       -1.748731   -2.326146   -0.075226
      3         11           0        1.865394   -2.043747   -0.490350
      4         11           0        0.144478   -0.676498    1.650740
      5         11           0        3.042864    0.841529    0.250107
      6         11           0       -0.318534    0.312455   -1.573287
      7         11           0        0.051076    2.979857    0.001689
 ---------------------------------------------------------------------

 SCF Done:  E(UB3LYP) =  -1136.13407868     A.U. after   20 cycles

 The electronic state is 2-A.
 Alpha  occ. eigenvalues --  -38.44254 -38.44012 -38.43543 -38.43511 -38.43480
 Alpha  occ. eigenvalues --  -38.43126 -38.42777  -2.20086  -2.19855  -2.19419
 Alpha  occ. eigenvalues --   -2.19410  -2.19380  -2.19129  -2.18801  -1.13768
 Alpha  occ. eigenvalues --   -1.13746  -1.13719  -1.13542  -1.13520  -1.13491
 Alpha  occ. eigenvalues --   -1.13177  -1.13130  -1.13102  -1.13083  -1.13068
 Alpha  occ. eigenvalues --   -1.13043  -1.13037  -1.13014  -1.12998  -1.12803
 Alpha  occ. eigenvalues --   -1.12744  -1.12726  -1.12484  -1.12431  -1.12416
 Alpha  occ. eigenvalues --   -0.19047  -0.13303  -0.12633  -0.10324
 Alpha virt. eigenvalues --   -0.05824  -0.05180  -0.04742  -0.03129  -0.02750
 Alpha virt. eigenvalues --   -0.01961  -0.01643  -0.01139  -0.00456  -0.00267
 Alpha virt. eigenvalues --    0.00048   0.00353   0.00816   0.00869   0.00894

  Beta  occ. eigenvalues --  -38.44249 -38.44006 -38.43540 -38.43502 -38.43464
  Beta  occ. eigenvalues --  -38.43059 -38.42707  -2.20079  -2.19847  -2.19407
  Beta  occ. eigenvalues --   -2.19384  -2.19378  -2.19007  -2.18674  -1.13758
  Beta  occ. eigenvalues --   -1.13732  -1.13712  -1.13539  -1.13499  -1.13483
  Beta  occ. eigenvalues --   -1.13161  -1.13111  -1.13093  -1.13052  -1.13031
  Beta  occ. eigenvalues --   -1.13022  -1.13018  -1.13000  -1.12995  -1.12721
  Beta  occ. eigenvalues --   -1.12660  -1.12637  -1.12396  -1.12337  -1.12323
  Beta  occ. eigenvalues --   -0.18333  -0.13054  -0.12389
  Beta virt. eigenvalues --   -0.06432  -0.05790  -0.05163  -0.04686  -0.02359
  Beta virt. eigenvalues --   -0.02011  -0.01554  -0.01087  -0.00973  -0.00481
  Beta virt. eigenvalues --   -0.00300   0.00185   0.00395   0.00853   0.00877

 Mulliken charges and spin densities:
               1          2
     1  Na  -0.044310  -0.071504
     2  Na   0.417820   0.022733
     3  Na   0.289877   0.070495
     4  Na  -0.424321   0.630567
     5  Na  -0.017787  -0.023438
     6  Na  -0.183606   0.472353
     7  Na  -0.037673  -0.101206
 Sum of Mulliken charges =  -0.00000   1.00000

 Dipole moment (field-independent basis, Debye):
    X=             -0.1835    Y=              0.1825    Z=              0.0845  Tot=              0.2722
 Quadrupole moment (field-independent basis, Debye-Ang):
   XX=            -53.9159   YY=            -61.7522   ZZ=            -76.2650
   XY=              0.3789   XZ=             -0.8363   YZ=              2.3367

 Normal termination of Gaussian 16 at Tue Nov 28 23:38:55 2023.
