 Gaussian 16, Revision B.01,
 Gaussian 16:  ES64L-G16RevB.01 20-Dec-2017

 -------------------------
 #P B3LYP/6-311+g(d) force
 -------------------------

 -----
 DPGEN
 -----
 Symbolic Z-matrix:
 Charge =  0 Multiplicity = 2

                         Standard orientation:
 ---------------------------------------------------------------------
 Center     Atomic      Atomic             Coordinates (Angstroms)
 Number     Number       Type             X           Y           Z
 ---------------------------------------------------------------------
      1         11           0       -0.890101    1.911323    0.691422
      2         11           0       -3.677062    0.888105   -0.399693
      3         11           0        1.214051    3.699081   -0.105053
      4         11           0       -0.208143   -2.103009    0.244161
      5         11           0       -3.120844   -2.429712   -0.102645
      6         11           0        3.618415   -2.743517    0.016654
      7         11           0        3.063683    0.777729   -0.344846
 ---------------------------------------------------------------------

 SCF Done:  E(UB3LYP) =  -1136.11617761     A.U. after   23 cycles

 The electronic state is 2-A.
 Alpha  occ. eigenvalues --  -38.44885 -38.44529 -38.44368 -38.44166 -38.44064
 Alpha  occ. eigenvalues --  -38.43861 -38.43580  -2.20665  -2.20362  -2.20264
 Alpha  occ. eigenvalues --   -2.20044  -2.19923  -2.19735  -2.19368  -1.14369
 Alpha  occ. eigenvalues --   -1.14347  -1.14271  -1.14084  -1.14034  -1.14033
 Alpha  occ. eigenvalues --   -1.14025  -1.13939  -1.13910  -1.13688  -1.13678
 Alpha  occ. eigenvalues --   -1.13660  -1.13584  -1.13564  -1.13520  -1.13390
 Alpha  occ. eigenvalues --   -1.13362  -1.13348  -1.13028  -1.13024  -1.12986
 Alpha  occ. eigenvalues --   -0.16925  -0.14175  -0.13222  -0.10332
 Alpha virt. eigenvalues --   -0.06728  -0.05557  -0.04323  -0.03176  -0.02845
 Alpha virt. eigenvalues --   -0.02603  -0.02041  -0.01844  -0.01515  -0.00304
 Alpha virt. eigenvalues --   -0.00204   0.00192   0.00462   0.00554   0.00651

  Beta  occ. eigenvalues --  -38.44873 -38.44496 -38.44353 -38.44121 -38.43996
  Beta  occ. eigenvalues --  -38.43842 -38.43539  -2.20648  -2.20307  -2.20241
  Beta  occ. eigenvalues --   -2.19965  -2.19798  -2.19700  -2.19292  -1.14362
  Beta  occ. eigenvalues --   -1.14342  -1.14229  -1.14021  -1.14013  -1.13997
  Beta  occ. eigenvalues --   -1.13986  -1.13918  -1.13875  -1.13629  -1.13614
  Beta  occ. eigenvalues --   -1.13606  -1.13493  -1.13479  -1.13438  -1.13368
  Beta  occ. eigenvalues --   -1.13338  -1.13316  -1.12976  -1.12969  -1.12938
  Beta  occ. eigenvalues --   -0.16502  -0.13599  -0.12543
  Beta virt. eigenvalues --   -0.06876  -0.06683  -0.05387  -0.04163  -0.02706
  Beta virt. eigenvalues --   -0.02621  -0.02146  -0.01834  -0.01523  -0.01267
  Beta virt. eigenvalues --   -0.00170   0.00178   0.00478   0.00522   0.00624

 Mulliken charges and spin densities:
               1          2
     1  Na  -1.099286   0.205144
     2  Na   0.307702   0.237500
     3  Na   0.813924  -0.065261
     4  Na  -0.863005   0.217369
     5  Na   0.365593  -0.084836
     6  Na   0.896764   0.352199
     7  Na  -0.421693   0.137884
 Sum of Mulliken charges =  -0.00000   1.00000

 Dipole moment (field-independent basis, Debye):
    X=             -0.2178    Y=              0.3154    Z=             -0.3152  Tot=              0.4962
 Quadrupole moment (field-independent basis, Debye-Ang):
   XX=            -60.3217   YY=            -66.2108   ZZ=            -71.7405
   XY=              4.6600   XZ=              0.7523   YZ=             -1.3048

 Normal termination of Gaussian 16 at Mon Dec  4 04:08:48 2023.
