 Gaussian 16, Revision B.01,
 Gaussian 16:  ES64L-G16RevB.01 20-Dec-2017

 -------------------------
 #P B3LYP/6-311+g(d) force
 -------------------------

 -----
 DPGEN
 -----
 Symbolic Z-matrix:
 Charge =  0 Multiplicity = 2

                         Standard orientation:
 ---------------------------------------------------------------------
 Center     Atomic      Atomic             Coordinates (Angstroms)
 Number     Number       Type             X           Y           Z
 ---------------------------------------------------------------------
      1         11           0        0.164956   -0.106683    1.958552
      2         11           0       -0.202989    0.064727   -1.822776
      3         11           0       -2.654542   -0.190001    0.056339
      4         11           0       -0.440232   -2.148261   -0.010668
      5         11           0       -0.910599    2.061141    0.057602
      6         11           0        2.092413   -1.166767   -0.207786
      7         11           0        1.950992    1.485844   -0.031262
 ---------------------------------------------------------------------

 SCF Done:  E(UB3LYP) =  -1136.08944714     A.U. after   19 cycles

 The electronic state is 2-A.
 Alpha  occ. eigenvalues --  -38.44260 -38.44185 -38.43900 -38.43753 -38.43607
 Alpha  occ. eigenvalues --  -38.43266 -38.43235  -2.20399  -2.20395  -2.20058
 Alpha  occ. eigenvalues --   -2.19794  -2.19708  -2.19424  -2.19357  -1.14214
 Alpha  occ. eigenvalues --   -1.14125  -1.14114  -1.14075  -1.14044  -1.14015
 Alpha  occ. eigenvalues --   -1.13976  -1.13793  -1.13622  -1.13563  -1.13501
 Alpha  occ. eigenvalues --   -1.13413  -1.13411  -1.13301  -1.13233  -1.13062
 Alpha  occ. eigenvalues --   -1.13044  -1.13009  -1.12979  -1.12967  -1.12905
 Alpha  occ. eigenvalues --   -0.21532  -0.13776  -0.12880  -0.12474
 Alpha virt. eigenvalues --   -0.05125  -0.04229  -0.04039  -0.03791  -0.03311
 Alpha virt. eigenvalues --   -0.03133  -0.00990  -0.00436  -0.00151   0.00358
 Alpha virt. eigenvalues --    0.00757   0.00880   0.01055   0.01177   0.01241

  Beta  occ. eigenvalues --  -38.44160 -38.44091 -38.43885 -38.43746 -38.43595
  Beta  occ. eigenvalues --  -38.43250 -38.43222  -2.20230  -2.20214  -2.20038
  Beta  occ. eigenvalues --   -2.19786  -2.19693  -2.19403  -2.19340  -1.14132
  Beta  occ. eigenvalues --   -1.14022  -1.14016  -1.13994  -1.13920  -1.13908
  Beta  occ. eigenvalues --   -1.13885  -1.13753  -1.13560  -1.13546  -1.13497
  Beta  occ. eigenvalues --   -1.13406  -1.13365  -1.13239  -1.13229  -1.13052
  Beta  occ. eigenvalues --   -1.12998  -1.12965  -1.12961  -1.12914  -1.12901
  Beta  occ. eigenvalues --   -0.20663  -0.13412  -0.12509
  Beta virt. eigenvalues --   -0.08278  -0.05145  -0.04221  -0.04009  -0.02830
  Beta virt. eigenvalues --   -0.02373  -0.02048  -0.00917  -0.00395   0.00012
  Beta virt. eigenvalues --    0.00378   0.00745   0.00842   0.01093   0.01162

 Mulliken charges and spin densities:
               1          2
     1  Na  -0.316656   0.492173
     2  Na  -0.141265   0.405088
     3  Na  -0.014376  -0.041968
     4  Na   0.143486   0.042266
     5  Na   0.112349   0.063085
     6  Na   0.152404   0.030501
     7  Na   0.064058   0.008855
 Sum of Mulliken charges =  -0.00000   1.00000

 Dipole moment (field-independent basis, Debye):
    X=             -0.2054    Y=              0.0815    Z=              0.2086  Tot=              0.3039
 Quadrupole moment (field-independent basis, Debye-Ang):
   XX=            -61.5387   YY=            -70.1331   ZZ=            -66.8590
   XY=              0.4017   XZ=             -0.6577   YZ=              0.3199

 Normal termination of Gaussian 16 at Sat Dec  9 05:39:24 2023.
