 Gaussian 16, Revision B.01,
 Gaussian 16:  ES64L-G16RevB.01 20-Dec-2017

 -------------------------
 #P B3LYP/6-311+g(d) force
 -------------------------

 -----
 DPGEN
 -----
 Symbolic Z-matrix:
 Charge =  0 Multiplicity = 2

                         Standard orientation:
 ---------------------------------------------------------------------
 Center     Atomic      Atomic             Coordinates (Angstroms)
 Number     Number       Type             X           Y           Z
 ---------------------------------------------------------------------
      1         11           0       -1.201919    1.267409   -1.189996
      2         11           0        1.860027    2.360980   -0.587082
      3         11           0        3.339914   -0.532834    1.011662
      4         11           0        1.197625   -0.981360   -1.416782
      5         11           0       -2.479698   -1.769305   -1.290519
      6         11           0        0.474031   -1.474007    1.598636
      7         11           0       -3.189980    1.129116    1.874081
 ---------------------------------------------------------------------

 SCF Done:  E(UB3LYP) =  -1136.12202867     A.U. after   24 cycles

 The electronic state is 2-A.
 Alpha  occ. eigenvalues --  -38.45234 -38.44500 -38.44286 -38.44085 -38.43585
 Alpha  occ. eigenvalues --  -38.42796 -38.42621  -2.21013  -2.20306  -2.20245
 Alpha  occ. eigenvalues --   -2.19967  -2.19455  -2.18702  -2.18460  -1.14656
 Alpha  occ. eigenvalues --   -1.14650  -1.14617  -1.13987  -1.13975  -1.13950
 Alpha  occ. eigenvalues --   -1.13938  -1.13901  -1.13852  -1.13665  -1.13624
 Alpha  occ. eigenvalues --   -1.13580  -1.13150  -1.13111  -1.13059  -1.12412
 Alpha  occ. eigenvalues --   -1.12390  -1.12322  -1.12130  -1.12114  -1.12101
 Alpha  occ. eigenvalues --   -0.18129  -0.13785  -0.11701  -0.11191
 Alpha virt. eigenvalues --   -0.05943  -0.05565  -0.04678  -0.03289  -0.02811
 Alpha virt. eigenvalues --   -0.02572  -0.01947  -0.01176  -0.00671  -0.00001
 Alpha virt. eigenvalues --    0.00181   0.00249   0.00295   0.00477   0.00541

  Beta  occ. eigenvalues --  -38.45127 -38.44469 -38.44251 -38.44076 -38.43578
  Beta  occ. eigenvalues --  -38.42788 -38.42623  -2.20813  -2.20251  -2.20183
  Beta  occ. eigenvalues --   -2.19952  -2.19442  -2.18692  -2.18464  -1.14518
  Beta  occ. eigenvalues --   -1.14511  -1.14486  -1.13947  -1.13939  -1.13907
  Beta  occ. eigenvalues --   -1.13894  -1.13848  -1.13803  -1.13650  -1.13613
  Beta  occ. eigenvalues --   -1.13570  -1.13141  -1.13090  -1.13053  -1.12407
  Beta  occ. eigenvalues --   -1.12349  -1.12320  -1.12132  -1.12115  -1.12104
  Beta  occ. eigenvalues --   -0.17608  -0.13280  -0.11095
  Beta virt. eigenvalues --   -0.07839  -0.05784  -0.04943  -0.04435  -0.03169
  Beta virt. eigenvalues --   -0.02147  -0.02045  -0.01753  -0.00751  -0.00494
  Beta virt. eigenvalues --    0.00245   0.00254   0.00331   0.00383   0.00628

 Mulliken charges and spin densities:
               1          2
     1  Na  -0.033169   0.202547
     2  Na  -0.230521  -0.077506
     3  Na   0.676874   0.011076
     4  Na   0.007004   0.218758
     5  Na   0.245165   0.095213
     6  Na  -0.668184   0.150594
     7  Na   0.002831   0.399319
 Sum of Mulliken charges =  -0.00000   1.00000

 Dipole moment (field-independent basis, Debye):
    X=             -0.2380    Y=             -0.5323    Z=              0.3636  Tot=              0.6872
 Quadrupole moment (field-independent basis, Debye-Ang):
   XX=            -54.1523   YY=            -73.8000   ZZ=            -67.9190
   XY=              2.2521   XZ=              0.5549   YZ=              7.0433

 Normal termination of Gaussian 16 at Tue Nov 28 19:44:50 2023.
