 Gaussian 16, Revision B.01,
 Gaussian 16:  ES64L-G16RevB.01 20-Dec-2017

 -------------------------
 #P B3LYP/6-311+g(d) force
 -------------------------

 -----
 DPGEN
 -----
 Symbolic Z-matrix:
 Charge =  0 Multiplicity = 2

                         Standard orientation:
 ---------------------------------------------------------------------
 Center     Atomic      Atomic             Coordinates (Angstroms)
 Number     Number       Type             X           Y           Z
 ---------------------------------------------------------------------
      1         11           0        3.985248   -1.083907   -0.468234
      2         11           0        0.904364    4.165160   -0.102038
      3         11           0       -2.589251   -3.011280    0.176771
      4         11           0       -2.288216    2.664515   -0.608667
      5         11           0       -3.986239   -0.140018    0.316095
      6         11           0        1.260419   -3.671235   -0.290040
      7         11           0        2.713675    1.076765    0.976113
 ---------------------------------------------------------------------

 SCF Done:  E(UB3LYP) =  -1136.10668113     A.U. after   23 cycles

 The electronic state is 2-A.
 Alpha  occ. eigenvalues --  -38.45264 -38.45185 -38.45001 -38.44942 -38.44177
 Alpha  occ. eigenvalues --  -38.43787 -38.43627  -2.21024  -2.21010  -2.20758
 Alpha  occ. eigenvalues --   -2.20705  -2.20027  -2.19579  -2.19460  -1.14743
 Alpha  occ. eigenvalues --   -1.14713  -1.14701  -1.14657  -1.14655  -1.14640
 Alpha  occ. eigenvalues --   -1.14430  -1.14412  -1.14390  -1.14385  -1.14370
 Alpha  occ. eigenvalues --   -1.14346  -1.13716  -1.13660  -1.13637  -1.13235
 Alpha  occ. eigenvalues --   -1.13225  -1.13211  -1.13110  -1.13107  -1.13107
 Alpha  occ. eigenvalues --   -0.15699  -0.14108  -0.13382  -0.10668
 Alpha virt. eigenvalues --   -0.07732  -0.04896  -0.04268  -0.03635  -0.03421
 Alpha virt. eigenvalues --   -0.02492  -0.02134  -0.01888  -0.01725  -0.00570
 Alpha virt. eigenvalues --   -0.00416  -0.00051   0.00146   0.00359   0.00559

  Beta  occ. eigenvalues --  -38.45255 -38.45156 -38.44948 -38.44937 -38.44145
  Beta  occ. eigenvalues --  -38.43737 -38.43586  -2.21013  -2.20962  -2.20720
  Beta  occ. eigenvalues --   -2.20641  -2.19973  -2.19486  -2.19384  -1.14710
  Beta  occ. eigenvalues --   -1.14698  -1.14693  -1.14629  -1.14609  -1.14596
  Beta  occ. eigenvalues --   -1.14404  -1.14398  -1.14352  -1.14338  -1.14329
  Beta  occ. eigenvalues --   -1.14277  -1.13666  -1.13624  -1.13601  -1.13172
  Beta  occ. eigenvalues --   -1.13163  -1.13149  -1.13068  -1.13055  -1.13052
  Beta  occ. eigenvalues --   -0.15199  -0.13596  -0.12598
  Beta virt. eigenvalues --   -0.07810  -0.07424  -0.04575  -0.03800  -0.03388
  Beta virt. eigenvalues --   -0.03001  -0.02223  -0.01926  -0.01760  -0.01519
  Beta virt. eigenvalues --   -0.00359  -0.00101   0.00142   0.00226   0.00395

 Mulliken charges and spin densities:
               1          2
     1  Na   0.402055   0.079030
     2  Na   0.270428   0.241121
     3  Na   0.143397  -0.046964
     4  Na   0.013528   0.092534
     5  Na   0.008032   0.158237
     6  Na  -0.153222   0.321425
     7  Na  -0.684217   0.154617
 Sum of Mulliken charges =  -0.00000   1.00000

 Dipole moment (field-independent basis, Debye):
    X=              0.5036    Y=             -0.1325    Z=             -0.0968  Tot=              0.5297
 Quadrupole moment (field-independent basis, Debye-Ang):
   XX=            -63.8379   YY=            -66.6256   ZZ=            -71.0766
   XY=             -1.1198   XZ=             -1.1154   YZ=              0.4278

 Normal termination of Gaussian 16 at Sun Dec  3 16:58:48 2023.
