 Gaussian 16, Revision B.01,
 Gaussian 16:  ES64L-G16RevB.01 20-Dec-2017

 -------------------------
 #P B3LYP/6-311+g(d) force
 -------------------------

 -----
 DPGEN
 -----
 Symbolic Z-matrix:
 Charge =  0 Multiplicity = 2

                         Standard orientation:
 ---------------------------------------------------------------------
 Center     Atomic      Atomic             Coordinates (Angstroms)
 Number     Number       Type             X           Y           Z
 ---------------------------------------------------------------------
      1         11           0       -0.261458   -0.038134    1.840824
      2         11           0        1.984662    1.918309    0.078928
      3         11           0        0.162936    0.000209   -1.821560
      4         11           0       -2.732028   -0.422704    0.056390
      5         11           0       -1.212429    2.404704   -0.148651
      6         11           0       -0.383643   -2.610162   -0.215799
      7         11           0        2.441959   -1.252223    0.209868
 ---------------------------------------------------------------------

 SCF Done:  E(UB3LYP) =  -1136.13430932     A.U. after   18 cycles

 The electronic state is 2-A.
 Alpha  occ. eigenvalues --  -38.43421 -38.43379 -38.43367 -38.43324 -38.43282
 Alpha  occ. eigenvalues --  -38.43217 -38.43158  -2.19460  -2.19429  -2.19320
 Alpha  occ. eigenvalues --   -2.19268  -2.19214  -2.19166  -2.19129  -1.13216
 Alpha  occ. eigenvalues --   -1.13153  -1.13123  -1.13103  -1.13092  -1.13079
 Alpha  occ. eigenvalues --   -1.12988  -1.12979  -1.12961  -1.12954  -1.12939
 Alpha  occ. eigenvalues --   -1.12910  -1.12898  -1.12863  -1.12833  -1.12820
 Alpha  occ. eigenvalues --   -1.12811  -1.12785  -1.12770  -1.12759  -1.12724
 Alpha  occ. eigenvalues --   -0.19950  -0.13157  -0.12982  -0.11370
 Alpha virt. eigenvalues --   -0.04910  -0.04805  -0.04646  -0.03285  -0.03184
 Alpha virt. eigenvalues --   -0.02732  -0.01044  -0.00914  -0.00037   0.00242
 Alpha virt. eigenvalues --    0.00268   0.00374   0.00970   0.01022   0.01024

  Beta  occ. eigenvalues --  -38.43360 -38.43337 -38.43317 -38.43294 -38.43276
  Beta  occ. eigenvalues --  -38.43209 -38.43148  -2.19316  -2.19301  -2.19274
  Beta  occ. eigenvalues --   -2.19258  -2.19207  -2.19155  -2.19115  -1.13147
  Beta  occ. eigenvalues --   -1.13076  -1.13038  -1.13007  -1.12997  -1.12994
  Beta  occ. eigenvalues --   -1.12976  -1.12968  -1.12931  -1.12908  -1.12891
  Beta  occ. eigenvalues --   -1.12878  -1.12861  -1.12832  -1.12820  -1.12807
  Beta  occ. eigenvalues --   -1.12772  -1.12768  -1.12757  -1.12723  -1.12719
  Beta  occ. eigenvalues --   -0.19169  -0.12864  -0.12682
  Beta virt. eigenvalues --   -0.07348  -0.04898  -0.04809  -0.04651  -0.02417
  Beta virt. eigenvalues --   -0.02312  -0.01634  -0.00977  -0.00855   0.00089
  Beta virt. eigenvalues --    0.00184   0.00213   0.00382   0.00999   0.01007

 Mulliken charges and spin densities:
               1          2
     1  Na  -0.739553   0.624825
     2  Na   0.173196  -0.062753
     3  Na  -0.695367   0.586770
     4  Na   0.382966  -0.035873
     5  Na   0.279374  -0.058570
     6  Na   0.397201  -0.018932
     7  Na   0.202183  -0.035466
 Sum of Mulliken charges =  -0.00000   1.00000

 Dipole moment (field-independent basis, Debye):
    X=              0.0182    Y=              0.0520    Z=              0.0372  Tot=              0.0664
 Quadrupole moment (field-independent basis, Debye-Ang):
   XX=            -60.8956   YY=            -63.0189   ZZ=            -71.3500
   XY=              0.0551   XZ=              0.9312   YZ=              0.0483

 Normal termination of Gaussian 16 at Thu Dec  7 08:51:45 2023.
