 Gaussian 16, Revision B.01,
 Gaussian 16:  ES64L-G16RevB.01 20-Dec-2017

 -------------------------
 #P B3LYP/6-311+g(d) force
 -------------------------

 -----
 DPGEN
 -----
 Symbolic Z-matrix:
 Charge =  0 Multiplicity = 2

                         Standard orientation:
 ---------------------------------------------------------------------
 Center     Atomic      Atomic             Coordinates (Angstroms)
 Number     Number       Type             X           Y           Z
 ---------------------------------------------------------------------
      1         11           0       -0.558779    1.422682    0.926941
      2         11           0        0.788117    4.021454   -0.165225
      3         11           0        2.762238    0.804486   -0.700244
      4         11           0        4.754305   -2.321321   -0.099671
      5         11           0        1.285541   -2.006142    0.348989
      6         11           0       -2.900860   -0.854300    0.217455
      7         11           0       -6.130564   -1.066859   -0.528246
 ---------------------------------------------------------------------

 SCF Done:  E(UB3LYP) =  -1136.12182428     A.U. after   20 cycles

 The electronic state is 2-A.
 Alpha  occ. eigenvalues --  -38.45195 -38.44925 -38.44621 -38.43920 -38.43850
 Alpha  occ. eigenvalues --  -38.43834 -38.42878  -2.20996  -2.20704  -2.20443
 Alpha  occ. eigenvalues --   -2.19727  -2.19723  -2.19655  -2.18687  -1.14723
 Alpha  occ. eigenvalues --   -1.14703  -1.14559  -1.14371  -1.14370  -1.14317
 Alpha  occ. eigenvalues --   -1.14146  -1.14131  -1.14015  -1.13445  -1.13410
 Alpha  occ. eigenvalues --   -1.13394  -1.13358  -1.13358  -1.13346  -1.13305
 Alpha  occ. eigenvalues --   -1.13293  -1.13245  -1.12389  -1.12370  -1.12327
 Alpha  occ. eigenvalues --   -0.16873  -0.13603  -0.12816  -0.10811
 Alpha virt. eigenvalues --   -0.06570  -0.05421  -0.04595  -0.03720  -0.02702
 Alpha virt. eigenvalues --   -0.02272  -0.01962  -0.01840  -0.01334  -0.00853
 Alpha virt. eigenvalues --   -0.00364  -0.00051   0.00048   0.00349   0.00592

  Beta  occ. eigenvalues --  -38.45185 -38.44905 -38.44587 -38.43831 -38.43828
  Beta  occ. eigenvalues --  -38.43814 -38.42882  -2.20979  -2.20667  -2.20381
  Beta  occ. eigenvalues --   -2.19695  -2.19617  -2.19550  -2.18705  -1.14699
  Beta  occ. eigenvalues --   -1.14693  -1.14546  -1.14345  -1.14343  -1.14294
  Beta  occ. eigenvalues --   -1.14108  -1.14091  -1.13950  -1.13412  -1.13396
  Beta  occ. eigenvalues --   -1.13369  -1.13279  -1.13261  -1.13241  -1.13240
  Beta  occ. eigenvalues --   -1.13235  -1.13216  -1.12407  -1.12390  -1.12279
  Beta  occ. eigenvalues --   -0.16359  -0.13318  -0.12109
  Beta virt. eigenvalues --   -0.07511  -0.06357  -0.04960  -0.04273  -0.03469
  Beta virt. eigenvalues --   -0.02557  -0.02130  -0.01739  -0.01326  -0.01043
  Beta virt. eigenvalues --   -0.00590  -0.00048   0.00086   0.00249   0.00467

 Mulliken charges and spin densities:
               1          2
     1  Na  -1.021976  -0.058049
     2  Na   0.895580   0.085541
     3  Na  -0.300429   0.182644
     4  Na   1.160202   0.181604
     5  Na  -0.429416   0.076779
     6  Na  -0.205390   0.068110
     7  Na  -0.098571   0.463371
 Sum of Mulliken charges =  -0.00000   1.00000

 Dipole moment (field-independent basis, Debye):
    X=              2.6725    Y=             -0.1785    Z=             -0.1683  Tot=              2.6837
 Quadrupole moment (field-independent basis, Debye-Ang):
   XX=            -59.5500   YY=            -61.4494   ZZ=            -71.9982
   XY=             -7.7469   XZ=              0.0313   YZ=             -0.7841

 Normal termination of Gaussian 16 at Tue Nov 28 23:02:14 2023.
