 Gaussian 16, Revision B.01,
 Gaussian 16:  ES64L-G16RevB.01 20-Dec-2017

 -------------------------
 #P B3LYP/6-311+g(d) force
 -------------------------

 -----
 DPGEN
 -----
 Symbolic Z-matrix:
 Charge =  0 Multiplicity = 2

                         Standard orientation:
 ---------------------------------------------------------------------
 Center     Atomic      Atomic             Coordinates (Angstroms)
 Number     Number       Type             X           Y           Z
 ---------------------------------------------------------------------
      1         11           0        0.079683   -1.992071    0.159743
      2         11           0        2.956432   -3.241349   -0.134213
      3         11           0        3.373793    0.644018   -0.141207
      4         11           0        1.562308    3.408826   -0.753209
      5         11           0        0.251790    1.618894    1.490248
      6         11           0       -2.662043   -0.207722   -0.618643
      7         11           0       -5.561964   -0.230595   -0.002719
 ---------------------------------------------------------------------

 SCF Done:  E(UB3LYP) =  -1136.11888547     A.U. after   19 cycles

 The electronic state is 2-A.
 Alpha  occ. eigenvalues --  -38.44822 -38.44707 -38.44646 -38.43862 -38.43738
 Alpha  occ. eigenvalues --  -38.43614 -38.43099  -2.20664  -2.20518  -2.20478
 Alpha  occ. eigenvalues --   -2.19703  -2.19542  -2.19472  -2.18960  -1.14366
 Alpha  occ. eigenvalues --   -1.14332  -1.14286  -1.14220  -1.14190  -1.14152
 Alpha  occ. eigenvalues --   -1.14128  -1.14113  -1.14067  -1.13400  -1.13322
 Alpha  occ. eigenvalues --   -1.13321  -1.13265  -1.13203  -1.13179  -1.13153
 Alpha  occ. eigenvalues --   -1.13128  -1.13064  -1.12651  -1.12620  -1.12599
 Alpha  occ. eigenvalues --   -0.17038  -0.13726  -0.12783  -0.10633
 Alpha virt. eigenvalues --   -0.06201  -0.05972  -0.04457  -0.03499  -0.02874
 Alpha virt. eigenvalues --   -0.02269  -0.01706  -0.01599  -0.01147  -0.00741
 Alpha virt. eigenvalues --   -0.00478  -0.00050   0.00389   0.00426   0.00535

  Beta  occ. eigenvalues --  -38.44785 -38.44663 -38.44639 -38.43776 -38.43733
  Beta  occ. eigenvalues --  -38.43587 -38.43098  -2.20597  -2.20466  -2.20437
  Beta  occ. eigenvalues --   -2.19543  -2.19534  -2.19424  -2.18968  -1.14325
  Beta  occ. eigenvalues --   -1.14291  -1.14229  -1.14167  -1.14139  -1.14122
  Beta  occ. eigenvalues --   -1.14111  -1.14091  -1.14023  -1.13299  -1.13254
  Beta  occ. eigenvalues --   -1.13213  -1.13211  -1.13197  -1.13167  -1.13123
  Beta  occ. eigenvalues --   -1.13093  -1.13030  -1.12642  -1.12635  -1.12556
  Beta  occ. eigenvalues --   -0.16458  -0.13109  -0.12520
  Beta virt. eigenvalues --   -0.07293  -0.05963  -0.05544  -0.04089  -0.03126
  Beta virt. eigenvalues --   -0.02628  -0.02124  -0.01611  -0.01262  -0.00866
  Beta virt. eigenvalues --   -0.00370  -0.00210   0.00156   0.00445   0.00576

 Mulliken charges and spin densities:
               1          2
     1  Na  -0.953980  -0.016915
     2  Na   0.868373   0.154100
     3  Na  -0.174044   0.346041
     4  Na   0.223027   0.028870
     5  Na  -0.041173   0.211082
     6  Na  -0.111959  -0.131273
     7  Na   0.189756   0.408095
 Sum of Mulliken charges =  -0.00000   1.00000

 Dipole moment (field-independent basis, Debye):
    X=              1.2180    Y=              1.2583    Z=              0.2939  Tot=              1.7757
 Quadrupole moment (field-independent basis, Debye-Ang):
   XX=            -70.3560   YY=            -61.9025   ZZ=            -67.6895
   XY=             -1.7150   XZ=             -2.4256   YZ=             -1.6931

 Normal termination of Gaussian 16 at Wed Nov 29 00:51:07 2023.
