 Gaussian 16, Revision B.01,
 Gaussian 16:  ES64L-G16RevB.01 20-Dec-2017

 -------------------------
 #P B3LYP/6-311+g(d) force
 -------------------------

 -----
 DPGEN
 -----
 Symbolic Z-matrix:
 Charge =  0 Multiplicity = 2

                         Standard orientation:
 ---------------------------------------------------------------------
 Center     Atomic      Atomic             Coordinates (Angstroms)
 Number     Number       Type             X           Y           Z
 ---------------------------------------------------------------------
      1         11           0        0.484904    0.047988   -1.562202
      2         11           0        3.236820    0.901645    0.166548
      3         11           0       -0.170446    2.936830   -0.261018
      4         11           0       -3.230140    0.779888   -0.060379
      5         11           0        2.030179   -2.484001   -0.172263
      6         11           0       -2.347552   -2.181398   -0.143251
      7         11           0       -0.003765   -0.000952    2.032564
 ---------------------------------------------------------------------

 SCF Done:  E(UB3LYP) =  -1136.13139041     A.U. after   19 cycles

 The electronic state is 2-A.
 Alpha  occ. eigenvalues --  -38.45022 -38.44403 -38.43862 -38.43799 -38.43563
 Alpha  occ. eigenvalues --  -38.43224 -38.43036  -2.20822  -2.20225  -2.19680
 Alpha  occ. eigenvalues --   -2.19612  -2.19421  -2.19179  -2.18868  -1.14504
 Alpha  occ. eigenvalues --   -1.14480  -1.14453  -1.13928  -1.13888  -1.13858
 Alpha  occ. eigenvalues --   -1.13352  -1.13337  -1.13318  -1.13307  -1.13269
 Alpha  occ. eigenvalues --   -1.13246  -1.13097  -1.13045  -1.13035  -1.12870
 Alpha  occ. eigenvalues --   -1.12829  -1.12804  -1.12553  -1.12526  -1.12494
 Alpha  occ. eigenvalues --   -0.18205  -0.13429  -0.11937  -0.10355
 Alpha virt. eigenvalues --   -0.06333  -0.05521  -0.04447  -0.03304  -0.02521
 Alpha virt. eigenvalues --   -0.02362  -0.02036  -0.01263  -0.00744  -0.00498
 Alpha virt. eigenvalues --   -0.00036   0.00317   0.00704   0.00778   0.00804

  Beta  occ. eigenvalues --  -38.45018 -38.44402 -38.43861 -38.43793 -38.43465
  Beta  occ. eigenvalues --  -38.43167 -38.43030  -2.20818  -2.20226  -2.19680
  Beta  occ. eigenvalues --   -2.19606  -2.19241  -2.19075  -2.18861  -1.14489
  Beta  occ. eigenvalues --   -1.14466  -1.14454  -1.13932  -1.13872  -1.13861
  Beta  occ. eigenvalues --   -1.13353  -1.13321  -1.13319  -1.13296  -1.13249
  Beta  occ. eigenvalues --   -1.13245  -1.12975  -1.12918  -1.12906  -1.12794
  Beta  occ. eigenvalues --   -1.12754  -1.12731  -1.12539  -1.12503  -1.12491
  Beta  occ. eigenvalues --   -0.17504  -0.13254  -0.11709
  Beta virt. eigenvalues --   -0.06475  -0.06242  -0.05524  -0.04422  -0.02562
  Beta virt. eigenvalues --   -0.01932  -0.01813  -0.01321  -0.01171  -0.00795
  Beta virt. eigenvalues --   -0.00533   0.00130   0.00357   0.00765   0.00793

 Mulliken charges and spin densities:
               1          2
     1  Na  -0.101911   0.486160
     2  Na   0.231970  -0.017247
     3  Na   0.078498  -0.069370
     4  Na   0.080644  -0.014099
     5  Na   0.052068  -0.092016
     6  Na   0.041048  -0.077768
     7  Na  -0.382318   0.784341
 Sum of Mulliken charges =  -0.00000   1.00000

 Dipole moment (field-independent basis, Debye):
    X=              0.4452    Y=              0.0259    Z=              0.1588  Tot=              0.4734
 Quadrupole moment (field-independent basis, Debye-Ang):
   XX=            -51.6822   YY=            -63.9691   ZZ=            -76.9535
   XY=              0.0885   XZ=              1.1054   YZ=              0.3629

 Normal termination of Gaussian 16 at Thu Dec  7 21:58:04 2023.
