 Gaussian 16, Revision B.01,
 Gaussian 16:  ES64L-G16RevB.01 20-Dec-2017

 -------------------------
 #P B3LYP/6-311+g(d) force
 -------------------------

 -----
 DPGEN
 -----
 Symbolic Z-matrix:
 Charge =  0 Multiplicity = 2

                         Standard orientation:
 ---------------------------------------------------------------------
 Center     Atomic      Atomic             Coordinates (Angstroms)
 Number     Number       Type             X           Y           Z
 ---------------------------------------------------------------------
      1         11           0       -0.783291   -3.005931   -0.714626
      2         11           0       -1.346380    3.592643   -0.393352
      3         11           0       -1.558635    0.373296    1.191664
      4         11           0       -3.953420   -0.772292   -0.472377
      5         11           0        1.752029    2.093403    0.452399
      6         11           0        1.936221   -2.657980    0.813104
      7         11           0        3.953477    0.376861   -0.876813
 ---------------------------------------------------------------------

 SCF Done:  E(UB3LYP) =  -1136.11947753     A.U. after   18 cycles

 The electronic state is 2-A.
 Alpha  occ. eigenvalues --  -38.44581 -38.44349 -38.44264 -38.43955 -38.43791
 Alpha  occ. eigenvalues --  -38.43719 -38.43686  -2.20412  -2.20140  -2.20072
 Alpha  occ. eigenvalues --   -2.19765  -2.19626  -2.19558  -2.19518  -1.14127
 Alpha  occ. eigenvalues --   -1.14098  -1.14020  -1.13803  -1.13789  -1.13776
 Alpha  occ. eigenvalues --   -1.13760  -1.13747  -1.13699  -1.13430  -1.13420
 Alpha  occ. eigenvalues --   -1.13380  -1.13312  -1.13285  -1.13263  -1.13243
 Alpha  occ. eigenvalues --   -1.13238  -1.13225  -1.13155  -1.13127  -1.13095
 Alpha  occ. eigenvalues --   -0.16561  -0.13554  -0.13192  -0.10324
 Alpha virt. eigenvalues --   -0.06282  -0.05674  -0.04224  -0.03626  -0.02748
 Alpha virt. eigenvalues --   -0.02334  -0.01826  -0.01611  -0.01039  -0.00771
 Alpha virt. eigenvalues --   -0.00371   0.00020   0.00459   0.00540   0.00759

  Beta  occ. eigenvalues --  -38.44582 -38.44313 -38.44247 -38.43920 -38.43722
  Beta  occ. eigenvalues --  -38.43708 -38.43617  -2.20418  -2.20073  -2.20047
  Beta  occ. eigenvalues --   -2.19705  -2.19545  -2.19498  -2.19391  -1.14122
  Beta  occ. eigenvalues --   -1.14101  -1.14019  -1.13757  -1.13745  -1.13743
  Beta  occ. eigenvalues --   -1.13733  -1.13715  -1.13666  -1.13391  -1.13378
  Beta  occ. eigenvalues --   -1.13327  -1.13267  -1.13240  -1.13199  -1.13192
  Beta  occ. eigenvalues --   -1.13176  -1.13154  -1.13069  -1.13041  -1.13023
  Beta  occ. eigenvalues --   -0.16227  -0.12678  -0.12498
  Beta virt. eigenvalues --   -0.07196  -0.06081  -0.05667  -0.03883  -0.03232
  Beta virt. eigenvalues --   -0.02558  -0.01930  -0.01511  -0.01268  -0.00854
  Beta virt. eigenvalues --   -0.00605  -0.00113   0.00272   0.00518   0.00557

 Mulliken charges and spin densities:
               1          2
     1  Na  -0.159713   0.058199
     2  Na   0.231440   0.143535
     3  Na  -0.106873   0.020037
     4  Na   0.287566   0.290222
     5  Na  -0.586186   0.097573
     6  Na   0.069329   0.108107
     7  Na   0.264437   0.282327
 Sum of Mulliken charges =  -0.00000   1.00000

 Dipole moment (field-independent basis, Debye):
    X=             -0.7557    Y=              0.2062    Z=             -0.5232  Tot=              0.9420
 Quadrupole moment (field-independent basis, Debye-Ang):
   XX=            -67.7152   YY=            -67.0183   ZZ=            -65.7891
   XY=             -4.8866   XZ=              3.0292   YZ=             -0.5818

 Normal termination of Gaussian 16 at Sun Dec  3 19:41:08 2023.
