 Gaussian 16, Revision B.01,
 Gaussian 16:  ES64L-G16RevB.01 20-Dec-2017

 -------------------------
 #P B3LYP/6-311+g(d) force
 -------------------------

 -----
 DPGEN
 -----
 Symbolic Z-matrix:
 Charge =  0 Multiplicity = 2

                         Standard orientation:
 ---------------------------------------------------------------------
 Center     Atomic      Atomic             Coordinates (Angstroms)
 Number     Number       Type             X           Y           Z
 ---------------------------------------------------------------------
      1         11           0       -3.720447    1.540302   -0.427864
      2         11           0       -0.656206    4.182554   -0.430529
      3         11           0       -1.202483   -3.207411   -0.558843
      4         11           0        2.838027   -3.075417   -0.172113
      5         11           0        4.303075   -0.442368   -0.002633
      6         11           0        2.340119    3.069628    0.667309
      7         11           0       -3.902086   -2.067288    0.924673
 ---------------------------------------------------------------------

 SCF Done:  E(UB3LYP) =  -1136.10337010     A.U. after   22 cycles

 The electronic state is 2-A.
 Alpha  occ. eigenvalues --  -38.44894 -38.44894 -38.44797 -38.44690 -38.44547
 Alpha  occ. eigenvalues --  -38.44532 -38.44163  -2.20693  -2.20659  -2.20578
 Alpha  occ. eigenvalues --   -2.20430  -2.20352  -2.20302  -2.19944  -1.14413
 Alpha  occ. eigenvalues --   -1.14349  -1.14349  -1.14335  -1.14333  -1.14312
 Alpha  occ. eigenvalues --   -1.14236  -1.14227  -1.14183  -1.14117  -1.14107
 Alpha  occ. eigenvalues --   -1.14079  -1.14003  -1.13997  -1.13988  -1.13959
 Alpha  occ. eigenvalues --   -1.13942  -1.13908  -1.13602  -1.13592  -1.13568
 Alpha  occ. eigenvalues --   -0.15232  -0.13845  -0.13365  -0.10752
 Alpha virt. eigenvalues --   -0.07871  -0.05163  -0.04542  -0.03521  -0.03306
 Alpha virt. eigenvalues --   -0.02570  -0.02254  -0.01870  -0.01679  -0.00889
 Alpha virt. eigenvalues --   -0.00686  -0.00145   0.00072   0.00192   0.00402

  Beta  occ. eigenvalues --  -38.44903 -38.44877 -38.44746 -38.44706 -38.44531
  Beta  occ. eigenvalues --  -38.44431 -38.44108  -2.20681  -2.20666  -2.20484
  Beta  occ. eigenvalues --   -2.20465  -2.20326  -2.20114  -2.19841  -1.14383
  Beta  occ. eigenvalues --   -1.14355  -1.14350  -1.14333  -1.14309  -1.14307
  Beta  occ. eigenvalues --   -1.14172  -1.14164  -1.14146  -1.14135  -1.14127
  Beta  occ. eigenvalues --   -1.14070  -1.13988  -1.13982  -1.13955  -1.13830
  Beta  occ. eigenvalues --   -1.13815  -1.13784  -1.13531  -1.13523  -1.13501
  Beta  occ. eigenvalues --   -0.14733  -0.13240  -0.12760
  Beta virt. eigenvalues --   -0.07886  -0.07493  -0.04769  -0.04114  -0.03289
  Beta virt. eigenvalues --   -0.02962  -0.02332  -0.02082  -0.01774  -0.01586
  Beta virt. eigenvalues --   -0.00473  -0.00389  -0.00026   0.00131   0.00360

 Mulliken charges and spin densities:
               1          2
     1  Na  -0.120589   0.523219
     2  Na   0.244371  -0.078215
     3  Na  -0.336624   0.261488
     4  Na   0.095544   0.050871
     5  Na   0.015407   0.053645
     6  Na  -0.178032   0.253385
     7  Na   0.279923  -0.064394
 Sum of Mulliken charges =  -0.00000   1.00000

 Dipole moment (field-independent basis, Debye):
    X=              0.1173    Y=             -0.8024    Z=              0.1036  Tot=              0.8176
 Quadrupole moment (field-independent basis, Debye-Ang):
   XX=            -62.0000   YY=            -67.4186   ZZ=            -71.8450
   XY=              1.7779   XZ=             -1.7262   YZ=             -0.9067

 Normal termination of Gaussian 16 at Sun Dec  3 18:20:20 2023.
