 Gaussian 16, Revision B.01,
 Gaussian 16:  ES64L-G16RevB.01 20-Dec-2017

 -------------------------
 #P B3LYP/6-311+g(d) force
 -------------------------

 -----
 DPGEN
 -----
 Symbolic Z-matrix:
 Charge =  0 Multiplicity = 2

                         Standard orientation:
 ---------------------------------------------------------------------
 Center     Atomic      Atomic             Coordinates (Angstroms)
 Number     Number       Type             X           Y           Z
 ---------------------------------------------------------------------
      1         11           0       -0.346364    0.468326   -1.248026
      2         11           0       -4.119125   -0.606642   -0.612512
      3         11           0        0.372610   -2.653721    0.668843
      4         11           0        2.375663    0.362146    1.552346
      5         11           0       -1.197189    0.232356    1.812947
      6         11           0        0.372858    3.465282   -0.369989
      7         11           0        2.541548   -1.267748   -1.803609
 ---------------------------------------------------------------------

 SCF Done:  E(UB3LYP) =  -1136.12337687     A.U. after   23 cycles

 The electronic state is 2-A.
 Alpha  occ. eigenvalues --  -38.44719 -38.44487 -38.44053 -38.44010 -38.43991
 Alpha  occ. eigenvalues --  -38.43208 -38.43156  -2.20531  -2.20221  -2.19885
 Alpha  occ. eigenvalues --   -2.19882  -2.19810  -2.19154  -2.18946  -1.14217
 Alpha  occ. eigenvalues --   -1.14182  -1.14142  -1.13897  -1.13887  -1.13837
 Alpha  occ. eigenvalues --   -1.13618  -1.13561  -1.13537  -1.13525  -1.13507
 Alpha  occ. eigenvalues --   -1.13485  -1.13475  -1.13472  -1.13420  -1.12873
 Alpha  occ. eigenvalues --   -1.12823  -1.12768  -1.12617  -1.12597  -1.12572
 Alpha  occ. eigenvalues --   -0.18011  -0.12471  -0.11602  -0.11482
 Alpha virt. eigenvalues --   -0.06376  -0.05015  -0.04472  -0.03062  -0.02837
 Alpha virt. eigenvalues --   -0.02734  -0.02047  -0.01138  -0.00976  -0.00037
 Alpha virt. eigenvalues --    0.00144   0.00223   0.00276   0.00590   0.00710

  Beta  occ. eigenvalues --  -38.44676 -38.44477 -38.43998 -38.43981 -38.43966
  Beta  occ. eigenvalues --  -38.43169 -38.43157  -2.20456  -2.20203  -2.19805
  Beta  occ. eigenvalues --   -2.19795  -2.19783  -2.19085  -2.18950  -1.14150
  Beta  occ. eigenvalues --   -1.14124  -1.14094  -1.13882  -1.13874  -1.13826
  Beta  occ. eigenvalues --   -1.13573  -1.13496  -1.13480  -1.13462  -1.13456
  Beta  occ. eigenvalues --   -1.13442  -1.13436  -1.13407  -1.13402  -1.12813
  Beta  occ. eigenvalues --   -1.12779  -1.12719  -1.12606  -1.12600  -1.12573
  Beta  occ. eigenvalues --   -0.17215  -0.12226  -0.11440
  Beta virt. eigenvalues --   -0.07617  -0.06146  -0.04870  -0.04002  -0.02884
  Beta virt. eigenvalues --   -0.02234  -0.02098  -0.01714  -0.01079  -0.00594
  Beta virt. eigenvalues --   -0.00002   0.00250   0.00282   0.00321   0.00677

 Mulliken charges and spin densities:
               1          2
     1  Na  -0.490305   0.405688
     2  Na   0.010848   0.009208
     3  Na  -0.090025   0.064047
     4  Na   0.064734   0.206115
     5  Na   0.364195   0.229117
     6  Na  -0.087486  -0.020299
     7  Na   0.228038   0.106124
 Sum of Mulliken charges =  -0.00000   1.00000

 Dipole moment (field-independent basis, Debye):
    X=              0.3381    Y=             -0.4104    Z=              0.3027  Tot=              0.6119
 Quadrupole moment (field-independent basis, Debye-Ang):
   XX=            -57.5093   YY=            -67.7260   ZZ=            -67.0316
   XY=              0.5513   XZ=              1.5748   YZ=              1.0872

 Normal termination of Gaussian 16 at Tue Dec  5 11:46:36 2023.
