 Gaussian 16, Revision B.01,
 Gaussian 16:  ES64L-G16RevB.01 20-Dec-2017

 -------------------------
 #P B3LYP/6-311+g(d) force
 -------------------------

 -----
 DPGEN
 -----
 Symbolic Z-matrix:
 Charge =  0 Multiplicity = 2

                         Standard orientation:
 ---------------------------------------------------------------------
 Center     Atomic      Atomic             Coordinates (Angstroms)
 Number     Number       Type             X           Y           Z
 ---------------------------------------------------------------------
      1         11           0        3.102934    0.056298    0.388272
      2         11           0        3.183696   -3.356270    0.704497
      3         11           0       -3.497119   -0.274220   -1.300437
      4         11           0        2.064799    4.057494    0.300678
      5         11           0       -4.696805   -0.064006    1.883615
      6         11           0       -0.337058   -1.835875   -1.133490
      7         11           0        0.179552    1.416579   -0.843135
 ---------------------------------------------------------------------

 SCF Done:  E(UB3LYP) =  -1136.12002014     A.U. after   19 cycles

 The electronic state is 2-A.
 Alpha  occ. eigenvalues --  -38.44873 -38.44551 -38.44364 -38.44169 -38.43903
 Alpha  occ. eigenvalues --  -38.43871 -38.43749  -2.20669  -2.20372  -2.20165
 Alpha  occ. eigenvalues --   -2.19961  -2.19758  -2.19642  -2.19525  -1.14304
 Alpha  occ. eigenvalues --   -1.14302  -1.14283  -1.14078  -1.14044  -1.13947
 Alpha  occ. eigenvalues --   -1.13870  -1.13867  -1.13744  -1.13650  -1.13633
 Alpha  occ. eigenvalues --   -1.13606  -1.13467  -1.13447  -1.13357  -1.13310
 Alpha  occ. eigenvalues --   -1.13305  -1.13251  -1.13189  -1.13187  -1.13148
 Alpha  occ. eigenvalues --   -0.16538  -0.13839  -0.12039  -0.11281
 Alpha virt. eigenvalues --   -0.06036  -0.05377  -0.04901  -0.03791  -0.02661
 Alpha virt. eigenvalues --   -0.02368  -0.01937  -0.01620  -0.01233  -0.00988
 Alpha virt. eigenvalues --   -0.00354  -0.00008   0.00058   0.00242   0.00567

  Beta  occ. eigenvalues --  -38.44761 -38.44500 -38.44351 -38.44176 -38.43883
  Beta  occ. eigenvalues --  -38.43864 -38.43728  -2.20462  -2.20281  -2.20140
  Beta  occ. eigenvalues --   -2.19983  -2.19723  -2.19628  -2.19485  -1.14162
  Beta  occ. eigenvalues --   -1.14159  -1.14148  -1.14011  -1.13985  -1.13881
  Beta  occ. eigenvalues --   -1.13851  -1.13851  -1.13722  -1.13672  -1.13651
  Beta  occ. eigenvalues --   -1.13570  -1.13448  -1.13426  -1.13324  -1.13301
  Beta  occ. eigenvalues --   -1.13289  -1.13236  -1.13163  -1.13154  -1.13125
  Beta  occ. eigenvalues --   -0.15968  -0.13091  -0.11857
  Beta virt. eigenvalues --   -0.07745  -0.05774  -0.05028  -0.04679  -0.03542
  Beta virt. eigenvalues --   -0.02213  -0.02160  -0.01640  -0.01427  -0.01098
  Beta virt. eigenvalues --   -0.00616  -0.00022   0.00090   0.00296   0.00403

 Mulliken charges and spin densities:
               1          2
     1  Na  -0.103970   0.158515
     2  Na   0.461582   0.122908
     3  Na  -0.100345  -0.088295
     4  Na   0.943312   0.072510
     5  Na   0.164959   0.570974
     6  Na  -0.282040   0.027967
     7  Na  -1.083499   0.135421
 Sum of Mulliken charges =  -0.00000   1.00000

 Dipole moment (field-independent basis, Debye):
    X=             -0.2972    Y=              0.0001    Z=              0.2365  Tot=              0.3798
 Quadrupole moment (field-independent basis, Debye-Ang):
   XX=            -67.8903   YY=            -61.1454   ZZ=            -67.7951
   XY=              1.4738   XZ=              2.0697   YZ=              1.2196

 Normal termination of Gaussian 16 at Wed Nov 29 03:50:57 2023.
