 Gaussian 16, Revision B.01,
 Gaussian 16:  ES64L-G16RevB.01 20-Dec-2017

 -------------------------
 #P B3LYP/6-311+g(d) force
 -------------------------

 -----
 DPGEN
 -----
 Symbolic Z-matrix:
 Charge =  0 Multiplicity = 2

                         Standard orientation:
 ---------------------------------------------------------------------
 Center     Atomic      Atomic             Coordinates (Angstroms)
 Number     Number       Type             X           Y           Z
 ---------------------------------------------------------------------
      1         11           0        0.883576    0.216169    1.706825
      2         11           0        3.752000   -1.387916    0.088798
      3         11           0       -3.159706   -2.279638    0.153221
      4         11           0       -1.046134    3.346137    0.437460
      5         11           0        1.870333    1.440851   -1.285299
      6         11           0        0.044351   -1.888880   -0.450771
      7         11           0       -2.344421    0.553278   -0.650234
 ---------------------------------------------------------------------

 SCF Done:  E(UB3LYP) =  -1136.12621434     A.U. after   22 cycles

 The electronic state is 2-A.
 Alpha  occ. eigenvalues --  -38.44906 -38.44041 -38.44003 -38.43953 -38.43717
 Alpha  occ. eigenvalues --  -38.43492 -38.43207  -2.20685  -2.19905  -2.19893
 Alpha  occ. eigenvalues --   -2.19788  -2.19623  -2.19297  -2.19125  -1.14365
 Alpha  occ. eigenvalues --   -1.14345  -1.14310  -1.13656  -1.13617  -1.13597
 Alpha  occ. eigenvalues --   -1.13572  -1.13529  -1.13472  -1.13471  -1.13447
 Alpha  occ. eigenvalues --   -1.13372  -1.13313  -1.13288  -1.13235  -1.12976
 Alpha  occ. eigenvalues --   -1.12951  -1.12926  -1.12828  -1.12770  -1.12694
 Alpha  occ. eigenvalues --   -0.18091  -0.13688  -0.12417  -0.09764
 Alpha virt. eigenvalues --   -0.06440  -0.05675  -0.04783  -0.03126  -0.02599
 Alpha virt. eigenvalues --   -0.02380  -0.01886  -0.01583  -0.00738  -0.00355
 Alpha virt. eigenvalues --   -0.00030   0.00201   0.00594   0.00668   0.00696

  Beta  occ. eigenvalues --  -38.44902 -38.44042 -38.43991 -38.43897 -38.43707
  Beta  occ. eigenvalues --  -38.43492 -38.43122  -2.20682  -2.19896  -2.19886
  Beta  occ. eigenvalues --   -2.19685  -2.19607  -2.19299  -2.18970  -1.14366
  Beta  occ. eigenvalues --   -1.14319  -1.14310  -1.13643  -1.13615  -1.13578
  Beta  occ. eigenvalues --   -1.13546  -1.13522  -1.13446  -1.13402  -1.13391
  Beta  occ. eigenvalues --   -1.13303  -1.13295  -1.13263  -1.13228  -1.12979
  Beta  occ. eigenvalues --   -1.12938  -1.12928  -1.12724  -1.12657  -1.12583
  Beta  occ. eigenvalues --   -0.17474  -0.13420  -0.12271
  Beta virt. eigenvalues --   -0.06329  -0.05998  -0.05485  -0.04753  -0.02555
  Beta virt. eigenvalues --   -0.02323  -0.02025  -0.01530  -0.01017  -0.00728
  Beta virt. eigenvalues --   -0.00197   0.00180   0.00321   0.00658   0.00707

 Mulliken charges and spin densities:
               1          2
     1  Na  -0.235459   0.325582
     2  Na   0.660877   0.125648
     3  Na   0.619183  -0.030272
     4  Na   0.263514  -0.019094
     5  Na  -0.416577   0.413751
     6  Na  -0.470565   0.130891
     7  Na  -0.420974   0.053494
 Sum of Mulliken charges =  -0.00000   1.00000

 Dipole moment (field-independent basis, Debye):
    X=              0.3149    Y=             -0.6981    Z=              0.4780  Tot=              0.9028
 Quadrupole moment (field-independent basis, Debye-Ang):
   XX=            -53.1602   YY=            -61.6349   ZZ=            -76.8881
   XY=             -2.3018   XZ=             -0.0782   YZ=              0.5367

 Normal termination of Gaussian 16 at Wed Nov 29 15:43:06 2023.
