 Gaussian 16, Revision B.01,
 Gaussian 16:  ES64L-G16RevB.01 20-Dec-2017

 -------------------------
 #P B3LYP/6-311+g(d) force
 -------------------------

 -----
 DPGEN
 -----
 Symbolic Z-matrix:
 Charge =  0 Multiplicity = 2

                         Standard orientation:
 ---------------------------------------------------------------------
 Center     Atomic      Atomic             Coordinates (Angstroms)
 Number     Number       Type             X           Y           Z
 ---------------------------------------------------------------------
      1         11           0       -2.073686   -2.561672   -0.111221
      2         11           0        2.594048   -2.140117    0.244780
      3         11           0        0.393148   -0.752652   -1.586773
      4         11           0        2.408109    1.530721   -0.253183
      5         11           0        0.103451    0.139400    2.000700
      6         11           0       -3.113373    0.708733   -0.024704
      7         11           0       -0.311696    3.075587   -0.269600
 ---------------------------------------------------------------------

 SCF Done:  E(UB3LYP) =  -1136.13366892     A.U. after   19 cycles

 The electronic state is 2-A.
 Alpha  occ. eigenvalues --  -38.44219 -38.44193 -38.44135 -38.43739 -38.43497
 Alpha  occ. eigenvalues --  -38.43385 -38.43271  -2.20012  -2.20009  -2.19936
 Alpha  occ. eigenvalues --   -2.19633  -2.19370  -2.19226  -2.19203  -1.13699
 Alpha  occ. eigenvalues --   -1.13689  -1.13678  -1.13664  -1.13659  -1.13650
 Alpha  occ. eigenvalues --   -1.13614  -1.13591  -1.13564  -1.13341  -1.13299
 Alpha  occ. eigenvalues --   -1.13271  -1.13042  -1.13000  -1.12982  -1.12889
 Alpha  occ. eigenvalues --   -1.12881  -1.12879  -1.12868  -1.12842  -1.12830
 Alpha  occ. eigenvalues --   -0.18271  -0.13034  -0.12538  -0.10396
 Alpha virt. eigenvalues --   -0.05974  -0.05314  -0.04954  -0.03089  -0.02890
 Alpha virt. eigenvalues --   -0.02325  -0.01616  -0.01360  -0.00705  -0.00458
 Alpha virt. eigenvalues --   -0.00010   0.00340   0.00760   0.00777   0.00864

  Beta  occ. eigenvalues --  -38.44218 -38.44188 -38.44132 -38.43726 -38.43402
  Beta  occ. eigenvalues --  -38.43380 -38.43219  -2.20013  -2.20004  -2.19934
  Beta  occ. eigenvalues --   -2.19614  -2.19219  -2.19195  -2.19107  -1.13690
  Beta  occ. eigenvalues --   -1.13680  -1.13678  -1.13664  -1.13651  -1.13637
  Beta  occ. eigenvalues --   -1.13604  -1.13581  -1.13565  -1.13329  -1.13269
  Beta  occ. eigenvalues --   -1.13245  -1.12926  -1.12889  -1.12878  -1.12871
  Beta  occ. eigenvalues --   -1.12858  -1.12842  -1.12811  -1.12772  -1.12761
  Beta  occ. eigenvalues --   -0.17570  -0.12833  -0.12326
  Beta virt. eigenvalues --   -0.06542  -0.05953  -0.05215  -0.04889  -0.02363
  Beta virt. eigenvalues --   -0.02181  -0.01530  -0.01366  -0.01214  -0.00740
  Beta virt. eigenvalues --   -0.00493   0.00153   0.00383   0.00766   0.00831

 Mulliken charges and spin densities:
               1          2
     1  Na   0.083484  -0.096762
     2  Na   0.183818  -0.053380
     3  Na   0.003845   0.351880
     4  Na   0.285487   0.137249
     5  Na  -0.320283   0.718380
     6  Na  -0.033409  -0.014702
     7  Na  -0.202943  -0.042666
 Sum of Mulliken charges =  -0.00000   1.00000

 Dipole moment (field-independent basis, Debye):
    X=             -0.0868    Y=             -0.4727    Z=              0.1207  Tot=              0.4956
 Quadrupole moment (field-independent basis, Debye-Ang):
   XX=            -57.0176   YY=            -60.2789   ZZ=            -76.2148
   XY=             -1.6740   XZ=              0.6508   YZ=             -1.7987

 Normal termination of Gaussian 16 at Thu Dec  7 07:21:03 2023.
