 Gaussian 16, Revision B.01,
 Gaussian 16:  ES64L-G16RevB.01 20-Dec-2017

 -------------------------
 #P B3LYP/6-311+g(d) force
 -------------------------

 -----
 DPGEN
 -----
 Symbolic Z-matrix:
 Charge =  0 Multiplicity = 2

                         Standard orientation:
 ---------------------------------------------------------------------
 Center     Atomic      Atomic             Coordinates (Angstroms)
 Number     Number       Type             X           Y           Z
 ---------------------------------------------------------------------
      1         11           0        3.397044   -1.672918    0.810536
      2         11           0        2.914061    1.756850   -0.458277
      3         11           0       -3.509742    0.538826    1.309035
      4         11           0       -0.003436   -0.011944    1.978408
      5         11           0        0.367075   -1.517165   -1.457995
      6         11           0       -3.101666   -1.010038   -1.178348
      7         11           0       -0.063336    1.916390   -1.003358
 ---------------------------------------------------------------------

 SCF Done:  E(UB3LYP) =  -1136.11446121     A.U. after   30 cycles

 The electronic state is 2-A.
 Alpha  occ. eigenvalues --  -38.45463 -38.45018 -38.44835 -38.44617 -38.44354
 Alpha  occ. eigenvalues --  -38.43339 -38.42391  -2.21271  -2.20864  -2.20683
 Alpha  occ. eigenvalues --   -2.20455  -2.20193  -2.19113  -2.18281  -1.14962
 Alpha  occ. eigenvalues --   -1.14919  -1.14874  -1.14639  -1.14505  -1.14485
 Alpha  occ. eigenvalues --   -1.14333  -1.14321  -1.14293  -1.14142  -1.14108
 Alpha  occ. eigenvalues --   -1.14051  -1.13877  -1.13853  -1.13814  -1.12797
 Alpha  occ. eigenvalues --   -1.12785  -1.12752  -1.11973  -1.11941  -1.11919
 Alpha  occ. eigenvalues --   -0.18162  -0.14062  -0.11890  -0.10787
 Alpha virt. eigenvalues --   -0.07326  -0.05196  -0.04742  -0.03431  -0.02865
 Alpha virt. eigenvalues --   -0.02693  -0.02333  -0.01313  -0.01088  -0.00154
 Alpha virt. eigenvalues --    0.00039   0.00168   0.00291   0.00487   0.00675

  Beta  occ. eigenvalues --  -38.45397 -38.44990 -38.44814 -38.44543 -38.44341
  Beta  occ. eigenvalues --  -38.43356 -38.42386  -2.21150  -2.20810  -2.20649
  Beta  occ. eigenvalues --   -2.20323  -2.20168  -2.19145  -2.18275  -1.14881
  Beta  occ. eigenvalues --   -1.14839  -1.14773  -1.14611  -1.14461  -1.14446
  Beta  occ. eigenvalues --   -1.14304  -1.14288  -1.14261  -1.14059  -1.14014
  Beta  occ. eigenvalues --   -1.13939  -1.13862  -1.13834  -1.13797  -1.12819
  Beta  occ. eigenvalues --   -1.12803  -1.12772  -1.11974  -1.11918  -1.11912
  Beta  occ. eigenvalues --   -0.17387  -0.13990  -0.10640
  Beta virt. eigenvalues --   -0.07834  -0.07165  -0.04762  -0.04329  -0.02920
  Beta virt. eigenvalues --   -0.02714  -0.02233  -0.01749  -0.01117  -0.00824
  Beta virt. eigenvalues --   -0.00083   0.00053   0.00296   0.00347   0.00578

 Mulliken charges and spin densities:
               1          2
     1  Na   0.455507  -0.118894
     2  Na   0.052105  -0.021998
     3  Na   0.318296   0.146978
     4  Na  -0.532636   0.439503
     5  Na  -0.348591   0.374229
     6  Na   0.186757  -0.000392
     7  Na  -0.131439   0.180574
 Sum of Mulliken charges =  -0.00000   1.00000

 Dipole moment (field-independent basis, Debye):
    X=             -0.8766    Y=              0.2347    Z=              0.2838  Tot=              0.9509
 Quadrupole moment (field-independent basis, Debye-Ang):
   XX=            -50.1657   YY=            -79.6234   ZZ=            -68.6638
   XY=              1.7044   XZ=             -0.2392   YZ=              4.3182

 Normal termination of Gaussian 16 at Sun Dec  3 21:37:45 2023.
