 Gaussian 16, Revision B.01,
 Gaussian 16:  ES64L-G16RevB.01 20-Dec-2017

 -------------------------
 #P B3LYP/6-311+g(d) force
 -------------------------

 -----
 DPGEN
 -----
 Symbolic Z-matrix:
 Charge =  0 Multiplicity = 2

                         Standard orientation:
 ---------------------------------------------------------------------
 Center     Atomic      Atomic             Coordinates (Angstroms)
 Number     Number       Type             X           Y           Z
 ---------------------------------------------------------------------
      1         11           0       -1.858198   -0.376819    2.617850
      2         11           0       -3.968266    0.955315   -0.010109
      3         11           0        3.143562    1.216116   -0.059871
      4         11           0       -3.430045   -2.110949   -1.302503
      5         11           0        5.892702   -1.081230    0.072732
      6         11           0       -0.470466    2.210513   -0.884252
      7         11           0        0.690711   -0.812946   -0.433847
 ---------------------------------------------------------------------

 SCF Done:  E(UB3LYP) =  -1136.10048796     A.U. after   30 cycles

 The electronic state is 2-A.
 Alpha  occ. eigenvalues --  -38.45980 -38.45753 -38.44658 -38.44583 -38.44020
 Alpha  occ. eigenvalues --  -38.43600 -38.43393  -2.21801  -2.21541  -2.20472
 Alpha  occ. eigenvalues --   -2.20363  -2.19842  -2.19348  -2.19215  -1.15482
 Alpha  occ. eigenvalues --   -1.15463  -1.15422  -1.15217  -1.15196  -1.15186
 Alpha  occ. eigenvalues --   -1.14125  -1.14088  -1.14075  -1.14032  -1.14015
 Alpha  occ. eigenvalues --   -1.13988  -1.13557  -1.13534  -1.13419  -1.13017
 Alpha  occ. eigenvalues --   -1.13015  -1.12977  -1.12896  -1.12873  -1.12854
 Alpha  occ. eigenvalues --   -0.17208  -0.13889  -0.11167  -0.10836
 Alpha virt. eigenvalues --   -0.08223  -0.05519  -0.04731  -0.03452  -0.03166
 Alpha virt. eigenvalues --   -0.02514  -0.02340  -0.02219  -0.01156  -0.01117
 Alpha virt. eigenvalues --   -0.00566  -0.00107  -0.00044   0.00393   0.00429

  Beta  occ. eigenvalues --  -38.45972 -38.45749 -38.44547 -38.44529 -38.44020
  Beta  occ. eigenvalues --  -38.43590 -38.43389  -2.21787  -2.21538  -2.20297
  Beta  occ. eigenvalues --   -2.20231  -2.19843  -2.19329  -2.19209  -1.15469
  Beta  occ. eigenvalues --   -1.15444  -1.15416  -1.15203  -1.15191  -1.15176
  Beta  occ. eigenvalues --   -1.13986  -1.13963  -1.13960  -1.13948  -1.13924
  Beta  occ. eigenvalues --   -1.13915  -1.13559  -1.13534  -1.13417  -1.13004
  Beta  occ. eigenvalues --   -1.13003  -1.12964  -1.12889  -1.12868  -1.12850
  Beta  occ. eigenvalues --   -0.16674  -0.13633  -0.10642
  Beta virt. eigenvalues --   -0.08129  -0.07121  -0.05377  -0.04580  -0.02976
  Beta virt. eigenvalues --   -0.02911  -0.02152  -0.01776  -0.01715  -0.01111
  Beta virt. eigenvalues --   -0.00800  -0.00493  -0.00071   0.00186   0.00448

 Mulliken charges and spin densities:
               1          2
     1  Na  -0.011651   0.514047
     2  Na   0.174461   0.340938
     3  Na   0.217609  -0.043405
     4  Na   0.321063   0.082612
     5  Na   0.216017   0.024538
     6  Na   0.163043  -0.083987
     7  Na  -1.080542   0.165258
 Sum of Mulliken charges =  -0.00000   1.00000

 Dipole moment (field-independent basis, Debye):
    X=             -1.7896    Y=              0.4013    Z=             -0.2340  Tot=              1.8489
 Quadrupole moment (field-independent basis, Debye-Ang):
   XX=            -73.6991   YY=            -61.2831   ZZ=            -76.3626
   XY=             -6.2842   XZ=             -0.0601   YZ=              2.5758

 Normal termination of Gaussian 16 at Wed Nov 29 03:14:57 2023.
