 Gaussian 16, Revision B.01,
 Gaussian 16:  ES64L-G16RevB.01 20-Dec-2017

 -------------------------
 #P B3LYP/6-311+g(d) force
 -------------------------

 -----
 DPGEN
 -----
 Symbolic Z-matrix:
 Charge =  0 Multiplicity = 2

                         Standard orientation:
 ---------------------------------------------------------------------
 Center     Atomic      Atomic             Coordinates (Angstroms)
 Number     Number       Type             X           Y           Z
 ---------------------------------------------------------------------
      1         11           0       -0.206774   -0.154820   -1.071187
      2         11           0        0.146007   -2.950515   -0.489605
      3         11           0        2.987590   -0.673618    0.103652
      4         11           0        2.018268    2.488429   -0.437786
      5         11           0       -2.142695    2.620457   -0.003186
      6         11           0        0.062021   -0.275312    2.000400
      7         11           0       -2.864419   -1.054621   -0.102289
 ---------------------------------------------------------------------

 SCF Done:  E(UB3LYP) =  -1136.12875695     A.U. after   20 cycles

 The electronic state is 2-A.
 Alpha  occ. eigenvalues --  -38.44135 -38.44125 -38.43903 -38.43812 -38.43535
 Alpha  occ. eigenvalues --  -38.43247 -38.42827  -2.20007  -2.19897  -2.19709
 Alpha  occ. eigenvalues --   -2.19671  -2.19440  -2.19173  -2.18965  -1.13757
 Alpha  occ. eigenvalues --   -1.13660  -1.13610  -1.13575  -1.13550  -1.13537
 Alpha  occ. eigenvalues --   -1.13400  -1.13379  -1.13352  -1.13338  -1.13336
 Alpha  occ. eigenvalues --   -1.13286  -1.13240  -1.13072  -1.13043  -1.12916
 Alpha  occ. eigenvalues --   -1.12776  -1.12767  -1.12634  -1.12588  -1.12565
 Alpha  occ. eigenvalues --   -0.18740  -0.13127  -0.12486  -0.10228
 Alpha virt. eigenvalues --   -0.05749  -0.05373  -0.04932  -0.02906  -0.02538
 Alpha virt. eigenvalues --   -0.02044  -0.01579  -0.01428  -0.00687  -0.00509
 Alpha virt. eigenvalues --    0.00017   0.00322   0.00777   0.00812   0.00839

  Beta  occ. eigenvalues --  -38.44128 -38.44128 -38.43893 -38.43807 -38.43518
  Beta  occ. eigenvalues --  -38.43142 -38.42788  -2.19998  -2.19903  -2.19692
  Beta  occ. eigenvalues --   -2.19664  -2.19412  -2.18980  -2.18900  -1.13749
  Beta  occ. eigenvalues --   -1.13634  -1.13603  -1.13569  -1.13555  -1.13541
  Beta  occ. eigenvalues --   -1.13393  -1.13358  -1.13340  -1.13334  -1.13306
  Beta  occ. eigenvalues --   -1.13281  -1.13216  -1.13036  -1.13017  -1.12796
  Beta  occ. eigenvalues --   -1.12643  -1.12628  -1.12556  -1.12540  -1.12514
  Beta  occ. eigenvalues --   -0.18032  -0.12882  -0.12249
  Beta virt. eigenvalues --   -0.06349  -0.05709  -0.05330  -0.04822  -0.02163
  Beta virt. eigenvalues --   -0.01900  -0.01520  -0.01382  -0.00983  -0.00684
  Beta virt. eigenvalues --   -0.00534   0.00187   0.00384   0.00796   0.00851

 Mulliken charges and spin densities:
               1          2
     1  Na  -1.244229  -0.050721
     2  Na   0.621490   0.151751
     3  Na   0.424469   0.108862
     4  Na  -0.039652   0.047438
     5  Na  -0.008442   0.003625
     6  Na  -0.207068   0.679754
     7  Na   0.453432   0.059291
 Sum of Mulliken charges =  -0.00000   1.00000

 Dipole moment (field-independent basis, Debye):
    X=             -0.1586    Y=              0.1392    Z=              0.2993  Tot=              0.3662
 Quadrupole moment (field-independent basis, Debye-Ang):
   XX=            -55.3894   YY=            -58.2130   ZZ=            -77.1695
   XY=             -0.7996   XZ=             -0.5816   YZ=              0.1867

 Normal termination of Gaussian 16 at Thu Dec  7 18:17:34 2023.
