 Gaussian 16, Revision B.01,
 Gaussian 16:  ES64L-G16RevB.01 20-Dec-2017

 -------------------------
 #P B3LYP/6-311+g(d) force
 -------------------------

 -----
 DPGEN
 -----
 Symbolic Z-matrix:
 Charge =  0 Multiplicity = 2

                         Standard orientation:
 ---------------------------------------------------------------------
 Center     Atomic      Atomic             Coordinates (Angstroms)
 Number     Number       Type             X           Y           Z
 ---------------------------------------------------------------------
      1         11           0       -1.612278    1.927751    1.648733
      2         11           0       -0.195526    3.144970   -0.654478
      3         11           0       -4.615172   -1.728237   -0.532239
      4         11           0       -1.460118   -1.262755   -1.053976
      5         11           0        0.812857   -1.098885    1.690819
      6         11           0        2.871645    0.811710   -1.337058
      7         11           0        4.198591   -1.794553    0.238200
 ---------------------------------------------------------------------

 SCF Done:  E(UB3LYP) =  -1136.11341962     A.U. after   22 cycles

 The electronic state is 2-A.
 Alpha  occ. eigenvalues --  -38.44780 -38.44675 -38.44500 -38.44460 -38.44058
 Alpha  occ. eigenvalues --  -38.43955 -38.43616  -2.20558  -2.20484  -2.20300
 Alpha  occ. eigenvalues --   -2.20286  -2.19852  -2.19741  -2.19444  -1.14232
 Alpha  occ. eigenvalues --   -1.14228  -1.14200  -1.14164  -1.14133  -1.14075
 Alpha  occ. eigenvalues --   -1.14004  -1.13976  -1.13953  -1.13938  -1.13910
 Alpha  occ. eigenvalues --   -1.13905  -1.13542  -1.13529  -1.13505  -1.13391
 Alpha  occ. eigenvalues --   -1.13389  -1.13349  -1.13113  -1.13096  -1.13080
 Alpha  occ. eigenvalues --   -0.16870  -0.13401  -0.12191  -0.10918
 Alpha virt. eigenvalues --   -0.06951  -0.05349  -0.05013  -0.03128  -0.02803
 Alpha virt. eigenvalues --   -0.02720  -0.02148  -0.01812  -0.00983  -0.00457
 Alpha virt. eigenvalues --   -0.00269  -0.00168   0.00168   0.00331   0.00662

  Beta  occ. eigenvalues --  -38.44783 -38.44594 -38.44450 -38.44444 -38.44064
  Beta  occ. eigenvalues --  -38.43919 -38.43607  -2.20566  -2.20333  -2.20267
  Beta  occ. eigenvalues --   -2.20197  -2.19867  -2.19673  -2.19426  -1.14235
  Beta  occ. eigenvalues --   -1.14226  -1.14200  -1.14065  -1.14031  -1.13996
  Beta  occ. eigenvalues --   -1.13965  -1.13919  -1.13907  -1.13894  -1.13883
  Beta  occ. eigenvalues --   -1.13829  -1.13537  -1.13534  -1.13510  -1.13345
  Beta  occ. eigenvalues --   -1.13342  -1.13313  -1.13099  -1.13084  -1.13062
  Beta  occ. eigenvalues --   -0.16249  -0.13212  -0.11843
  Beta virt. eigenvalues --   -0.07453  -0.06755  -0.04861  -0.04382  -0.02928
  Beta virt. eigenvalues --   -0.02609  -0.02489  -0.01793  -0.01566  -0.00580
  Beta virt. eigenvalues --   -0.00333  -0.00193   0.00029   0.00355   0.00532

 Mulliken charges and spin densities:
               1          2
     1  Na   0.390157   0.063346
     2  Na  -0.225884  -0.026531
     3  Na   0.318627   0.042663
     4  Na  -0.516281   0.127573
     5  Na  -0.243512   0.393164
     6  Na  -0.078809   0.419542
     7  Na   0.355701  -0.019757
 Sum of Mulliken charges =  -0.00000   1.00000

 Dipole moment (field-independent basis, Debye):
    X=              0.6064    Y=             -0.2576    Z=              0.7154  Tot=              0.9725
 Quadrupole moment (field-independent basis, Debye-Ang):
   XX=            -56.0645   YY=            -71.8340   ZZ=            -69.5781
   XY=             -7.7536   XZ=             -3.6939   YZ=             -1.5795

 Normal termination of Gaussian 16 at Mon Dec  4 04:27:03 2023.
