 Gaussian 16, Revision B.01,
 Gaussian 16:  ES64L-G16RevB.01 20-Dec-2017

 -------------------------
 #P B3LYP/6-311+g(d) force
 -------------------------

 -----
 DPGEN
 -----
 Symbolic Z-matrix:
 Charge =  0 Multiplicity = 2

                         Standard orientation:
 ---------------------------------------------------------------------
 Center     Atomic      Atomic             Coordinates (Angstroms)
 Number     Number       Type             X           Y           Z
 ---------------------------------------------------------------------
      1         11           0        2.077220    3.014296    0.075581
      2         11           0       -0.837521    2.449990   -1.367854
      3         11           0       -2.101548   -2.408348    0.904680
      4         11           0       -0.635742    1.159784    2.324117
      5         11           0       -3.304217   -0.580111   -1.360376
      6         11           0        1.325170   -1.017684    0.193242
      7         11           0        3.476639   -2.617925   -0.769390
 ---------------------------------------------------------------------

 SCF Done:  E(UB3LYP) =  -1136.11583812     A.U. after   20 cycles

 The electronic state is 2-A.
 Alpha  occ. eigenvalues --  -38.45149 -38.45078 -38.44679 -38.44393 -38.44124
 Alpha  occ. eigenvalues --  -38.43260 -38.42728  -2.20923  -2.20882  -2.20475
 Alpha  occ. eigenvalues --   -2.20198  -2.19930  -2.19094  -2.18616  -1.14602
 Alpha  occ. eigenvalues --   -1.14578  -1.14561  -1.14548  -1.14525  -1.14473
 Alpha  occ. eigenvalues --   -1.14162  -1.14132  -1.14122  -1.13875  -1.13856
 Alpha  occ. eigenvalues --   -1.13814  -1.13588  -1.13575  -1.13569  -1.12880
 Alpha  occ. eigenvalues --   -1.12721  -1.12715  -1.12284  -1.12254  -1.12246
 Alpha  occ. eigenvalues --   -0.17157  -0.13045  -0.12313  -0.11077
 Alpha virt. eigenvalues --   -0.06663  -0.05434  -0.04895  -0.03125  -0.03070
 Alpha virt. eigenvalues --   -0.02328  -0.02077  -0.01346  -0.00979  -0.00564
 Alpha virt. eigenvalues --   -0.00346   0.00177   0.00299   0.00559   0.00573

  Beta  occ. eigenvalues --  -38.45151 -38.44982 -38.44680 -38.44356 -38.44093
  Beta  occ. eigenvalues --  -38.43240 -38.42723  -2.20927  -2.20705  -2.20478
  Beta  occ. eigenvalues --   -2.20129  -2.19873  -2.19057  -2.18611  -1.14597
  Beta  occ. eigenvalues --   -1.14582  -1.14561  -1.14424  -1.14407  -1.14347
  Beta  occ. eigenvalues --   -1.14163  -1.14138  -1.14111  -1.13827  -1.13810
  Beta  occ. eigenvalues --   -1.13760  -1.13550  -1.13536  -1.13527  -1.12855
  Beta  occ. eigenvalues --   -1.12695  -1.12690  -1.12271  -1.12250  -1.12228
  Beta  occ. eigenvalues --   -0.16487  -0.13006  -0.11872
  Beta virt. eigenvalues --   -0.07514  -0.06357  -0.04964  -0.04568  -0.02846
  Beta virt. eigenvalues --   -0.02592  -0.02019  -0.01753  -0.01150  -0.00654
  Beta virt. eigenvalues --   -0.00466  -0.00094   0.00260   0.00399   0.00602

 Mulliken charges and spin densities:
               1          2
     1  Na   0.413181   0.094591
     2  Na   0.131501   0.171499
     3  Na   0.887530   0.002474
     4  Na   1.332262   0.065551
     5  Na  -0.340954   0.102656
     6  Na  -1.266724   0.361069
     7  Na  -1.156796   0.202160
 Sum of Mulliken charges =  -0.00000   1.00000

 Dipole moment (field-independent basis, Debye):
    X=             -0.4205    Y=              1.2068    Z=              0.4701  Tot=              1.3617
 Quadrupole moment (field-independent basis, Debye-Ang):
   XX=            -63.5385   YY=            -62.5437   ZZ=            -69.7173
   XY=              6.9365   XZ=             -1.0846   YZ=              0.3884

 Normal termination of Gaussian 16 at Mon Dec  4 00:16:53 2023.
