 Gaussian 16, Revision B.01,
 Gaussian 16:  ES64L-G16RevB.01 20-Dec-2017

 -------------------------
 #P B3LYP/6-311+g(d) force
 -------------------------

 -----
 DPGEN
 -----
 Symbolic Z-matrix:
 Charge =  0 Multiplicity = 2

                         Standard orientation:
 ---------------------------------------------------------------------
 Center     Atomic      Atomic             Coordinates (Angstroms)
 Number     Number       Type             X           Y           Z
 ---------------------------------------------------------------------
      1         11           0        4.683360    0.488301    0.058080
      2         11           0        2.481862   -2.056658    0.073769
      3         11           0       -1.174248   -0.561177    2.036193
      4         11           0       -2.803507    1.815531   -0.013732
      5         11           0       -0.555627   -0.749045   -1.680057
      6         11           0       -3.532775   -1.324944   -0.313776
      7         11           0        0.900935    2.387992   -0.160478
 ---------------------------------------------------------------------

 SCF Done:  E(UB3LYP) =  -1136.10881998     A.U. after   33 cycles

 The electronic state is 2-A.
 Alpha  occ. eigenvalues --  -38.45939 -38.45539 -38.44645 -38.44217 -38.44124
 Alpha  occ. eigenvalues --  -38.43466 -38.42763  -2.21748  -2.21299  -2.20506
 Alpha  occ. eigenvalues --   -2.20062  -2.19896  -2.19352  -2.18535  -1.15414
 Alpha  occ. eigenvalues --   -1.15390  -1.15379  -1.14963  -1.14948  -1.14928
 Alpha  occ. eigenvalues --   -1.14198  -1.14164  -1.14150  -1.13742  -1.13724
 Alpha  occ. eigenvalues --   -1.13686  -1.13582  -1.13566  -1.13540  -1.13018
 Alpha  occ. eigenvalues --   -1.12997  -1.12954  -1.12227  -1.12218  -1.12150
 Alpha  occ. eigenvalues --   -0.17869  -0.14031  -0.10887  -0.10567
 Alpha virt. eigenvalues --   -0.08061  -0.05823  -0.04050  -0.03522  -0.02965
 Alpha virt. eigenvalues --   -0.02420  -0.02153  -0.01880  -0.00868  -0.00781
 Alpha virt. eigenvalues --   -0.00515   0.00042   0.00189   0.00525   0.00594

  Beta  occ. eigenvalues --  -38.45888 -38.45506 -38.44639 -38.44208 -38.44129
  Beta  occ. eigenvalues --  -38.43373 -38.42759  -2.21657  -2.21236  -2.20500
  Beta  occ. eigenvalues --   -2.20049  -2.19908  -2.19179  -2.18530  -1.15345
  Beta  occ. eigenvalues --   -1.15320  -1.15313  -1.14919  -1.14905  -1.14887
  Beta  occ. eigenvalues --   -1.14202  -1.14154  -1.14114  -1.13733  -1.13715
  Beta  occ. eigenvalues --   -1.13656  -1.13593  -1.13570  -1.13532  -1.12902
  Beta  occ. eigenvalues --   -1.12884  -1.12826  -1.12226  -1.12203  -1.12147
  Beta  occ. eigenvalues --   -0.17191  -0.13677  -0.10690
  Beta virt. eigenvalues --   -0.07759  -0.06882  -0.05793  -0.03865  -0.03006
  Beta virt. eigenvalues --   -0.02751  -0.01968  -0.01657  -0.01553  -0.00796
  Beta virt. eigenvalues --   -0.00449  -0.00307   0.00061   0.00384   0.00594

 Mulliken charges and spin densities:
               1          2
     1  Na   0.114122   0.151662
     2  Na  -0.025346  -0.003578
     3  Na  -0.163494   0.246918
     4  Na  -0.045981   0.026997
     5  Na  -0.305859   0.524004
     6  Na   0.738006   0.124389
     7  Na  -0.311447  -0.070392
 Sum of Mulliken charges =  -0.00000   1.00000

 Dipole moment (field-independent basis, Debye):
    X=             -0.0293    Y=             -0.1795    Z=              0.3122  Tot=              0.3613
 Quadrupole moment (field-independent basis, Debye-Ang):
   XX=            -48.2080   YY=            -77.2397   ZZ=            -71.1648
   XY=              1.9333   XZ=              3.1461   YZ=             -1.4659

 Normal termination of Gaussian 16 at Thu Dec  7 04:32:26 2023.
