 Gaussian 16, Revision B.01,
 Gaussian 16:  ES64L-G16RevB.01 20-Dec-2017

 -------------------------
 #P B3LYP/6-311+g(d) force
 -------------------------

 -----
 DPGEN
 -----
 Symbolic Z-matrix:
 Charge =  0 Multiplicity = 2

                         Standard orientation:
 ---------------------------------------------------------------------
 Center     Atomic      Atomic             Coordinates (Angstroms)
 Number     Number       Type             X           Y           Z
 ---------------------------------------------------------------------
      1         11           0        2.797550    2.404630   -0.233562
      2         11           0        2.573401   -1.247841   -0.758639
      3         11           0        5.721914   -0.587803    0.550649
      4         11           0       -1.075716   -2.145545   -0.015679
      5         11           0       -6.072472    0.228315   -0.662083
      6         11           0       -3.613972    0.191337    1.282949
      7         11           0       -0.330705    1.156907   -0.163636
 ---------------------------------------------------------------------

 SCF Done:  E(UB3LYP) =  -1136.11659303     A.U. after   22 cycles

 The electronic state is 2-A.
 Alpha  occ. eigenvalues --  -38.44890 -38.44473 -38.44137 -38.44132 -38.44099
 Alpha  occ. eigenvalues --  -38.43784 -38.43744  -2.20706  -2.20287  -2.19959
 Alpha  occ. eigenvalues --   -2.19955  -2.19907  -2.19582  -2.19557  -1.14372
 Alpha  occ. eigenvalues --   -1.14370  -1.14300  -1.13991  -1.13964  -1.13884
 Alpha  occ. eigenvalues --   -1.13646  -1.13632  -1.13625  -1.13618  -1.13593
 Alpha  occ. eigenvalues --   -1.13569  -1.13565  -1.13547  -1.13522  -1.13316
 Alpha  occ. eigenvalues --   -1.13267  -1.13231  -1.13218  -1.13211  -1.13134
 Alpha  occ. eigenvalues --   -0.16830  -0.14078  -0.11742  -0.11312
 Alpha virt. eigenvalues --   -0.06698  -0.05442  -0.04343  -0.03775  -0.03193
 Alpha virt. eigenvalues --   -0.02363  -0.02034  -0.01577  -0.00996  -0.00825
 Alpha virt. eigenvalues --   -0.00440  -0.00116   0.00234   0.00336   0.00570

  Beta  occ. eigenvalues --  -38.44814 -38.44443 -38.44097 -38.44091 -38.44068
  Beta  occ. eigenvalues --  -38.43807 -38.43738  -2.20567  -2.20234  -2.19903
  Beta  occ. eigenvalues --   -2.19883  -2.19832  -2.19600  -2.19568  -1.14281
  Beta  occ. eigenvalues --   -1.14273  -1.14190  -1.13955  -1.13922  -1.13836
  Beta  occ. eigenvalues --   -1.13614  -1.13592  -1.13575  -1.13571  -1.13529
  Beta  occ. eigenvalues --   -1.13518  -1.13508  -1.13485  -1.13477  -1.13329
  Beta  occ. eigenvalues --   -1.13261  -1.13252  -1.13240  -1.13214  -1.13148
  Beta  occ. eigenvalues --   -0.16169  -0.13839  -0.11135
  Beta virt. eigenvalues --   -0.07795  -0.06555  -0.04894  -0.04184  -0.03571
  Beta virt. eigenvalues --   -0.02522  -0.01953  -0.01777  -0.01559  -0.00677
  Beta virt. eigenvalues --   -0.00578  -0.00264  -0.00002   0.00404   0.00432

 Mulliken charges and spin densities:
               1          2
     1  Na   0.424978  -0.051232
     2  Na  -0.537468   0.219230
     3  Na   0.400169   0.113136
     4  Na   0.328931   0.254009
     5  Na   0.191326  -0.135021
     6  Na   0.166745   0.092517
     7  Na  -0.974681   0.507362
 Sum of Mulliken charges =  -0.00000   1.00000

 Dipole moment (field-independent basis, Debye):
    X=              0.8503    Y=             -0.0795    Z=             -0.1332  Tot=              0.8644
 Quadrupole moment (field-independent basis, Debye-Ang):
   XX=            -67.7731   YY=            -66.1474   ZZ=            -68.4084
   XY=              4.5545   XZ=              5.6525   YZ=              0.4935

 Normal termination of Gaussian 16 at Mon Dec  4 05:45:13 2023.
