 Gaussian 16, Revision B.01,
 Gaussian 16:  ES64L-G16RevB.01 20-Dec-2017

 -------------------------
 #P B3LYP/6-311+g(d) force
 -------------------------

 -----
 DPGEN
 -----
 Symbolic Z-matrix:
 Charge =  0 Multiplicity = 2

                         Standard orientation:
 ---------------------------------------------------------------------
 Center     Atomic      Atomic             Coordinates (Angstroms)
 Number     Number       Type             X           Y           Z
 ---------------------------------------------------------------------
      1         11           0        2.920240   -2.185134    0.834158
      2         11           0       -2.631069    1.013948    0.873303
      3         11           0       -0.372372   -0.874378   -1.086138
      4         11           0        0.755983    0.646885    2.051593
      5         11           0        0.569633    2.743618   -0.699802
      6         11           0        2.757772    0.191091   -1.418747
      7         11           0       -4.000187   -1.536031   -0.554368
 ---------------------------------------------------------------------

 SCF Done:  E(UB3LYP) =  -1136.12913435     A.U. after   21 cycles

 The electronic state is 2-A.
 Alpha  occ. eigenvalues --  -38.44551 -38.44092 -38.44041 -38.43924 -38.43825
 Alpha  occ. eigenvalues --  -38.43603 -38.43042  -2.20404  -2.19943  -2.19933
 Alpha  occ. eigenvalues --   -2.19791  -2.19629  -2.19420  -2.18886  -1.14119
 Alpha  occ. eigenvalues --   -1.14071  -1.14020  -1.13638  -1.13623  -1.13618
 Alpha  occ. eigenvalues --   -1.13582  -1.13566  -1.13555  -1.13475  -1.13436
 Alpha  occ. eigenvalues --   -1.13384  -1.13293  -1.13287  -1.13257  -1.13088
 Alpha  occ. eigenvalues --   -1.13072  -1.13052  -1.12565  -1.12552  -1.12515
 Alpha  occ. eigenvalues --   -0.18104  -0.13772  -0.11567  -0.11255
 Alpha virt. eigenvalues --   -0.06286  -0.05282  -0.04603  -0.03152  -0.02824
 Alpha virt. eigenvalues --   -0.02622  -0.02259  -0.01271  -0.00662  -0.00198
 Alpha virt. eigenvalues --    0.00030   0.00196   0.00431   0.00544   0.00750

  Beta  occ. eigenvalues --  -38.44525 -38.44081 -38.44001 -38.43847 -38.43824
  Beta  occ. eigenvalues --  -38.43580 -38.43028  -2.20360  -2.19925  -2.19862
  Beta  occ. eigenvalues --   -2.19649  -2.19627  -2.19380  -2.18863  -1.14073
  Beta  occ. eigenvalues --   -1.14036  -1.13990  -1.13620  -1.13607  -1.13563
  Beta  occ. eigenvalues --   -1.13552  -1.13537  -1.13492  -1.13379  -1.13341
  Beta  occ. eigenvalues --   -1.13292  -1.13285  -1.13276  -1.13254  -1.13063
  Beta  occ. eigenvalues --   -1.13031  -1.13027  -1.12554  -1.12532  -1.12480
  Beta  occ. eigenvalues --   -0.17397  -0.13574  -0.11330
  Beta virt. eigenvalues --   -0.07406  -0.06096  -0.05042  -0.04193  -0.02834
  Beta virt. eigenvalues --   -0.02333  -0.02216  -0.01750  -0.01128  -0.00375
  Beta virt. eigenvalues --   -0.00127   0.00141   0.00239   0.00591   0.00685

 Mulliken charges and spin densities:
               1          2
     1  Na   0.215783   0.046203
     2  Na   0.022204  -0.000152
     3  Na  -1.389429   0.421089
     4  Na  -0.330553   0.503121
     5  Na   0.069195   0.041525
     6  Na   1.066991   0.004555
     7  Na   0.345809  -0.016342
 Sum of Mulliken charges =  -0.00000   1.00000

 Dipole moment (field-independent basis, Debye):
    X=             -0.2052    Y=              0.1331    Z=              0.0605  Tot=              0.2520
 Quadrupole moment (field-independent basis, Debye-Ang):
   XX=            -57.4239   YY=            -68.2823   ZZ=            -69.9441
   XY=              0.5180   XZ=             -0.8742   YZ=             -1.1689

 Normal termination of Gaussian 16 at Thu Dec  7 11:43:23 2023.
