 Gaussian 16, Revision B.01,
 Gaussian 16:  ES64L-G16RevB.01 20-Dec-2017

 -------------------------
 #P B3LYP/6-311+g(d) force
 -------------------------

 -----
 DPGEN
 -----
 Symbolic Z-matrix:
 Charge =  0 Multiplicity = 2

                         Standard orientation:
 ---------------------------------------------------------------------
 Center     Atomic      Atomic             Coordinates (Angstroms)
 Number     Number       Type             X           Y           Z
 ---------------------------------------------------------------------
      1         11           0       -0.526692   -0.148779    2.196068
      2         11           0        2.477325    1.995683   -0.253043
      3         11           0       -3.177980   -0.154467   -0.341366
      4         11           0        3.130982   -1.479429    0.328530
      5         11           0       -1.401206    2.704104   -0.004116
      6         11           0       -1.013691   -2.884858   -0.425590
      7         11           0        0.511262   -0.032253   -1.500484
 ---------------------------------------------------------------------

 SCF Done:  E(UB3LYP) =  -1136.13256981     A.U. after   20 cycles

 The electronic state is 2-A.
 Alpha  occ. eigenvalues --  -38.44686 -38.44284 -38.44066 -38.43806 -38.43368
 Alpha  occ. eigenvalues --  -38.43304 -38.43299  -2.20460  -2.20114  -2.19895
 Alpha  occ. eigenvalues --   -2.19646  -2.19246  -2.19186  -2.19125  -1.14133
 Alpha  occ. eigenvalues --   -1.14113  -1.14103  -1.13787  -1.13776  -1.13757
 Alpha  occ. eigenvalues --   -1.13622  -1.13549  -1.13505  -1.13304  -1.13274
 Alpha  occ. eigenvalues --   -1.13261  -1.12937  -1.12923  -1.12868  -1.12847
 Alpha  occ. eigenvalues --   -1.12836  -1.12822  -1.12798  -1.12789  -1.12765
 Alpha  occ. eigenvalues --   -0.18064  -0.13275  -0.12022  -0.10502
 Alpha virt. eigenvalues --   -0.06119  -0.05464  -0.04597  -0.03322  -0.02673
 Alpha virt. eigenvalues --   -0.02489  -0.01818  -0.01259  -0.00649  -0.00554
 Alpha virt. eigenvalues --   -0.00047   0.00321   0.00696   0.00778   0.00809

  Beta  occ. eigenvalues --  -38.44682 -38.44277 -38.44061 -38.43706 -38.43359
  Beta  occ. eigenvalues --  -38.43302 -38.43252  -2.20453  -2.20105  -2.19888
  Beta  occ. eigenvalues --   -2.19459  -2.19172  -2.19162  -2.19124  -1.14119
  Beta  occ. eigenvalues --   -1.14110  -1.14099  -1.13776  -1.13765  -1.13744
  Beta  occ. eigenvalues --   -1.13610  -1.13535  -1.13504  -1.13178  -1.13146
  Beta  occ. eigenvalues --   -1.13126  -1.12887  -1.12870  -1.12826  -1.12816
  Beta  occ. eigenvalues --   -1.12807  -1.12804  -1.12789  -1.12778  -1.12757
  Beta  occ. eigenvalues --   -0.17389  -0.13085  -0.11800
  Beta virt. eigenvalues --   -0.06672  -0.05977  -0.05424  -0.04543  -0.02632
  Beta virt. eigenvalues --   -0.01989  -0.01685  -0.01454  -0.01175  -0.00685
  Beta virt. eigenvalues --   -0.00583   0.00130   0.00371   0.00774   0.00804

 Mulliken charges and spin densities:
               1          2
     1  Na  -0.547730   0.785090
     2  Na   0.191488  -0.032660
     3  Na   0.207746   0.023143
     4  Na  -0.044033   0.025290
     5  Na   0.017174  -0.041683
     6  Na   0.091749   0.001061
     7  Na   0.083608   0.239759
 Sum of Mulliken charges =  -0.00000   1.00000

 Dipole moment (field-independent basis, Debye):
    X=              0.4379    Y=             -0.1242    Z=              0.1456  Tot=              0.4779
 Quadrupole moment (field-independent basis, Debye-Ang):
   XX=            -53.9045   YY=            -63.6220   ZZ=            -75.6841
   XY=             -0.8094   XZ=              2.2340   YZ=             -0.1769

 Normal termination of Gaussian 16 at Fri Dec  8 06:02:11 2023.
