 Gaussian 16, Revision B.01,
 Gaussian 16:  ES64L-G16RevB.01 20-Dec-2017

 -------------------------
 #P B3LYP/6-311+g(d) force
 -------------------------

 -----
 DPGEN
 -----
 Symbolic Z-matrix:
 Charge =  0 Multiplicity = 2

                         Standard orientation:
 ---------------------------------------------------------------------
 Center     Atomic      Atomic             Coordinates (Angstroms)
 Number     Number       Type             X           Y           Z
 ---------------------------------------------------------------------
      1         11           0       -0.206298    0.200743   -1.983423
      2         11           0       -2.860119    1.585730   -0.047074
      3         11           0       -2.659757   -1.857321   -0.020963
      4         11           0       -0.006535   -0.892101    2.126895
      5         11           0        0.542643    2.537649    0.402694
      6         11           0        3.335025    0.793951    0.055921
      7         11           0        1.855042   -2.368651   -0.534051
 ---------------------------------------------------------------------

 SCF Done:  E(UB3LYP) =  -1136.13241220     A.U. after   21 cycles

 The electronic state is 2-A.
 Alpha  occ. eigenvalues --  -38.44565 -38.44187 -38.44109 -38.43987 -38.43987
 Alpha  occ. eigenvalues --  -38.43666 -38.42833  -2.20363  -2.19985  -2.19923
 Alpha  occ. eigenvalues --   -2.19857  -2.19816  -2.19476  -2.18691  -1.14035
 Alpha  occ. eigenvalues --   -1.14026  -1.14006  -1.13665  -1.13656  -1.13636
 Alpha  occ. eigenvalues --   -1.13596  -1.13583  -1.13556  -1.13533  -1.13494
 Alpha  occ. eigenvalues --   -1.13476  -1.13471  -1.13452  -1.13437  -1.13148
 Alpha  occ. eigenvalues --   -1.13137  -1.13112  -1.12376  -1.12356  -1.12325
 Alpha  occ. eigenvalues --   -0.18020  -0.13208  -0.11889  -0.10931
 Alpha virt. eigenvalues --   -0.06184  -0.05634  -0.04032  -0.03441  -0.03154
 Alpha virt. eigenvalues --   -0.02688  -0.01844  -0.01283  -0.00554  -0.00131
 Alpha virt. eigenvalues --   -0.00104   0.00334   0.00608   0.00650   0.00783

  Beta  occ. eigenvalues --  -38.44565 -38.44186 -38.44108 -38.43912 -38.43906
  Beta  occ. eigenvalues --  -38.43654 -38.42822  -2.20366  -2.19987  -2.19924
  Beta  occ. eigenvalues --   -2.19719  -2.19667  -2.19456  -2.18673  -1.14035
  Beta  occ. eigenvalues --   -1.14018  -1.14008  -1.13666  -1.13641  -1.13634
  Beta  occ. eigenvalues --   -1.13583  -1.13577  -1.13561  -1.13443  -1.13397
  Beta  occ. eigenvalues --   -1.13378  -1.13370  -1.13348  -1.13331  -1.13130
  Beta  occ. eigenvalues --   -1.13112  -1.13099  -1.12366  -1.12329  -1.12309
  Beta  occ. eigenvalues --   -0.17295  -0.13046  -0.11660
  Beta virt. eigenvalues --   -0.07080  -0.06081  -0.05597  -0.03889  -0.02741
  Beta virt. eigenvalues --   -0.02402  -0.01770  -0.01716  -0.01208  -0.00603
  Beta virt. eigenvalues --   -0.00137   0.00063   0.00365   0.00742   0.00781

 Mulliken charges and spin densities:
               1          2
     1  Na  -0.088502   0.571409
     2  Na   0.135960   0.002695
     3  Na   0.155748  -0.111785
     4  Na  -0.315022   0.588538
     5  Na  -0.077493   0.056063
     6  Na   0.071551  -0.049370
     7  Na   0.117758  -0.057551
 Sum of Mulliken charges =  -0.00000   1.00000

 Dipole moment (field-independent basis, Debye):
    X=             -0.0857    Y=             -0.2067    Z=             -0.0351  Tot=              0.2265
 Quadrupole moment (field-independent basis, Debye-Ang):
   XX=            -53.2945   YY=            -69.0618   ZZ=            -72.4654
   XY=             -0.1101   XZ=             -0.0408   YZ=              1.7987

 Normal termination of Gaussian 16 at Tue Dec  5 19:50:22 2023.
