 Gaussian 16, Revision B.01,
 Gaussian 16:  ES64L-G16RevB.01 20-Dec-2017

 -------------------------
 #P B3LYP/6-311+g(d) force
 -------------------------

 -----
 DPGEN
 -----
 Symbolic Z-matrix:
 Charge =  0 Multiplicity = 2

                         Standard orientation:
 ---------------------------------------------------------------------
 Center     Atomic      Atomic             Coordinates (Angstroms)
 Number     Number       Type             X           Y           Z
 ---------------------------------------------------------------------
      1         11           0        2.567014   -2.964189    0.523340
      2         11           0        0.602380    0.959319    1.101686
      3         11           0        2.175325    3.359606   -0.423232
      4         11           0        3.873013    0.090761   -0.412832
      5         11           0       -0.280619   -1.726555   -1.070080
      6         11           0       -3.214507    0.197504    0.726031
      7         11           0       -5.722607    0.083553   -0.444913
 ---------------------------------------------------------------------

 SCF Done:  E(UB3LYP) =  -1136.11747112     A.U. after   20 cycles

 The electronic state is 2-A.
 Alpha  occ. eigenvalues --  -38.44861 -38.44625 -38.44198 -38.44092 -38.43778
 Alpha  occ. eigenvalues --  -38.43632 -38.43527  -2.20657  -2.20443  -2.20055
 Alpha  occ. eigenvalues --   -2.19963  -2.19583  -2.19435  -2.19390  -1.14338
 Alpha  occ. eigenvalues --   -1.14322  -1.14260  -1.14131  -1.14101  -1.14036
 Alpha  occ. eigenvalues --   -1.13779  -1.13748  -1.13716  -1.13673  -1.13565
 Alpha  occ. eigenvalues --   -1.13563  -1.13253  -1.13244  -1.13219  -1.13103
 Alpha  occ. eigenvalues --   -1.13099  -1.13067  -1.13047  -1.13033  -1.13015
 Alpha  occ. eigenvalues --   -0.16949  -0.14011  -0.12133  -0.11047
 Alpha virt. eigenvalues --   -0.06253  -0.05445  -0.04446  -0.03709  -0.02874
 Alpha virt. eigenvalues --   -0.02264  -0.01780  -0.01668  -0.01295  -0.00665
 Alpha virt. eigenvalues --   -0.00460  -0.00022   0.00415   0.00494   0.00662

  Beta  occ. eigenvalues --  -38.44829 -38.44566 -38.44160 -38.44017 -38.43765
  Beta  occ. eigenvalues --  -38.43633 -38.43524  -2.20599  -2.20334  -2.19987
  Beta  occ. eigenvalues --   -2.19823  -2.19562  -2.19436  -2.19395  -1.14299
  Beta  occ. eigenvalues --   -1.14274  -1.14223  -1.14057  -1.14032  -1.13950
  Beta  occ. eigenvalues --   -1.13703  -1.13692  -1.13673  -1.13607  -1.13470
  Beta  occ. eigenvalues --   -1.13467  -1.13241  -1.13217  -1.13203  -1.13101
  Beta  occ. eigenvalues --   -1.13098  -1.13066  -1.13048  -1.13044  -1.12955
  Beta  occ. eigenvalues --   -0.16285  -0.13202  -0.12040
  Beta virt. eigenvalues --   -0.07645  -0.05940  -0.05098  -0.04022  -0.03427
  Beta virt. eigenvalues --   -0.02621  -0.02167  -0.01486  -0.01184  -0.01139
  Beta virt. eigenvalues --   -0.00431  -0.00165   0.00127   0.00538   0.00567

 Mulliken charges and spin densities:
               1          2
     1  Na   0.243032   0.135680
     2  Na  -0.692886   0.002503
     3  Na   0.565042  -0.031872
     4  Na   0.266953   0.464219
     5  Na  -0.220795  -0.074266
     6  Na  -0.413590   0.221712
     7  Na   0.252245   0.282023
 Sum of Mulliken charges =  -0.00000   1.00000

 Dipole moment (field-independent basis, Debye):
    X=              0.7921    Y=             -0.2700    Z=             -0.6471  Tot=              1.0579
 Quadrupole moment (field-independent basis, Debye-Ang):
   XX=            -68.2615   YY=            -67.0478   ZZ=            -65.5286
   XY=              0.9535   XZ=              2.6325   YZ=             -1.7305

 Normal termination of Gaussian 16 at Mon Dec  4 02:40:59 2023.
