 Gaussian 16, Revision B.01,
 Gaussian 16:  ES64L-G16RevB.01 20-Dec-2017

 -------------------------
 #P B3LYP/6-311+g(d) force
 -------------------------

 -----
 DPGEN
 -----
 Symbolic Z-matrix:
 Charge =  0 Multiplicity = 2

                         Standard orientation:
 ---------------------------------------------------------------------
 Center     Atomic      Atomic             Coordinates (Angstroms)
 Number     Number       Type             X           Y           Z
 ---------------------------------------------------------------------
      1         11           0       -2.718224   -1.406517    0.509593
      2         11           0       -2.367266    1.767838   -0.582754
      3         11           0        0.016561   -0.137067   -1.644681
      4         11           0        1.024269    3.143511    0.198742
      5         11           0        3.251944   -0.505110   -0.245801
      6         11           0        0.425414   -2.783755   -0.337128
      7         11           0        0.367301   -0.078899    2.102030
 ---------------------------------------------------------------------

 SCF Done:  E(UB3LYP) =  -1136.13433947     A.U. after   20 cycles

 The electronic state is 2-A.
 Alpha  occ. eigenvalues --  -38.44254 -38.43915 -38.43869 -38.43600 -38.43570
 Alpha  occ. eigenvalues --  -38.43554 -38.43388  -2.20046  -2.19726  -2.19680
 Alpha  occ. eigenvalues --   -2.19462  -2.19444  -2.19396  -2.19366  -1.13727
 Alpha  occ. eigenvalues --   -1.13702  -1.13683  -1.13395  -1.13365  -1.13355
 Alpha  occ. eigenvalues --   -1.13344  -1.13329  -1.13324  -1.13287  -1.13172
 Alpha  occ. eigenvalues --   -1.13120  -1.13114  -1.13079  -1.13073  -1.13058
 Alpha  occ. eigenvalues --   -1.13029  -1.13020  -1.13015  -1.12964  -1.12959
 Alpha  occ. eigenvalues --   -0.18383  -0.12786  -0.12363  -0.10899
 Alpha virt. eigenvalues --   -0.05756  -0.05164  -0.04653  -0.03192  -0.03012
 Alpha virt. eigenvalues --   -0.02698  -0.01541  -0.01237  -0.00436  -0.00293
 Alpha virt. eigenvalues --   -0.00001   0.00354   0.00778   0.00823   0.00898

  Beta  occ. eigenvalues --  -38.44251 -38.43916 -38.43776 -38.43588 -38.43558
  Beta  occ. eigenvalues --  -38.43545 -38.43324  -2.20044  -2.19684  -2.19555
  Beta  occ. eigenvalues --   -2.19445  -2.19424  -2.19381  -2.19250  -1.13713
  Beta  occ. eigenvalues --   -1.13702  -1.13678  -1.13353  -1.13339  -1.13327
  Beta  occ. eigenvalues --   -1.13283  -1.13250  -1.13239  -1.13212  -1.13147
  Beta  occ. eigenvalues --   -1.13101  -1.13081  -1.13068  -1.13060  -1.13031
  Beta  occ. eigenvalues --   -1.13019  -1.13005  -1.12942  -1.12892  -1.12879
  Beta  occ. eigenvalues --   -0.17654  -0.12539  -0.12148
  Beta virt. eigenvalues --   -0.06998  -0.05764  -0.05024  -0.04611  -0.02464
  Beta virt. eigenvalues --   -0.02277  -0.01680  -0.01446  -0.01142  -0.00428
  Beta virt. eigenvalues --   -0.00334   0.00118   0.00384   0.00801   0.00861

 Mulliken charges and spin densities:
               1          2
     1  Na   0.020213   0.100037
     2  Na   0.107094  -0.003136
     3  Na   0.092930   0.303895
     4  Na  -0.135205  -0.079886
     5  Na  -0.029067  -0.101717
     6  Na   0.345042   0.040669
     7  Na  -0.401007   0.740138
 Sum of Mulliken charges =  -0.00000   1.00000

 Dipole moment (field-independent basis, Debye):
    X=              0.4160    Y=              0.0182    Z=              0.1942  Tot=              0.4595
 Quadrupole moment (field-independent basis, Debye-Ang):
   XX=            -57.6062   YY=            -62.1470   ZZ=            -73.7387
   XY=              0.6000   XZ=             -0.8194   YZ=             -0.3319

 Normal termination of Gaussian 16 at Thu Dec  7 20:06:00 2023.
