 Gaussian 16, Revision B.01,
 Gaussian 16:  ES64L-G16RevB.01 20-Dec-2017

 -------------------------
 #P B3LYP/6-311+g(d) force
 -------------------------

 -----
 DPGEN
 -----
 Symbolic Z-matrix:
 Charge =  0 Multiplicity = 2

                         Standard orientation:
 ---------------------------------------------------------------------
 Center     Atomic      Atomic             Coordinates (Angstroms)
 Number     Number       Type             X           Y           Z
 ---------------------------------------------------------------------
      1         11           0        0.075664   -0.996152   -1.320842
      2         11           0        2.157381    1.466787   -1.060884
      3         11           0       -3.760135   -0.313774   -0.553299
      4         11           0       -1.578597    2.063132    0.046987
      5         11           0        1.097402    1.130487    1.811148
      6         11           0        3.340206   -1.437289   -0.036570
      7         11           0       -1.331921   -1.913191    1.113460
 ---------------------------------------------------------------------

 SCF Done:  E(UB3LYP) =  -1136.12233693     A.U. after   22 cycles

 The electronic state is 2-A.
 Alpha  occ. eigenvalues --  -38.44946 -38.44711 -38.44044 -38.43813 -38.43650
 Alpha  occ. eigenvalues --  -38.43148 -38.42951  -2.20771  -2.20513  -2.19979
 Alpha  occ. eigenvalues --   -2.19742  -2.19535  -2.19063  -2.18810  -1.14440
 Alpha  occ. eigenvalues --   -1.14436  -1.14397  -1.14186  -1.14179  -1.14157
 Alpha  occ. eigenvalues --   -1.13766  -1.13666  -1.13566  -1.13440  -1.13420
 Alpha  occ. eigenvalues --   -1.13326  -1.13226  -1.13156  -1.13134  -1.12729
 Alpha  occ. eigenvalues --   -1.12722  -1.12669  -1.12489  -1.12483  -1.12440
 Alpha  occ. eigenvalues --   -0.18610  -0.14147  -0.11359  -0.10713
 Alpha virt. eigenvalues --   -0.06964  -0.05290  -0.04128  -0.03223  -0.02701
 Alpha virt. eigenvalues --   -0.02542  -0.02150  -0.01222  -0.00519  -0.00151
 Alpha virt. eigenvalues --    0.00091   0.00218   0.00466   0.00744   0.00786

  Beta  occ. eigenvalues --  -38.44931 -38.44718 -38.44016 -38.43786 -38.43608
  Beta  occ. eigenvalues --  -38.43085 -38.42942  -2.20743  -2.20529  -2.19931
  Beta  occ. eigenvalues --   -2.19693  -2.19458  -2.18945  -2.18797  -1.14422
  Beta  occ. eigenvalues --   -1.14406  -1.14380  -1.14200  -1.14174  -1.14166
  Beta  occ. eigenvalues --   -1.13697  -1.13638  -1.13534  -1.13403  -1.13378
  Beta  occ. eigenvalues --   -1.13291  -1.13174  -1.13098  -1.13071  -1.12656
  Beta  occ. eigenvalues --   -1.12637  -1.12582  -1.12483  -1.12455  -1.12424
  Beta  occ. eigenvalues --   -0.17927  -0.13897  -0.11168
  Beta virt. eigenvalues --   -0.06967  -0.06675  -0.05231  -0.03561  -0.03062
  Beta virt. eigenvalues --   -0.02490  -0.01968  -0.01369  -0.01094  -0.00217
  Beta virt. eigenvalues --   -0.00045   0.00143   0.00243   0.00619   0.00787

 Mulliken charges and spin densities:
               1          2
     1  Na  -0.150578   0.382121
     2  Na   0.176453   0.013712
     3  Na   0.543554   0.100799
     4  Na  -0.460277  -0.042880
     5  Na   0.011407   0.560230
     6  Na   0.146964  -0.049253
     7  Na  -0.267524   0.035271
 Sum of Mulliken charges =  -0.00000   1.00000

 Dipole moment (field-independent basis, Debye):
    X=             -0.0457    Y=             -0.3579    Z=              0.0381  Tot=              0.3628
 Quadrupole moment (field-independent basis, Debye-Ang):
   XX=            -47.1772   YY=            -74.7526   ZZ=            -71.0837
   XY=             -0.5518   XZ=              2.0142   YZ=             -2.7583

 Normal termination of Gaussian 16 at Fri Dec  8 01:49:27 2023.
