 Gaussian 16, Revision B.01,
 Gaussian 16:  ES64L-G16RevB.01 20-Dec-2017

 -------------------------
 #P B3LYP/6-311+g(d) force
 -------------------------

 -----
 DPGEN
 -----
 Symbolic Z-matrix:
 Charge =  0 Multiplicity = 2

                         Standard orientation:
 ---------------------------------------------------------------------
 Center     Atomic      Atomic             Coordinates (Angstroms)
 Number     Number       Type             X           Y           Z
 ---------------------------------------------------------------------
      1         11           0        1.324216    0.730632    1.684044
      2         11           0       -3.921327   -1.202748   -0.833255
      3         11           0        0.074614   -1.283155   -1.154250
      4         11           0       -1.180681    2.309171   -0.648689
      5         11           0        2.394656    1.456930   -1.207266
      6         11           0       -1.972709   -0.047088    1.974106
      7         11           0        3.281230   -1.963742    0.185311
 ---------------------------------------------------------------------

 SCF Done:  E(UB3LYP) =  -1136.12626994     A.U. after   23 cycles

 The electronic state is 2-A.
 Alpha  occ. eigenvalues --  -38.44350 -38.44292 -38.44290 -38.44131 -38.43660
 Alpha  occ. eigenvalues --  -38.43610 -38.43583  -2.20170  -2.20152  -2.20051
 Alpha  occ. eigenvalues --   -2.19978  -2.19576  -2.19419  -2.19385  -1.13883
 Alpha  occ. eigenvalues --   -1.13864  -1.13858  -1.13817  -1.13764  -1.13734
 Alpha  occ. eigenvalues --   -1.13723  -1.13715  -1.13681  -1.13667  -1.13628
 Alpha  occ. eigenvalues --   -1.13583  -1.13271  -1.13239  -1.13168  -1.13105
 Alpha  occ. eigenvalues --   -1.13081  -1.13053  -1.13049  -1.13037  -1.13018
 Alpha  occ. eigenvalues --   -0.18111  -0.13601  -0.11288  -0.11139
 Alpha virt. eigenvalues --   -0.06427  -0.05401  -0.04880  -0.03178  -0.02649
 Alpha virt. eigenvalues --   -0.02382  -0.02233  -0.01317  -0.00874  -0.00276
 Alpha virt. eigenvalues --    0.00157   0.00204   0.00278   0.00471   0.00566

  Beta  occ. eigenvalues --  -38.44330 -38.44278 -38.44262 -38.44075 -38.43608
  Beta  occ. eigenvalues --  -38.43595 -38.43580  -2.20136  -2.20098  -2.20028
  Beta  occ. eigenvalues --   -2.19877  -2.19484  -2.19393  -2.19381  -1.13854
  Beta  occ. eigenvalues --   -1.13827  -1.13821  -1.13778  -1.13739  -1.13703
  Beta  occ. eigenvalues --   -1.13700  -1.13695  -1.13664  -1.13594  -1.13565
  Beta  occ. eigenvalues --   -1.13497  -1.13204  -1.13158  -1.13107  -1.13082
  Beta  occ. eigenvalues --   -1.13051  -1.13048  -1.13041  -1.13021  -1.13015
  Beta  occ. eigenvalues --   -0.17412  -0.13417  -0.10935
  Beta virt. eigenvalues --   -0.07385  -0.06262  -0.05306  -0.04263  -0.02896
  Beta virt. eigenvalues --   -0.02262  -0.02018  -0.01694  -0.01141  -0.00431
  Beta virt. eigenvalues --   -0.00236   0.00193   0.00288   0.00375   0.00560

 Mulliken charges and spin densities:
               1          2
     1  Na   0.048079   0.351046
     2  Na   0.213077   0.052499
     3  Na  -0.764920   0.280841
     4  Na  -0.154435   0.178531
     5  Na   0.276046   0.174152
     6  Na   0.099720   0.085627
     7  Na   0.282433  -0.122697
 Sum of Mulliken charges =  -0.00000   1.00000

 Dipole moment (field-independent basis, Debye):
    X=             -0.0116    Y=              0.3608    Z=             -0.2327  Tot=              0.4294
 Quadrupole moment (field-independent basis, Debye-Ang):
   XX=            -52.6103   YY=            -73.7793   ZZ=            -68.6037
   XY=             -0.1652   XZ=              0.4106   YZ=             -1.9231

 Normal termination of Gaussian 16 at Thu Dec  7 10:59:34 2023.
