 Gaussian 16, Revision B.01,
 Gaussian 16:  ES64L-G16RevB.01 20-Dec-2017

 -------------------------
 #P B3LYP/6-311+g(d) force
 -------------------------

 -----
 DPGEN
 -----
 Symbolic Z-matrix:
 Charge =  0 Multiplicity = 2

                         Standard orientation:
 ---------------------------------------------------------------------
 Center     Atomic      Atomic             Coordinates (Angstroms)
 Number     Number       Type             X           Y           Z
 ---------------------------------------------------------------------
      1         11           0       -0.622765   -1.850857   -1.182935
      2         11           0        1.061594    3.501067    0.067099
      3         11           0       -3.919819   -1.218617   -0.064260
      4         11           0        0.089512   -0.476272    1.879647
      5         11           0        2.816514    0.867434   -0.876586
      6         11           0       -2.725116    1.548742   -0.108980
      7         11           0        3.300080   -2.371496    0.286015
 ---------------------------------------------------------------------

 SCF Done:  E(UB3LYP) =  -1136.11618254     A.U. after   22 cycles

 The electronic state is 2-A.
 Alpha  occ. eigenvalues --  -38.45626 -38.45011 -38.44581 -38.44351 -38.43694
 Alpha  occ. eigenvalues --  -38.43649 -38.43168  -2.21395  -2.20816  -2.20348
 Alpha  occ. eigenvalues --   -2.20202  -2.19533  -2.19472  -2.18943  -1.15097
 Alpha  occ. eigenvalues --   -1.15088  -1.14990  -1.14516  -1.14491  -1.14461
 Alpha  occ. eigenvalues --   -1.14023  -1.14014  -1.13972  -1.13873  -1.13841
 Alpha  occ. eigenvalues --   -1.13819  -1.13198  -1.13162  -1.13160  -1.13140
 Alpha  occ. eigenvalues --   -1.13134  -1.13095  -1.12616  -1.12610  -1.12582
 Alpha  occ. eigenvalues --   -0.17238  -0.13979  -0.11829  -0.09997
 Alpha virt. eigenvalues --   -0.07082  -0.05835  -0.04874  -0.03287  -0.02816
 Alpha virt. eigenvalues --   -0.02434  -0.02089  -0.01608  -0.01186  -0.00771
 Alpha virt. eigenvalues --   -0.00164   0.00056   0.00404   0.00479   0.00563

  Beta  occ. eigenvalues --  -38.45628 -38.45004 -38.44566 -38.44322 -38.43615
  Beta  occ. eigenvalues --  -38.43586 -38.43170  -2.21403  -2.20807  -2.20323
  Beta  occ. eigenvalues --   -2.20149  -2.19411  -2.19333  -2.18947  -1.15106
  Beta  occ. eigenvalues --   -1.15071  -1.15000  -1.14514  -1.14487  -1.14427
  Beta  occ. eigenvalues --   -1.14008  -1.13983  -1.13953  -1.13839  -1.13801
  Beta  occ. eigenvalues --   -1.13778  -1.13121  -1.13089  -1.13062  -1.13049
  Beta  occ. eigenvalues --   -1.13024  -1.12999  -1.12616  -1.12614  -1.12580
  Beta  occ. eigenvalues --   -0.16657  -0.13464  -0.11746
  Beta virt. eigenvalues --   -0.06905  -0.06416  -0.05593  -0.04745  -0.02908
  Beta virt. eigenvalues --   -0.02506  -0.02011  -0.01605  -0.01338  -0.01018
  Beta virt. eigenvalues --   -0.00642   0.00002   0.00255   0.00509   0.00603

 Mulliken charges and spin densities:
               1          2
     1  Na  -0.114773  -0.036603
     2  Na   0.065338  -0.010979
     3  Na   0.473853   0.230833
     4  Na  -0.282725   0.477117
     5  Na  -0.318474   0.202597
     6  Na  -0.234963   0.001630
     7  Na   0.411744   0.135405
 Sum of Mulliken charges =  -0.00000   1.00000

 Dipole moment (field-independent basis, Debye):
    X=             -0.8735    Y=             -1.3320    Z=              0.2566  Tot=              1.6134
 Quadrupole moment (field-independent basis, Debye-Ang):
   XX=            -64.1511   YY=            -65.4761   ZZ=            -71.2791
   XY=             -3.2441   XZ=              0.7122   YZ=              0.6530

 Normal termination of Gaussian 16 at Mon Dec  4 05:28:17 2023.
