 Gaussian 16, Revision B.01,
 Gaussian 16:  ES64L-G16RevB.01 20-Dec-2017

 -------------------------
 #P B3LYP/6-311+g(d) force
 -------------------------

 -----
 DPGEN
 -----
 Symbolic Z-matrix:
 Charge =  0 Multiplicity = 2

                         Standard orientation:
 ---------------------------------------------------------------------
 Center     Atomic      Atomic             Coordinates (Angstroms)
 Number     Number       Type             X           Y           Z
 ---------------------------------------------------------------------
      1         11           0       -2.040083    2.307922    0.005372
      2         11           0        1.873445    2.140851   -0.146027
      3         11           0       -0.089645   -0.161445   -1.641069
      4         11           0       -0.007242   -2.575946    0.206635
      5         11           0       -2.889186   -1.077915   -0.037632
      6         11           0        0.251052    0.230792    1.754080
      7         11           0        2.901659   -0.864258   -0.141359
 ---------------------------------------------------------------------

 SCF Done:  E(UB3LYP) =  -1136.13527125     A.U. after   21 cycles

 The electronic state is 2-A.
 Alpha  occ. eigenvalues --  -38.44004 -38.43877 -38.43643 -38.43566 -38.43067
 Alpha  occ. eigenvalues --  -38.43045 -38.42869  -2.19870  -2.19783  -2.19473
 Alpha  occ. eigenvalues --   -2.19467  -2.19082  -2.19076  -2.18831  -1.13552
 Alpha  occ. eigenvalues --   -1.13532  -1.13512  -1.13476  -1.13439  -1.13439
 Alpha  occ. eigenvalues --   -1.13181  -1.13143  -1.13139  -1.13132  -1.13107
 Alpha  occ. eigenvalues --   -1.13082  -1.12842  -1.12758  -1.12724  -1.12712
 Alpha  occ. eigenvalues --   -1.12687  -1.12673  -1.12496  -1.12473  -1.12443
 Alpha  occ. eigenvalues --   -0.19363  -0.13463  -0.12459  -0.10651
 Alpha virt. eigenvalues --   -0.05621  -0.05372  -0.04312  -0.03220  -0.02716
 Alpha virt. eigenvalues --   -0.02221  -0.01624  -0.01094  -0.00240  -0.00079
 Alpha virt. eigenvalues --    0.00034   0.00356   0.00793   0.00902   0.00942

  Beta  occ. eigenvalues --  -38.44002 -38.43869 -38.43641 -38.43557 -38.42984
  Beta  occ. eigenvalues --  -38.42973 -38.42856  -2.19868  -2.19773  -2.19468
  Beta  occ. eigenvalues --   -2.19460  -2.18952  -2.18923  -2.18813  -1.13550
  Beta  occ. eigenvalues --   -1.13519  -1.13506  -1.13472  -1.13437  -1.13397
  Beta  occ. eigenvalues --   -1.13170  -1.13135  -1.13122  -1.13109  -1.13097
  Beta  occ. eigenvalues --   -1.13079  -1.12762  -1.12663  -1.12630  -1.12607
  Beta  occ. eigenvalues --   -1.12589  -1.12565  -1.12471  -1.12437  -1.12413
  Beta  occ. eigenvalues --   -0.18618  -0.13200  -0.12189
  Beta virt. eigenvalues --   -0.06694  -0.05583  -0.05377  -0.04317  -0.02398
  Beta virt. eigenvalues --   -0.01925  -0.01541  -0.01183  -0.01030  -0.00293
  Beta virt. eigenvalues --   -0.00117   0.00159   0.00380   0.00841   0.00891

 Mulliken charges and spin densities:
               1          2
     1  Na   0.004591  -0.145142
     2  Na   0.183380  -0.100326
     3  Na  -0.501475   0.608002
     4  Na   0.351998  -0.013005
     5  Na   0.093569  -0.072071
     6  Na  -0.480328   0.697631
     7  Na   0.348265   0.024912
 Sum of Mulliken charges =  -0.00000   1.00000

 Dipole moment (field-independent basis, Debye):
    X=             -0.1230    Y=              0.1738    Z=              0.0144  Tot=              0.2134
 Quadrupole moment (field-independent basis, Debye-Ang):
   XX=            -53.7015   YY=            -63.7329   ZZ=            -75.0802
   XY=             -0.2662   XZ=             -0.7224   YZ=             -0.7746

 Normal termination of Gaussian 16 at Wed Nov 29 02:17:12 2023.
