 Gaussian 16, Revision B.01,
 Gaussian 16:  ES64L-G16RevB.01 20-Dec-2017

 -------------------------
 #P B3LYP/6-311+g(d) force
 -------------------------

 -----
 DPGEN
 -----
 Symbolic Z-matrix:
 Charge =  0 Multiplicity = 2

                         Standard orientation:
 ---------------------------------------------------------------------
 Center     Atomic      Atomic             Coordinates (Angstroms)
 Number     Number       Type             X           Y           Z
 ---------------------------------------------------------------------
      1         11           0        1.984586    1.302195    1.420291
      2         11           0       -0.930888    0.258367   -1.050906
      3         11           0       -2.747037   -2.016529    0.840956
      4         11           0        1.573818   -2.250590   -0.608983
      5         11           0        4.488988   -0.951785   -0.135433
      6         11           0       -4.834771    0.334138   -0.055916
      7         11           0        0.465304    3.324204   -0.410009
 ---------------------------------------------------------------------

 SCF Done:  E(UB3LYP) =  -1136.12095856     A.U. after   20 cycles

 The electronic state is 2-A.
 Alpha  occ. eigenvalues --  -38.44826 -38.44565 -38.44308 -38.43955 -38.43497
 Alpha  occ. eigenvalues --  -38.43421 -38.43090  -2.20623  -2.20389  -2.20121
 Alpha  occ. eigenvalues --   -2.19815  -2.19316  -2.19248  -2.18928  -1.14306
 Alpha  occ. eigenvalues --   -1.14288  -1.14272  -1.14085  -1.14052  -1.14007
 Alpha  occ. eigenvalues --   -1.13770  -1.13764  -1.13733  -1.13511  -1.13481
 Alpha  occ. eigenvalues --   -1.13421  -1.13002  -1.12970  -1.12958  -1.12931
 Alpha  occ. eigenvalues --   -1.12914  -1.12841  -1.12600  -1.12580  -1.12571
 Alpha  occ. eigenvalues --   -0.16856  -0.14010  -0.12055  -0.10554
 Alpha virt. eigenvalues --   -0.06610  -0.04901  -0.04575  -0.03769  -0.03197
 Alpha virt. eigenvalues --   -0.02225  -0.01664  -0.01265  -0.01092  -0.00629
 Alpha virt. eigenvalues --   -0.00405  -0.00164   0.00433   0.00630   0.00642

  Beta  occ. eigenvalues --  -38.44830 -38.44546 -38.44237 -38.43912 -38.43459
  Beta  occ. eigenvalues --  -38.43397 -38.43090  -2.20635  -2.20354  -2.19988
  Beta  occ. eigenvalues --   -2.19739  -2.19244  -2.19208  -2.18928  -1.14319
  Beta  occ. eigenvalues --   -1.14303  -1.14235  -1.14061  -1.14023  -1.13977
  Beta  occ. eigenvalues --   -1.13677  -1.13671  -1.13650  -1.13461  -1.13411
  Beta  occ. eigenvalues --   -1.13372  -1.12962  -1.12922  -1.12906  -1.12903
  Beta  occ. eigenvalues --   -1.12883  -1.12788  -1.12599  -1.12579  -1.12570
  Beta  occ. eigenvalues --   -0.16243  -0.13443  -0.11904
  Beta virt. eigenvalues --   -0.07067  -0.06377  -0.04791  -0.03925  -0.03464
  Beta virt. eigenvalues --   -0.02904  -0.02120  -0.01247  -0.01146  -0.00719
  Beta virt. eigenvalues --   -0.00369  -0.00194   0.00019   0.00506   0.00677

 Mulliken charges and spin densities:
               1          2
     1  Na  -0.025951   0.170077
     2  Na  -0.814279   0.199404
     3  Na   0.272358   0.011992
     4  Na   0.040734   0.063786
     5  Na   0.105203   0.229674
     6  Na   0.098628   0.369982
     7  Na   0.323306  -0.044915
 Sum of Mulliken charges =  -0.00000   1.00000

 Dipole moment (field-independent basis, Debye):
    X=             -0.7337    Y=              0.1092    Z=              0.2288  Tot=              0.7763
 Quadrupole moment (field-independent basis, Debye-Ang):
   XX=            -67.4319   YY=            -66.8223   ZZ=            -66.2365
   XY=             -0.1104   XZ=              0.1989   YZ=             -3.8165

 Normal termination of Gaussian 16 at Tue Nov 28 22:04:45 2023.
