 Gaussian 16, Revision B.01,
 Gaussian 16:  ES64L-G16RevB.01 20-Dec-2017

 -------------------------
 #P B3LYP/6-311+g(d) force
 -------------------------

 -----
 DPGEN
 -----
 Symbolic Z-matrix:
 Charge =  0 Multiplicity = 2

                         Standard orientation:
 ---------------------------------------------------------------------
 Center     Atomic      Atomic             Coordinates (Angstroms)
 Number     Number       Type             X           Y           Z
 ---------------------------------------------------------------------
      1         11           0        1.513214    2.404527    0.126027
      2         11           0        0.240592   -2.628806   -0.417866
      3         11           0        3.360912   -0.668485   -0.195737
      4         11           0        0.093549    0.341113   -1.756648
      5         11           0       -3.346525   -1.009779   -0.218476
      6         11           0       -1.937208    2.130684    0.091903
      7         11           0        0.075467   -0.569253    2.370796
 ---------------------------------------------------------------------

 SCF Done:  E(UB3LYP) =  -1136.13251387     A.U. after   20 cycles

 The electronic state is 2-A.
 Alpha  occ. eigenvalues --  -38.44616 -38.44458 -38.44214 -38.43664 -38.43356
 Alpha  occ. eigenvalues --  -38.43221 -38.43135  -2.20398  -2.20227  -2.20037
 Alpha  occ. eigenvalues --   -2.19615  -2.19210  -2.19066  -2.19002  -1.14072
 Alpha  occ. eigenvalues --   -1.14054  -1.14039  -1.13901  -1.13891  -1.13865
 Alpha  occ. eigenvalues --   -1.13685  -1.13668  -1.13653  -1.13315  -1.13285
 Alpha  occ. eigenvalues --   -1.13234  -1.12895  -1.12875  -1.12839  -1.12768
 Alpha  occ. eigenvalues --   -1.12739  -1.12694  -1.12669  -1.12658  -1.12619
 Alpha  occ. eigenvalues --   -0.18221  -0.12890  -0.12107  -0.11040
 Alpha virt. eigenvalues --   -0.06284  -0.05007  -0.04234  -0.03238  -0.03198
 Alpha virt. eigenvalues --   -0.02793  -0.01990  -0.01067  -0.00257  -0.00211
 Alpha virt. eigenvalues --   -0.00129   0.00303   0.00707   0.00729   0.00873

  Beta  occ. eigenvalues --  -38.44616 -38.44460 -38.44106 -38.43607 -38.43352
  Beta  occ. eigenvalues --  -38.43210 -38.43131  -2.20400  -2.20232  -2.19837
  Beta  occ. eigenvalues --   -2.19511  -2.19206  -2.19050  -2.18995  -1.14060
  Beta  occ. eigenvalues --   -1.14053  -1.14043  -1.13900  -1.13889  -1.13869
  Beta  occ. eigenvalues --   -1.13553  -1.13525  -1.13514  -1.13245  -1.13210
  Beta  occ. eigenvalues --   -1.13158  -1.12889  -1.12854  -1.12841  -1.12754
  Beta  occ. eigenvalues --   -1.12702  -1.12686  -1.12662  -1.12635  -1.12619
  Beta  occ. eigenvalues --   -0.17494  -0.12745  -0.11887
  Beta virt. eigenvalues --   -0.07050  -0.06219  -0.05035  -0.04104  -0.02520
  Beta virt. eigenvalues --   -0.02362  -0.01897  -0.01796  -0.01029  -0.00282
  Beta virt. eigenvalues --   -0.00254   0.00053   0.00336   0.00807   0.00855

 Mulliken charges and spin densities:
               1          2
     1  Na   0.138893   0.074461
     2  Na   0.111827  -0.048547
     3  Na   0.204718  -0.037975
     4  Na  -0.008279   0.338188
     5  Na   0.084068  -0.065765
     6  Na   0.120263   0.038521
     7  Na  -0.651491   0.701118
 Sum of Mulliken charges =  -0.00000   1.00000

 Dipole moment (field-independent basis, Debye):
    X=              0.1269    Y=             -0.2433    Z=              0.1506  Tot=              0.3131
 Quadrupole moment (field-independent basis, Debye-Ang):
   XX=            -52.9486   YY=            -68.7511   ZZ=            -72.3900
   XY=              0.3528   XZ=              0.0686   YZ=              1.6283

 Normal termination of Gaussian 16 at Fri Dec  8 05:07:46 2023.
