 Gaussian 16, Revision B.01,
 Gaussian 16:  ES64L-G16RevB.01 20-Dec-2017

 -------------------------
 #P B3LYP/6-311+g(d) force
 -------------------------

 -----
 DPGEN
 -----
 Symbolic Z-matrix:
 Charge =  0 Multiplicity = 2

                         Standard orientation:
 ---------------------------------------------------------------------
 Center     Atomic      Atomic             Coordinates (Angstroms)
 Number     Number       Type             X           Y           Z
 ---------------------------------------------------------------------
      1         11           0       -1.260905   -0.911782    1.856909
      2         11           0        1.225507    1.659733   -0.060246
      3         11           0        1.614465   -1.190607    1.238677
      4         11           0       -0.384831   -0.930265   -1.804572
      5         11           0        4.171712   -0.060701   -0.713014
      6         11           0       -3.602231   -0.632166   -0.969411
      7         11           0       -1.763718    2.065787    0.451656
 ---------------------------------------------------------------------

 SCF Done:  E(UB3LYP) =  -1136.11317838     A.U. after   40 cycles

 The electronic state is 2-A.
 Alpha  occ. eigenvalues --  -38.45758 -38.45543 -38.45390 -38.43091 -38.43034
 Alpha  occ. eigenvalues --  -38.42887 -38.42683  -2.21593  -2.21336  -2.21215
 Alpha  occ. eigenvalues --   -2.19029  -2.18939  -2.18822  -2.18641  -1.15276
 Alpha  occ. eigenvalues --   -1.15237  -1.15216  -1.15000  -1.14988  -1.14959
 Alpha  occ. eigenvalues --   -1.14882  -1.14845  -1.14842  -1.12784  -1.12722
 Alpha  occ. eigenvalues --   -1.12705  -1.12614  -1.12610  -1.12553  -1.12538
 Alpha  occ. eigenvalues --   -1.12452  -1.12437  -1.12315  -1.12282  -1.12222
 Alpha  occ. eigenvalues --   -0.18808  -0.14285  -0.11861  -0.10662
 Alpha virt. eigenvalues --   -0.07539  -0.04895  -0.04225  -0.03474  -0.03034
 Alpha virt. eigenvalues --   -0.02389  -0.02228  -0.01477  -0.00729  -0.00138
 Alpha virt. eigenvalues --    0.00006   0.00167   0.00439   0.00779   0.00801

  Beta  occ. eigenvalues --  -38.45705 -38.45520 -38.45345 -38.43075 -38.42996
  Beta  occ. eigenvalues --  -38.42850 -38.42668  -2.21496  -2.21293  -2.21132
  Beta  occ. eigenvalues --   -2.19005  -2.18873  -2.18758  -2.18618  -1.15204
  Beta  occ. eigenvalues --   -1.15161  -1.15151  -1.14971  -1.14960  -1.14931
  Beta  occ. eigenvalues --   -1.14808  -1.14796  -1.14789  -1.12750  -1.12704
  Beta  occ. eigenvalues --   -1.12672  -1.12566  -1.12558  -1.12508  -1.12489
  Beta  occ. eigenvalues --   -1.12406  -1.12384  -1.12297  -1.12261  -1.12189
  Beta  occ. eigenvalues --   -0.18108  -0.13931  -0.10388
  Beta virt. eigenvalues --   -0.08043  -0.07246  -0.04333  -0.04236  -0.02920
  Beta virt. eigenvalues --   -0.02774  -0.01863  -0.01637  -0.01064  -0.00696
  Beta virt. eigenvalues --   -0.00044   0.00058   0.00334   0.00442   0.00813

 Mulliken charges and spin densities:
               1          2
     1  Na  -0.306099   0.256834
     2  Na  -0.365901   0.162345
     3  Na  -0.023389  -0.066849
     4  Na  -0.597416   0.321898
     5  Na   0.815175   0.146400
     6  Na   0.620755   0.164036
     7  Na  -0.143125   0.015337
 Sum of Mulliken charges =  -0.00000   1.00000

 Dipole moment (field-independent basis, Debye):
    X=              0.2301    Y=             -0.7460    Z=             -1.0929  Tot=              1.3431
 Quadrupole moment (field-independent basis, Debye-Ang):
   XX=            -41.3818   YY=            -81.4076   ZZ=            -69.7272
   XY=             -0.4988   XZ=             -2.8072   YZ=              6.5372

 Normal termination of Gaussian 16 at Thu Dec  7 06:22:07 2023.
