 Gaussian 16, Revision B.01,
 Gaussian 16:  ES64L-G16RevB.01 20-Dec-2017

 -------------------------
 #P B3LYP/6-311+g(d) force
 -------------------------

 -----
 DPGEN
 -----
 Symbolic Z-matrix:
 Charge =  0 Multiplicity = 2

                         Standard orientation:
 ---------------------------------------------------------------------
 Center     Atomic      Atomic             Coordinates (Angstroms)
 Number     Number       Type             X           Y           Z
 ---------------------------------------------------------------------
      1         11           0       -2.597568   -1.700402   -0.023228
      2         11           0        0.156403    0.142695    2.182525
      3         11           0        0.343899   -0.193689   -1.359121
      4         11           0        3.503052   -0.093292   -0.153265
      5         11           0       -2.656349    1.757928   -0.307677
      6         11           0        0.524962   -2.795604   -0.156781
      7         11           0        0.725601    2.882364   -0.182454
 ---------------------------------------------------------------------

 SCF Done:  E(UB3LYP) =  -1136.13239859     A.U. after   20 cycles

 The electronic state is 2-A.
 Alpha  occ. eigenvalues --  -38.44623 -38.43797 -38.43745 -38.43707 -38.43632
 Alpha  occ. eigenvalues --  -38.43530 -38.43088  -2.20398  -2.19606  -2.19571
 Alpha  occ. eigenvalues --   -2.19550  -2.19529  -2.19391  -2.19116  -1.14076
 Alpha  occ. eigenvalues --   -1.14046  -1.14042  -1.13361  -1.13285  -1.13280
 Alpha  occ. eigenvalues --   -1.13273  -1.13252  -1.13236  -1.13229  -1.13213
 Alpha  occ. eigenvalues --   -1.13195  -1.13181  -1.13164  -1.13105  -1.13053
 Alpha  occ. eigenvalues --   -1.13009  -1.13004  -1.12790  -1.12757  -1.12705
 Alpha  occ. eigenvalues --   -0.18437  -0.12807  -0.12603  -0.10479
 Alpha virt. eigenvalues --   -0.06074  -0.05107  -0.04800  -0.02905  -0.02823
 Alpha virt. eigenvalues --   -0.02438  -0.01914  -0.01155  -0.00579  -0.00426
 Alpha virt. eigenvalues --   -0.00029   0.00296   0.00762   0.00811   0.00855

  Beta  occ. eigenvalues --  -38.44621 -38.43792 -38.43740 -38.43705 -38.43624
  Beta  occ. eigenvalues --  -38.43419 -38.43043  -2.20397  -2.19599  -2.19564
  Beta  occ. eigenvalues --   -2.19548  -2.19519  -2.19185  -2.19037  -1.14062
  Beta  occ. eigenvalues --   -1.14046  -1.14041  -1.13346  -1.13282  -1.13274
  Beta  occ. eigenvalues --   -1.13255  -1.13244  -1.13228  -1.13214  -1.13196
  Beta  occ. eigenvalues --   -1.13191  -1.13180  -1.13134  -1.13103  -1.12917
  Beta  occ. eigenvalues --   -1.12865  -1.12860  -1.12726  -1.12702  -1.12648
  Beta  occ. eigenvalues --   -0.17739  -0.12612  -0.12373
  Beta virt. eigenvalues --   -0.06528  -0.06042  -0.05095  -0.04745  -0.02193
  Beta virt. eigenvalues --   -0.02056  -0.01843  -0.01333  -0.01090  -0.00620
  Beta virt. eigenvalues --   -0.00463   0.00141   0.00345   0.00798   0.00830

 Mulliken charges and spin densities:
               1          2
     1  Na   0.169143   0.048964
     2  Na  -0.559187   0.756098
     3  Na  -0.620254   0.146758
     4  Na   0.228834  -0.032443
     5  Na   0.081455   0.030860
     6  Na   0.520405   0.056003
     7  Na   0.179602  -0.006240
 Sum of Mulliken charges =  -0.00000   1.00000

 Dipole moment (field-independent basis, Debye):
    X=              0.4253    Y=              0.0960    Z=              0.1887  Tot=              0.4751
 Quadrupole moment (field-independent basis, Debye-Ang):
   XX=            -53.6277   YY=            -62.2364   ZZ=            -76.3523
   XY=              0.3958   XZ=              0.3233   YZ=             -0.7742

 Normal termination of Gaussian 16 at Thu Dec  7 18:01:44 2023.
