 Gaussian 16, Revision B.01,
 Gaussian 16:  ES64L-G16RevB.01 20-Dec-2017

 -------------------------
 #P B3LYP/6-311+g(d) force
 -------------------------

 -----
 DPGEN
 -----
 Symbolic Z-matrix:
 Charge =  0 Multiplicity = 2

                         Standard orientation:
 ---------------------------------------------------------------------
 Center     Atomic      Atomic             Coordinates (Angstroms)
 Number     Number       Type             X           Y           Z
 ---------------------------------------------------------------------
      1         11           0       -0.019297   -0.166538   -1.865059
      2         11           0        1.632896   -2.145038    0.029486
      3         11           0       -2.392911   -1.956724   -0.004879
      4         11           0        0.368489   -0.015793    1.876658
      5         11           0       -2.966125    1.098719    0.178414
      6         11           0        0.236276    2.727698   -0.143199
      7         11           0        3.140672    0.457676   -0.071420
 ---------------------------------------------------------------------

 SCF Done:  E(UB3LYP) =  -1136.13248840     A.U. after   20 cycles

 The electronic state is 2-A.
 Alpha  occ. eigenvalues --  -38.44560 -38.44270 -38.43648 -38.43645 -38.43498
 Alpha  occ. eigenvalues --  -38.43285 -38.42668  -2.20443  -2.20109  -2.19600
 Alpha  occ. eigenvalues --   -2.19490  -2.19449  -2.19237  -2.18530  -1.14151
 Alpha  occ. eigenvalues --   -1.14099  -1.14072  -1.13802  -1.13773  -1.13744
 Alpha  occ. eigenvalues --   -1.13313  -1.13241  -1.13209  -1.13170  -1.13155
 Alpha  occ. eigenvalues --   -1.13145  -1.13124  -1.13093  -1.13052  -1.12906
 Alpha  occ. eigenvalues --   -1.12882  -1.12854  -1.12217  -1.12202  -1.12155
 Alpha  occ. eigenvalues --   -0.19017  -0.13673  -0.11982  -0.10937
 Alpha virt. eigenvalues --   -0.06157  -0.05123  -0.04047  -0.03559  -0.02687
 Alpha virt. eigenvalues --   -0.02610  -0.01865  -0.00955  -0.00192  -0.00148
 Alpha virt. eigenvalues --   -0.00038   0.00361   0.00764   0.00865   0.00915

  Beta  occ. eigenvalues --  -38.44555 -38.44269 -38.43644 -38.43567 -38.43414
  Beta  occ. eigenvalues --  -38.43272 -38.42662  -2.20438  -2.20109  -2.19492
  Beta  occ. eigenvalues --   -2.19450  -2.19293  -2.19220  -2.18523  -1.14152
  Beta  occ. eigenvalues --   -1.14077  -1.14057  -1.13806  -1.13755  -1.13747
  Beta  occ. eigenvalues --   -1.13220  -1.13169  -1.13136  -1.13134  -1.13130
  Beta  occ. eigenvalues --   -1.13097  -1.13049  -1.12984  -1.12943  -1.12888
  Beta  occ. eigenvalues --   -1.12852  -1.12815  -1.12214  -1.12170  -1.12154
  Beta  occ. eigenvalues --   -0.18251  -0.13448  -0.11723
  Beta virt. eigenvalues --   -0.06995  -0.06077  -0.05139  -0.04048  -0.02733
  Beta virt. eigenvalues --   -0.01897  -0.01767  -0.01549  -0.00906  -0.00255
  Beta virt. eigenvalues --   -0.00179   0.00109   0.00377   0.00827   0.00901

 Mulliken charges and spin densities:
               1          2
     1  Na  -0.363169   0.694846
     2  Na   0.403468  -0.054802
     3  Na   0.155592  -0.105386
     4  Na  -0.444877   0.665056
     5  Na  -0.039457  -0.059181
     6  Na  -0.013857  -0.122251
     7  Na   0.302300  -0.018283
 Sum of Mulliken charges =  -0.00000   1.00000

 Dipole moment (field-independent basis, Debye):
    X=              0.0421    Y=              0.0571    Z=              0.0281  Tot=              0.0763
 Quadrupole moment (field-independent basis, Debye-Ang):
   XX=            -52.9143   YY=            -67.8974   ZZ=            -73.4024
   XY=              0.4182   XZ=             -0.9754   YZ=             -0.1941

 Normal termination of Gaussian 16 at Tue Dec  5 22:16:28 2023.
