 Gaussian 16, Revision B.01,
 Gaussian 16:  ES64L-G16RevB.01 20-Dec-2017

 -------------------------
 #P B3LYP/6-311+g(d) force
 -------------------------

 -----
 DPGEN
 -----
 Symbolic Z-matrix:
 Charge =  0 Multiplicity = 2

                         Standard orientation:
 ---------------------------------------------------------------------
 Center     Atomic      Atomic             Coordinates (Angstroms)
 Number     Number       Type             X           Y           Z
 ---------------------------------------------------------------------
      1         11           0        0.600097    3.114298   -0.070105
      2         11           0       -2.502733    1.582944    0.014157
      3         11           0        1.059491   -2.780262   -0.118700
      4         11           0       -2.459268   -1.888788   -0.215498
      5         11           0       -0.008754   -0.200967    2.186232
      6         11           0        0.031678    0.053865   -1.718904
      7         11           0        3.279489    0.118910   -0.077181
 ---------------------------------------------------------------------

 SCF Done:  E(UB3LYP) =  -1136.13943838     A.U. after   19 cycles

 The electronic state is 2-A.
 Alpha  occ. eigenvalues --  -38.44060 -38.43840 -38.43742 -38.43691 -38.43573
 Alpha  occ. eigenvalues --  -38.43557 -38.43344  -2.19841  -2.19688  -2.19545
 Alpha  occ. eigenvalues --   -2.19526  -2.19423  -2.19390  -2.19278  -1.13519
 Alpha  occ. eigenvalues --   -1.13498  -1.13485  -1.13347  -1.13318  -1.13308
 Alpha  occ. eigenvalues --   -1.13226  -1.13216  -1.13212  -1.13194  -1.13188
 Alpha  occ. eigenvalues --   -1.13152  -1.13118  -1.13091  -1.13070  -1.13061
 Alpha  occ. eigenvalues --   -1.13040  -1.13017  -1.12958  -1.12908  -1.12896
 Alpha  occ. eigenvalues --   -0.18297  -0.12717  -0.12470  -0.10776
 Alpha virt. eigenvalues --   -0.05588  -0.05107  -0.05038  -0.03108  -0.02939
 Alpha virt. eigenvalues --   -0.02743  -0.01412  -0.01249  -0.00539  -0.00461
 Alpha virt. eigenvalues --   -0.00040   0.00363   0.00790   0.00844   0.00852

  Beta  occ. eigenvalues --  -38.44061 -38.43741 -38.43738 -38.43685 -38.43569
  Beta  occ. eigenvalues --  -38.43553 -38.43281  -2.19844  -2.19546  -2.19520
  Beta  occ. eigenvalues --   -2.19499  -2.19418  -2.19385  -2.19163  -1.13506
  Beta  occ. eigenvalues --   -1.13499  -1.13490  -1.13230  -1.13222  -1.13205
  Beta  occ. eigenvalues --   -1.13200  -1.13192  -1.13186  -1.13176  -1.13159
  Beta  occ. eigenvalues --   -1.13151  -1.13111  -1.13070  -1.13063  -1.13045
  Beta  occ. eigenvalues --   -1.13027  -1.13017  -1.12882  -1.12826  -1.12812
  Beta  occ. eigenvalues --   -0.17560  -0.12512  -0.12273
  Beta virt. eigenvalues --   -0.06831  -0.05610  -0.05120  -0.04904  -0.02314
  Beta virt. eigenvalues --   -0.02201  -0.01667  -0.01328  -0.01168  -0.00594
  Beta virt. eigenvalues --   -0.00528   0.00115   0.00386   0.00818   0.00861

 Mulliken charges and spin densities:
               1          2
     1  Na   0.028763  -0.097499
     2  Na   0.168502  -0.014520
     3  Na   0.194073  -0.059344
     4  Na   0.200939  -0.022659
     5  Na  -0.526547   0.804277
     6  Na  -0.085216   0.499972
     7  Na   0.019487  -0.110227
 Sum of Mulliken charges =  -0.00000   1.00000

 Dipole moment (field-independent basis, Debye):
    X=              0.2107    Y=              0.0024    Z=              0.0996  Tot=              0.2331
 Quadrupole moment (field-independent basis, Debye-Ang):
   XX=            -58.8234   YY=            -60.6367   ZZ=            -74.3205
   XY=              0.7188   XZ=              0.1493   YZ=              0.6203

 Normal termination of Gaussian 16 at Fri Dec  8 03:55:48 2023.
