 Gaussian 16, Revision B.01,
 Gaussian 16:  ES64L-G16RevB.01 20-Dec-2017

 -------------------------
 #P B3LYP/6-311+g(d) force
 -------------------------

 -----
 DPGEN
 -----
 Symbolic Z-matrix:
 Charge =  0 Multiplicity = 2

                         Standard orientation:
 ---------------------------------------------------------------------
 Center     Atomic      Atomic             Coordinates (Angstroms)
 Number     Number       Type             X           Y           Z
 ---------------------------------------------------------------------
      1         11           0       -0.137127    0.031603   -1.523815
      2         11           0       -2.168615   -2.066503   -0.260125
      3         11           0        0.837597    2.814616   -0.043281
      4         11           0        1.087894   -2.555805    0.176195
      5         11           0       -2.649109    1.576591   -0.164423
      6         11           0        3.030843    0.040455   -0.448955
      7         11           0       -0.001484    0.159044    2.264404
 ---------------------------------------------------------------------

 SCF Done:  E(UB3LYP) =  -1136.13872725     A.U. after   18 cycles

 The electronic state is 2-A.
 Alpha  occ. eigenvalues --  -38.43948 -38.43798 -38.43569 -38.43560 -38.43532
 Alpha  occ. eigenvalues --  -38.43218 -38.43013  -2.19809  -2.19630  -2.19418
 Alpha  occ. eigenvalues --   -2.19415  -2.19396  -2.19115  -2.19053  -1.13463
 Alpha  occ. eigenvalues --   -1.13432  -1.13430  -1.13329  -1.13290  -1.13257
 Alpha  occ. eigenvalues --   -1.13125  -1.13109  -1.13102  -1.13086  -1.13077
 Alpha  occ. eigenvalues --   -1.13062  -1.13051  -1.13028  -1.13023  -1.12813
 Alpha  occ. eigenvalues --   -1.12774  -1.12744  -1.12723  -1.12680  -1.12672
 Alpha  occ. eigenvalues --   -0.18796  -0.12786  -0.12684  -0.11030
 Alpha virt. eigenvalues --   -0.05393  -0.04969  -0.04763  -0.03110  -0.03023
 Alpha virt. eigenvalues --   -0.02849  -0.01318  -0.01139  -0.00265  -0.00186
 Alpha virt. eigenvalues --   -0.00011   0.00357   0.00843   0.00907   0.00923

  Beta  occ. eigenvalues --  -38.43838 -38.43795 -38.43564 -38.43552 -38.43527
  Beta  occ. eigenvalues --  -38.43212 -38.42959  -2.19627  -2.19606  -2.19412
  Beta  occ. eigenvalues --   -2.19404  -2.19390  -2.19107  -2.18956  -1.13331
  Beta  occ. eigenvalues --   -1.13318  -1.13293  -1.13287  -1.13274  -1.13255
  Beta  occ. eigenvalues --   -1.13116  -1.13101  -1.13093  -1.13068  -1.13059
  Beta  occ. eigenvalues --   -1.13046  -1.13031  -1.13027  -1.13021  -1.12802
  Beta  occ. eigenvalues --   -1.12746  -1.12738  -1.12658  -1.12612  -1.12603
  Beta  occ. eigenvalues --   -0.18069  -0.12545  -0.12460
  Beta virt. eigenvalues --   -0.07031  -0.05406  -0.04930  -0.04711  -0.02295
  Beta virt. eigenvalues --   -0.02261  -0.01729  -0.01239  -0.01077  -0.00313
  Beta virt. eigenvalues --   -0.00213   0.00129   0.00385   0.00869   0.00925

 Mulliken charges and spin densities:
               1          2
     1  Na  -0.437353   0.159634
     2  Na   0.231934   0.000404
     3  Na   0.207122   0.007619
     4  Na   0.293922   0.111572
     5  Na   0.180698  -0.027869
     6  Na   0.186240   0.024368
     7  Na  -0.662564   0.724272
 Sum of Mulliken charges =  -0.00000   1.00000

 Dipole moment (field-independent basis, Debye):
    X=             -0.1613    Y=              0.2272    Z=              0.2561  Tot=              0.3785
 Quadrupole moment (field-independent basis, Debye-Ang):
   XX=            -58.9475   YY=            -61.8448   ZZ=            -73.1565
   XY=              0.0852   XZ=             -0.4302   YZ=             -0.2098

 Normal termination of Gaussian 16 at Fri Dec  8 05:37:45 2023.
