 Gaussian 16, Revision B.01,
 Gaussian 16:  ES64L-G16RevB.01 20-Dec-2017

 -------------------------
 #P B3LYP/6-311+g(d) force
 -------------------------

 -----
 DPGEN
 -----
 Symbolic Z-matrix:
 Charge =  0 Multiplicity = 2

                         Standard orientation:
 ---------------------------------------------------------------------
 Center     Atomic      Atomic             Coordinates (Angstroms)
 Number     Number       Type             X           Y           Z
 ---------------------------------------------------------------------
      1         11           0        1.105530    2.423368   -0.649042
      2         11           0        0.329956   -0.229197    1.868554
      3         11           0        3.175033    0.087000    1.131210
      4         11           0       -0.508289   -0.477391   -1.751879
      5         11           0       -2.540244    1.643923   -0.134181
      6         11           0        2.147308   -2.003712   -1.100556
      7         11           0       -3.709296   -1.443991    0.635893
 ---------------------------------------------------------------------

 SCF Done:  E(UB3LYP) =  -1136.12096970     A.U. after   25 cycles

 The electronic state is 2-A.
 Alpha  occ. eigenvalues --  -38.45142 -38.44559 -38.44223 -38.44164 -38.44018
 Alpha  occ. eigenvalues --  -38.43575 -38.42513  -2.21018  -2.20467  -2.20085
 Alpha  occ. eigenvalues --   -2.20000  -2.19860  -2.19450  -2.18349  -1.14738
 Alpha  occ. eigenvalues --   -1.14679  -1.14627  -1.14151  -1.14103  -1.14067
 Alpha  occ. eigenvalues --   -1.13787  -1.13743  -1.13695  -1.13673  -1.13664
 Alpha  occ. eigenvalues --   -1.13634  -1.13554  -1.13528  -1.13453  -1.13133
 Alpha  occ. eigenvalues --   -1.13094  -1.13067  -1.12033  -1.12009  -1.11989
 Alpha  occ. eigenvalues --   -0.18414  -0.13940  -0.11827  -0.11040
 Alpha virt. eigenvalues --   -0.06451  -0.05286  -0.04560  -0.03400  -0.02886
 Alpha virt. eigenvalues --   -0.02497  -0.02255  -0.01139  -0.00755  -0.00122
 Alpha virt. eigenvalues --    0.00163   0.00225   0.00365   0.00580   0.00734

  Beta  occ. eigenvalues --  -38.45084 -38.44527 -38.44211 -38.44085 -38.44014
  Beta  occ. eigenvalues --  -38.43536 -38.42510  -2.20913  -2.20412  -2.19978
  Beta  occ. eigenvalues --   -2.19945  -2.19855  -2.19382  -2.18346  -1.14660
  Beta  occ. eigenvalues --   -1.14595  -1.14560  -1.14093  -1.14067  -1.14036
  Beta  occ. eigenvalues --   -1.13691  -1.13660  -1.13647  -1.13642  -1.13619
  Beta  occ. eigenvalues --   -1.13593  -1.13539  -1.13520  -1.13445  -1.13069
  Beta  occ. eigenvalues --   -1.13054  -1.13014  -1.12027  -1.12002  -1.11982
  Beta  occ. eigenvalues --   -0.17691  -0.13695  -0.10819
  Beta virt. eigenvalues --   -0.07818  -0.06240  -0.05253  -0.04005  -0.03010
  Beta virt. eigenvalues --   -0.02285  -0.02037  -0.01802  -0.01076  -0.00488
  Beta virt. eigenvalues --   -0.00048   0.00219   0.00230   0.00502   0.00681

 Mulliken charges and spin densities:
               1          2
     1  Na  -0.377378  -0.097269
     2  Na  -0.733955   0.289317
     3  Na   0.923382   0.272743
     4  Na  -0.170426   0.501499
     5  Na   0.531085   0.024840
     6  Na  -0.229355   0.003428
     7  Na   0.056647   0.005441
 Sum of Mulliken charges =  -0.00000   1.00000

 Dipole moment (field-independent basis, Debye):
    X=             -0.0776    Y=              0.0468    Z=              0.4235  Tot=              0.4331
 Quadrupole moment (field-independent basis, Debye-Ang):
   XX=            -53.8546   YY=            -73.8116   ZZ=            -69.3797
   XY=              0.7099   XZ=             -0.3061   YZ=              0.1917

 Normal termination of Gaussian 16 at Thu Dec  7 04:04:42 2023.
