 Gaussian 16, Revision B.01,
 Gaussian 16:  ES64L-G16RevB.01 20-Dec-2017

 -------------------------
 #P B3LYP/6-311+g(d) force
 -------------------------

 -----
 DPGEN
 -----
 Symbolic Z-matrix:
 Charge =  0 Multiplicity = 2

                         Standard orientation:
 ---------------------------------------------------------------------
 Center     Atomic      Atomic             Coordinates (Angstroms)
 Number     Number       Type             X           Y           Z
 ---------------------------------------------------------------------
      1         11           0        0.498391   -0.093088    2.168587
      2         11           0       -2.213628    0.703762   -0.848919
      3         11           0       -0.259366    3.151743    0.374371
      4         11           0        1.588427    1.216674   -1.147110
      5         11           0        0.415085   -1.722265   -1.511795
      6         11           0        3.622280   -1.469351    0.427532
      7         11           0       -3.651189   -1.787475    0.537335
 ---------------------------------------------------------------------

 SCF Done:  E(UB3LYP) =  -1136.12634844     A.U. after   20 cycles

 The electronic state is 2-A.
 Alpha  occ. eigenvalues --  -38.44817 -38.44530 -38.44334 -38.43881 -38.43588
 Alpha  occ. eigenvalues --  -38.43421 -38.42899  -2.20623  -2.20301  -2.20175
 Alpha  occ. eigenvalues --   -2.19661  -2.19524  -2.19300  -2.18770  -1.14287
 Alpha  occ. eigenvalues --   -1.14260  -1.14234  -1.13981  -1.13963  -1.13930
 Alpha  occ. eigenvalues --   -1.13897  -1.13828  -1.13757  -1.13352  -1.13317
 Alpha  occ. eigenvalues --   -1.13299  -1.13225  -1.13197  -1.13134  -1.12993
 Alpha  occ. eigenvalues --   -1.12979  -1.12914  -1.12445  -1.12420  -1.12406
 Alpha  occ. eigenvalues --   -0.18058  -0.13016  -0.11964  -0.11175
 Alpha virt. eigenvalues --   -0.06367  -0.05180  -0.04264  -0.03422  -0.02951
 Alpha virt. eigenvalues --   -0.02839  -0.01993  -0.01302  -0.00593  -0.00240
 Alpha virt. eigenvalues --    0.00195   0.00267   0.00371   0.00611   0.00775

  Beta  occ. eigenvalues --  -38.44728 -38.44529 -38.44282 -38.43879 -38.43554
  Beta  occ. eigenvalues --  -38.43412 -38.42898  -2.20457  -2.20301  -2.20082
  Beta  occ. eigenvalues --   -2.19658  -2.19465  -2.19287  -2.18770  -1.14174
  Beta  occ. eigenvalues --   -1.14144  -1.14113  -1.13983  -1.13946  -1.13932
  Beta  occ. eigenvalues --   -1.13827  -1.13751  -1.13698  -1.13351  -1.13310
  Beta  occ. eigenvalues --   -1.13297  -1.13179  -1.13140  -1.13094  -1.12978
  Beta  occ. eigenvalues --   -1.12958  -1.12906  -1.12445  -1.12421  -1.12391
  Beta  occ. eigenvalues --   -0.17274  -0.12881  -0.11825
  Beta virt. eigenvalues --   -0.07261  -0.06050  -0.05091  -0.04121  -0.02894
  Beta virt. eigenvalues --   -0.02349  -0.01954  -0.01859  -0.01153  -0.00441
  Beta virt. eigenvalues --   -0.00159   0.00243   0.00329   0.00565   0.00691

 Mulliken charges and spin densities:
               1          2
     1  Na  -0.633184   0.747891
     2  Na  -0.338160   0.259005
     3  Na   0.702767  -0.144450
     4  Na   0.072388   0.340649
     5  Na  -0.073183   0.062634
     6  Na   0.192386  -0.099761
     7  Na   0.076986  -0.165967
 Sum of Mulliken charges =  -0.00000   1.00000

 Dipole moment (field-independent basis, Debye):
    X=              0.8104    Y=             -0.5172    Z=              0.3874  Tot=              1.0366
 Quadrupole moment (field-independent basis, Debye-Ang):
   XX=            -58.0800   YY=            -66.2650   ZZ=            -70.5567
   XY=             -1.3658   XZ=             -1.1853   YZ=             -0.7688

 Normal termination of Gaussian 16 at Thu Dec  7 14:54:49 2023.
