 Gaussian 16, Revision B.01,
 Gaussian 16:  ES64L-G16RevB.01 20-Dec-2017

 -------------------------
 #P B3LYP/6-311+g(d) force
 -------------------------

 -----
 DPGEN
 -----
 Symbolic Z-matrix:
 Charge =  0 Multiplicity = 2

                         Standard orientation:
 ---------------------------------------------------------------------
 Center     Atomic      Atomic             Coordinates (Angstroms)
 Number     Number       Type             X           Y           Z
 ---------------------------------------------------------------------
      1         11           0       -0.147026   -0.294715    2.064454
      2         11           0       -0.290009   -0.276908   -1.692896
      3         11           0       -2.005710    2.129294   -0.025803
      4         11           0        3.194479   -0.167443    0.434332
      5         11           0        1.466835    2.505017   -0.385825
      6         11           0       -3.417190   -1.229791    0.127417
      7         11           0        1.198622   -2.665455   -0.521679
 ---------------------------------------------------------------------

 SCF Done:  E(UB3LYP) =  -1136.13186258     A.U. after   21 cycles

 The electronic state is 2-A.
 Alpha  occ. eigenvalues --  -38.44815 -38.44316 -38.44152 -38.43733 -38.43388
 Alpha  occ. eigenvalues --  -38.43341 -38.42937  -2.20577  -2.20157  -2.19995
 Alpha  occ. eigenvalues --   -2.19574  -2.19338  -2.19210  -2.18784  -1.14251
 Alpha  occ. eigenvalues --   -1.14235  -1.14216  -1.13826  -1.13820  -1.13804
 Alpha  occ. eigenvalues --   -1.13668  -1.13634  -1.13605  -1.13270  -1.13251
 Alpha  occ. eigenvalues --   -1.13190  -1.13092  -1.12998  -1.12946  -1.12848
 Alpha  occ. eigenvalues --   -1.12843  -1.12832  -1.12460  -1.12442  -1.12431
 Alpha  occ. eigenvalues --   -0.18352  -0.13279  -0.11989  -0.10840
 Alpha virt. eigenvalues --   -0.06366  -0.05222  -0.04242  -0.03395  -0.02760
 Alpha virt. eigenvalues --   -0.02670  -0.02043  -0.01109  -0.00517  -0.00162
 Alpha virt. eigenvalues --   -0.00051   0.00314   0.00646   0.00727   0.00804

  Beta  occ. eigenvalues --  -38.44816 -38.44308 -38.44068 -38.43728 -38.43326
  Beta  occ. eigenvalues --  -38.43314 -38.42932  -2.20581  -2.20145  -2.19839
  Beta  occ. eigenvalues --   -2.19568  -2.19206  -2.19183  -2.18779  -1.14244
  Beta  occ. eigenvalues --   -1.14236  -1.14219  -1.13822  -1.13801  -1.13790
  Beta  occ. eigenvalues --   -1.13562  -1.13527  -1.13489  -1.13260  -1.13233
  Beta  occ. eigenvalues --   -1.13185  -1.13019  -1.12905  -1.12857  -1.12821
  Beta  occ. eigenvalues --   -1.12816  -1.12785  -1.12458  -1.12431  -1.12418
  Beta  occ. eigenvalues --   -0.17630  -0.13092  -0.11726
  Beta virt. eigenvalues --   -0.06980  -0.06248  -0.05203  -0.04146  -0.02703
  Beta virt. eigenvalues --   -0.02092  -0.01895  -0.01596  -0.01049  -0.00527
  Beta virt. eigenvalues --   -0.00175   0.00083   0.00334   0.00768   0.00797

 Mulliken charges and spin densities:
               1          2
     1  Na  -0.332635   0.586968
     2  Na   0.077922   0.323062
     3  Na   0.065270   0.021768
     4  Na   0.123174   0.130855
     5  Na  -0.108003   0.010238
     6  Na   0.033370  -0.058516
     7  Na   0.140902  -0.014376
 Sum of Mulliken charges =  -0.00000   1.00000

 Dipole moment (field-independent basis, Debye):
    X=             -0.5709    Y=             -0.3130    Z=              0.3183  Tot=              0.7247
 Quadrupole moment (field-independent basis, Debye-Ang):
   XX=            -52.4885   YY=            -67.0757   ZZ=            -74.0300
   XY=              0.7248   XZ=              0.2842   YZ=             -0.1211

 Normal termination of Gaussian 16 at Fri Dec  8 01:47:21 2023.
