 Gaussian 16, Revision B.01,
 Gaussian 16:  ES64L-G16RevB.01 20-Dec-2017

 -------------------------
 #P B3LYP/6-311+g(d) force
 -------------------------

 -----
 DPGEN
 -----
 Symbolic Z-matrix:
 Charge =  0 Multiplicity = 2

                         Standard orientation:
 ---------------------------------------------------------------------
 Center     Atomic      Atomic             Coordinates (Angstroms)
 Number     Number       Type             X           Y           Z
 ---------------------------------------------------------------------
      1         11           0       -4.829119    0.125956   -1.082764
      2         11           0       -2.679821   -1.279901    1.092108
      3         11           0       -1.321150    0.605922   -1.211526
      4         11           0        4.051086   -1.578547   -1.103108
      5         11           0        2.944221    1.862758   -0.624996
      6         11           0        0.535000    1.900632    1.833953
      7         11           0        1.299784   -1.636822    1.096332
 ---------------------------------------------------------------------

 SCF Done:  E(UB3LYP) =  -1136.11764291     A.U. after   26 cycles

 The electronic state is 2-A.
 Alpha  occ. eigenvalues --  -38.45735 -38.45092 -38.44741 -38.44399 -38.44234
 Alpha  occ. eigenvalues --  -38.42975 -38.42106  -2.21542  -2.20927  -2.20541
 Alpha  occ. eigenvalues --   -2.20215  -2.20053  -2.18787  -2.17897  -1.15256
 Alpha  occ. eigenvalues --   -1.15228  -1.15125  -1.14620  -1.14593  -1.14534
 Alpha  occ. eigenvalues --   -1.14232  -1.14189  -1.14139  -1.13878  -1.13870
 Alpha  occ. eigenvalues --   -1.13834  -1.13753  -1.13707  -1.13647  -1.12473
 Alpha  occ. eigenvalues --   -1.12447  -1.12430  -1.11568  -1.11561  -1.11547
 Alpha  occ. eigenvalues --   -0.17313  -0.14249  -0.11401  -0.10720
 Alpha virt. eigenvalues --   -0.06682  -0.05885  -0.04594  -0.03064  -0.03006
 Alpha virt. eigenvalues --   -0.02843  -0.02279  -0.01529  -0.00908  -0.00503
 Alpha virt. eigenvalues --   -0.00165   0.00043   0.00155   0.00410   0.00534

  Beta  occ. eigenvalues --  -38.45724 -38.45064 -38.44689 -38.44369 -38.44171
  Beta  occ. eigenvalues --  -38.42978 -38.42108  -2.21524  -2.20878  -2.20444
  Beta  occ. eigenvalues --   -2.20159  -2.19937  -2.18795  -2.17903  -1.15226
  Beta  occ. eigenvalues --   -1.15219  -1.15111  -1.14588  -1.14563  -1.14472
  Beta  occ. eigenvalues --   -1.14166  -1.14127  -1.14065  -1.13839  -1.13831
  Beta  occ. eigenvalues --   -1.13799  -1.13676  -1.13632  -1.13546  -1.12482
  Beta  occ. eigenvalues --   -1.12441  -1.12425  -1.11573  -1.11559  -1.11551
  Beta  occ. eigenvalues --   -0.16649  -0.13912  -0.10605
  Beta virt. eigenvalues --   -0.07714  -0.06503  -0.05236  -0.04322  -0.02928
  Beta virt. eigenvalues --   -0.02590  -0.02322  -0.01959  -0.01110  -0.00865
  Beta virt. eigenvalues --   -0.00250  -0.00079   0.00118   0.00269   0.00520

 Mulliken charges and spin densities:
               1          2
     1  Na   0.787154   0.139970
     2  Na  -0.089542   0.163538
     3  Na  -0.802811   0.079875
     4  Na   0.186530  -0.035714
     5  Na   0.269912   0.233599
     6  Na  -0.018670   0.111954
     7  Na  -0.332572   0.306779
 Sum of Mulliken charges =  -0.00000   1.00000

 Dipole moment (field-independent basis, Debye):
    X=             -2.5502    Y=              0.8177    Z=              0.1074  Tot=              2.6802
 Quadrupole moment (field-independent basis, Debye-Ang):
   XX=            -63.9929   YY=            -72.5714   ZZ=            -65.4666
   XY=              5.9622   XZ=             -0.2081   YZ=             -4.6209

 Normal termination of Gaussian 16 at Mon Dec  4 00:09:01 2023.
