 Gaussian 16, Revision B.01,
 Gaussian 16:  ES64L-G16RevB.01 20-Dec-2017

 -------------------------
 #P B3LYP/6-311+g(d) force
 -------------------------

 -----
 DPGEN
 -----
 Symbolic Z-matrix:
 Charge =  0 Multiplicity = 2

                         Standard orientation:
 ---------------------------------------------------------------------
 Center     Atomic      Atomic             Coordinates (Angstroms)
 Number     Number       Type             X           Y           Z
 ---------------------------------------------------------------------
      1         11           0       -3.622375   -0.587633    0.394306
      2         11           0       -0.613489    0.038862    2.156727
      3         11           0        2.263984   -2.405569    0.261814
      4         11           0       -1.739819    1.544413   -1.508321
      5         11           0        1.663765    2.964400    0.463828
      6         11           0        2.491819    0.138404   -0.688810
      7         11           0       -0.443884   -1.692878   -1.079544
 ---------------------------------------------------------------------

 SCF Done:  E(UB3LYP) =  -1136.12251727     A.U. after   20 cycles

 The electronic state is 2-A.
 Alpha  occ. eigenvalues --  -38.44661 -38.44357 -38.44357 -38.43935 -38.43866
 Alpha  occ. eigenvalues --  -38.43710 -38.42907  -2.20472  -2.20184  -2.20176
 Alpha  occ. eigenvalues --   -2.19901  -2.19785  -2.19622  -2.18710  -1.14145
 Alpha  occ. eigenvalues --   -1.14134  -1.14115  -1.13886  -1.13862  -1.13846
 Alpha  occ. eigenvalues --   -1.13825  -1.13818  -1.13792  -1.13779  -1.13562
 Alpha  occ. eigenvalues --   -1.13532  -1.13450  -1.13380  -1.13319  -1.13297
 Alpha  occ. eigenvalues --   -1.13287  -1.13197  -1.12400  -1.12363  -1.12347
 Alpha  occ. eigenvalues --   -0.18217  -0.13768  -0.11852  -0.11040
 Alpha virt. eigenvalues --   -0.06151  -0.05297  -0.04378  -0.03747  -0.02864
 Alpha virt. eigenvalues --   -0.02765  -0.01953  -0.01050  -0.00407  -0.00255
 Alpha virt. eigenvalues --    0.00141   0.00297   0.00526   0.00658   0.00738

  Beta  occ. eigenvalues --  -38.44658 -38.44303 -38.44261 -38.43930 -38.43867
  Beta  occ. eigenvalues --  -38.43685 -38.42910  -2.20470  -2.20079  -2.20005
  Beta  occ. eigenvalues --   -2.19895  -2.19788  -2.19579  -2.18717  -1.14148
  Beta  occ. eigenvalues --   -1.14120  -1.14100  -1.13888  -1.13789  -1.13757
  Beta  occ. eigenvalues --   -1.13726  -1.13710  -1.13698  -1.13661  -1.13554
  Beta  occ. eigenvalues --   -1.13516  -1.13445  -1.13370  -1.13297  -1.13289
  Beta  occ. eigenvalues --   -1.13236  -1.13173  -1.12406  -1.12358  -1.12352
  Beta  occ. eigenvalues --   -0.17528  -0.13529  -0.11749
  Beta virt. eigenvalues --   -0.07123  -0.05988  -0.05095  -0.04296  -0.03121
  Beta virt. eigenvalues --   -0.02196  -0.01904  -0.01844  -0.00950  -0.00326
  Beta virt. eigenvalues --   -0.00117   0.00228   0.00354   0.00743   0.00780

 Mulliken charges and spin densities:
               1          2
     1  Na   0.555761  -0.022968
     2  Na  -0.625508   0.611793
     3  Na   0.970028  -0.048479
     4  Na  -0.289598   0.187967
     5  Na   0.149844  -0.100831
     6  Na  -0.628217   0.087272
     7  Na  -0.132309   0.285246
 Sum of Mulliken charges =  -0.00000   1.00000

 Dipole moment (field-independent basis, Debye):
    X=             -1.1238    Y=             -0.4606    Z=              0.1774  Tot=              1.2274
 Quadrupole moment (field-independent basis, Debye-Ang):
   XX=            -56.2503   YY=            -68.3977   ZZ=            -71.6309
   XY=             -1.5576   XZ=              0.7765   YZ=             -1.6223

 Normal termination of Gaussian 16 at Thu Dec  7 08:11:34 2023.
