 Gaussian 16, Revision B.01,
 Gaussian 16:  ES64L-G16RevB.01 20-Dec-2017

 -------------------------
 #P B3LYP/6-311+g(d) force
 -------------------------

 -----
 DPGEN
 -----
 Symbolic Z-matrix:
 Charge =  0 Multiplicity = 2

                         Standard orientation:
 ---------------------------------------------------------------------
 Center     Atomic      Atomic             Coordinates (Angstroms)
 Number     Number       Type             X           Y           Z
 ---------------------------------------------------------------------
      1         11           0       -1.702753    1.551829    1.985112
      2         11           0        0.743582   -1.086898   -1.388851
      3         11           0       -0.815421   -2.506057    1.190987
      4         11           0        3.860456   -1.023179    0.079565
      5         11           0       -1.319259    2.286859   -1.309594
      6         11           0       -3.221799   -1.138844   -0.830944
      7         11           0        2.455193    1.916290    0.273726
 ---------------------------------------------------------------------

 SCF Done:  E(UB3LYP) =  -1136.12301497     A.U. after   21 cycles

 The electronic state is 2-A.
 Alpha  occ. eigenvalues --  -38.45046 -38.44659 -38.44603 -38.44049 -38.43753
 Alpha  occ. eigenvalues --  -38.43651 -38.43187  -2.20818  -2.20437  -2.20408
 Alpha  occ. eigenvalues --   -2.19892  -2.19550  -2.19466  -2.18995  -1.14492
 Alpha  occ. eigenvalues --   -1.14466  -1.14463  -1.14141  -1.14117  -1.14096
 Alpha  occ. eigenvalues --   -1.14071  -1.14053  -1.14009  -1.13602  -1.13557
 Alpha  occ. eigenvalues --   -1.13499  -1.13209  -1.13196  -1.13175  -1.13143
 Alpha  occ. eigenvalues --   -1.13106  -1.13101  -1.12663  -1.12656  -1.12631
 Alpha  occ. eigenvalues --   -0.17203  -0.13538  -0.11807  -0.10327
 Alpha virt. eigenvalues --   -0.06525  -0.05844  -0.04321  -0.03421  -0.03240
 Alpha virt. eigenvalues --   -0.02331  -0.02141  -0.01401  -0.00592  -0.00390
 Alpha virt. eigenvalues --   -0.00226   0.00247   0.00324   0.00462   0.00711

  Beta  occ. eigenvalues --  -38.45036 -38.44658 -38.44605 -38.44019 -38.43687
  Beta  occ. eigenvalues --  -38.43625 -38.43162  -2.20802  -2.20436  -2.20410
  Beta  occ. eigenvalues --   -2.19838  -2.19427  -2.19418  -2.18949  -1.14466
  Beta  occ. eigenvalues --   -1.14457  -1.14447  -1.14141  -1.14107  -1.14097
  Beta  occ. eigenvalues --   -1.14069  -1.14056  -1.14010  -1.13563  -1.13513
  Beta  occ. eigenvalues --   -1.13458  -1.13122  -1.13116  -1.13112  -1.13086
  Beta  occ. eigenvalues --   -1.13072  -1.13060  -1.12632  -1.12623  -1.12585
  Beta  occ. eigenvalues --   -0.16632  -0.13334  -0.11648
  Beta virt. eigenvalues --   -0.06666  -0.06360  -0.05781  -0.03874  -0.03093
  Beta virt. eigenvalues --   -0.02695  -0.02073  -0.01507  -0.01257  -0.00543
  Beta virt. eigenvalues --   -0.00309   0.00032   0.00335   0.00476   0.00599

 Mulliken charges and spin densities:
               1          2
     1  Na  -0.332238   0.429201
     2  Na   0.175694   0.221710
     3  Na  -0.282475   0.191138
     4  Na   0.381386  -0.026642
     5  Na  -0.125135   0.209946
     6  Na   0.384708   0.033378
     7  Na  -0.201940  -0.058730
 Sum of Mulliken charges =  -0.00000   1.00000

 Dipole moment (field-independent basis, Debye):
    X=              0.6763    Y=             -0.5039    Z=             -0.0915  Tot=              0.8484
 Quadrupole moment (field-independent basis, Debye-Ang):
   XX=            -51.6101   YY=            -70.6731   ZZ=            -72.6131
   XY=              0.4631   XZ=              3.4986   YZ=             -1.0473

 Normal termination of Gaussian 16 at Sun Dec  3 12:12:41 2023.
