 Gaussian 16, Revision B.01,
 Gaussian 16:  ES64L-G16RevB.01 20-Dec-2017

 -------------------------
 #P B3LYP/6-311+g(d) force
 -------------------------

 -----
 DPGEN
 -----
 Symbolic Z-matrix:
 Charge =  0 Multiplicity = 2

                         Standard orientation:
 ---------------------------------------------------------------------
 Center     Atomic      Atomic             Coordinates (Angstroms)
 Number     Number       Type             X           Y           Z
 ---------------------------------------------------------------------
      1         11           0        0.004143   -0.495552    1.985179
      2         11           0       -1.856191    2.364189   -0.060505
      3         11           0        0.009915   -0.025351   -1.663231
      4         11           0       -2.980198   -1.142158   -0.087099
      5         11           0        3.037631   -0.468375   -0.168438
      6         11           0        0.421665   -2.896671   -0.165809
      7         11           0        1.363034    2.663918    0.159904
 ---------------------------------------------------------------------

 SCF Done:  E(UB3LYP) =  -1136.13980756     A.U. after   19 cycles

 The electronic state is 2-A.
 Alpha  occ. eigenvalues --  -38.43899 -38.43742 -38.43736 -38.43606 -38.43470
 Alpha  occ. eigenvalues --  -38.43444 -38.43090  -2.19706  -2.19616  -2.19576
 Alpha  occ. eigenvalues --   -2.19451  -2.19346  -2.19320  -2.19066  -1.13381
 Alpha  occ. eigenvalues --   -1.13368  -1.13349  -1.13321  -1.13304  -1.13257
 Alpha  occ. eigenvalues --   -1.13240  -1.13235  -1.13198  -1.13153  -1.13122
 Alpha  occ. eigenvalues --   -1.13093  -1.13011  -1.12985  -1.12983  -1.12970
 Alpha  occ. eigenvalues --   -1.12954  -1.12950  -1.12747  -1.12702  -1.12682
 Alpha  occ. eigenvalues --   -0.18663  -0.12882  -0.12671  -0.10617
 Alpha virt. eigenvalues --   -0.05567  -0.05063  -0.05005  -0.03066  -0.02931
 Alpha virt. eigenvalues --   -0.02460  -0.01440  -0.01209  -0.00427  -0.00377
 Alpha virt. eigenvalues --   -0.00001   0.00365   0.00839   0.00861   0.00896

  Beta  occ. eigenvalues --  -38.43897 -38.43732 -38.43731 -38.43604 -38.43466
  Beta  occ. eigenvalues --  -38.43354 -38.43022  -2.19705  -2.19604  -2.19570
  Beta  occ. eigenvalues --   -2.19450  -2.19317  -2.19179  -2.18942  -1.13370
  Beta  occ. eigenvalues --   -1.13360  -1.13349  -1.13315  -1.13257  -1.13249
  Beta  occ. eigenvalues --   -1.13235  -1.13213  -1.13197  -1.13154  -1.13103
  Beta  occ. eigenvalues --   -1.13092  -1.12981  -1.12959  -1.12953  -1.12901
  Beta  occ. eigenvalues --   -1.12856  -1.12836  -1.12663  -1.12610  -1.12591
  Beta  occ. eigenvalues --   -0.17936  -0.12641  -0.12449
  Beta virt. eigenvalues --   -0.06704  -0.05575  -0.05065  -0.04918  -0.02268
  Beta virt. eigenvalues --   -0.02176  -0.01411  -0.01353  -0.01132  -0.00494
  Beta virt. eigenvalues --   -0.00424   0.00141   0.00388   0.00844   0.00879

 Mulliken charges and spin densities:
               1          2
     1  Na  -0.489352   0.812017
     2  Na   0.043279  -0.073490
     3  Na  -0.211405   0.562626
     4  Na   0.099003  -0.116027
     5  Na   0.195524  -0.042305
     6  Na   0.344230  -0.105931
     7  Na   0.018721  -0.036892
 Sum of Mulliken charges =  -0.00000   1.00000

 Dipole moment (field-independent basis, Debye):
    X=             -0.0690    Y=             -0.2048    Z=              0.0820  Tot=              0.2311
 Quadrupole moment (field-independent basis, Debye-Ang):
   XX=            -57.6798   YY=            -60.4167   ZZ=            -75.0799
   XY=              0.2443   XZ=              0.0367   YZ=              1.0738

 Normal termination of Gaussian 16 at Fri Dec  8 03:09:41 2023.
