 Gaussian 16, Revision B.01,
 Gaussian 16:  ES64L-G16RevB.01 20-Dec-2017

 -------------------------
 #P B3LYP/6-311+g(d) force
 -------------------------

 -----
 DPGEN
 -----
 Symbolic Z-matrix:
 Charge =  0 Multiplicity = 2

                         Standard orientation:
 ---------------------------------------------------------------------
 Center     Atomic      Atomic             Coordinates (Angstroms)
 Number     Number       Type             X           Y           Z
 ---------------------------------------------------------------------
      1         11           0        2.926832   -0.283923   -0.563792
      2         11           0       -0.476559   -0.192712   -1.607944
      3         11           0       -2.851085   -1.174008    0.017400
      4         11           0        0.742578   -2.754580   -0.004409
      5         11           0       -2.255353    1.996189   -0.055498
      6         11           0        0.361851   -0.169240    2.205557
      7         11           0        1.551737    2.578274    0.008685
 ---------------------------------------------------------------------

 SCF Done:  E(UB3LYP) =  -1136.13552366     A.U. after   19 cycles

 The electronic state is 2-A.
 Alpha  occ. eigenvalues --  -38.44085 -38.43862 -38.43855 -38.43767 -38.43364
 Alpha  occ. eigenvalues --  -38.43280 -38.43099  -2.19960  -2.19732  -2.19727
 Alpha  occ. eigenvalues --   -2.19623  -2.19367  -2.19112  -2.18979  -1.13696
 Alpha  occ. eigenvalues --   -1.13621  -1.13582  -1.13409  -1.13393  -1.13386
 Alpha  occ. eigenvalues --   -1.13376  -1.13355  -1.13346  -1.13326  -1.13281
 Alpha  occ. eigenvalues --   -1.13244  -1.13045  -1.12999  -1.12995  -1.12783
 Alpha  occ. eigenvalues --   -1.12774  -1.12754  -1.12655  -1.12642  -1.12609
 Alpha  occ. eigenvalues --   -0.18735  -0.13369  -0.12238  -0.10978
 Alpha virt. eigenvalues --   -0.05516  -0.05266  -0.04501  -0.03452  -0.02854
 Alpha virt. eigenvalues --   -0.02792  -0.01440  -0.01005  -0.00292  -0.00243
 Alpha virt. eigenvalues --   -0.00031   0.00363   0.00794   0.00886   0.00926

  Beta  occ. eigenvalues --  -38.44082 -38.43841 -38.43765 -38.43758 -38.43309
  Beta  occ. eigenvalues --  -38.43278 -38.43092  -2.19957  -2.19707  -2.19622
  Beta  occ. eigenvalues --   -2.19537  -2.19268  -2.19111  -2.18971  -1.13688
  Beta  occ. eigenvalues --   -1.13612  -1.13573  -1.13392  -1.13370  -1.13351
  Beta  occ. eigenvalues --   -1.13319  -1.13271  -1.13257  -1.13242  -1.13221
  Beta  occ. eigenvalues --   -1.13211  -1.12979  -1.12931  -1.12921  -1.12784
  Beta  occ. eigenvalues --   -1.12757  -1.12753  -1.12652  -1.12612  -1.12599
  Beta  occ. eigenvalues --   -0.18012  -0.13138  -0.12020
  Beta virt. eigenvalues --   -0.07018  -0.05458  -0.05258  -0.04456  -0.02667
  Beta virt. eigenvalues --   -0.02083  -0.01705  -0.01341  -0.00949  -0.00323
  Beta virt. eigenvalues --   -0.00285   0.00127   0.00401   0.00873   0.00896

 Mulliken charges and spin densities:
               1          2
     1  Na   0.180202   0.034629
     2  Na  -0.229705   0.253908
     3  Na   0.353603   0.003305
     4  Na   0.317837   0.012880
     5  Na   0.040839  -0.030509
     6  Na  -0.672428   0.753485
     7  Na   0.009652  -0.027699
 Sum of Mulliken charges =  -0.00000   1.00000

 Dipole moment (field-independent basis, Debye):
    X=             -0.3009    Y=             -0.0511    Z=              0.1923  Tot=              0.3608
 Quadrupole moment (field-independent basis, Debye-Ang):
   XX=            -57.7919   YY=            -64.1380   ZZ=            -72.9843
   XY=             -0.0858   XZ=             -1.7852   YZ=              0.0487

 Normal termination of Gaussian 16 at Thu Dec  7 03:47:30 2023.
