 Gaussian 16, Revision B.01,
 Gaussian 16:  ES64L-G16RevB.01 20-Dec-2017

 -------------------------
 #P B3LYP/6-311+g(d) force
 -------------------------

 -----
 DPGEN
 -----
 Symbolic Z-matrix:
 Charge =  0 Multiplicity = 2

                         Standard orientation:
 ---------------------------------------------------------------------
 Center     Atomic      Atomic             Coordinates (Angstroms)
 Number     Number       Type             X           Y           Z
 ---------------------------------------------------------------------
      1         11           0       -3.679052   -1.812579   -0.379909
      2         11           0       -0.845939    2.897103   -0.921767
      3         11           0       -2.157545    0.579373    1.361077
      4         11           0        3.082335   -1.763815   -0.886683
      5         11           0       -0.135405   -0.722688   -1.269205
      6         11           0        2.207758    1.638778    0.172378
      7         11           0        1.527848   -0.816172    1.924110
 ---------------------------------------------------------------------

 SCF Done:  E(UB3LYP) =  -1136.12675820     A.U. after   20 cycles

 The electronic state is 2-A.
 Alpha  occ. eigenvalues --  -38.44237 -38.44138 -38.44106 -38.44066 -38.43933
 Alpha  occ. eigenvalues --  -38.43854 -38.42884  -2.20112  -2.19950  -2.19914
 Alpha  occ. eigenvalues --   -2.19912  -2.19842  -2.19744  -2.18708  -1.13857
 Alpha  occ. eigenvalues --   -1.13782  -1.13718  -1.13644  -1.13629  -1.13606
 Alpha  occ. eigenvalues --   -1.13584  -1.13577  -1.13577  -1.13569  -1.13553
 Alpha  occ. eigenvalues --   -1.13516  -1.13500  -1.13489  -1.13447  -1.13419
 Alpha  occ. eigenvalues --   -1.13387  -1.13352  -1.12375  -1.12368  -1.12347
 Alpha  occ. eigenvalues --   -0.18207  -0.13663  -0.11594  -0.10866
 Alpha virt. eigenvalues --   -0.06275  -0.05678  -0.04476  -0.03362  -0.02619
 Alpha virt. eigenvalues --   -0.02393  -0.02018  -0.01429  -0.00604  -0.00243
 Alpha virt. eigenvalues --    0.00125   0.00221   0.00285   0.00583   0.00709

  Beta  occ. eigenvalues --  -38.44223 -38.44146 -38.44085 -38.44043 -38.43858
  Beta  occ. eigenvalues --  -38.43807 -38.42874  -2.20090  -2.19930  -2.19912
  Beta  occ. eigenvalues --   -2.19871  -2.19705  -2.19661  -2.18690  -1.13824
  Beta  occ. eigenvalues --   -1.13744  -1.13711  -1.13626  -1.13611  -1.13590
  Beta  occ. eigenvalues --   -1.13577  -1.13571  -1.13554  -1.13534  -1.13523
  Beta  occ. eigenvalues --   -1.13507  -1.13417  -1.13397  -1.13373  -1.13327
  Beta  occ. eigenvalues --   -1.13321  -1.13288  -1.12358  -1.12352  -1.12337
  Beta  occ. eigenvalues --   -0.17486  -0.13540  -0.11420
  Beta virt. eigenvalues --   -0.06990  -0.06096  -0.05485  -0.04011  -0.03066
  Beta virt. eigenvalues --   -0.02188  -0.01966  -0.01510  -0.01205  -0.00439
  Beta virt. eigenvalues --   -0.00114   0.00262   0.00270   0.00468   0.00681

 Mulliken charges and spin densities:
               1          2
     1  Na  -0.012895  -0.071146
     2  Na  -0.041494  -0.036154
     3  Na   0.309131   0.128082
     4  Na   0.463447   0.016244
     5  Na  -0.679226   0.432227
     6  Na   0.100605   0.160001
     7  Na  -0.139567   0.370745
 Sum of Mulliken charges =  -0.00000   1.00000

 Dipole moment (field-independent basis, Debye):
    X=              0.2453    Y=             -0.3584    Z=             -0.0884  Tot=              0.4432
 Quadrupole moment (field-independent basis, Debye-Ang):
   XX=            -54.0629   YY=            -68.8545   ZZ=            -71.0953
   XY=             -0.6276   XZ=             -0.6745   YZ=              1.2301

 Normal termination of Gaussian 16 at Tue Dec  5 18:19:27 2023.
