 Gaussian 16, Revision B.01,
 Gaussian 16:  ES64L-G16RevB.01 20-Dec-2017

 -------------------------
 #P B3LYP/6-311+g(d) force
 -------------------------

 -----
 DPGEN
 -----
 Symbolic Z-matrix:
 Charge =  0 Multiplicity = 2

                         Standard orientation:
 ---------------------------------------------------------------------
 Center     Atomic      Atomic             Coordinates (Angstroms)
 Number     Number       Type             X           Y           Z
 ---------------------------------------------------------------------
      1         11           0        1.597425   -2.143949   -0.339001
      2         11           0        3.221660    0.321333   -0.098491
      3         11           0        0.180857   -0.010214    1.898753
      4         11           0       -2.204929   -2.272529    0.290404
      5         11           0       -0.033448    0.265591   -1.696713
      6         11           0       -2.977069    1.076859   -0.347946
      7         11           0        0.215505    2.762910    0.292994
 ---------------------------------------------------------------------

 SCF Done:  E(UB3LYP) =  -1136.13393407     A.U. after   20 cycles

 The electronic state is 2-A.
 Alpha  occ. eigenvalues --  -38.44413 -38.44268 -38.43494 -38.43429 -38.43397
 Alpha  occ. eigenvalues --  -38.43326 -38.42970  -2.20282  -2.20096  -2.19379
 Alpha  occ. eigenvalues --   -2.19371  -2.19301  -2.19256  -2.18854  -1.14007
 Alpha  occ. eigenvalues --   -1.13933  -1.13905  -1.13786  -1.13751  -1.13724
 Alpha  occ. eigenvalues --   -1.13102  -1.13061  -1.13037  -1.13026  -1.12997
 Alpha  occ. eigenvalues --   -1.12989  -1.12965  -1.12954  -1.12945  -1.12914
 Alpha  occ. eigenvalues --   -1.12900  -1.12872  -1.12541  -1.12525  -1.12461
 Alpha  occ. eigenvalues --   -0.18905  -0.13398  -0.12164  -0.10847
 Alpha virt. eigenvalues --   -0.05981  -0.05080  -0.04293  -0.03338  -0.02781
 Alpha virt. eigenvalues --   -0.02520  -0.01842  -0.01040  -0.00258  -0.00150
 Alpha virt. eigenvalues --    0.00004   0.00340   0.00772   0.00882   0.00917

  Beta  occ. eigenvalues --  -38.44408 -38.44260 -38.43491 -38.43339 -38.43330
  Beta  occ. eigenvalues --  -38.43314 -38.42960  -2.20278  -2.20084  -2.19299
  Beta  occ. eigenvalues --   -2.19257  -2.19238  -2.19207  -2.18841  -1.14007
  Beta  occ. eigenvalues --   -1.13913  -1.13895  -1.13766  -1.13736  -1.13721
  Beta  occ. eigenvalues --   -1.13028  -1.12980  -1.12966  -1.12953  -1.12948
  Beta  occ. eigenvalues --   -1.12937  -1.12924  -1.12905  -1.12884  -1.12862
  Beta  occ. eigenvalues --   -1.12855  -1.12831  -1.12532  -1.12488  -1.12451
  Beta  occ. eigenvalues --   -0.18171  -0.13141  -0.11897
  Beta virt. eigenvalues --   -0.06939  -0.05916  -0.05061  -0.04273  -0.02569
  Beta virt. eigenvalues --   -0.02017  -0.01744  -0.01468  -0.00965  -0.00295
  Beta virt. eigenvalues --   -0.00164   0.00119   0.00366   0.00826   0.00887

 Mulliken charges and spin densities:
               1          2
     1  Na   0.166537   0.042044
     2  Na   0.222791  -0.063838
     3  Na  -0.361660   0.753598
     4  Na  -0.048371  -0.056243
     5  Na  -0.168823   0.474182
     6  Na   0.098716  -0.049383
     7  Na   0.090809  -0.100360
 Sum of Mulliken charges =  -0.00000   1.00000

 Dipole moment (field-independent basis, Debye):
    X=             -0.0094    Y=              0.1878    Z=              0.0410  Tot=              0.1924
 Quadrupole moment (field-independent basis, Debye-Ang):
   XX=            -53.3842   YY=            -65.9053   ZZ=            -74.0430
   XY=              0.5237   XZ=             -0.0913   YZ=              0.1811

 Normal termination of Gaussian 16 at Tue Dec  5 13:17:53 2023.
