 Gaussian 16, Revision B.01,
 Gaussian 16:  ES64L-G16RevB.01 20-Dec-2017

 -------------------------
 #P B3LYP/6-311+g(d) force
 -------------------------

 -----
 DPGEN
 -----
 Symbolic Z-matrix:
 Charge =  0 Multiplicity = 2

                         Standard orientation:
 ---------------------------------------------------------------------
 Center     Atomic      Atomic             Coordinates (Angstroms)
 Number     Number       Type             X           Y           Z
 ---------------------------------------------------------------------
      1         11           0       -0.215077   -0.252479    1.943806
      2         11           0       -0.470507    0.177221   -1.797428
      3         11           0        1.272019    2.571879    0.091896
      4         11           0       -2.470743   -1.425858    0.319948
      5         11           0        3.315914   -0.198810    0.084131
      6         11           0       -2.187305    1.850883   -0.153733
      7         11           0        0.755698   -2.722836   -0.488621
 ---------------------------------------------------------------------

 SCF Done:  E(UB3LYP) =  -1136.13439494     A.U. after   19 cycles

 The electronic state is 2-A.
 Alpha  occ. eigenvalues --  -38.44141 -38.43741 -38.43614 -38.43531 -38.43508
 Alpha  occ. eigenvalues --  -38.43340 -38.43319  -2.19929  -2.19684  -2.19551
 Alpha  occ. eigenvalues --   -2.19533  -2.19439  -2.19183  -2.19166  -1.13603
 Alpha  occ. eigenvalues --   -1.13588  -1.13576  -1.13457  -1.13383  -1.13324
 Alpha  occ. eigenvalues --   -1.13296  -1.13232  -1.13183  -1.13176  -1.13164
 Alpha  occ. eigenvalues --   -1.13121  -1.13072  -1.13040  -1.13027  -1.12859
 Alpha  occ. eigenvalues --   -1.12855  -1.12848  -1.12825  -1.12810  -1.12791
 Alpha  occ. eigenvalues --   -0.19005  -0.13054  -0.12525  -0.11100
 Alpha virt. eigenvalues --   -0.05633  -0.05010  -0.04548  -0.03234  -0.03100
 Alpha virt. eigenvalues --   -0.02700  -0.01381  -0.00972  -0.00284  -0.00161
 Alpha virt. eigenvalues --    0.00005   0.00355   0.00851   0.00917   0.00937

  Beta  occ. eigenvalues --  -38.44144 -38.43654 -38.43599 -38.43497 -38.43453
  Beta  occ. eigenvalues --  -38.43337 -38.43307  -2.19937  -2.19536  -2.19519
  Beta  occ. eigenvalues --   -2.19432  -2.19383  -2.19180  -2.19146  -1.13602
  Beta  occ. eigenvalues --   -1.13591  -1.13582  -1.13382  -1.13316  -1.13216
  Beta  occ. eigenvalues --   -1.13195  -1.13187  -1.13152  -1.13107  -1.13081
  Beta  occ. eigenvalues --   -1.13052  -1.13036  -1.13016  -1.12962  -1.12856
  Beta  occ. eigenvalues --   -1.12839  -1.12827  -1.12809  -1.12798  -1.12781
  Beta  occ. eigenvalues --   -0.18250  -0.12832  -0.12252
  Beta virt. eigenvalues --   -0.07128  -0.05583  -0.04995  -0.04501  -0.02479
  Beta virt. eigenvalues --   -0.02280  -0.01656  -0.01306  -0.00909  -0.00294
  Beta virt. eigenvalues --   -0.00193   0.00122   0.00393   0.00894   0.00925

 Mulliken charges and spin densities:
               1          2
     1  Na  -0.390952   0.651935
     2  Na  -0.177105   0.599502
     3  Na  -0.121967  -0.111151
     4  Na   0.506851   0.052082
     5  Na  -0.153668  -0.097944
     6  Na   0.436663  -0.023346
     7  Na  -0.099821  -0.071078
 Sum of Mulliken charges =  -0.00000   1.00000

 Dipole moment (field-independent basis, Debye):
    X=              0.1843    Y=             -0.0595    Z=              0.1104  Tot=              0.2229
 Quadrupole moment (field-independent basis, Debye-Ang):
   XX=            -57.6332   YY=            -64.4304   ZZ=            -72.7274
   XY=             -0.3365   XZ=             -0.3330   YZ=              0.9572

 Normal termination of Gaussian 16 at Tue Dec  5 21:51:16 2023.
