 Gaussian 16, Revision B.01,
 Gaussian 16:  ES64L-G16RevB.01 20-Dec-2017

 -------------------------
 #P B3LYP/6-311+g(d) force
 -------------------------

 -----
 DPGEN
 -----
 Symbolic Z-matrix:
 Charge =  0 Multiplicity = 2

                         Standard orientation:
 ---------------------------------------------------------------------
 Center     Atomic      Atomic             Coordinates (Angstroms)
 Number     Number       Type             X           Y           Z
 ---------------------------------------------------------------------
      1         11           0        2.387796   -1.679398   -0.351016
      2         11           0        0.633474   -0.528001    1.813532
      3         11           0        2.790828    1.584905   -0.412988
      4         11           0       -1.444402   -2.039443    0.321573
      5         11           0       -0.911357    2.181413    0.998026
      6         11           0       -0.072127    0.178076   -1.751671
      7         11           0       -3.384212    0.302449   -0.617456
 ---------------------------------------------------------------------

 SCF Done:  E(UB3LYP) =  -1136.12825840     A.U. after   21 cycles

 The electronic state is 2-A.
 Alpha  occ. eigenvalues --  -38.44469 -38.43908 -38.43892 -38.43735 -38.43468
 Alpha  occ. eigenvalues --  -38.43201 -38.43000  -2.20320  -2.19844  -2.19746
 Alpha  occ. eigenvalues --   -2.19650  -2.19498  -2.19071  -2.18936  -1.13993
 Alpha  occ. eigenvalues --   -1.13981  -1.13953  -1.13548  -1.13488  -1.13488
 Alpha  occ. eigenvalues --   -1.13437  -1.13408  -1.13398  -1.13376  -1.13307
 Alpha  occ. eigenvalues --   -1.13244  -1.13214  -1.13116  -1.13090  -1.12765
 Alpha  occ. eigenvalues --   -1.12718  -1.12678  -1.12625  -1.12599  -1.12537
 Alpha  occ. eigenvalues --   -0.19177  -0.13813  -0.11613  -0.11427
 Alpha virt. eigenvalues --   -0.06146  -0.05052  -0.03979  -0.03345  -0.02832
 Alpha virt. eigenvalues --   -0.02715  -0.01989  -0.00909  -0.00335   0.00074
 Alpha virt. eigenvalues --    0.00241   0.00350   0.00692   0.00836   0.00878

  Beta  occ. eigenvalues --  -38.44458 -38.43903 -38.43835 -38.43725 -38.43385
  Beta  occ. eigenvalues --  -38.43163 -38.42990  -2.20301  -2.19741  -2.19739
  Beta  occ. eigenvalues --   -2.19635  -2.19348  -2.19006  -2.18922  -1.13983
  Beta  occ. eigenvalues --   -1.13953  -1.13942  -1.13485  -1.13442  -1.13425
  Beta  occ. eigenvalues --   -1.13410  -1.13373  -1.13369  -1.13360  -1.13282
  Beta  occ. eigenvalues --   -1.13229  -1.13120  -1.13007  -1.12993  -1.12712
  Beta  occ. eigenvalues --   -1.12657  -1.12639  -1.12611  -1.12557  -1.12532
  Beta  occ. eigenvalues --   -0.18432  -0.13525  -0.11343
  Beta virt. eigenvalues --   -0.07474  -0.06003  -0.05056  -0.03534  -0.02996
  Beta virt. eigenvalues --   -0.02128  -0.01847  -0.01667  -0.00895  -0.00143
  Beta virt. eigenvalues --    0.00116   0.00235   0.00373   0.00815   0.00883

 Mulliken charges and spin densities:
               1          2
     1  Na   0.104072  -0.042241
     2  Na   0.475307   0.585027
     3  Na  -0.075960  -0.044045
     4  Na  -0.274891  -0.140397
     5  Na  -0.352925  -0.022634
     6  Na  -0.253628   0.546521
     7  Na   0.378025   0.117768
 Sum of Mulliken charges =  -0.00000   1.00000

 Dipole moment (field-independent basis, Debye):
    X=             -0.0594    Y=              0.1747    Z=             -0.3727  Tot=              0.4158
 Quadrupole moment (field-independent basis, Debye-Ang):
   XX=            -51.4897   YY=            -71.8192   ZZ=            -70.5833
   XY=             -0.3202   XZ=              0.0266   YZ=              1.4077

 Normal termination of Gaussian 16 at Thu Dec  7 21:25:50 2023.
