 Gaussian 16, Revision B.01,
 Gaussian 16:  ES64L-G16RevB.01 20-Dec-2017

 -------------------------
 #P B3LYP/6-311+g(d) force
 -------------------------

 -----
 DPGEN
 -----
 Symbolic Z-matrix:
 Charge =  0 Multiplicity = 2

                         Standard orientation:
 ---------------------------------------------------------------------
 Center     Atomic      Atomic             Coordinates (Angstroms)
 Number     Number       Type             X           Y           Z
 ---------------------------------------------------------------------
      1         11           0        0.620744    3.131054    0.344992
      2         11           0       -1.435299   -1.975519    0.671227
      3         11           0        0.131061    0.097885    1.871900
      4         11           0        1.691695   -2.602337   -0.407513
      5         11           0        2.669929    0.498104   -0.217991
      6         11           0       -3.426567    0.474135   -0.379887
      7         11           0       -0.251563    0.376679   -1.882728
 ---------------------------------------------------------------------

 SCF Done:  E(UB3LYP) =  -1136.13222290     A.U. after   19 cycles

 The electronic state is 2-A.
 Alpha  occ. eigenvalues --  -38.44023 -38.43863 -38.43826 -38.43626 -38.43583
 Alpha  occ. eigenvalues --  -38.43379 -38.43250  -2.19839  -2.19826  -2.19725
 Alpha  occ. eigenvalues --   -2.19544  -2.19415  -2.19326  -2.19106  -1.13621
 Alpha  occ. eigenvalues --   -1.13497  -1.13492  -1.13490  -1.13471  -1.13432
 Alpha  occ. eigenvalues --   -1.13407  -1.13358  -1.13350  -1.13223  -1.13216
 Alpha  occ. eigenvalues --   -1.13177  -1.13085  -1.13062  -1.13048  -1.13018
 Alpha  occ. eigenvalues --   -1.12965  -1.12914  -1.12773  -1.12760  -1.12742
 Alpha  occ. eigenvalues --   -0.18808  -0.13037  -0.12390  -0.11211
 Alpha virt. eigenvalues --   -0.05591  -0.05036  -0.04406  -0.03342  -0.03096
 Alpha virt. eigenvalues --   -0.02741  -0.01518  -0.01227  -0.00194  -0.00035
 Alpha virt. eigenvalues --    0.00143   0.00342   0.00795   0.00868   0.00888

  Beta  occ. eigenvalues --  -38.44019 -38.43776 -38.43754 -38.43615 -38.43577
  Beta  occ. eigenvalues --  -38.43356 -38.43245  -2.19820  -2.19681  -2.19592
  Beta  occ. eigenvalues --   -2.19529  -2.19407  -2.19289  -2.19100  -1.13513
  Beta  occ. eigenvalues --   -1.13490  -1.13475  -1.13466  -1.13389  -1.13327
  Beta  occ. eigenvalues --   -1.13318  -1.13272  -1.13255  -1.13206  -1.13180
  Beta  occ. eigenvalues --   -1.13158  -1.13068  -1.13050  -1.13043  -1.12974
  Beta  occ. eigenvalues --   -1.12927  -1.12889  -1.12772  -1.12750  -1.12725
  Beta  occ. eigenvalues --   -0.18063  -0.12775  -0.12140
  Beta virt. eigenvalues --   -0.07303  -0.05500  -0.04975  -0.04313  -0.02604
  Beta virt. eigenvalues --   -0.02359  -0.01789  -0.01363  -0.01158  -0.00185
  Beta virt. eigenvalues --    0.00049   0.00161   0.00367   0.00828   0.00890

 Mulliken charges and spin densities:
               1          2
     1  Na   0.055436  -0.081583
     2  Na   0.363192   0.173736
     3  Na  -0.032089   0.296026
     4  Na  -0.184165  -0.007501
     5  Na   0.207912   0.120522
     6  Na  -0.085798  -0.080280
     7  Na  -0.324488   0.579080
 Sum of Mulliken charges =  -0.00000   1.00000

 Dipole moment (field-independent basis, Debye):
    X=             -0.2001    Y=              0.4503    Z=             -0.1965  Tot=              0.5305
 Quadrupole moment (field-independent basis, Debye-Ang):
   XX=            -59.9349   YY=            -62.3009   ZZ=            -72.1550
   XY=             -1.6608   XZ=             -0.4550   YZ=              0.8324

 Normal termination of Gaussian 16 at Tue Dec  5 13:56:27 2023.
