 Gaussian 16, Revision B.01,
 Gaussian 16:  ES64L-G16RevB.01 20-Dec-2017

 -------------------------
 #P B3LYP/6-311+g(d) force
 -------------------------

 -----
 DPGEN
 -----
 Symbolic Z-matrix:
 Charge =  0 Multiplicity = 2

                         Standard orientation:
 ---------------------------------------------------------------------
 Center     Atomic      Atomic             Coordinates (Angstroms)
 Number     Number       Type             X           Y           Z
 ---------------------------------------------------------------------
      1         11           0       -0.713958   -0.174894    1.902010
      2         11           0       -1.246491   -2.514942   -0.533904
      3         11           0        3.206443    1.200581   -0.121835
      4         11           0        0.526648    0.196728   -1.502905
      5         11           0        1.956914   -2.008865    0.461507
      6         11           0       -0.762388    2.954509    0.164909
      7         11           0       -2.967168    0.346883   -0.369782
 ---------------------------------------------------------------------

 SCF Done:  E(UB3LYP) =  -1136.13637722     A.U. after   19 cycles

 The electronic state is 2-A.
 Alpha  occ. eigenvalues --  -38.44222 -38.43952 -38.43662 -38.43559 -38.43321
 Alpha  occ. eigenvalues --  -38.43077 -38.43024  -2.20034  -2.19837  -2.19484
 Alpha  occ. eigenvalues --   -2.19442  -2.19257  -2.19017  -2.18983  -1.13726
 Alpha  occ. eigenvalues --   -1.13687  -1.13669  -1.13530  -1.13499  -1.13471
 Alpha  occ. eigenvalues --   -1.13160  -1.13156  -1.13140  -1.13114  -1.13110
 Alpha  occ. eigenvalues --   -1.13064  -1.12929  -1.12902  -1.12860  -1.12714
 Alpha  occ. eigenvalues --   -1.12685  -1.12645  -1.12632  -1.12621  -1.12616
 Alpha  occ. eigenvalues --   -0.18807  -0.13259  -0.12435  -0.10587
 Alpha virt. eigenvalues --   -0.05877  -0.05062  -0.04657  -0.03248  -0.02816
 Alpha virt. eigenvalues --   -0.02266  -0.01596  -0.01111  -0.00482  -0.00207
 Alpha virt. eigenvalues --    0.00007   0.00346   0.00814   0.00843   0.00895

  Beta  occ. eigenvalues --  -38.44222 -38.43940 -38.43659 -38.43546 -38.43237
  Beta  occ. eigenvalues --  -38.43061 -38.42971  -2.20036  -2.19819  -2.19479
  Beta  occ. eigenvalues --   -2.19420  -2.19104  -2.18956  -2.18921  -1.13721
  Beta  occ. eigenvalues --   -1.13682  -1.13673  -1.13518  -1.13472  -1.13448
  Beta  occ. eigenvalues --   -1.13157  -1.13136  -1.13128  -1.13111  -1.13073
  Beta  occ. eigenvalues --   -1.13049  -1.12830  -1.12796  -1.12748  -1.12666
  Beta  occ. eigenvalues --   -1.12622  -1.12616  -1.12581  -1.12579  -1.12555
  Beta  occ. eigenvalues --   -0.18092  -0.13037  -0.12192
  Beta virt. eigenvalues --   -0.06682  -0.05817  -0.04994  -0.04623  -0.02512
  Beta virt. eigenvalues --   -0.02099  -0.01554  -0.01240  -0.01006  -0.00491
  Beta virt. eigenvalues --   -0.00220   0.00154   0.00389   0.00826   0.00888

 Mulliken charges and spin densities:
               1          2
     1  Na  -0.310645   0.598943
     2  Na   0.160120   0.108963
     3  Na   0.030199  -0.096283
     4  Na  -0.075304   0.363701
     5  Na   0.084351   0.083147
     6  Na  -0.134509  -0.103445
     7  Na   0.245789   0.044974
 Sum of Mulliken charges =  -0.00000   1.00000

 Dipole moment (field-independent basis, Debye):
    X=              0.2022    Y=              0.3173    Z=              0.1521  Tot=              0.4058
 Quadrupole moment (field-independent basis, Debye-Ang):
   XX=            -55.9041   YY=            -62.1376   ZZ=            -74.7509
   XY=              0.6049   XZ=              2.4493   YZ=              0.6555

 Normal termination of Gaussian 16 at Tue Dec  5 23:04:01 2023.
