 Gaussian 16, Revision B.01,
 Gaussian 16:  ES64L-G16RevB.01 20-Dec-2017

 -------------------------
 #P B3LYP/6-311+g(d) force
 -------------------------

 -----
 DPGEN
 -----
 Symbolic Z-matrix:
 Charge =  0 Multiplicity = 2

                         Standard orientation:
 ---------------------------------------------------------------------
 Center     Atomic      Atomic             Coordinates (Angstroms)
 Number     Number       Type             X           Y           Z
 ---------------------------------------------------------------------
      1         11           0       -0.038803   -1.025143    1.098292
      2         11           0        6.275864   -0.125555    0.107719
      3         11           0        3.333433   -0.781297   -0.950080
      4         11           0        1.168170    2.246629   -0.116542
      5         11           0       -2.263149    1.195119    0.695598
      6         11           0       -3.096218   -2.053598   -0.108470
      7         11           0       -5.379297    0.543846   -0.726517
 ---------------------------------------------------------------------

 SCF Done:  E(UB3LYP) =  -1136.11867356     A.U. after   20 cycles

 The electronic state is 2-A.
 Alpha  occ. eigenvalues --  -38.44437 -38.44398 -38.44270 -38.43934 -38.43907
 Alpha  occ. eigenvalues --  -38.43876 -38.43796  -2.20242  -2.20236  -2.20156
 Alpha  occ. eigenvalues --   -2.19816  -2.19683  -2.19677  -2.19607  -1.13937
 Alpha  occ. eigenvalues --   -1.13918  -1.13909  -1.13879  -1.13876  -1.13858
 Alpha  occ. eigenvalues --   -1.13855  -1.13839  -1.13735  -1.13500  -1.13482
 Alpha  occ. eigenvalues --   -1.13408  -1.13403  -1.13367  -1.13346  -1.13337
 Alpha  occ. eigenvalues --   -1.13328  -1.13267  -1.13264  -1.13251  -1.13225
 Alpha  occ. eigenvalues --   -0.17153  -0.14031  -0.11566  -0.11258
 Alpha virt. eigenvalues --   -0.06542  -0.05685  -0.04356  -0.03546  -0.02996
 Alpha virt. eigenvalues --   -0.02586  -0.02016  -0.01344  -0.01102  -0.00641
 Alpha virt. eigenvalues --   -0.00436  -0.00098   0.00221   0.00400   0.00643

  Beta  occ. eigenvalues --  -38.44391 -38.44357 -38.44246 -38.43917 -38.43888
  Beta  occ. eigenvalues --  -38.43873 -38.43758  -2.20169  -2.20148  -2.20115
  Beta  occ. eigenvalues --   -2.19735  -2.19695  -2.19675  -2.19537  -1.13889
  Beta  occ. eigenvalues --   -1.13873  -1.13850  -1.13826  -1.13821  -1.13813
  Beta  occ. eigenvalues --   -1.13794  -1.13775  -1.13702  -1.13449  -1.13428
  Beta  occ. eigenvalues --   -1.13408  -1.13363  -1.13354  -1.13345  -1.13329
  Beta  occ. eigenvalues --   -1.13320  -1.13256  -1.13217  -1.13211  -1.13185
  Beta  occ. eigenvalues --   -0.16440  -0.13861  -0.11381
  Beta virt. eigenvalues --   -0.07427  -0.06468  -0.05044  -0.04154  -0.03383
  Beta virt. eigenvalues --   -0.02456  -0.02110  -0.01808  -0.01285  -0.00795
  Beta virt. eigenvalues --   -0.00498  -0.00126   0.00046   0.00402   0.00461

 Mulliken charges and spin densities:
               1          2
     1  Na  -0.100441   0.533814
     2  Na   0.324505  -0.027067
     3  Na  -0.443344  -0.043130
     4  Na   0.277429   0.230777
     5  Na  -0.576185   0.149352
     6  Na   0.187411  -0.015864
     7  Na   0.330626   0.172117
 Sum of Mulliken charges =  -0.00000   1.00000

 Dipole moment (field-independent basis, Debye):
    X=             -0.5596    Y=              0.2838    Z=              0.0066  Tot=              0.6275
 Quadrupole moment (field-independent basis, Debye-Ang):
   XX=            -63.7615   YY=            -66.5896   ZZ=            -69.9120
   XY=              4.6452   XZ=              4.7957   YZ=              0.7610

 Normal termination of Gaussian 16 at Wed Nov 29 02:39:57 2023.
