 Gaussian 16, Revision B.01,
 Gaussian 16:  ES64L-G16RevB.01 20-Dec-2017

 -------------------------
 #P B3LYP/6-311+g(d) force
 -------------------------

 -----
 DPGEN
 -----
 Symbolic Z-matrix:
 Charge =  0 Multiplicity = 2

                         Standard orientation:
 ---------------------------------------------------------------------
 Center     Atomic      Atomic             Coordinates (Angstroms)
 Number     Number       Type             X           Y           Z
 ---------------------------------------------------------------------
      1         11           0       -4.247092   -2.222175    0.366595
      2         11           0       -3.466146    1.363292   -0.272118
      3         11           0        2.968495   -2.506804    0.077024
      4         11           0        4.822354   -0.194043   -0.084294
      5         11           0       -0.892274   -3.170983   -0.280313
      6         11           0       -1.174097    3.968056   -0.049783
      7         11           0        1.988760    2.762657    0.242889
 ---------------------------------------------------------------------

 SCF Done:  E(UB3LYP) =  -1136.10689493     A.U. after   24 cycles

 The electronic state is 2-A.
 Alpha  occ. eigenvalues --  -38.45895 -38.45019 -38.44832 -38.44792 -38.44056
 Alpha  occ. eigenvalues --  -38.43941 -38.43869  -2.21645  -2.20824  -2.20601
 Alpha  occ. eigenvalues --   -2.20541  -2.19845  -2.19725  -2.19710  -1.15323
 Alpha  occ. eigenvalues --   -1.15309  -1.15254  -1.14522  -1.14491  -1.14476
 Alpha  occ. eigenvalues --   -1.14279  -1.14264  -1.14226  -1.14220  -1.14201
 Alpha  occ. eigenvalues --   -1.14184  -1.13517  -1.13511  -1.13501  -1.13389
 Alpha  occ. eigenvalues --   -1.13384  -1.13382  -1.13343  -1.13331  -1.13329
 Alpha  occ. eigenvalues --   -0.15483  -0.13960  -0.13443  -0.10583
 Alpha virt. eigenvalues --   -0.07966  -0.04980  -0.04535  -0.03581  -0.03166
 Alpha virt. eigenvalues --   -0.02526  -0.02436  -0.02035  -0.01651  -0.00709
 Alpha virt. eigenvalues --   -0.00123  -0.00100   0.00050   0.00305   0.00453

  Beta  occ. eigenvalues --  -38.45851 -38.45003 -38.44811 -38.44782 -38.44062
  Beta  occ. eigenvalues --  -38.43868 -38.43824  -2.21567  -2.20803  -2.20578
  Beta  occ. eigenvalues --   -2.20508  -2.19860  -2.19628  -2.19589  -1.15271
  Beta  occ. eigenvalues --   -1.15259  -1.15185  -1.14491  -1.14482  -1.14434
  Beta  occ. eigenvalues --   -1.14254  -1.14233  -1.14215  -1.14203  -1.14197
  Beta  occ. eigenvalues --   -1.14149  -1.13529  -1.13525  -1.13487  -1.13329
  Beta  occ. eigenvalues --   -1.13297  -1.13290  -1.13287  -1.13274  -1.13240
  Beta  occ. eigenvalues --   -0.14961  -0.13505  -0.12899
  Beta virt. eigenvalues --   -0.07919  -0.07186  -0.04702  -0.04016  -0.03378
  Beta virt. eigenvalues --   -0.02671  -0.02388  -0.02317  -0.01923  -0.01561
  Beta virt. eigenvalues --   -0.00386   0.00102   0.00133   0.00310   0.00393

 Mulliken charges and spin densities:
               1          2
     1  Na   0.406475  -0.097043
     2  Na  -0.386510   0.234304
     3  Na  -0.210294   0.040292
     4  Na   0.287981   0.231037
     5  Na  -0.328646   0.340350
     6  Na   0.648687  -0.036913
     7  Na  -0.417693   0.287972
 Sum of Mulliken charges =  -0.00000   1.00000

 Dipole moment (field-independent basis, Debye):
    X=              0.0811    Y=              0.6635    Z=              0.1535  Tot=              0.6859
 Quadrupole moment (field-independent basis, Debye-Ang):
   XX=            -60.1970   YY=            -64.8452   ZZ=            -74.3855
   XY=              4.1969   XZ=             -0.6876   YZ=             -1.0893

 Normal termination of Gaussian 16 at Sun Dec  3 18:04:08 2023.
