 Gaussian 16, Revision B.01,
 Gaussian 16:  ES64L-G16RevB.01 20-Dec-2017

 -------------------------
 #P B3LYP/6-311+g(d) force
 -------------------------

 -----
 DPGEN
 -----
 Symbolic Z-matrix:
 Charge =  0 Multiplicity = 2

                         Standard orientation:
 ---------------------------------------------------------------------
 Center     Atomic      Atomic             Coordinates (Angstroms)
 Number     Number       Type             X           Y           Z
 ---------------------------------------------------------------------
      1         11           0       -1.630562    1.463976   -0.678429
      2         11           0        1.725142    0.958697    0.329169
      3         11           0        0.997873   -1.969377   -0.751797
      4         11           0       -1.588751   -2.024199    1.682309
      5         11           0       -3.630065   -1.320319   -0.703419
      6         11           0        4.057966   -1.380635   -0.203764
      7         11           0        0.068396    4.271857    0.325930
 ---------------------------------------------------------------------

 SCF Done:  E(UB3LYP) =  -1136.12462828     A.U. after   21 cycles

 The electronic state is 2-A.
 Alpha  occ. eigenvalues --  -38.44640 -38.44208 -38.44002 -38.43969 -38.43693
 Alpha  occ. eigenvalues --  -38.43500 -38.43414  -2.20516  -2.20081  -2.19825
 Alpha  occ. eigenvalues --   -2.19788  -2.19541  -2.19350  -2.19265  -1.14240
 Alpha  occ. eigenvalues --   -1.14189  -1.14128  -1.13820  -1.13766  -1.13661
 Alpha  occ. eigenvalues --   -1.13487  -1.13465  -1.13463  -1.13454  -1.13442
 Alpha  occ. eigenvalues --   -1.13410  -1.13253  -1.13226  -1.13133  -1.13035
 Alpha  occ. eigenvalues --   -1.13004  -1.12990  -1.12917  -1.12908  -1.12867
 Alpha  occ. eigenvalues --   -0.17415  -0.13817  -0.12941  -0.09698
 Alpha virt. eigenvalues --   -0.06464  -0.05721  -0.04730  -0.03308  -0.02598
 Alpha virt. eigenvalues --   -0.02468  -0.01996  -0.01360  -0.00932  -0.00589
 Alpha virt. eigenvalues --   -0.00183   0.00059   0.00354   0.00535   0.00635

  Beta  occ. eigenvalues --  -38.44629 -38.44204 -38.44001 -38.43939 -38.43663
  Beta  occ. eigenvalues --  -38.43444 -38.43367  -2.20501  -2.20073  -2.19786
  Beta  occ. eigenvalues --   -2.19767  -2.19490  -2.19247  -2.19179  -1.14235
  Beta  occ. eigenvalues --   -1.14177  -1.14091  -1.13816  -1.13750  -1.13654
  Beta  occ. eigenvalues --   -1.13461  -1.13452  -1.13448  -1.13423  -1.13411
  Beta  occ. eigenvalues --   -1.13405  -1.13222  -1.13189  -1.13074  -1.12967
  Beta  occ. eigenvalues --   -1.12931  -1.12916  -1.12860  -1.12838  -1.12800
  Beta  occ. eigenvalues --   -0.16994  -0.13313  -0.12743
  Beta virt. eigenvalues --   -0.06269  -0.06051  -0.05629  -0.04459  -0.02899
  Beta virt. eigenvalues --   -0.02317  -0.02194  -0.01898  -0.00959  -0.00848
  Beta virt. eigenvalues --   -0.00240   0.00140   0.00285   0.00562   0.00621

 Mulliken charges and spin densities:
               1          2
     1  Na  -0.885208   0.223305
     2  Na  -1.146077   0.038861
     3  Na  -0.576276   0.047462
     4  Na   0.266886   0.289853
     5  Na   0.401995   0.234074
     6  Na   1.064004   0.126763
     7  Na   0.874676   0.039681
 Sum of Mulliken charges =  -0.00000   1.00000

 Dipole moment (field-independent basis, Debye):
    X=              1.2592    Y=              0.1003    Z=              0.4474  Tot=              1.3401
 Quadrupole moment (field-independent basis, Debye-Ang):
   XX=            -65.5136   YY=            -59.8959   ZZ=            -70.9703
   XY=              1.3478   XZ=             -0.5476   YZ=              3.8595

 Normal termination of Gaussian 16 at Tue Nov 28 23:05:31 2023.
