 Gaussian 16, Revision B.01,
 Gaussian 16:  ES64L-G16RevB.01 20-Dec-2017

 -------------------------
 #P B3LYP/6-311+g(d) force
 -------------------------

 -----
 DPGEN
 -----
 Symbolic Z-matrix:
 Charge =  0 Multiplicity = 2

                         Standard orientation:
 ---------------------------------------------------------------------
 Center     Atomic      Atomic             Coordinates (Angstroms)
 Number     Number       Type             X           Y           Z
 ---------------------------------------------------------------------
      1         11           0        3.728429    1.824963   -0.254397
      2         11           0       -2.542644   -2.742746   -0.518561
      3         11           0       -3.732247   -0.518166    1.182936
      4         11           0       -2.556940    2.750462   -0.737001
      5         11           0        0.403662    3.642087    0.185087
      6         11           0        1.367403   -3.240648   -0.820811
      7         11           0        3.332336   -1.715952    0.962746
 ---------------------------------------------------------------------

 SCF Done:  E(UB3LYP) =  -1136.10693257     A.U. after   20 cycles

 The electronic state is 2-A.
 Alpha  occ. eigenvalues --  -38.44760 -38.44750 -38.44615 -38.44311 -38.44235
 Alpha  occ. eigenvalues --  -38.44228 -38.44214  -2.20567  -2.20543  -2.20414
 Alpha  occ. eigenvalues --   -2.20082  -2.20030  -2.20029  -2.20019  -1.14307
 Alpha  occ. eigenvalues --   -1.14257  -1.14220  -1.14210  -1.14198  -1.14184
 Alpha  occ. eigenvalues --   -1.14069  -1.14057  -1.14027  -1.13793  -1.13762
 Alpha  occ. eigenvalues --   -1.13742  -1.13682  -1.13681  -1.13671  -1.13670
 Alpha  occ. eigenvalues --   -1.13663  -1.13656  -1.13652  -1.13642  -1.13629
 Alpha  occ. eigenvalues --   -0.15503  -0.13846  -0.13412  -0.10734
 Alpha virt. eigenvalues --   -0.07333  -0.05004  -0.04375  -0.03629  -0.03068
 Alpha virt. eigenvalues --   -0.02504  -0.02433  -0.01735  -0.01292  -0.00894
 Alpha virt. eigenvalues --   -0.00572   0.00038   0.00097   0.00439   0.00744

  Beta  occ. eigenvalues --  -38.44752 -38.44734 -38.44600 -38.44312 -38.44174
  Beta  occ. eigenvalues --  -38.44165 -38.44145  -2.20552  -2.20523  -2.20391
  Beta  occ. eigenvalues --   -2.20089  -2.19939  -2.19930  -2.19851  -1.14269
  Beta  occ. eigenvalues --   -1.14248  -1.14221  -1.14192  -1.14170  -1.14165
  Beta  occ. eigenvalues --   -1.14056  -1.14043  -1.13993  -1.13781  -1.13772
  Beta  occ. eigenvalues --   -1.13717  -1.13622  -1.13616  -1.13609  -1.13600
  Beta  occ. eigenvalues --   -1.13595  -1.13567  -1.13555  -1.13540  -1.13529
  Beta  occ. eigenvalues --   -0.15021  -0.13143  -0.12634
  Beta virt. eigenvalues --   -0.07591  -0.07432  -0.04630  -0.04024  -0.03407
  Beta virt. eigenvalues --   -0.02680  -0.02238  -0.02043  -0.01570  -0.01206
  Beta virt. eigenvalues --   -0.00677  -0.00236   0.00118   0.00285   0.00413

 Mulliken charges and spin densities:
               1          2
     1  Na   0.054687   0.476263
     2  Na  -0.038462   0.052644
     3  Na   0.132676   0.101267
     4  Na  -0.003400   0.244108
     5  Na  -0.104878  -0.045499
     6  Na  -0.094887   0.197990
     7  Na   0.054264  -0.026773
 Sum of Mulliken charges =  -0.00000   1.00000

 Dipole moment (field-independent basis, Debye):
    X=             -0.5931    Y=             -0.5569    Z=              0.1600  Tot=              0.8292
 Quadrupole moment (field-independent basis, Debye-Ang):
   XX=            -65.2185   YY=            -71.2915   ZZ=            -66.5728
   XY=             -0.8484   XZ=              1.1487   YZ=              2.6334

 Normal termination of Gaussian 16 at Mon Dec  4 03:51:45 2023.
