 Gaussian 16, Revision B.01,
 Gaussian 16:  ES64L-G16RevB.01 20-Dec-2017

 -------------------------
 #P B3LYP/6-311+g(d) force
 -------------------------

 -----
 DPGEN
 -----
 Symbolic Z-matrix:
 Charge =  0 Multiplicity = 2

                         Standard orientation:
 ---------------------------------------------------------------------
 Center     Atomic      Atomic             Coordinates (Angstroms)
 Number     Number       Type             X           Y           Z
 ---------------------------------------------------------------------
      1         11           0       -4.925436   -1.098720   -0.355024
      2         11           0        3.989335    2.438362   -0.119927
      3         11           0        5.333782   -1.037559    1.209853
      4         11           0        2.873703   -1.393702   -0.780040
      5         11           0       -0.962494   -1.686443   -0.107241
      6         11           0       -6.648215    1.168620    0.806669
      7         11           0        0.339325    1.609443   -0.654289
 ---------------------------------------------------------------------

 SCF Done:  E(UB3LYP) =  -1136.11206339     A.U. after   20 cycles

 The electronic state is 2-A.
 Alpha  occ. eigenvalues --  -38.45081 -38.44755 -38.44741 -38.44056 -38.43979
 Alpha  occ. eigenvalues --  -38.43810 -38.43754  -2.20859  -2.20563  -2.20533
 Alpha  occ. eigenvalues --   -2.19862  -2.19768  -2.19604  -2.19533  -1.14533
 Alpha  occ. eigenvalues --   -1.14509  -1.14460  -1.14266  -1.14225  -1.14221
 Alpha  occ. eigenvalues --   -1.14196  -1.14172  -1.14142  -1.13535  -1.13517
 Alpha  occ. eigenvalues --   -1.13482  -1.13478  -1.13422  -1.13420  -1.13269
 Alpha  occ. eigenvalues --   -1.13257  -1.13216  -1.13209  -1.13192  -1.13159
 Alpha  occ. eigenvalues --   -0.16237  -0.13593  -0.11893  -0.11508
 Alpha virt. eigenvalues --   -0.06729  -0.05413  -0.04535  -0.03476  -0.03217
 Alpha virt. eigenvalues --   -0.02630  -0.02200  -0.01477  -0.01118  -0.01024
 Alpha virt. eigenvalues --   -0.00476  -0.00285   0.00020   0.00231   0.00494

  Beta  occ. eigenvalues --  -38.45008 -38.44721 -38.44703 -38.44026 -38.43975
  Beta  occ. eigenvalues --  -38.43811 -38.43734  -2.20725  -2.20496  -2.20472
  Beta  occ. eigenvalues --   -2.19808  -2.19761  -2.19607  -2.19495  -1.14444
  Beta  occ. eigenvalues --   -1.14414  -1.14360  -1.14215  -1.14184  -1.14174
  Beta  occ. eigenvalues --   -1.14157  -1.14120  -1.14076  -1.13488  -1.13478
  Beta  occ. eigenvalues --   -1.13477  -1.13446  -1.13416  -1.13415  -1.13271
  Beta  occ. eigenvalues --   -1.13258  -1.13213  -1.13184  -1.13164  -1.13135
  Beta  occ. eigenvalues --   -0.15477  -0.13452  -0.11582
  Beta virt. eigenvalues --   -0.07805  -0.06470  -0.05006  -0.04216  -0.03267
  Beta virt. eigenvalues --   -0.02560  -0.02471  -0.01990  -0.01302  -0.00996
  Beta virt. eigenvalues --   -0.00682  -0.00151  -0.00060   0.00075   0.00319

 Mulliken charges and spin densities:
               1          2
     1  Na  -0.083050   0.035987
     2  Na   0.233569   0.197572
     3  Na   0.238696   0.093286
     4  Na  -0.170761   0.196643
     5  Na  -0.217828   0.116434
     6  Na   0.151218   0.016874
     7  Na  -0.151844   0.343205
 Sum of Mulliken charges =  -0.00000   1.00000

 Dipole moment (field-independent basis, Debye):
    X=              1.2617    Y=              0.7387    Z=              0.2985  Tot=              1.4922
 Quadrupole moment (field-independent basis, Debye-Ang):
   XX=            -67.2214   YY=            -62.7213   ZZ=            -70.1328
   XY=             -2.2958   XZ=              0.7491   YZ=              1.7865

 Normal termination of Gaussian 16 at Mon Dec  4 05:13:49 2023.
