 Gaussian 16, Revision B.01,
 Gaussian 16:  ES64L-G16RevB.01 20-Dec-2017

 -------------------------
 #P B3LYP/6-311+g(d) force
 -------------------------

 -----
 DPGEN
 -----
 Symbolic Z-matrix:
 Charge =  0 Multiplicity = 2

                         Standard orientation:
 ---------------------------------------------------------------------
 Center     Atomic      Atomic             Coordinates (Angstroms)
 Number     Number       Type             X           Y           Z
 ---------------------------------------------------------------------
      1         11           0       -1.116471    2.969607    0.733386
      2         11           0        0.838404   -1.603553   -1.159708
      3         11           0        1.643526    1.859353   -0.779482
      4         11           0        3.952050   -1.111122    0.416021
      5         11           0       -3.250651   -2.115185    0.092831
      6         11           0       -0.286213   -0.588122    1.987950
      7         11           0       -1.780646    0.589021   -1.290997
 ---------------------------------------------------------------------

 SCF Done:  E(UB3LYP) =  -1136.12918058     A.U. after   20 cycles

 The electronic state is 2-A.
 Alpha  occ. eigenvalues --  -38.44576 -38.44185 -38.44146 -38.43917 -38.43878
 Alpha  occ. eigenvalues --  -38.43269 -38.43205  -2.20334  -2.19975  -2.19960
 Alpha  occ. eigenvalues --   -2.19752  -2.19738  -2.19198  -2.19059  -1.14010
 Alpha  occ. eigenvalues --   -1.13998  -1.13963  -1.13661  -1.13645  -1.13623
 Alpha  occ. eigenvalues --   -1.13609  -1.13596  -1.13573  -1.13470  -1.13438
 Alpha  occ. eigenvalues --   -1.13430  -1.13414  -1.13356  -1.13318  -1.12907
 Alpha  occ. eigenvalues --   -1.12888  -1.12810  -1.12718  -1.12699  -1.12683
 Alpha  occ. eigenvalues --   -0.18039  -0.12898  -0.12140  -0.10657
 Alpha virt. eigenvalues --   -0.06466  -0.05367  -0.04188  -0.03210  -0.02946
 Alpha virt. eigenvalues --   -0.02514  -0.02132  -0.01437  -0.00663  -0.00206
 Alpha virt. eigenvalues --    0.00151   0.00219   0.00615   0.00661   0.00712

  Beta  occ. eigenvalues --  -38.44578 -38.44190 -38.44060 -38.43903 -38.43845
  Beta  occ. eigenvalues --  -38.43230 -38.43195  -2.20338  -2.19970  -2.19815
  Beta  occ. eigenvalues --   -2.19728  -2.19683  -2.19131  -2.19041  -1.14013
  Beta  occ. eigenvalues --   -1.13996  -1.13966  -1.13652  -1.13617  -1.13600
  Beta  occ. eigenvalues --   -1.13553  -1.13493  -1.13466  -1.13441  -1.13407
  Beta  occ. eigenvalues --   -1.13399  -1.13350  -1.13341  -1.13281  -1.12848
  Beta  occ. eigenvalues --   -1.12845  -1.12765  -1.12703  -1.12676  -1.12659
  Beta  occ. eigenvalues --   -0.17270  -0.12801  -0.11982
  Beta virt. eigenvalues --   -0.06742  -0.06262  -0.05322  -0.04069  -0.02721
  Beta virt. eigenvalues --   -0.02318  -0.02005  -0.01631  -0.01206  -0.00507
  Beta virt. eigenvalues --   -0.00114   0.00188   0.00274   0.00671   0.00722

 Mulliken charges and spin densities:
               1          2
     1  Na   0.255884  -0.139252
     2  Na  -0.172131   0.047730
     3  Na  -0.186983   0.083491
     4  Na   0.257255  -0.028154
     5  Na   0.055826  -0.179816
     6  Na  -0.500606   0.808785
     7  Na   0.290756   0.407215
 Sum of Mulliken charges =  -0.00000   1.00000

 Dipole moment (field-independent basis, Debye):
    X=              0.4342    Y=             -0.2808    Z=              0.2526  Tot=              0.5755
 Quadrupole moment (field-independent basis, Debye-Ang):
   XX=            -52.4035   YY=            -66.3377   ZZ=            -73.1893
   XY=              1.0191   XZ=              0.7387   YZ=              0.2770

 Normal termination of Gaussian 16 at Thu Dec  7 05:42:19 2023.
