 Gaussian 16, Revision B.01,
 Gaussian 16:  ES64L-G16RevB.01 20-Dec-2017

 -------------------------
 #P B3LYP/6-311+g(d) force
 -------------------------

 -----
 DPGEN
 -----
 Symbolic Z-matrix:
 Charge =  0 Multiplicity = 2

                         Standard orientation:
 ---------------------------------------------------------------------
 Center     Atomic      Atomic             Coordinates (Angstroms)
 Number     Number       Type             X           Y           Z
 ---------------------------------------------------------------------
      1         11           0        3.380497   -1.604483    0.080003
      2         11           0       -2.999499   -2.079306   -0.353185
      3         11           0        1.281535    0.042861    2.128176
      4         11           0        1.946022    1.907443   -0.931477
      5         11           0       -2.231926    1.059893    1.860206
      6         11           0       -0.278337   -1.798116   -1.402503
      7         11           0       -1.098292    2.471709   -1.381221
 ---------------------------------------------------------------------

 SCF Done:  E(UB3LYP) =  -1136.12149078     A.U. after   20 cycles

 The electronic state is 2-A.
 Alpha  occ. eigenvalues --  -38.44761 -38.44700 -38.44165 -38.44142 -38.43868
 Alpha  occ. eigenvalues --  -38.43646 -38.43611  -2.20590  -2.20490  -2.19976
 Alpha  occ. eigenvalues --   -2.19955  -2.19705  -2.19464  -2.19434  -1.14255
 Alpha  occ. eigenvalues --   -1.14248  -1.14211  -1.14153  -1.14123  -1.14116
 Alpha  occ. eigenvalues --   -1.13673  -1.13642  -1.13631  -1.13610  -1.13602
 Alpha  occ. eigenvalues --   -1.13585  -1.13471  -1.13352  -1.13345  -1.13140
 Alpha  occ. eigenvalues --   -1.13107  -1.13094  -1.13077  -1.13072  -1.13054
 Alpha  occ. eigenvalues --   -0.17378  -0.13047  -0.12067  -0.11756
 Alpha virt. eigenvalues --   -0.05889  -0.05406  -0.04777  -0.03642  -0.03238
 Alpha virt. eigenvalues --   -0.02818  -0.01706  -0.01176  -0.00682  -0.00156
 Alpha virt. eigenvalues --    0.00022   0.00119   0.00372   0.00500   0.00694

  Beta  occ. eigenvalues --  -38.44697 -38.44636 -38.44166 -38.44111 -38.43838
  Beta  occ. eigenvalues --  -38.43623 -38.43613  -2.20472  -2.20373  -2.19958
  Beta  occ. eigenvalues --   -2.19922  -2.19649  -2.19438  -2.19425  -1.14177
  Beta  occ. eigenvalues --   -1.14172  -1.14112  -1.14063  -1.14048  -1.14036
  Beta  occ. eigenvalues --   -1.13631  -1.13626  -1.13612  -1.13603  -1.13598
  Beta  occ. eigenvalues --   -1.13551  -1.13441  -1.13313  -1.13304  -1.13103
  Beta  occ. eigenvalues --   -1.13084  -1.13079  -1.13064  -1.13062  -1.13054
  Beta  occ. eigenvalues --   -0.16696  -0.12897  -0.11697
  Beta virt. eigenvalues --   -0.07943  -0.05730  -0.05224  -0.04167  -0.03273
  Beta virt. eigenvalues --   -0.02730  -0.02211  -0.01584  -0.01033  -0.00358
  Beta virt. eigenvalues --   -0.00093   0.00161   0.00207   0.00424   0.00633

 Mulliken charges and spin densities:
               1          2
     1  Na   0.630863  -0.049485
     2  Na   0.432422  -0.231820
     3  Na  -0.010918   0.156276
     4  Na  -0.286170   0.273622
     5  Na  -0.171556   0.536715
     6  Na  -0.809068   0.443967
     7  Na   0.214427  -0.129275
 Sum of Mulliken charges =  -0.00000   1.00000

 Dipole moment (field-independent basis, Debye):
    X=              0.4409    Y=              0.0484    Z=              0.3482  Tot=              0.5639
 Quadrupole moment (field-independent basis, Debye-Ang):
   XX=            -56.1882   YY=            -73.6127   ZZ=            -68.4255
   XY=             -3.2890   XZ=             -2.7937   YZ=             -0.2801

 Normal termination of Gaussian 16 at Sun Dec  3 19:03:43 2023.
