 Gaussian 16, Revision B.01,
 Gaussian 16:  ES64L-G16RevB.01 20-Dec-2017

 -------------------------
 #P B3LYP/6-311+g(d) force
 -------------------------

 -----
 DPGEN
 -----
 Symbolic Z-matrix:
 Charge =  0 Multiplicity = 2

                         Standard orientation:
 ---------------------------------------------------------------------
 Center     Atomic      Atomic             Coordinates (Angstroms)
 Number     Number       Type             X           Y           Z
 ---------------------------------------------------------------------
      1         11           0        0.182373    0.113911    1.962311
      2         11           0       -2.507923    1.802042    0.119323
      3         11           0        0.595708   -2.499650   -0.135529
      4         11           0       -0.189169    0.556167   -1.906452
      5         11           0        1.314390    2.577593    0.084736
      6         11           0        3.062645   -0.645428   -0.136877
      7         11           0       -2.458023   -1.904634    0.012488
 ---------------------------------------------------------------------

 SCF Done:  E(UB3LYP) =  -1136.13639452     A.U. after   19 cycles

 The electronic state is 2-A.
 Alpha  occ. eigenvalues --  -38.44048 -38.43877 -38.43670 -38.43669 -38.43592
 Alpha  occ. eigenvalues --  -38.43539 -38.42978  -2.19868  -2.19730  -2.19534
 Alpha  occ. eigenvalues --   -2.19516  -2.19507  -2.19464  -2.18913  -1.13558
 Alpha  occ. eigenvalues --   -1.13534  -1.13496  -1.13438  -1.13384  -1.13365
 Alpha  occ. eigenvalues --   -1.13265  -1.13245  -1.13216  -1.13181  -1.13165
 Alpha  occ. eigenvalues --   -1.13146  -1.13142  -1.13133  -1.13120  -1.13116
 Alpha  occ. eigenvalues --   -1.13084  -1.13075  -1.12583  -1.12564  -1.12559
 Alpha  occ. eigenvalues --   -0.18802  -0.12875  -0.12659  -0.10958
 Alpha virt. eigenvalues --   -0.05702  -0.05169  -0.04425  -0.03210  -0.03098
 Alpha virt. eigenvalues --   -0.02728  -0.01463  -0.01147  -0.00294  -0.00047
 Alpha virt. eigenvalues --   -0.00033   0.00373   0.00793   0.00887   0.00965

  Beta  occ. eigenvalues --  -38.44045 -38.43875 -38.43670 -38.43660 -38.43505
  Beta  occ. eigenvalues --  -38.43461 -38.42970  -2.19865  -2.19728  -2.19523
  Beta  occ. eigenvalues --   -2.19510  -2.19355  -2.19322  -2.18903  -1.13547
  Beta  occ. eigenvalues --   -1.13517  -1.13498  -1.13439  -1.13366  -1.13359
  Beta  occ. eigenvalues --   -1.13244  -1.13218  -1.13191  -1.13149  -1.13146
  Beta  occ. eigenvalues --   -1.13141  -1.13076  -1.13030  -1.13029  -1.13008
  Beta  occ. eigenvalues --   -1.12985  -1.12977  -1.12578  -1.12562  -1.12521
  Beta  occ. eigenvalues --   -0.18044  -0.12662  -0.12410
  Beta virt. eigenvalues --   -0.07031  -0.05697  -0.05103  -0.04401  -0.02418
  Beta virt. eigenvalues --   -0.02288  -0.01667  -0.01381  -0.01091  -0.00365
  Beta virt. eigenvalues --   -0.00071   0.00100   0.00391   0.00815   0.00920

 Mulliken charges and spin densities:
               1          2
     1  Na  -0.409786   0.718604
     2  Na   0.202005  -0.135636
     3  Na   0.080491  -0.005203
     4  Na  -0.381845   0.671112
     5  Na   0.333621  -0.136177
     6  Na   0.183060  -0.038575
     7  Na  -0.007547  -0.074125
 Sum of Mulliken charges =  -0.00000   1.00000

 Dipole moment (field-independent basis, Debye):
    X=             -0.1284    Y=              0.4527    Z=              0.0405  Tot=              0.4723
 Quadrupole moment (field-independent basis, Debye-Ang):
   XX=            -56.9399   YY=            -64.5651   ZZ=            -72.9485
   XY=              0.1034   XZ=             -0.8948   YZ=              0.8444

 Normal termination of Gaussian 16 at Wed Dec  6 00:49:02 2023.
