 Gaussian 16, Revision B.01,
 Gaussian 16:  ES64L-G16RevB.01 20-Dec-2017

 -------------------------
 #P B3LYP/6-311+g(d) force
 -------------------------

 -----
 DPGEN
 -----
 Symbolic Z-matrix:
 Charge =  0 Multiplicity = 2

                         Standard orientation:
 ---------------------------------------------------------------------
 Center     Atomic      Atomic             Coordinates (Angstroms)
 Number     Number       Type             X           Y           Z
 ---------------------------------------------------------------------
      1         11           0       -0.059790    0.244038    1.789337
      2         11           0       -1.388722    1.631579   -1.141102
      3         11           0        2.713291   -2.224417    0.321056
      4         11           0       -0.978981   -2.195652   -0.264687
      5         11           0       -3.898391   -0.424785    0.111286
      6         11           0        2.131926    0.174991   -1.483325
      7         11           0        1.480666    2.794244    0.667435
 ---------------------------------------------------------------------

 SCF Done:  E(UB3LYP) =  -1136.13199123     A.U. after   20 cycles

 The electronic state is 2-A.
 Alpha  occ. eigenvalues --  -38.44558 -38.43988 -38.43777 -38.43769 -38.43578
 Alpha  occ. eigenvalues --  -38.43421 -38.43359  -2.20353  -2.19824  -2.19628
 Alpha  occ. eigenvalues --   -2.19595  -2.19468  -2.19347  -2.19218  -1.14025
 Alpha  occ. eigenvalues --   -1.14016  -1.13990  -1.13548  -1.13509  -1.13411
 Alpha  occ. eigenvalues --   -1.13352  -1.13325  -1.13307  -1.13245  -1.13225
 Alpha  occ. eigenvalues --   -1.13223  -1.13136  -1.13109  -1.13062  -1.13030
 Alpha  occ. eigenvalues --   -1.13018  -1.12959  -1.12870  -1.12860  -1.12839
 Alpha  occ. eigenvalues --   -0.18217  -0.13383  -0.12302  -0.10522
 Alpha virt. eigenvalues --   -0.06199  -0.05334  -0.04468  -0.03256  -0.02905
 Alpha virt. eigenvalues --   -0.02322  -0.02095  -0.01333  -0.00489  -0.00192
 Alpha virt. eigenvalues --    0.00012   0.00248   0.00740   0.00750   0.00762

  Beta  occ. eigenvalues --  -38.44559 -38.43980 -38.43771 -38.43747 -38.43530
  Beta  occ. eigenvalues --  -38.43346 -38.43333  -2.20357  -2.19813  -2.19600
  Beta  occ. eigenvalues --   -2.19573  -2.19378  -2.19199  -2.19187  -1.14029
  Beta  occ. eigenvalues --   -1.14009  -1.13993  -1.13536  -1.13481  -1.13409
  Beta  occ. eigenvalues --   -1.13340  -1.13290  -1.13253  -1.13243  -1.13220
  Beta  occ. eigenvalues --   -1.13188  -1.13072  -1.13052  -1.13007  -1.12946
  Beta  occ. eigenvalues --   -1.12907  -1.12863  -1.12846  -1.12821  -1.12793
  Beta  occ. eigenvalues --   -0.17549  -0.13162  -0.12065
  Beta virt. eigenvalues --   -0.06768  -0.06000  -0.05241  -0.04323  -0.02724
  Beta virt. eigenvalues --   -0.02225  -0.02048  -0.01444  -0.01189  -0.00280
  Beta virt. eigenvalues --   -0.00168   0.00137   0.00308   0.00770   0.00809

 Mulliken charges and spin densities:
               1          2
     1  Na  -0.022717   0.487556
     2  Na  -0.408225   0.239233
     3  Na   0.142715  -0.008767
     4  Na  -0.350850   0.042024
     5  Na   0.462756  -0.019102
     6  Na   0.045872   0.300640
     7  Na   0.130449  -0.041584
 Sum of Mulliken charges =  -0.00000   1.00000

 Dipole moment (field-independent basis, Debye):
    X=             -0.7131    Y=             -0.1165    Z=              0.2034  Tot=              0.7506
 Quadrupole moment (field-independent basis, Debye-Ang):
   XX=            -53.6429   YY=            -66.0850   ZZ=            -73.6634
   XY=              1.0058   XZ=              0.8273   YZ=             -0.6513

 Normal termination of Gaussian 16 at Tue Dec  5 16:49:24 2023.
