 Gaussian 16, Revision B.01,
 Gaussian 16:  ES64L-G16RevB.01 20-Dec-2017

 -------------------------
 #P B3LYP/6-311+g(d) force
 -------------------------

 -----
 DPGEN
 -----
 Symbolic Z-matrix:
 Charge =  0 Multiplicity = 2

                         Standard orientation:
 ---------------------------------------------------------------------
 Center     Atomic      Atomic             Coordinates (Angstroms)
 Number     Number       Type             X           Y           Z
 ---------------------------------------------------------------------
      1         11           0       -3.375434    0.576195    0.223685
      2         11           0       -0.136766    2.386897   -0.696622
      3         11           0        2.178441    1.428761    1.310861
      4         11           0       -6.066247   -0.585683   -0.161912
      5         11           0        5.375680    0.104249   -0.772665
      6         11           0       -0.619113   -1.649792   -0.220696
      7         11           0        2.643438   -2.260628    0.317349
 ---------------------------------------------------------------------

 SCF Done:  E(UB3LYP) =  -1136.11158142     A.U. after   23 cycles

 The electronic state is 2-A.
 Alpha  occ. eigenvalues --  -38.45396 -38.45135 -38.44786 -38.44224 -38.43872
 Alpha  occ. eigenvalues --  -38.43485 -38.43423  -2.21214  -2.20933  -2.20544
 Alpha  occ. eigenvalues --   -2.20030  -2.19686  -2.19345  -2.19235  -1.14886
 Alpha  occ. eigenvalues --   -1.14853  -1.14821  -1.14629  -1.14597  -1.14539
 Alpha  occ. eigenvalues --   -1.14209  -1.14199  -1.14154  -1.13714  -1.13710
 Alpha  occ. eigenvalues --   -1.13642  -1.13425  -1.13326  -1.13321  -1.13024
 Alpha  occ. eigenvalues --   -1.13011  -1.12944  -1.12911  -1.12899  -1.12863
 Alpha  occ. eigenvalues --   -0.16776  -0.13847  -0.12074  -0.11424
 Alpha virt. eigenvalues --   -0.06789  -0.05303  -0.04757  -0.03485  -0.02933
 Alpha virt. eigenvalues --   -0.02424  -0.02184  -0.01831  -0.01096  -0.00514
 Alpha virt. eigenvalues --   -0.00490  -0.00165   0.00070   0.00268   0.00529

  Beta  occ. eigenvalues --  -38.45305 -38.45110 -38.44737 -38.44193 -38.43857
  Beta  occ. eigenvalues --  -38.43484 -38.43415  -2.21050  -2.20887  -2.20452
  Beta  occ. eigenvalues --   -2.19980  -2.19660  -2.19344  -2.19223  -1.14777
  Beta  occ. eigenvalues --   -1.14734  -1.14698  -1.14592  -1.14565  -1.14506
  Beta  occ. eigenvalues --   -1.14146  -1.14132  -1.14097  -1.13686  -1.13674
  Beta  occ. eigenvalues --   -1.13573  -1.13408  -1.13308  -1.13304  -1.13019
  Beta  occ. eigenvalues --   -1.13011  -1.12942  -1.12901  -1.12888  -1.12856
  Beta  occ. eigenvalues --   -0.16065  -0.13585  -0.11213
  Beta virt. eigenvalues --   -0.08200  -0.06432  -0.04954  -0.04485  -0.03030
  Beta virt. eigenvalues --   -0.02755  -0.02101  -0.01830  -0.01587  -0.00748
  Beta virt. eigenvalues --   -0.00450  -0.00378   0.00036   0.00259   0.00363

 Mulliken charges and spin densities:
               1          2
     1  Na  -0.820472   0.025800
     2  Na   0.158106   0.080587
     3  Na   0.125026   0.288536
     4  Na   0.486889  -0.043152
     5  Na   0.125716   0.232814
     6  Na  -0.178981   0.585900
     7  Na   0.103715  -0.170485
 Sum of Mulliken charges =  -0.00000   1.00000

 Dipole moment (field-independent basis, Debye):
    X=              1.0579    Y=              0.0282    Z=             -0.2528  Tot=              1.0881
 Quadrupole moment (field-independent basis, Debye-Ang):
   XX=            -62.7014   YY=            -70.2848   ZZ=            -67.6616
   XY=              4.4885   XZ=              0.2067   YZ=             -0.5147

 Normal termination of Gaussian 16 at Mon Dec  4 01:51:09 2023.
