 Gaussian 16, Revision B.01,
 Gaussian 16:  ES64L-G16RevB.01 20-Dec-2017

 -------------------------
 #P B3LYP/6-311+g(d) force
 -------------------------

 -----
 DPGEN
 -----
 Symbolic Z-matrix:
 Charge =  0 Multiplicity = 2

                         Standard orientation:
 ---------------------------------------------------------------------
 Center     Atomic      Atomic             Coordinates (Angstroms)
 Number     Number       Type             X           Y           Z
 ---------------------------------------------------------------------
      1         11           0        0.550413   -2.166518   -0.999511
      2         11           0       -2.148949    0.061921   -0.774117
      3         11           0        0.665969    1.119091   -1.563859
      4         11           0        3.941602    0.226975    0.222839
      5         11           0        0.670928    0.399147    1.906291
      6         11           0       -1.827073    3.242856    0.376306
      7         11           0       -1.852890   -2.883472    0.832052
 ---------------------------------------------------------------------

 SCF Done:  E(UB3LYP) =  -1136.13018182     A.U. after   19 cycles

 The electronic state is 2-A.
 Alpha  occ. eigenvalues --  -38.44257 -38.44122 -38.43796 -38.43742 -38.43540
 Alpha  occ. eigenvalues --  -38.43525 -38.43402  -2.20079  -2.19878  -2.19641
 Alpha  occ. eigenvalues --   -2.19585  -2.19453  -2.19393  -2.19337  -1.13766
 Alpha  occ. eigenvalues --   -1.13723  -1.13685  -1.13555  -1.13547  -1.13504
 Alpha  occ. eigenvalues --   -1.13358  -1.13336  -1.13264  -1.13262  -1.13245
 Alpha  occ. eigenvalues --   -1.13228  -1.13210  -1.13096  -1.13073  -1.13064
 Alpha  occ. eigenvalues --   -1.13031  -1.13025  -1.12995  -1.12993  -1.12904
 Alpha  occ. eigenvalues --   -0.18266  -0.12658  -0.12404  -0.10912
 Alpha virt. eigenvalues --   -0.05977  -0.05249  -0.04358  -0.03239  -0.02978
 Alpha virt. eigenvalues --   -0.02602  -0.01727  -0.01448  -0.00610  -0.00191
 Alpha virt. eigenvalues --    0.00244   0.00323   0.00685   0.00758   0.00790

  Beta  occ. eigenvalues --  -38.44190 -38.44126 -38.43793 -38.43715 -38.43525
  Beta  occ. eigenvalues --  -38.43464 -38.43383  -2.19954  -2.19886  -2.19596
  Beta  occ. eigenvalues --   -2.19581  -2.19365  -2.19345  -2.19307  -1.13682
  Beta  occ. eigenvalues --   -1.13634  -1.13596  -1.13561  -1.13541  -1.13510
  Beta  occ. eigenvalues --   -1.13319  -1.13285  -1.13261  -1.13234  -1.13233
  Beta  occ. eigenvalues --   -1.13221  -1.13152  -1.13048  -1.13021  -1.13011
  Beta  occ. eigenvalues --   -1.12999  -1.12989  -1.12959  -1.12928  -1.12888
  Beta  occ. eigenvalues --   -0.17464  -0.12502  -0.12263
  Beta virt. eigenvalues --   -0.06996  -0.05776  -0.05146  -0.04179  -0.02695
  Beta virt. eigenvalues --   -0.02458  -0.01811  -0.01540  -0.01301  -0.00383
  Beta virt. eigenvalues --   -0.00121   0.00271   0.00416   0.00760   0.00797

 Mulliken charges and spin densities:
               1          2
     1  Na  -0.000487   0.047366
     2  Na  -0.086955   0.364172
     3  Na   0.137055   0.191914
     4  Na   0.053155  -0.129202
     5  Na  -0.640102   0.747690
     6  Na   0.077740  -0.150876
     7  Na   0.459594  -0.071065
 Sum of Mulliken charges =  -0.00000   1.00000

 Dipole moment (field-independent basis, Debye):
    X=              0.2886    Y=              0.1545    Z=              0.2738  Tot=              0.4268
 Quadrupole moment (field-independent basis, Debye-Ang):
   XX=            -59.3188   YY=            -61.8352   ZZ=            -71.4307
   XY=             -0.6338   XZ=             -2.2646   YZ=              0.0519

 Normal termination of Gaussian 16 at Tue Dec  5 17:56:25 2023.
