 Gaussian 16, Revision B.01,
 Gaussian 16:  ES64L-G16RevB.01 20-Dec-2017

 -------------------------
 #P B3LYP/6-311+g(d) force
 -------------------------

 -----
 DPGEN
 -----
 Symbolic Z-matrix:
 Charge =  0 Multiplicity = 2

                         Standard orientation:
 ---------------------------------------------------------------------
 Center     Atomic      Atomic             Coordinates (Angstroms)
 Number     Number       Type             X           Y           Z
 ---------------------------------------------------------------------
      1         11           0        1.015766    1.702267    1.525149
      2         11           0        0.592161   -0.836042   -1.848167
      3         11           0        4.094824   -0.695770   -0.534818
      4         11           0        0.411659   -1.346557    1.945015
      5         11           0       -0.974331    2.991412   -1.382038
      6         11           0       -2.739912   -2.139603   -0.870261
      7         11           0       -2.400166    0.324292    1.165120
 ---------------------------------------------------------------------

 SCF Done:  E(UB3LYP) =  -1136.12020285     A.U. after   22 cycles

 The electronic state is 2-A.
 Alpha  occ. eigenvalues --  -38.45119 -38.44416 -38.44350 -38.44205 -38.44001
 Alpha  occ. eigenvalues --  -38.43614 -38.43316  -2.20984  -2.20148  -2.20139
 Alpha  occ. eigenvalues --   -2.19985  -2.19860  -2.19448  -2.19126  -1.14684
 Alpha  occ. eigenvalues --   -1.14608  -1.14590  -1.13825  -1.13822  -1.13817
 Alpha  occ. eigenvalues --   -1.13808  -1.13778  -1.13737  -1.13642  -1.13634
 Alpha  occ. eigenvalues --   -1.13595  -1.13562  -1.13534  -1.13476  -1.13168
 Alpha  occ. eigenvalues --   -1.13103  -1.13055  -1.12802  -1.12784  -1.12763
 Alpha  occ. eigenvalues --   -0.17731  -0.12451  -0.12022  -0.11660
 Alpha virt. eigenvalues --   -0.06256  -0.04971  -0.04775  -0.03340  -0.03219
 Alpha virt. eigenvalues --   -0.02926  -0.02024  -0.01005  -0.00886  -0.00107
 Alpha virt. eigenvalues --    0.00030   0.00184   0.00342   0.00477   0.00725

  Beta  occ. eigenvalues --  -38.45040 -38.44420 -38.44307 -38.44137 -38.43991
  Beta  occ. eigenvalues --  -38.43601 -38.43315  -2.20843  -2.20155  -2.20059
  Beta  occ. eigenvalues --   -2.19859  -2.19845  -2.19430  -2.19126  -1.14587
  Beta  occ. eigenvalues --   -1.14503  -1.14487  -1.13830  -1.13818  -1.13783
  Beta  occ. eigenvalues --   -1.13768  -1.13747  -1.13682  -1.13551  -1.13546
  Beta  occ. eigenvalues --   -1.13539  -1.13517  -1.13509  -1.13474  -1.13143
  Beta  occ. eigenvalues --   -1.13073  -1.13049  -1.12803  -1.12774  -1.12764
  Beta  occ. eigenvalues --   -0.16921  -0.12349  -0.11353
  Beta virt. eigenvalues --   -0.08145  -0.06091  -0.04755  -0.04157  -0.02982
  Beta virt. eigenvalues --   -0.02731  -0.02325  -0.01891  -0.00921  -0.00520
  Beta virt. eigenvalues --   -0.00098   0.00236   0.00256   0.00359   0.00623

 Mulliken charges and spin densities:
               1          2
     1  Na   0.031889   0.014733
     2  Na  -0.332800   0.478345
     3  Na   0.033838  -0.068143
     4  Na   0.039166   0.331268
     5  Na  -0.107739   0.181258
     6  Na  -0.150792  -0.060111
     7  Na   0.486437   0.122651
 Sum of Mulliken charges =  -0.00000   1.00000

 Dipole moment (field-independent basis, Debye):
    X=              0.3219    Y=             -0.0612    Z=              0.1773  Tot=              0.3726
 Quadrupole moment (field-independent basis, Debye-Ang):
   XX=            -59.8241   YY=            -70.6814   ZZ=            -66.3527
   XY=              0.2661   XZ=              1.6961   YZ=             -3.7334

 Normal termination of Gaussian 16 at Sun Dec  3 14:52:39 2023.
