 Gaussian 16, Revision B.01,
 Gaussian 16:  ES64L-G16RevB.01 20-Dec-2017

 -------------------------
 #P B3LYP/6-311+g(d) force
 -------------------------

 -----
 DPGEN
 -----
 Symbolic Z-matrix:
 Charge =  0 Multiplicity = 2

                         Standard orientation:
 ---------------------------------------------------------------------
 Center     Atomic      Atomic             Coordinates (Angstroms)
 Number     Number       Type             X           Y           Z
 ---------------------------------------------------------------------
      1         11           0       -3.581321   -0.270364   -0.051763
      2         11           0        0.140973    0.110119   -1.586699
      3         11           0        2.712501    1.776091    0.003803
      4         11           0       -0.295167    0.188980    2.053481
      5         11           0       -0.887487    2.929907   -0.255926
      6         11           0        2.680885   -1.968251    0.081558
      7         11           0       -0.770385   -2.766482   -0.244454
 ---------------------------------------------------------------------

 SCF Done:  E(UB3LYP) =  -1136.13417921     A.U. after   19 cycles

 The electronic state is 2-A.
 Alpha  occ. eigenvalues --  -38.44715 -38.44224 -38.43900 -38.43787 -38.43526
 Alpha  occ. eigenvalues --  -38.43477 -38.43145  -2.20464  -2.20019  -2.19692
 Alpha  occ. eigenvalues --   -2.19605  -2.19379  -2.19313  -2.19090  -1.14141
 Alpha  occ. eigenvalues --   -1.14121  -1.14103  -1.13702  -1.13682  -1.13652
 Alpha  occ. eigenvalues --   -1.13364  -1.13348  -1.13343  -1.13304  -1.13271
 Alpha  occ. eigenvalues --   -1.13222  -1.13053  -1.13024  -1.13009  -1.12990
 Alpha  occ. eigenvalues --   -1.12976  -1.12924  -1.12778  -1.12725  -1.12707
 Alpha  occ. eigenvalues --   -0.18054  -0.12653  -0.12450  -0.10305
 Alpha virt. eigenvalues --   -0.06161  -0.05399  -0.04790  -0.02926  -0.02814
 Alpha virt. eigenvalues --   -0.02350  -0.01945  -0.01356  -0.00736  -0.00535
 Alpha virt. eigenvalues --   -0.00039   0.00306   0.00716   0.00760   0.00837

  Beta  occ. eigenvalues --  -38.44718 -38.44221 -38.43899 -38.43779 -38.43469
  Beta  occ. eigenvalues --  -38.43431 -38.43084  -2.20470  -2.20017  -2.19694
  Beta  occ. eigenvalues --   -2.19593  -2.19301  -2.19202  -2.18980  -1.14131
  Beta  occ. eigenvalues --   -1.14127  -1.14109  -1.13692  -1.13671  -1.13653
  Beta  occ. eigenvalues --   -1.13353  -1.13351  -1.13343  -1.13291  -1.13243
  Beta  occ. eigenvalues --   -1.13218  -1.13012  -1.12957  -1.12929  -1.12920
  Beta  occ. eigenvalues --   -1.12882  -1.12862  -1.12699  -1.12644  -1.12629
  Beta  occ. eigenvalues --   -0.17346  -0.12488  -0.12218
  Beta virt. eigenvalues --   -0.06426  -0.06120  -0.05393  -0.04730  -0.02240
  Beta virt. eigenvalues --   -0.02056  -0.01854  -0.01298  -0.01286  -0.00795
  Beta virt. eigenvalues --   -0.00561   0.00116   0.00335   0.00753   0.00767

 Mulliken charges and spin densities:
               1          2
     1  Na   0.069044  -0.094427
     2  Na  -0.002182   0.511655
     3  Na   0.146257  -0.054899
     4  Na  -0.450597   0.868452
     5  Na   0.120857  -0.127962
     6  Na   0.010291  -0.038890
     7  Na   0.106329  -0.063929
 Sum of Mulliken charges =  -0.00000   1.00000

 Dipole moment (field-independent basis, Debye):
    X=             -0.1514    Y=              0.2083    Z=              0.0718  Tot=              0.2674
 Quadrupole moment (field-independent basis, Debye-Ang):
   XX=            -52.4306   YY=            -61.9833   ZZ=            -77.1227
   XY=             -0.1489   XZ=              1.0690   YZ=             -0.2352

 Normal termination of Gaussian 16 at Thu Dec  7 05:49:20 2023.
