 Gaussian 16, Revision B.01,
 Gaussian 16:  ES64L-G16RevB.01 20-Dec-2017

 -------------------------
 #P B3LYP/6-311+g(d) force
 -------------------------

 -----
 DPGEN
 -----
 Symbolic Z-matrix:
 Charge =  0 Multiplicity = 2

                         Standard orientation:
 ---------------------------------------------------------------------
 Center     Atomic      Atomic             Coordinates (Angstroms)
 Number     Number       Type             X           Y           Z
 ---------------------------------------------------------------------
      1         11           0       -0.907753    0.163476    1.781743
      2         11           0       -1.055247   -0.761964   -1.584102
      3         11           0       -3.765195   -0.721395    0.190761
      4         11           0       -0.924028    2.219231   -0.464339
      5         11           0        2.074515   -1.569837   -1.343321
      6         11           0        2.413717    1.940099   -0.198491
      7         11           0        2.163992   -1.269610    1.617749
 ---------------------------------------------------------------------

 SCF Done:  E(UB3LYP) =  -1136.12076837     A.U. after   23 cycles

 The electronic state is 2-A.
 Alpha  occ. eigenvalues --  -38.44884 -38.44289 -38.44054 -38.43970 -38.43961
 Alpha  occ. eigenvalues --  -38.43521 -38.42895  -2.20700  -2.20227  -2.19941
 Alpha  occ. eigenvalues --   -2.19903  -2.19779  -2.19415  -2.18813  -1.14381
 Alpha  occ. eigenvalues --   -1.14363  -1.14335  -1.13925  -1.13897  -1.13825
 Alpha  occ. eigenvalues --   -1.13647  -1.13596  -1.13582  -1.13562  -1.13560
 Alpha  occ. eigenvalues --   -1.13530  -1.13459  -1.13429  -1.13419  -1.13078
 Alpha  occ. eigenvalues --   -1.13061  -1.13034  -1.12519  -1.12498  -1.12393
 Alpha  occ. eigenvalues --   -0.18738  -0.13929  -0.11753  -0.11287
 Alpha virt. eigenvalues --   -0.06551  -0.04933  -0.04689  -0.03456  -0.02785
 Alpha virt. eigenvalues --   -0.02578  -0.02299  -0.00650  -0.00619   0.00000
 Alpha virt. eigenvalues --    0.00226   0.00323   0.00338   0.00756   0.00773

  Beta  occ. eigenvalues --  -38.44886 -38.44223 -38.44012 -38.43965 -38.43904
  Beta  occ. eigenvalues --  -38.43498 -38.42885  -2.20706  -2.20108  -2.19864
  Beta  occ. eigenvalues --   -2.19799  -2.19772  -2.19374  -2.18797  -1.14377
  Beta  occ. eigenvalues --   -1.14365  -1.14340  -1.13842  -1.13807  -1.13739
  Beta  occ. eigenvalues --   -1.13599  -1.13532  -1.13515  -1.13510  -1.13484
  Beta  occ. eigenvalues --   -1.13444  -1.13440  -1.13424  -1.13419  -1.13044
  Beta  occ. eigenvalues --   -1.13022  -1.13006  -1.12511  -1.12463  -1.12384
  Beta  occ. eigenvalues --   -0.17990  -0.13822  -0.11095
  Beta virt. eigenvalues --   -0.07718  -0.06362  -0.04630  -0.04152  -0.03118
  Beta virt. eigenvalues --   -0.02287  -0.02105  -0.01857  -0.00610  -0.00221
  Beta virt. eigenvalues --    0.00021   0.00264   0.00381   0.00519   0.00775

 Mulliken charges and spin densities:
               1          2
     1  Na  -0.553931   0.239158
     2  Na  -0.747767   0.296169
     3  Na   0.754468  -0.059169
     4  Na   0.408481   0.156896
     5  Na   0.334083   0.059421
     6  Na  -0.430595   0.069794
     7  Na   0.235261   0.237732
 Sum of Mulliken charges =  -0.00000   1.00000

 Dipole moment (field-independent basis, Debye):
    X=             -0.7262    Y=              0.0204    Z=              0.2491  Tot=              0.7680
 Quadrupole moment (field-independent basis, Debye-Ang):
   XX=            -50.3368   YY=            -77.1095   ZZ=            -67.9621
   XY=              1.6119   XZ=             -0.5772   YZ=             -1.3304

 Normal termination of Gaussian 16 at Fri Dec  8 19:28:46 2023.
