 Gaussian 16, Revision B.01,
 Gaussian 16:  ES64L-G16RevB.01 20-Dec-2017

 -------------------------
 #P B3LYP/6-311+g(d) force
 -------------------------

 -----
 DPGEN
 -----
 Symbolic Z-matrix:
 Charge =  0 Multiplicity = 2

                         Standard orientation:
 ---------------------------------------------------------------------
 Center     Atomic      Atomic             Coordinates (Angstroms)
 Number     Number       Type             X           Y           Z
 ---------------------------------------------------------------------
      1         11           0       -0.145488   -0.032346   -1.726585
      2         11           0        1.161435    2.902475    0.012496
      3         11           0        1.213723   -2.782297   -0.070051
      4         11           0       -2.594409    1.553131   -0.110728
      5         11           0       -0.093869   -0.041679    1.951374
      6         11           0       -2.521813   -1.598129    0.021151
      7         11           0        2.980421   -0.001155   -0.077657
 ---------------------------------------------------------------------

 SCF Done:  E(UB3LYP) =  -1136.13950247     A.U. after   19 cycles

 The electronic state is 2-A.
 Alpha  occ. eigenvalues --  -38.43896 -38.43843 -38.43789 -38.43446 -38.43384
 Alpha  occ. eigenvalues --  -38.43305 -38.43242  -2.19765  -2.19705  -2.19671
 Alpha  occ. eigenvalues --   -2.19354  -2.19205  -2.19198  -2.19152  -1.13490
 Alpha  occ. eigenvalues --   -1.13434  -1.13409  -1.13383  -1.13374  -1.13348
 Alpha  occ. eigenvalues --   -1.13340  -1.13331  -1.13279  -1.13030  -1.12978
 Alpha  occ. eigenvalues --   -1.12975  -1.12889  -1.12872  -1.12861  -1.12852
 Alpha  occ. eigenvalues --   -1.12843  -1.12823  -1.12812  -1.12801  -1.12788
 Alpha  occ. eigenvalues --   -0.18766  -0.13307  -0.12289  -0.10705
 Alpha virt. eigenvalues --   -0.05477  -0.05287  -0.04771  -0.03312  -0.02737
 Alpha virt. eigenvalues --   -0.02518  -0.01440  -0.01164  -0.00394  -0.00338
 Alpha virt. eigenvalues --   -0.00003   0.00376   0.00806   0.00865   0.00908

  Beta  occ. eigenvalues --  -38.43890 -38.43839 -38.43782 -38.43383 -38.43356
  Beta  occ. eigenvalues --  -38.43302 -38.43171  -2.19758  -2.19701  -2.19663
  Beta  occ. eigenvalues --   -2.19201  -2.19188  -2.19149  -2.19073  -1.13489
  Beta  occ. eigenvalues --   -1.13415  -1.13391  -1.13380  -1.13354  -1.13346
  Beta  occ. eigenvalues --   -1.13333  -1.13294  -1.13277  -1.12922  -1.12871
  Beta  occ. eigenvalues --   -1.12863  -1.12857  -1.12849  -1.12840  -1.12827
  Beta  occ. eigenvalues --   -1.12803  -1.12789  -1.12784  -1.12733  -1.12723
  Beta  occ. eigenvalues --   -0.18020  -0.13062  -0.12066
  Beta virt. eigenvalues --   -0.06782  -0.05441  -0.05283  -0.04751  -0.02468
  Beta virt. eigenvalues --   -0.01996  -0.01459  -0.01342  -0.01092  -0.00463
  Beta virt. eigenvalues --   -0.00392   0.00136   0.00393   0.00862   0.00872

 Mulliken charges and spin densities:
               1          2
     1  Na  -0.231934   0.611164
     2  Na  -0.019011  -0.118163
     3  Na   0.115818  -0.089599
     4  Na   0.166939  -0.078358
     5  Na  -0.405829   0.776397
     6  Na   0.289662  -0.042401
     7  Na   0.084355  -0.059039
 Sum of Mulliken charges =  -0.00000   1.00000

 Dipole moment (field-independent basis, Debye):
    X=             -0.1674    Y=              0.0175    Z=              0.0700  Tot=              0.1823
 Quadrupole moment (field-independent basis, Debye-Ang):
   XX=            -57.4753   YY=            -61.4456   ZZ=            -74.7248
   XY=             -0.1799   XZ=             -0.0875   YZ=             -0.0007

 Normal termination of Gaussian 16 at Thu Dec  7 15:02:31 2023.
