 Gaussian 16, Revision B.01,
 Gaussian 16:  ES64L-G16RevB.01 20-Dec-2017

 -------------------------
 #P B3LYP/6-311+g(d) force
 -------------------------

 -----
 DPGEN
 -----
 Symbolic Z-matrix:
 Charge =  0 Multiplicity = 2

                         Standard orientation:
 ---------------------------------------------------------------------
 Center     Atomic      Atomic             Coordinates (Angstroms)
 Number     Number       Type             X           Y           Z
 ---------------------------------------------------------------------
      1         11           0       -0.093416   -0.779933   -1.482204
      2         11           0       -1.662690    2.138929   -0.530611
      3         11           0        1.799954    1.876923    0.877156
      4         11           0       -1.346489   -0.348914    1.509642
      5         11           0       -4.077424   -0.975199   -0.366198
      6         11           0        3.426982   -0.411869   -1.387316
      7         11           0        1.953082   -1.499936    1.379530
 ---------------------------------------------------------------------

 SCF Done:  E(UB3LYP) =  -1136.12163330     A.U. after   30 cycles

 The electronic state is 2-A.
 Alpha  occ. eigenvalues --  -38.44781 -38.44691 -38.44291 -38.43880 -38.43787
 Alpha  occ. eigenvalues --  -38.43295 -38.43218  -2.20655  -2.20450  -2.20132
 Alpha  occ. eigenvalues --   -2.19777  -2.19734  -2.19139  -2.19075  -1.14379
 Alpha  occ. eigenvalues --   -1.14308  -1.14253  -1.14147  -1.14124  -1.14090
 Alpha  occ. eigenvalues --   -1.13793  -1.13782  -1.13775  -1.13476  -1.13437
 Alpha  occ. eigenvalues --   -1.13433  -1.13401  -1.13380  -1.13320  -1.12819
 Alpha  occ. eigenvalues --   -1.12801  -1.12769  -1.12759  -1.12748  -1.12665
 Alpha  occ. eigenvalues --   -0.18619  -0.14119  -0.11378  -0.10758
 Alpha virt. eigenvalues --   -0.07061  -0.05003  -0.04861  -0.03112  -0.02816
 Alpha virt. eigenvalues --   -0.02391  -0.02296  -0.01230  -0.00892  -0.00182
 Alpha virt. eigenvalues --    0.00067   0.00253   0.00296   0.00624   0.00733

  Beta  occ. eigenvalues --  -38.44730 -38.44729 -38.44262 -38.43827 -38.43736
  Beta  occ. eigenvalues --  -38.43264 -38.43210  -2.20564  -2.20525  -2.20078
  Beta  occ. eigenvalues --   -2.19684  -2.19644  -2.19083  -2.19060  -1.14302
  Beta  occ. eigenvalues --   -1.14240  -1.14197  -1.14184  -1.14173  -1.14138
  Beta  occ. eigenvalues --   -1.13755  -1.13741  -1.13733  -1.13409  -1.13378
  Beta  occ. eigenvalues --   -1.13361  -1.13317  -1.13297  -1.13257  -1.12770
  Beta  occ. eigenvalues --   -1.12756  -1.12747  -1.12742  -1.12728  -1.12655
  Beta  occ. eigenvalues --   -0.17802  -0.14090  -0.10567
  Beta virt. eigenvalues --   -0.07354  -0.06890  -0.04882  -0.04321  -0.02828
  Beta virt. eigenvalues --   -0.02647  -0.01713  -0.01552  -0.01109  -0.00571
  Beta virt. eigenvalues --   -0.00174   0.00083   0.00340   0.00378   0.00683

 Mulliken charges and spin densities:
               1          2
     1  Na  -0.723863   0.593317
     2  Na   0.035078  -0.035306
     3  Na  -0.389260   0.333182
     4  Na  -0.152077   0.197495
     5  Na   0.476082  -0.204210
     6  Na   0.644388   0.001741
     7  Na   0.109653   0.113781
 Sum of Mulliken charges =  -0.00000   1.00000

 Dipole moment (field-independent basis, Debye):
    X=             -0.1556    Y=              0.1352    Z=             -0.3148  Tot=              0.3763
 Quadrupole moment (field-independent basis, Debye-Ang):
   XX=            -50.1895   YY=            -76.6497   ZZ=            -68.3811
   XY=              0.1434   XZ=              1.3308   YZ=             -2.1097

 Normal termination of Gaussian 16 at Thu Dec  7 09:30:43 2023.
