 Gaussian 16, Revision B.01,
 Gaussian 16:  ES64L-G16RevB.01 20-Dec-2017

 -------------------------
 #P B3LYP/6-311+g(d) force
 -------------------------

 -----
 DPGEN
 -----
 Symbolic Z-matrix:
 Charge =  0 Multiplicity = 2

                         Standard orientation:
 ---------------------------------------------------------------------
 Center     Atomic      Atomic             Coordinates (Angstroms)
 Number     Number       Type             X           Y           Z
 ---------------------------------------------------------------------
      1         11           0        2.756788   -1.847622   -0.069990
      2         11           0       -2.518750    1.947693   -0.081628
      3         11           0        3.388597    1.145180    0.441362
      4         11           0       -0.278034   -0.053972    2.025318
      5         11           0        0.640245    1.483867   -1.260156
      6         11           0       -3.479039   -1.276373    0.227714
      7         11           0       -0.509807   -1.398773   -1.282621
 ---------------------------------------------------------------------

 SCF Done:  E(UB3LYP) =  -1136.11711575     A.U. after   27 cycles

 The electronic state is 2-A.
 Alpha  occ. eigenvalues --  -38.45279 -38.45005 -38.44894 -38.44119 -38.43926
 Alpha  occ. eigenvalues --  -38.43083 -38.42752  -2.21092  -2.20849  -2.20706
 Alpha  occ. eigenvalues --   -2.19951  -2.19758  -2.19014  -2.18688  -1.14786
 Alpha  occ. eigenvalues --   -1.14727  -1.14703  -1.14529  -1.14512  -1.14484
 Alpha  occ. eigenvalues --   -1.14381  -1.14370  -1.14346  -1.13626  -1.13608
 Alpha  occ. eigenvalues --   -1.13599  -1.13427  -1.13420  -1.13409  -1.12746
 Alpha  occ. eigenvalues --   -1.12660  -1.12621  -1.12376  -1.12332  -1.12292
 Alpha  occ. eigenvalues --   -0.18557  -0.14303  -0.10952  -0.10940
 Alpha virt. eigenvalues --   -0.07314  -0.05877  -0.04057  -0.03081  -0.02887
 Alpha virt. eigenvalues --   -0.02444  -0.02406  -0.01469  -0.00523  -0.00497
 Alpha virt. eigenvalues --    0.00076   0.00187   0.00342   0.00580   0.00616

  Beta  occ. eigenvalues --  -38.45217 -38.44990 -38.44895 -38.44116 -38.43923
  Beta  occ. eigenvalues --  -38.43019 -38.42703  -2.20977  -2.20823  -2.20710
  Beta  occ. eigenvalues --   -2.19950  -2.19757  -2.18899  -2.18601  -1.14705
  Beta  occ. eigenvalues --   -1.14648  -1.14616  -1.14515  -1.14487  -1.14461
  Beta  occ. eigenvalues --   -1.14382  -1.14370  -1.14342  -1.13624  -1.13602
  Beta  occ. eigenvalues --   -1.13585  -1.13427  -1.13416  -1.13395  -1.12664
  Beta  occ. eigenvalues --   -1.12562  -1.12545  -1.12313  -1.12258  -1.12229
  Beta  occ. eigenvalues --   -0.17819  -0.14082  -0.10766
  Beta virt. eigenvalues --   -0.07197  -0.06940  -0.05900  -0.03367  -0.02934
  Beta virt. eigenvalues --   -0.02664  -0.01914  -0.01500  -0.01361  -0.00546
  Beta virt. eigenvalues --   -0.00192   0.00110   0.00184   0.00511   0.00655

 Mulliken charges and spin densities:
               1          2
     1  Na  -0.142552  -0.036422
     2  Na  -0.023780   0.005136
     3  Na   0.536388   0.237323
     4  Na  -0.445893   0.385812
     5  Na  -0.184516   0.059954
     6  Na   0.539332   0.095693
     7  Na  -0.278979   0.252504
 Sum of Mulliken charges =  -0.00000   1.00000

 Dipole moment (field-independent basis, Debye):
    X=             -0.1606    Y=              0.0331    Z=              0.6893  Tot=              0.7085
 Quadrupole moment (field-independent basis, Debye-Ang):
   XX=            -45.8119   YY=            -75.7747   ZZ=            -72.3491
   XY=              0.4931   XZ=              0.6720   YZ=              0.2808

 Normal termination of Gaussian 16 at Fri Dec  8 02:27:28 2023.
