 Gaussian 16, Revision B.01,
 Gaussian 16:  ES64L-G16RevB.01 20-Dec-2017

 -------------------------
 #P B3LYP/6-311+g(d) force
 -------------------------

 -----
 DPGEN
 -----
 Symbolic Z-matrix:
 Charge =  0 Multiplicity = 2

                         Standard orientation:
 ---------------------------------------------------------------------
 Center     Atomic      Atomic             Coordinates (Angstroms)
 Number     Number       Type             X           Y           Z
 ---------------------------------------------------------------------
      1         11           0        2.809433   -2.323914    0.139055
      2         11           0       -3.782805   -0.458748    0.481709
      3         11           0        3.570995    0.459872   -0.072373
      4         11           0       -1.640208   -2.670061   -0.996589
      5         11           0       -0.109993   -0.368277    1.069734
      6         11           0       -1.811457    2.319211   -0.278228
      7         11           0        0.964035    3.041916   -0.343306
 ---------------------------------------------------------------------

 SCF Done:  E(UB3LYP) =  -1136.11793835     A.U. after   22 cycles

 The electronic state is 2-A.
 Alpha  occ. eigenvalues --  -38.44868 -38.44257 -38.44243 -38.43998 -38.43963
 Alpha  occ. eigenvalues --  -38.43450 -38.43399  -2.20719  -2.20126  -2.20098
 Alpha  occ. eigenvalues --   -2.19865  -2.19819  -2.19329  -2.19258  -1.14436
 Alpha  occ. eigenvalues --   -1.14377  -1.14339  -1.13997  -1.13784  -1.13752
 Alpha  occ. eigenvalues --   -1.13738  -1.13706  -1.13640  -1.13621  -1.13527
 Alpha  occ. eigenvalues --   -1.13515  -1.13479  -1.13460  -1.13454  -1.12987
 Alpha  occ. eigenvalues --   -1.12961  -1.12941  -1.12925  -1.12905  -1.12876
 Alpha  occ. eigenvalues --   -0.17515  -0.14165  -0.13054  -0.09595
 Alpha virt. eigenvalues --   -0.06708  -0.06045  -0.04366  -0.03133  -0.02837
 Alpha virt. eigenvalues --   -0.02489  -0.02081  -0.01414  -0.00991  -0.00528
 Alpha virt. eigenvalues --    0.00065   0.00128   0.00539   0.00641   0.00711

  Beta  occ. eigenvalues --  -38.44865 -38.44240 -38.44210 -38.43948 -38.43948
  Beta  occ. eigenvalues --  -38.43431 -38.43339  -2.20714  -2.20091  -2.20049
  Beta  occ. eigenvalues --   -2.19844  -2.19728  -2.19294  -2.19148  -1.14428
  Beta  occ. eigenvalues --   -1.14371  -1.14341  -1.13958  -1.13763  -1.13713
  Beta  occ. eigenvalues --   -1.13705  -1.13668  -1.13593  -1.13571  -1.13513
  Beta  occ. eigenvalues --   -1.13506  -1.13416  -1.13397  -1.13388  -1.12962
  Beta  occ. eigenvalues --   -1.12937  -1.12916  -1.12852  -1.12825  -1.12791
  Beta  occ. eigenvalues --   -0.17182  -0.13498  -0.12639
  Beta virt. eigenvalues --   -0.06633  -0.06100  -0.05927  -0.04206  -0.02802
  Beta virt. eigenvalues --   -0.02476  -0.02098  -0.01565  -0.01243  -0.00883
  Beta virt. eigenvalues --   -0.00403   0.00350   0.00371   0.00644   0.00724

 Mulliken charges and spin densities:
               1          2
     1  Na   0.275791   0.131263
     2  Na   0.486420   0.281885
     3  Na   0.012465   0.222562
     4  Na  -0.095672   0.261229
     5  Na  -0.767268  -0.080838
     6  Na   0.159059   0.125370
     7  Na  -0.070795   0.058529
 Sum of Mulliken charges =  -0.00000   1.00000

 Dipole moment (field-independent basis, Debye):
    X=              0.4935    Y=             -0.4240    Z=             -0.4203  Tot=              0.7746
 Quadrupole moment (field-independent basis, Debye-Ang):
   XX=            -70.8452   YY=            -64.7810   ZZ=            -68.1559
   XY=              5.1080   XZ=              0.8422   YZ=             -0.1560

 Normal termination of Gaussian 16 at Tue Dec  5 11:29:16 2023.
