 Gaussian 16, Revision B.01,
 Gaussian 16:  ES64L-G16RevB.01 20-Dec-2017

 -------------------------
 #P B3LYP/6-311+g(d) force
 -------------------------

 -----
 DPGEN
 -----
 Symbolic Z-matrix:
 Charge =  0 Multiplicity = 2

                         Standard orientation:
 ---------------------------------------------------------------------
 Center     Atomic      Atomic             Coordinates (Angstroms)
 Number     Number       Type             X           Y           Z
 ---------------------------------------------------------------------
      1         11           0        1.665393   -0.422897    1.440771
      2         11           0        0.599711   -2.060208   -0.512029
      3         11           0        2.399984    0.411811   -1.113029
      4         11           0        0.372366    2.136390    0.463471
      5         11           0       -0.608114    0.286379   -1.398429
      6         11           0       -1.119607   -0.380426    1.488671
      7         11           0       -3.309732    0.028950   -0.369429
 ---------------------------------------------------------------------

 SCF Done:  E(UB3LYP) =  -1136.08261092     A.U. after   26 cycles

 The electronic state is 2-A.
 Alpha  occ. eigenvalues --  -38.44914 -38.44334 -38.44277 -38.43949 -38.43904
 Alpha  occ. eigenvalues --  -38.42800 -38.42545  -2.20827  -2.20561  -2.20361
 Alpha  occ. eigenvalues --   -2.20238  -2.20098  -2.18917  -2.18624  -1.14604
 Alpha  occ. eigenvalues --   -1.14549  -1.14444  -1.14415  -1.14402  -1.14165
 Alpha  occ. eigenvalues --   -1.14126  -1.14000  -1.13949  -1.13910  -1.13902
 Alpha  occ. eigenvalues --   -1.13805  -1.13734  -1.13674  -1.13641  -1.12623
 Alpha  occ. eigenvalues --   -1.12564  -1.12469  -1.12352  -1.12276  -1.12194
 Alpha  occ. eigenvalues --   -0.21252  -0.14086  -0.12704  -0.11755
 Alpha virt. eigenvalues --   -0.06141  -0.04225  -0.03616  -0.03485  -0.02814
 Alpha virt. eigenvalues --   -0.02704  -0.01770  -0.00499  -0.00207   0.00273
 Alpha virt. eigenvalues --    0.00538   0.00664   0.00955   0.01016   0.01041

  Beta  occ. eigenvalues --  -38.44908 -38.44274 -38.44243 -38.43886 -38.43839
  Beta  occ. eigenvalues --  -38.42780 -38.42526  -2.20817  -2.20457  -2.20301
  Beta  occ. eigenvalues --   -2.20126  -2.19985  -2.18886  -2.18596  -1.14589
  Beta  occ. eigenvalues --   -1.14523  -1.14397  -1.14382  -1.14331  -1.14088
  Beta  occ. eigenvalues --   -1.14052  -1.13932  -1.13888  -1.13851  -1.13838
  Beta  occ. eigenvalues --   -1.13728  -1.13646  -1.13575  -1.13562  -1.12609
  Beta  occ. eigenvalues --   -1.12509  -1.12434  -1.12339  -1.12209  -1.12179
  Beta  occ. eigenvalues --   -0.20387  -0.13906  -0.11469
  Beta virt. eigenvalues --   -0.08223  -0.06059  -0.03648  -0.03388  -0.03232
  Beta virt. eigenvalues --   -0.02055  -0.01792  -0.01661  -0.00227  -0.00150
  Beta virt. eigenvalues --    0.00296   0.00598   0.00800   0.00948   0.01044

 Mulliken charges and spin densities:
               1          2
     1  Na   0.930520   0.065998
     2  Na  -1.077885   0.434450
     3  Na   0.965527  -0.123295
     4  Na  -1.183759   0.310636
     5  Na   0.658522   0.121957
     6  Na   0.067589   0.059565
     7  Na  -0.360514   0.130688
 Sum of Mulliken charges =  -0.00000   1.00000

 Dipole moment (field-independent basis, Debye):
    X=             -0.5456    Y=              0.0824    Z=             -0.1827  Tot=              0.5813
 Quadrupole moment (field-independent basis, Debye-Ang):
   XX=            -52.9264   YY=            -76.3763   ZZ=            -65.4402
   XY=              0.2156   XZ=             -0.2960   YZ=              1.0427

 Normal termination of Gaussian 16 at Fri Dec  8 20:02:46 2023.
