 Gaussian 16, Revision B.01,
 Gaussian 16:  ES64L-G16RevB.01 20-Dec-2017

 -------------------------
 #P B3LYP/6-311+g(d) force
 -------------------------

 -----
 DPGEN
 -----
 Symbolic Z-matrix:
 Charge =  0 Multiplicity = 2

                         Standard orientation:
 ---------------------------------------------------------------------
 Center     Atomic      Atomic             Coordinates (Angstroms)
 Number     Number       Type             X           Y           Z
 ---------------------------------------------------------------------
      1         11           0        1.632402   -2.594715    0.521319
      2         11           0       -3.167887   -1.843059   -0.527191
      3         11           0        0.648765    2.640381    0.117734
      4         11           0       -0.770293   -0.235791    1.778376
      5         11           0        3.545172    0.411673   -0.195463
      6         11           0        0.427456   -0.438289   -1.625584
      7         11           0       -2.315615    2.059800   -0.069190
 ---------------------------------------------------------------------

 SCF Done:  E(UB3LYP) =  -1136.12845242     A.U. after   21 cycles

 The electronic state is 2-A.
 Alpha  occ. eigenvalues --  -38.44694 -38.44310 -38.44048 -38.43968 -38.43845
 Alpha  occ. eigenvalues --  -38.43265 -38.42993  -2.20484  -2.20073  -2.19914
 Alpha  occ. eigenvalues --   -2.19796  -2.19737  -2.19167  -2.18878  -1.14158
 Alpha  occ. eigenvalues --   -1.14139  -1.14124  -1.13741  -1.13727  -1.13704
 Alpha  occ. eigenvalues --   -1.13620  -1.13581  -1.13540  -1.13513  -1.13458
 Alpha  occ. eigenvalues --   -1.13428  -1.13416  -1.13376  -1.13332  -1.12853
 Alpha  occ. eigenvalues --   -1.12802  -1.12782  -1.12565  -1.12539  -1.12511
 Alpha  occ. eigenvalues --   -0.18165  -0.13309  -0.12191  -0.10221
 Alpha virt. eigenvalues --   -0.06443  -0.05585  -0.04527  -0.03180  -0.02755
 Alpha virt. eigenvalues --   -0.02170  -0.02024  -0.01394  -0.00794  -0.00270
 Alpha virt. eigenvalues --   -0.00102   0.00236   0.00626   0.00683   0.00780

  Beta  occ. eigenvalues --  -38.44691 -38.44285 -38.44044 -38.43947 -38.43799
  Beta  occ. eigenvalues --  -38.43195 -38.42989  -2.20481  -2.20027  -2.19911
  Beta  occ. eigenvalues --   -2.19759  -2.19653  -2.19039  -2.18875  -1.14148
  Beta  occ. eigenvalues --   -1.14133  -1.14123  -1.13701  -1.13695  -1.13675
  Beta  occ. eigenvalues --   -1.13619  -1.13569  -1.13528  -1.13481  -1.13415
  Beta  occ. eigenvalues --   -1.13392  -1.13370  -1.13321  -1.13268  -1.12769
  Beta  occ. eigenvalues --   -1.12707  -1.12687  -1.12565  -1.12535  -1.12486
  Beta  occ. eigenvalues --   -0.17544  -0.13081  -0.11891
  Beta virt. eigenvalues --   -0.06635  -0.06212  -0.05495  -0.04398  -0.02604
  Beta virt. eigenvalues --   -0.02182  -0.01888  -0.01316  -0.01178  -0.00765
  Beta virt. eigenvalues --   -0.00271   0.00074   0.00297   0.00703   0.00750

 Mulliken charges and spin densities:
               1          2
     1  Na   0.017092  -0.035535
     2  Na  -0.087438   0.120845
     3  Na  -0.177334  -0.035383
     4  Na   0.105438   0.323746
     5  Na   0.201567   0.013388
     6  Na  -0.184924   0.517113
     7  Na   0.125599   0.095827
 Sum of Mulliken charges =  -0.00000   1.00000

 Dipole moment (field-independent basis, Debye):
    X=              0.3477    Y=             -0.2218    Z=              0.0352  Tot=              0.4140
 Quadrupole moment (field-independent basis, Debye-Ang):
   XX=            -52.0864   YY=            -65.3996   ZZ=            -75.6352
   XY=             -0.6533   XZ=              1.6264   YZ=             -0.1761

 Normal termination of Gaussian 16 at Tue Dec  5 23:15:24 2023.
