 Gaussian 16, Revision B.01,
 Gaussian 16:  ES64L-G16RevB.01 20-Dec-2017

 -------------------------
 #P B3LYP/6-311+g(d) force
 -------------------------

 -----
 DPGEN
 -----
 Symbolic Z-matrix:
 Charge =  0 Multiplicity = 2

                         Standard orientation:
 ---------------------------------------------------------------------
 Center     Atomic      Atomic             Coordinates (Angstroms)
 Number     Number       Type             X           Y           Z
 ---------------------------------------------------------------------
      1         11           0       -0.429823    0.054584   -2.053684
      2         11           0       -1.697067   -2.578678    0.030213
      3         11           0        2.428236   -1.983025   -0.181663
      4         11           0        2.500595    1.209905   -0.425268
      5         11           0       -2.668237    0.336566    0.123218
      6         11           0       -0.568507    2.942475    0.087974
      7         11           0        0.434805    0.018173    2.419210
 ---------------------------------------------------------------------

 SCF Done:  E(UB3LYP) =  -1136.13447442     A.U. after   19 cycles

 The electronic state is 2-A.
 Alpha  occ. eigenvalues --  -38.44691 -38.44193 -38.43695 -38.43554 -38.43495
 Alpha  occ. eigenvalues --  -38.43422 -38.43085  -2.20510  -2.20099  -2.19504
 Alpha  occ. eigenvalues --   -2.19418  -2.19351  -2.19329  -2.18930  -1.14158
 Alpha  occ. eigenvalues --   -1.14140  -1.14129  -1.13791  -1.13743  -1.13707
 Alpha  occ. eigenvalues --   -1.13219  -1.13167  -1.13148  -1.13123  -1.13092
 Alpha  occ. eigenvalues --   -1.13075  -1.13034  -1.13030  -1.13001  -1.12983
 Alpha  occ. eigenvalues --   -1.12963  -1.12907  -1.12596  -1.12588  -1.12580
 Alpha  occ. eigenvalues --   -0.18429  -0.12957  -0.12150  -0.11564
 Alpha virt. eigenvalues --   -0.05198  -0.05061  -0.04667  -0.03698  -0.03329
 Alpha virt. eigenvalues --   -0.03124  -0.01041  -0.01005  -0.00208  -0.00178
 Alpha virt. eigenvalues --    0.00013   0.00415   0.00708   0.00800   0.00803

  Beta  occ. eigenvalues --  -38.44590 -38.44122 -38.43695 -38.43545 -38.43495
  Beta  occ. eigenvalues --  -38.43415 -38.43083  -2.20323  -2.19968  -2.19507
  Beta  occ. eigenvalues --   -2.19406  -2.19344  -2.19329  -2.18929  -1.14034
  Beta  occ. eigenvalues --   -1.14009  -1.13996  -1.13706  -1.13649  -1.13613
  Beta  occ. eigenvalues --   -1.13220  -1.13152  -1.13151  -1.13125  -1.13077
  Beta  occ. eigenvalues --   -1.13051  -1.13028  -1.13022  -1.12979  -1.12972
  Beta  occ. eigenvalues --   -1.12954  -1.12909  -1.12598  -1.12585  -1.12564
  Beta  occ. eigenvalues --   -0.17646  -0.12762  -0.11978
  Beta virt. eigenvalues --   -0.07602  -0.05214  -0.04778  -0.04636  -0.02913
  Beta virt. eigenvalues --   -0.02400  -0.02322  -0.00968  -0.00931  -0.00240
  Beta virt. eigenvalues --   -0.00050   0.00026   0.00445   0.00889   0.00933

 Mulliken charges and spin densities:
               1          2
     1  Na  -0.214333   0.378035
     2  Na   0.069554  -0.078991
     3  Na   0.033026  -0.079926
     4  Na   0.190059   0.038292
     5  Na   0.266581   0.134711
     6  Na   0.215039   0.003733
     7  Na  -0.559925   0.604146
 Sum of Mulliken charges =  -0.00000   1.00000

 Dipole moment (field-independent basis, Debye):
    X=              0.1871    Y=             -0.1737    Z=              0.1582  Tot=              0.3003
 Quadrupole moment (field-independent basis, Debye-Ang):
   XX=            -65.1865   YY=            -63.9269   ZZ=            -68.1424
   XY=             -0.2979   XZ=             -1.0680   YZ=              0.0815

 Normal termination of Gaussian 16 at Thu Dec  7 05:02:06 2023.
