 Gaussian 16, Revision B.01,
 Gaussian 16:  ES64L-G16RevB.01 20-Dec-2017

 -------------------------
 #P B3LYP/6-311+g(d) force
 -------------------------

 -----
 DPGEN
 -----
 Symbolic Z-matrix:
 Charge =  0 Multiplicity = 2

                         Standard orientation:
 ---------------------------------------------------------------------
 Center     Atomic      Atomic             Coordinates (Angstroms)
 Number     Number       Type             X           Y           Z
 ---------------------------------------------------------------------
      1         11           0       -2.192478    2.159784    0.066718
      2         11           0       -0.227836    0.049690   -1.722207
      3         11           0       -3.211514   -1.321448    0.081481
      4         11           0        0.587649   -2.657508   -0.437007
      5         11           0        3.319999   -0.683903    0.433134
      6         11           0        1.871519    2.326300   -0.462209
      7         11           0       -0.147339    0.127084    2.040091
 ---------------------------------------------------------------------

 SCF Done:  E(UB3LYP) =  -1136.13257972     A.U. after   21 cycles

 The electronic state is 2-A.
 Alpha  occ. eigenvalues --  -38.44705 -38.44419 -38.44041 -38.43814 -38.43463
 Alpha  occ. eigenvalues --  -38.43302 -38.43033  -2.20477  -2.20221  -2.19893
 Alpha  occ. eigenvalues --   -2.19641  -2.19287  -2.19260  -2.18887  -1.14157
 Alpha  occ. eigenvalues --   -1.14127  -1.14120  -1.13889  -1.13878  -1.13867
 Alpha  occ. eigenvalues --   -1.13569  -1.13530  -1.13507  -1.13327  -1.13312
 Alpha  occ. eigenvalues --   -1.13263  -1.12998  -1.12964  -1.12942  -1.12922
 Alpha  occ. eigenvalues --   -1.12900  -1.12859  -1.12583  -1.12540  -1.12496
 Alpha  occ. eigenvalues --   -0.18281  -0.13213  -0.11874  -0.10775
 Alpha virt. eigenvalues --   -0.06249  -0.05488  -0.04092  -0.03367  -0.02738
 Alpha virt. eigenvalues --   -0.02634  -0.02002  -0.01277  -0.00500  -0.00197
 Alpha virt. eigenvalues --   -0.00057   0.00320   0.00684   0.00754   0.00809

  Beta  occ. eigenvalues --  -38.44706 -38.44413 -38.43958 -38.43810 -38.43454
  Beta  occ. eigenvalues --  -38.43226 -38.43023  -2.20481  -2.20212  -2.19739
  Beta  occ. eigenvalues --   -2.19637  -2.19273  -2.19122  -2.18871  -1.14149
  Beta  occ. eigenvalues --   -1.14128  -1.14121  -1.13876  -1.13867  -1.13863
  Beta  occ. eigenvalues --   -1.13466  -1.13424  -1.13396  -1.13318  -1.13293
  Beta  occ. eigenvalues --   -1.13258  -1.12971  -1.12922  -1.12912  -1.12870
  Beta  occ. eigenvalues --   -1.12809  -1.12766  -1.12560  -1.12514  -1.12487
  Beta  occ. eigenvalues --   -0.17554  -0.13023  -0.11607
  Beta virt. eigenvalues --   -0.06926  -0.06135  -0.05474  -0.04034  -0.02670
  Beta virt. eigenvalues --   -0.02006  -0.01870  -0.01593  -0.01209  -0.00533
  Beta virt. eigenvalues --   -0.00215   0.00076   0.00335   0.00758   0.00802

 Mulliken charges and spin densities:
               1          2
     1  Na   0.091466  -0.085118
     2  Na   0.144802   0.486829
     3  Na   0.014336  -0.085300
     4  Na   0.035448  -0.056432
     5  Na  -0.003587   0.069354
     6  Na   0.052819  -0.042465
     7  Na  -0.335284   0.713132
 Sum of Mulliken charges =  -0.00000   1.00000

 Dipole moment (field-independent basis, Debye):
    X=             -0.3644    Y=             -0.0110    Z=              0.3239  Tot=              0.4877
 Quadrupole moment (field-independent basis, Debye-Ang):
   XX=            -51.2223   YY=            -67.1889   ZZ=            -74.3349
   XY=              0.5166   XZ=              0.4153   YZ=             -0.6681

 Normal termination of Gaussian 16 at Thu Dec  7 13:29:57 2023.
