 Gaussian 16, Revision B.01,
 Gaussian 16:  ES64L-G16RevB.01 20-Dec-2017

 -------------------------
 #P B3LYP/6-311+g(d) force
 -------------------------

 -----
 DPGEN
 -----
 Symbolic Z-matrix:
 Charge =  0 Multiplicity = 2

                         Standard orientation:
 ---------------------------------------------------------------------
 Center     Atomic      Atomic             Coordinates (Angstroms)
 Number     Number       Type             X           Y           Z
 ---------------------------------------------------------------------
      1         11           0       -1.813768   -2.977315   -0.748118
      2         11           0       -3.206334    2.455414   -0.167734
      3         11           0        1.472684   -3.269699   -0.046731
      4         11           0        3.593337    2.005291    0.319948
      5         11           0       -0.069331    3.626838   -0.437908
      6         11           0       -4.419700   -0.960349    0.880862
      7         11           0        4.443111   -0.880180    0.199680
 ---------------------------------------------------------------------

 SCF Done:  E(UB3LYP) =  -1136.10713697     A.U. after   21 cycles

 The electronic state is 2-A.
 Alpha  occ. eigenvalues --  -38.45001 -38.44935 -38.44707 -38.44701 -38.44427
 Alpha  occ. eigenvalues --  -38.44380 -38.44116  -2.20800  -2.20690  -2.20521
 Alpha  occ. eigenvalues --   -2.20462  -2.20216  -2.20165  -2.19897  -1.14530
 Alpha  occ. eigenvalues --   -1.14456  -1.14438  -1.14376  -1.14367  -1.14329
 Alpha  occ. eigenvalues --   -1.14172  -1.14163  -1.14150  -1.14146  -1.14144
 Alpha  occ. eigenvalues --   -1.14106  -1.13866  -1.13846  -1.13844  -1.13825
 Alpha  occ. eigenvalues --   -1.13818  -1.13785  -1.13555  -1.13549  -1.13526
 Alpha  occ. eigenvalues --   -0.15418  -0.14081  -0.13331  -0.11084
 Alpha virt. eigenvalues --   -0.07645  -0.04982  -0.04404  -0.03583  -0.03500
 Alpha virt. eigenvalues --   -0.02552  -0.02109  -0.01972  -0.01278  -0.01053
 Alpha virt. eigenvalues --   -0.00556  -0.00182  -0.00066   0.00297   0.00538

  Beta  occ. eigenvalues --  -38.44977 -38.44933 -38.44700 -38.44687 -38.44347
  Beta  occ. eigenvalues --  -38.44326 -38.44066  -2.20761  -2.20692  -2.20489
  Beta  occ. eigenvalues --   -2.20466  -2.20067  -2.20065  -2.19805  -1.14491
  Beta  occ. eigenvalues --   -1.14432  -1.14407  -1.14383  -1.14372  -1.14294
  Beta  occ. eigenvalues --   -1.14154  -1.14153  -1.14149  -1.14143  -1.14111
  Beta  occ. eigenvalues --   -1.14071  -1.13764  -1.13758  -1.13752  -1.13747
  Beta  occ. eigenvalues --   -1.13745  -1.13714  -1.13493  -1.13488  -1.13461
  Beta  occ. eigenvalues --   -0.14885  -0.13343  -0.12527
  Beta virt. eigenvalues --   -0.07989  -0.07833  -0.04417  -0.03939  -0.03370
  Beta virt. eigenvalues --   -0.03252  -0.02322  -0.01921  -0.01845  -0.01111
  Beta virt. eigenvalues --   -0.00688  -0.00286   0.00106   0.00155   0.00287

 Mulliken charges and spin densities:
               1          2
     1  Na  -0.318703  -0.070138
     2  Na  -0.226598   0.033577
     3  Na  -0.103900   0.275197
     4  Na   0.009212   0.102830
     5  Na   0.319374   0.226956
     6  Na   0.105965   0.361371
     7  Na   0.214650   0.070207
 Sum of Mulliken charges =  -0.00000   1.00000

 Dipole moment (field-independent basis, Debye):
    X=              0.4677    Y=             -0.0538    Z=              0.1109  Tot=              0.4836
 Quadrupole moment (field-independent basis, Debye-Ang):
   XX=            -59.1595   YY=            -67.8285   ZZ=            -72.9147
   XY=             -0.9371   XZ=              0.0184   YZ=              0.0388

 Normal termination of Gaussian 16 at Sun Dec  3 18:54:46 2023.
