 Gaussian 16, Revision B.01,
 Gaussian 16:  ES64L-G16RevB.01 20-Dec-2017

 -------------------------
 #P B3LYP/6-311+g(d) force
 -------------------------

 -----
 DPGEN
 -----
 Symbolic Z-matrix:
 Charge =  0 Multiplicity = 2

                         Standard orientation:
 ---------------------------------------------------------------------
 Center     Atomic      Atomic             Coordinates (Angstroms)
 Number     Number       Type             X           Y           Z
 ---------------------------------------------------------------------
      1         11           0       -0.488745    3.224411    0.150758
      2         11           0        0.293198   -0.057554    2.085235
      3         11           0       -3.198077    0.483560    0.179487
      4         11           0       -1.630633   -2.943736   -0.357560
      5         11           0        2.684264    1.209241   -0.788588
      6         11           0       -0.347567   -0.079843   -1.641264
      7         11           0        2.687561   -1.836079    0.371932
 ---------------------------------------------------------------------

 SCF Done:  E(UB3LYP) =  -1136.13340921     A.U. after   19 cycles

 The electronic state is 2-A.
 Alpha  occ. eigenvalues --  -38.44534 -38.43941 -38.43909 -38.43847 -38.43720
 Alpha  occ. eigenvalues --  -38.43531 -38.43442  -2.20322  -2.19787  -2.19730
 Alpha  occ. eigenvalues --   -2.19629  -2.19569  -2.19356  -2.19311  -1.14013
 Alpha  occ. eigenvalues --   -1.13989  -1.13938  -1.13463  -1.13429  -1.13419
 Alpha  occ. eigenvalues --   -1.13410  -1.13376  -1.13365  -1.13316  -1.13283
 Alpha  occ. eigenvalues --   -1.13265  -1.13256  -1.13213  -1.13189  -1.13042
 Alpha  occ. eigenvalues --   -1.12998  -1.12989  -1.12979  -1.12961  -1.12957
 Alpha  occ. eigenvalues --   -0.17946  -0.13012  -0.12039  -0.10729
 Alpha virt. eigenvalues --   -0.05851  -0.05176  -0.04996  -0.03306  -0.02826
 Alpha virt. eigenvalues --   -0.02583  -0.01608  -0.01366  -0.00680  -0.00472
 Alpha virt. eigenvalues --   -0.00042   0.00343   0.00744   0.00765   0.00821

  Beta  occ. eigenvalues --  -38.44531 -38.43903 -38.43850 -38.43842 -38.43696
  Beta  occ. eigenvalues --  -38.43532 -38.43386  -2.20319  -2.19721  -2.19623
  Beta  occ. eigenvalues --   -2.19617  -2.19527  -2.19315  -2.19253  -1.14003
  Beta  occ. eigenvalues --   -1.13985  -1.13935  -1.13416  -1.13385  -1.13363
  Beta  occ. eigenvalues --   -1.13334  -1.13304  -1.13302  -1.13276  -1.13269
  Beta  occ. eigenvalues --   -1.13261  -1.13217  -1.13177  -1.13165  -1.12984
  Beta  occ. eigenvalues --   -1.12979  -1.12966  -1.12955  -1.12923  -1.12894
  Beta  occ. eigenvalues --   -0.17243  -0.12795  -0.11816
  Beta virt. eigenvalues --   -0.06891  -0.05815  -0.05047  -0.04903  -0.02605
  Beta virt. eigenvalues --   -0.02144  -0.01616  -0.01500  -0.01286  -0.00676
  Beta virt. eigenvalues --   -0.00473   0.00097   0.00383   0.00754   0.00850

 Mulliken charges and spin densities:
               1          2
     1  Na  -0.101131  -0.026122
     2  Na  -0.250522   0.703380
     3  Na  -0.010659  -0.043805
     4  Na  -0.024582  -0.073472
     5  Na   0.125280   0.082419
     6  Na   0.194305   0.340981
     7  Na   0.067308   0.016618
 Sum of Mulliken charges =  -0.00000   1.00000

 Dipole moment (field-independent basis, Debye):
    X=             -0.3165    Y=             -0.1566    Z=              0.1695  Tot=              0.3917
 Quadrupole moment (field-independent basis, Debye-Ang):
   XX=            -57.7144   YY=            -61.2785   ZZ=            -74.6425
   XY=             -0.8588   XZ=             -1.7385   YZ=             -0.3186

 Normal termination of Gaussian 16 at Thu Dec  7 06:08:28 2023.
