 Gaussian 16, Revision B.01,
 Gaussian 16:  ES64L-G16RevB.01 20-Dec-2017

 -------------------------
 #P B3LYP/6-311+g(d) force
 -------------------------

 -----
 DPGEN
 -----
 Symbolic Z-matrix:
 Charge =  0 Multiplicity = 2

                         Standard orientation:
 ---------------------------------------------------------------------
 Center     Atomic      Atomic             Coordinates (Angstroms)
 Number     Number       Type             X           Y           Z
 ---------------------------------------------------------------------
      1         11           0       -0.131279   -0.046529    1.672820
      2         11           0       -3.328065    0.266165   -0.127140
      3         11           0        2.738102    1.304740   -0.022678
      4         11           0        0.022603    0.138294   -1.619990
      5         11           0        2.235156   -2.027874   -0.025130
      6         11           0       -0.363579    2.798571    0.116877
      7         11           0       -1.172937   -2.433367    0.005241
 ---------------------------------------------------------------------

 SCF Done:  E(UB3LYP) =  -1136.13700632     A.U. after   20 cycles

 The electronic state is 2-A.
 Alpha  occ. eigenvalues --  -38.44382 -38.43851 -38.43452 -38.43291 -38.43263
 Alpha  occ. eigenvalues --  -38.42898 -38.42886  -2.20191  -2.19723  -2.19324
 Alpha  occ. eigenvalues --   -2.19188  -2.19180  -2.18925  -2.18908  -1.13861
 Alpha  occ. eigenvalues --   -1.13848  -1.13833  -1.13404  -1.13387  -1.13366
 Alpha  occ. eigenvalues --   -1.13003  -1.12987  -1.12977  -1.12928  -1.12903
 Alpha  occ. eigenvalues --   -1.12869  -1.12858  -1.12789  -1.12785  -1.12650
 Alpha  occ. eigenvalues --   -1.12559  -1.12548  -1.12528  -1.12523  -1.12497
 Alpha  occ. eigenvalues --   -0.19181  -0.13198  -0.12642  -0.10378
 Alpha virt. eigenvalues --   -0.05894  -0.05005  -0.04631  -0.02995  -0.02715
 Alpha virt. eigenvalues --   -0.02042  -0.01825  -0.01104  -0.00310  -0.00191
 Alpha virt. eigenvalues --    0.00032   0.00340   0.00799   0.00887   0.00920

  Beta  occ. eigenvalues --  -38.44380 -38.43846 -38.43447 -38.43283 -38.43253
  Beta  occ. eigenvalues --  -38.42826 -38.42805  -2.20189  -2.19717  -2.19320
  Beta  occ. eigenvalues --   -2.19175  -2.19169  -2.18794  -2.18761  -1.13850
  Beta  occ. eigenvalues --   -1.13839  -1.13834  -1.13400  -1.13370  -1.13353
  Beta  occ. eigenvalues --   -1.13000  -1.12980  -1.12953  -1.12914  -1.12894
  Beta  occ. eigenvalues --   -1.12824  -1.12814  -1.12786  -1.12782  -1.12562
  Beta  occ. eigenvalues --   -1.12461  -1.12457  -1.12427  -1.12423  -1.12393
  Beta  occ. eigenvalues --   -0.18455  -0.12947  -0.12360
  Beta virt. eigenvalues --   -0.06461  -0.05868  -0.05011  -0.04629  -0.02217
  Beta virt. eigenvalues --   -0.01907  -0.01739  -0.01048  -0.01017  -0.00365
  Beta virt. eigenvalues --   -0.00241   0.00166   0.00373   0.00833   0.00883

 Mulliken charges and spin densities:
               1          2
     1  Na  -0.403015   0.696650
     2  Na   0.094016  -0.094413
     3  Na   0.238949  -0.050812
     4  Na  -0.491386   0.717252
     5  Na   0.164656  -0.060116
     6  Na   0.127047  -0.144361
     7  Na   0.269732  -0.064201
 Sum of Mulliken charges =  -0.00000   1.00000

 Dipole moment (field-independent basis, Debye):
    X=             -0.2246    Y=              0.1487    Z=             -0.0008  Tot=              0.2694
 Quadrupole moment (field-independent basis, Debye-Ang):
   XX=            -52.2280   YY=            -62.3968   ZZ=            -76.4799
   XY=             -0.6108   XZ=              0.4191   YZ=              0.3903

 Normal termination of Gaussian 16 at Sat Dec  9 06:52:39 2023.
