 Gaussian 16, Revision B.01,
 Gaussian 16:  ES64L-G16RevB.01 20-Dec-2017

 -------------------------
 #P B3LYP/6-311+g(d) force
 -------------------------

 -----
 DPGEN
 -----
 Symbolic Z-matrix:
 Charge =  0 Multiplicity = 2

                         Standard orientation:
 ---------------------------------------------------------------------
 Center     Atomic      Atomic             Coordinates (Angstroms)
 Number     Number       Type             X           Y           Z
 ---------------------------------------------------------------------
      1         11           0       -3.477059    1.768791    0.914415
      2         11           0        2.194149   -2.982172    0.886470
      3         11           0       -0.709538    3.131525   -0.477444
      4         11           0        2.836043    2.722943    0.124191
      5         11           0       -1.028436   -2.788527   -0.438358
      6         11           0        4.108282   -0.366441   -0.481490
      7         11           0       -3.923441   -1.486118   -0.527783
 ---------------------------------------------------------------------

 SCF Done:  E(UB3LYP) =  -1136.11119663     A.U. after   23 cycles

 The electronic state is 2-A.
 Alpha  occ. eigenvalues --  -38.45314 -38.44905 -38.44770 -38.44582 -38.43987
 Alpha  occ. eigenvalues --  -38.43985 -38.43616  -2.21084  -2.20693  -2.20567
 Alpha  occ. eigenvalues --   -2.20352  -2.19818  -2.19781  -2.19426  -1.14766
 Alpha  occ. eigenvalues --   -1.14751  -1.14723  -1.14360  -1.14353  -1.14327
 Alpha  occ. eigenvalues --   -1.14246  -1.14238  -1.14221  -1.14030  -1.14026
 Alpha  occ. eigenvalues --   -1.13981  -1.13480  -1.13464  -1.13442  -1.13442
 Alpha  occ. eigenvalues --   -1.13435  -1.13416  -1.13077  -1.13071  -1.13061
 Alpha  occ. eigenvalues --   -0.15778  -0.14074  -0.13371  -0.10633
 Alpha virt. eigenvalues --   -0.07622  -0.04837  -0.04355  -0.03583  -0.03218
 Alpha virt. eigenvalues --   -0.02610  -0.02331  -0.01865  -0.01162  -0.00708
 Alpha virt. eigenvalues --   -0.00359  -0.00133   0.00228   0.00403   0.00694

  Beta  occ. eigenvalues --  -38.45302 -38.44870 -38.44746 -38.44570 -38.43946
  Beta  occ. eigenvalues --  -38.43935 -38.43559  -2.21067  -2.20632  -2.20531
  Beta  occ. eigenvalues --   -2.20334  -2.19725  -2.19709  -2.19321  -1.14760
  Beta  occ. eigenvalues --   -1.14743  -1.14675  -1.14321  -1.14309  -1.14272
  Beta  occ. eigenvalues --   -1.14227  -1.14221  -1.14146  -1.14021  -1.14016
  Beta  occ. eigenvalues --   -1.13948  -1.13409  -1.13402  -1.13393  -1.13388
  Beta  occ. eigenvalues --   -1.13378  -1.13363  -1.13005  -1.12999  -1.12993
  Beta  occ. eigenvalues --   -0.15252  -0.13337  -0.12619
  Beta virt. eigenvalues --   -0.07836  -0.07453  -0.04512  -0.03866  -0.03334
  Beta virt. eigenvalues --   -0.02847  -0.02367  -0.02110  -0.01625  -0.01000
  Beta virt. eigenvalues --   -0.00404  -0.00159   0.00073   0.00292   0.00459

 Mulliken charges and spin densities:
               1          2
     1  Na   0.139825   0.156475
     2  Na   0.248697   0.238981
     3  Na  -0.322160   0.010148
     4  Na  -0.012485   0.190589
     5  Na  -0.401341   0.169346
     6  Na   0.103364   0.075451
     7  Na   0.244101   0.159011
 Sum of Mulliken charges =  -0.00000   1.00000

 Dipole moment (field-independent basis, Debye):
    X=             -0.2158    Y=              0.2619    Z=              0.0297  Tot=              0.3406
 Quadrupole moment (field-independent basis, Debye-Ang):
   XX=            -57.6565   YY=            -72.8605   ZZ=            -69.9299
   XY=             -2.4148   XZ=             -2.4834   YZ=              0.2872

 Normal termination of Gaussian 16 at Mon Dec  4 04:14:29 2023.
