 Gaussian 16, Revision B.01,
 Gaussian 16:  ES64L-G16RevB.01 20-Dec-2017

 -------------------------
 #P B3LYP/6-311+g(d) force
 -------------------------

 -----
 DPGEN
 -----
 Symbolic Z-matrix:
 Charge =  0 Multiplicity = 2

                         Standard orientation:
 ---------------------------------------------------------------------
 Center     Atomic      Atomic             Coordinates (Angstroms)
 Number     Number       Type             X           Y           Z
 ---------------------------------------------------------------------
      1         11           0       -3.546835   -0.130997   -0.366038
      2         11           0        3.858690    0.162063   -0.071557
      3         11           0        1.583942    2.619618    0.333663
      4         11           0       -1.952646    2.985864    0.118073
      5         11           0        1.603790   -2.671359   -0.160607
      6         11           0       -1.684985   -2.898837    0.593928
      7         11           0        0.138045   -0.066353   -0.447462
 ---------------------------------------------------------------------

 SCF Done:  E(UB3LYP) =  -1136.12664218     A.U. after   22 cycles

 The electronic state is 2-A.
 Alpha  occ. eigenvalues --  -38.44382 -38.44254 -38.44089 -38.43995 -38.43984
 Alpha  occ. eigenvalues --  -38.43256 -38.43057  -2.20212  -2.20113  -2.19947
 Alpha  occ. eigenvalues --   -2.19898  -2.19881  -2.19109  -2.18907  -1.13897
 Alpha  occ. eigenvalues --   -1.13883  -1.13861  -1.13852  -1.13789  -1.13733
 Alpha  occ. eigenvalues --   -1.13719  -1.13660  -1.13574  -1.13560  -1.13549
 Alpha  occ. eigenvalues --   -1.13535  -1.13532  -1.13477  -1.13470  -1.12765
 Alpha  occ. eigenvalues --   -1.12761  -1.12725  -1.12563  -1.12548  -1.12536
 Alpha  occ. eigenvalues --   -0.17631  -0.13842  -0.13552  -0.09556
 Alpha virt. eigenvalues --   -0.06624  -0.05816  -0.04351  -0.03052  -0.02589
 Alpha virt. eigenvalues --   -0.02331  -0.02099  -0.01699  -0.01233  -0.00171
 Alpha virt. eigenvalues --    0.00095   0.00371   0.00481   0.00653   0.00714

  Beta  occ. eigenvalues --  -38.44374 -38.44237 -38.44070 -38.43989 -38.43967
  Beta  occ. eigenvalues --  -38.43191 -38.42987  -2.20204  -2.20090  -2.19954
  Beta  occ. eigenvalues --   -2.19868  -2.19833  -2.18988  -2.18777  -1.13898
  Beta  occ. eigenvalues --   -1.13884  -1.13849  -1.13803  -1.13779  -1.13717
  Beta  occ. eigenvalues --   -1.13664  -1.13655  -1.13577  -1.13557  -1.13531
  Beta  occ. eigenvalues --   -1.13501  -1.13490  -1.13457  -1.13425  -1.12681
  Beta  occ. eigenvalues --   -1.12678  -1.12647  -1.12474  -1.12462  -1.12448
  Beta  occ. eigenvalues --   -0.17348  -0.13124  -0.12934
  Beta virt. eigenvalues --   -0.06664  -0.06267  -0.05569  -0.04220  -0.02416
  Beta virt. eigenvalues --   -0.02156  -0.02064  -0.01881  -0.01334  -0.01117
  Beta virt. eigenvalues --   -0.00076   0.00374   0.00522   0.00552   0.00751

 Mulliken charges and spin densities:
               1          2
     1  Na   0.345664   0.504826
     2  Na   0.788760   0.433525
     3  Na   0.367264   0.140854
     4  Na   0.593728   0.013652
     5  Na   0.690410   0.128583
     6  Na   0.688733   0.030355
     7  Na  -3.474559  -0.251795
 Sum of Mulliken charges =  -0.00000   1.00000

 Dipole moment (field-independent basis, Debye):
    X=              0.1683    Y=             -0.1964    Z=              0.4480  Tot=              0.5173
 Quadrupole moment (field-independent basis, Debye-Ang):
   XX=            -70.3219   YY=            -58.2664   ZZ=            -70.6969
   XY=             -3.5280   XZ=             -0.9464   YZ=             -0.5430

 Normal termination of Gaussian 16 at Wed Nov 29 17:16:15 2023.
