 Gaussian 16, Revision B.01,
 Gaussian 16:  ES64L-G16RevB.01 20-Dec-2017

 -------------------------
 #P B3LYP/6-311+g(d) force
 -------------------------

 -----
 DPGEN
 -----
 Symbolic Z-matrix:
 Charge =  0 Multiplicity = 2

                         Standard orientation:
 ---------------------------------------------------------------------
 Center     Atomic      Atomic             Coordinates (Angstroms)
 Number     Number       Type             X           Y           Z
 ---------------------------------------------------------------------
      1         11           0        2.019067    2.064957   -0.270051
      2         11           0       -0.257685   -0.499554    2.146424
      3         11           0       -3.299467   -0.168556   -0.309816
      4         11           0        0.036749   -0.043918   -1.519710
      5         11           0        3.086448   -1.297809    0.045768
      6         11           0       -0.945811    2.878097    0.223473
      7         11           0       -0.639302   -2.933217   -0.316089
 ---------------------------------------------------------------------

 SCF Done:  E(UB3LYP) =  -1136.13405926     A.U. after   20 cycles

 The electronic state is 2-A.
 Alpha  occ. eigenvalues --  -38.44360 -38.44126 -38.43974 -38.43641 -38.43482
 Alpha  occ. eigenvalues --  -38.43421 -38.43110  -2.20143  -2.19910  -2.19807
 Alpha  occ. eigenvalues --   -2.19495  -2.19329  -2.19310  -2.19096  -1.13822
 Alpha  occ. eigenvalues --   -1.13797  -1.13781  -1.13583  -1.13571  -1.13552
 Alpha  occ. eigenvalues --   -1.13516  -1.13478  -1.13415  -1.13155  -1.13124
 Alpha  occ. eigenvalues --   -1.13107  -1.13101  -1.13023  -1.12985  -1.12971
 Alpha  occ. eigenvalues --   -1.12948  -1.12888  -1.12777  -1.12742  -1.12701
 Alpha  occ. eigenvalues --   -0.18335  -0.12878  -0.12462  -0.10568
 Alpha virt. eigenvalues --   -0.05990  -0.05028  -0.04883  -0.03084  -0.02862
 Alpha virt. eigenvalues --   -0.02509  -0.01750  -0.01217  -0.00566  -0.00375
 Alpha virt. eigenvalues --   -0.00023   0.00327   0.00760   0.00812   0.00877

  Beta  occ. eigenvalues --  -38.44354 -38.44127 -38.43965 -38.43541 -38.43479
  Beta  occ. eigenvalues --  -38.43416 -38.43055  -2.20135  -2.19913  -2.19795
  Beta  occ. eigenvalues --   -2.19326  -2.19309  -2.19303  -2.18997  -1.13803
  Beta  occ. eigenvalues --   -1.13788  -1.13777  -1.13579  -1.13567  -1.13555
  Beta  occ. eigenvalues --   -1.13503  -1.13447  -1.13409  -1.13101  -1.13030
  Beta  occ. eigenvalues --   -1.13007  -1.12994  -1.12977  -1.12969  -1.12962
  Beta  occ. eigenvalues --   -1.12931  -1.12888  -1.12706  -1.12671  -1.12629
  Beta  occ. eigenvalues --   -0.17637  -0.12636  -0.12281
  Beta virt. eigenvalues --   -0.06648  -0.05984  -0.04919  -0.04881  -0.02317
  Beta virt. eigenvalues --   -0.02159  -0.01668  -0.01431  -0.01134  -0.00627
  Beta virt. eigenvalues --   -0.00401   0.00134   0.00366   0.00773   0.00853

 Mulliken charges and spin densities:
               1          2
     1  Na   0.209785   0.013207
     2  Na  -0.571454   0.803346
     3  Na   0.119958  -0.019668
     4  Na  -0.111452   0.298499
     5  Na   0.101350  -0.043061
     6  Na   0.060469   0.020055
     7  Na   0.191344  -0.072377
 Sum of Mulliken charges =  -0.00000   1.00000

 Dipole moment (field-independent basis, Debye):
    X=             -0.2206    Y=             -0.3889    Z=              0.1174  Tot=              0.4623
 Quadrupole moment (field-independent basis, Debye-Ang):
   XX=            -55.9411   YY=            -61.3010   ZZ=            -75.6037
   XY=             -1.1194   XZ=              0.6610   YZ=              0.9575

 Normal termination of Gaussian 16 at Thu Dec  7 19:21:36 2023.
