 Gaussian 16, Revision B.01,
 Gaussian 16:  ES64L-G16RevB.01 20-Dec-2017

 -------------------------
 #P B3LYP/6-311+g(d) force
 -------------------------

 -----
 DPGEN
 -----
 Symbolic Z-matrix:
 Charge =  0 Multiplicity = 2

                         Standard orientation:
 ---------------------------------------------------------------------
 Center     Atomic      Atomic             Coordinates (Angstroms)
 Number     Number       Type             X           Y           Z
 ---------------------------------------------------------------------
      1         11           0       -0.083523    0.141507   -1.688800
      2         11           0        1.830280   -1.489485   -0.368592
      3         11           0       -2.542949   -0.278250   -0.281384
      4         11           0       -0.831667    2.210046    0.290988
      5         11           0        1.828412    1.429822   -0.206093
      6         11           0        0.376759    0.096051    1.821720
      7         11           0       -0.577312   -2.109691    0.432162
 ---------------------------------------------------------------------

 SCF Done:  E(UB3LYP) =  -1136.07460105     A.U. after   19 cycles

 The electronic state is 2-A.
 Alpha  occ. eigenvalues --  -38.44424 -38.44229 -38.43962 -38.43833 -38.43718
 Alpha  occ. eigenvalues --  -38.43641 -38.43491  -2.20656  -2.20542  -2.20169
 Alpha  occ. eigenvalues --   -2.19986  -2.19901  -2.19691  -2.19607  -1.14525
 Alpha  occ. eigenvalues --   -1.14465  -1.14366  -1.14289  -1.14255  -1.14233
 Alpha  occ. eigenvalues --   -1.14156  -1.13848  -1.13731  -1.13707  -1.13629
 Alpha  occ. eigenvalues --   -1.13563  -1.13500  -1.13458  -1.13399  -1.13378
 Alpha  occ. eigenvalues --   -1.13319  -1.13260  -1.13242  -1.13217  -1.13113
 Alpha  occ. eigenvalues --   -0.21799  -0.13473  -0.13423  -0.12500
 Alpha virt. eigenvalues --   -0.04895  -0.04332  -0.04149  -0.03635  -0.03511
 Alpha virt. eigenvalues --   -0.03061  -0.00737  -0.00590  -0.00109   0.00352
 Alpha virt. eigenvalues --    0.00873   0.00967   0.01129   0.01170   0.01217

  Beta  occ. eigenvalues --  -38.44326 -38.44137 -38.43942 -38.43815 -38.43701
  Beta  occ. eigenvalues --  -38.43633 -38.43477  -2.20480  -2.20377  -2.20140
  Beta  occ. eigenvalues --   -2.19960  -2.19877  -2.19680  -2.19587  -1.14446
  Beta  occ. eigenvalues --   -1.14353  -1.14250  -1.14208  -1.14148  -1.14115
  Beta  occ. eigenvalues --   -1.14094  -1.13818  -1.13697  -1.13647  -1.13601
  Beta  occ. eigenvalues --   -1.13492  -1.13448  -1.13419  -1.13388  -1.13366
  Beta  occ. eigenvalues --   -1.13283  -1.13242  -1.13216  -1.13170  -1.13106
  Beta  occ. eigenvalues --   -0.20981  -0.13112  -0.13049
  Beta virt. eigenvalues --   -0.08256  -0.04924  -0.04314  -0.04133  -0.02656
  Beta virt. eigenvalues --   -0.02593  -0.01910  -0.00683  -0.00543   0.00043
  Beta virt. eigenvalues --    0.00379   0.00848   0.00936   0.01152   0.01170

 Mulliken charges and spin densities:
               1          2
     1  Na  -0.387815   0.392320
     2  Na   0.053819   0.006259
     3  Na  -0.075801  -0.023662
     4  Na   0.162745   0.069686
     5  Na   0.167872  -0.031381
     6  Na  -0.392102   0.405428
     7  Na   0.471283   0.181351
 Sum of Mulliken charges =  -0.00000   1.00000

 Dipole moment (field-independent basis, Debye):
    X=             -0.1987    Y=              0.1247    Z=              0.1283  Tot=              0.2674
 Quadrupole moment (field-independent basis, Debye-Ang):
   XX=            -64.1876   YY=            -66.7351   ZZ=            -67.8938
   XY=             -0.3854   XZ=             -0.6756   YZ=              0.2720

 Normal termination of Gaussian 16 at Fri Dec  8 04:52:41 2023.
