 Gaussian 16, Revision B.01,
 Gaussian 16:  ES64L-G16RevB.01 20-Dec-2017

 -------------------------
 #P B3LYP/6-311+g(d) force
 -------------------------

 -----
 DPGEN
 -----
 Symbolic Z-matrix:
 Charge =  0 Multiplicity = 2

                         Standard orientation:
 ---------------------------------------------------------------------
 Center     Atomic      Atomic             Coordinates (Angstroms)
 Number     Number       Type             X           Y           Z
 ---------------------------------------------------------------------
      1         11           0       -2.629562   -2.140895   -0.588253
      2         11           0        0.180524   -3.110020    0.257477
      3         11           0        3.465515   -1.257794   -0.178113
      4         11           0        0.239359    0.166046    1.359101
      5         11           0        2.772035    1.772235   -0.817274
      6         11           0       -0.406292    3.387082    0.262756
      7         11           0       -3.621579    1.183345   -0.295694
 ---------------------------------------------------------------------

 SCF Done:  E(UB3LYP) =  -1136.12407786     A.U. after   21 cycles

 The electronic state is 2-A.
 Alpha  occ. eigenvalues --  -38.44450 -38.44412 -38.44199 -38.44089 -38.43924
 Alpha  occ. eigenvalues --  -38.43855 -38.43694  -2.20292  -2.20242  -2.20025
 Alpha  occ. eigenvalues --   -2.19876  -2.19756  -2.19656  -2.19551  -1.13991
 Alpha  occ. eigenvalues --   -1.13943  -1.13922  -1.13919  -1.13913  -1.13866
 Alpha  occ. eigenvalues --   -1.13719  -1.13695  -1.13681  -1.13545  -1.13522
 Alpha  occ. eigenvalues --   -1.13495  -1.13421  -1.13414  -1.13381  -1.13326
 Alpha  occ. eigenvalues --   -1.13307  -1.13291  -1.13211  -1.13203  -1.13178
 Alpha  occ. eigenvalues --   -0.17148  -0.13759  -0.13063  -0.10137
 Alpha virt. eigenvalues --   -0.06776  -0.05851  -0.04102  -0.03451  -0.03248
 Alpha virt. eigenvalues --   -0.02120  -0.01732  -0.01525  -0.01199  -0.00973
 Alpha virt. eigenvalues --    0.00080   0.00322   0.00385   0.00555   0.00770

  Beta  occ. eigenvalues --  -38.44415 -38.44380 -38.44188 -38.44032 -38.43888
  Beta  occ. eigenvalues --  -38.43833 -38.43673  -2.20226  -2.20188  -2.20008
  Beta  occ. eigenvalues --   -2.19773  -2.19693  -2.19617  -2.19513  -1.13947
  Beta  occ. eigenvalues --   -1.13912  -1.13885  -1.13881  -1.13861  -1.13798
  Beta  occ. eigenvalues --   -1.13696  -1.13679  -1.13659  -1.13476  -1.13456
  Beta  occ. eigenvalues --   -1.13411  -1.13379  -1.13373  -1.13318  -1.13297
  Beta  occ. eigenvalues --   -1.13279  -1.13266  -1.13190  -1.13168  -1.13158
  Beta  occ. eigenvalues --   -0.16726  -0.13097  -0.12599
  Beta virt. eigenvalues --   -0.06795  -0.06704  -0.05718  -0.03926  -0.02940
  Beta virt. eigenvalues --   -0.02579  -0.01920  -0.01522  -0.01338  -0.01116
  Beta virt. eigenvalues --   -0.00672   0.00319   0.00431   0.00574   0.00588

 Mulliken charges and spin densities:
               1          2
     1  Na  -0.155212   0.122113
     2  Na   0.303938  -0.067710
     3  Na   0.091318   0.246763
     4  Na  -0.293099   0.243685
     5  Na  -0.126904   0.095425
     6  Na   0.297258   0.040545
     7  Na  -0.117299   0.319179
 Sum of Mulliken charges =  -0.00000   1.00000

 Dipole moment (field-independent basis, Debye):
    X=              0.4071    Y=              0.1866    Z=             -0.0194  Tot=              0.4483
 Quadrupole moment (field-independent basis, Debye-Ang):
   XX=            -72.6520   YY=            -56.9287   ZZ=            -71.3146
   XY=             -1.9456   XZ=              0.0049   YZ=             -0.9510

 Normal termination of Gaussian 16 at Mon Dec  4 00:48:08 2023.
