 Gaussian 16, Revision B.01,
 Gaussian 16:  ES64L-G16RevB.01 20-Dec-2017

 -------------------------
 #P B3LYP/6-311+g(d) force
 -------------------------

 -----
 DPGEN
 -----
 Symbolic Z-matrix:
 Charge =  0 Multiplicity = 2

                         Standard orientation:
 ---------------------------------------------------------------------
 Center     Atomic      Atomic             Coordinates (Angstroms)
 Number     Number       Type             X           Y           Z
 ---------------------------------------------------------------------
      1         11           0        0.663605    2.413474   -0.303219
      2         11           0        3.387797    0.601618    0.996291
      3         11           0       -0.183173   -1.285617   -0.453678
      4         11           0       -3.599659   -1.502572    0.490711
      5         11           0        2.956542   -1.975604   -0.994613
      6         11           0       -2.165857    1.437474   -1.563409
      7         11           0       -1.059256    0.311226    1.827917
 ---------------------------------------------------------------------

 SCF Done:  E(UB3LYP) =  -1136.12138514     A.U. after   22 cycles

 The electronic state is 2-A.
 Alpha  occ. eigenvalues --  -38.44978 -38.44421 -38.44411 -38.44016 -38.43820
 Alpha  occ. eigenvalues --  -38.43522 -38.42529  -2.20779  -2.20340  -2.20227
 Alpha  occ. eigenvalues --   -2.19955  -2.19693  -2.19360  -2.18403  -1.14458
 Alpha  occ. eigenvalues --   -1.14425  -1.14421  -1.14164  -1.13965  -1.13932
 Alpha  occ. eigenvalues --   -1.13895  -1.13887  -1.13844  -1.13672  -1.13598
 Alpha  occ. eigenvalues --   -1.13546  -1.13362  -1.13328  -1.13310  -1.13027
 Alpha  occ. eigenvalues --   -1.13003  -1.12996  -1.12083  -1.12071  -1.12053
 Alpha  occ. eigenvalues --   -0.18303  -0.13946  -0.11730  -0.10744
 Alpha virt. eigenvalues --   -0.06916  -0.05246  -0.04479  -0.03234  -0.02718
 Alpha virt. eigenvalues --   -0.02524  -0.02147  -0.01236  -0.00819  -0.00099
 Alpha virt. eigenvalues --    0.00075   0.00129   0.00348   0.00568   0.00731

  Beta  occ. eigenvalues --  -38.44965 -38.44424 -38.44352 -38.43987 -38.43757
  Beta  occ. eigenvalues --  -38.43496 -38.42527  -2.20755  -2.20236  -2.20230
  Beta  occ. eigenvalues --   -2.19908  -2.19576  -2.19313  -2.18403  -1.14443
  Beta  occ. eigenvalues --   -1.14410  -1.14396  -1.14092  -1.13914  -1.13893
  Beta  occ. eigenvalues --   -1.13884  -1.13871  -1.13803  -1.13608  -1.13560
  Beta  occ. eigenvalues --   -1.13514  -1.13277  -1.13253  -1.13231  -1.12987
  Beta  occ. eigenvalues --   -1.12971  -1.12969  -1.12090  -1.12070  -1.12019
  Beta  occ. eigenvalues --   -0.17693  -0.13736  -0.11332
  Beta virt. eigenvalues --   -0.07185  -0.06664  -0.04951  -0.04110  -0.02942
  Beta virt. eigenvalues --   -0.02476  -0.02083  -0.01568  -0.00962  -0.00433
  Beta virt. eigenvalues --   -0.00078   0.00131   0.00201   0.00486   0.00710

 Mulliken charges and spin densities:
               1          2
     1  Na   0.193088   0.045153
     2  Na   0.037338   0.066434
     3  Na  -0.960987   0.437235
     4  Na   0.785941   0.040830
     5  Na   0.284950  -0.104206
     6  Na  -0.246761   0.183433
     7  Na  -0.093569   0.331120
 Sum of Mulliken charges =  -0.00000   1.00000

 Dipole moment (field-independent basis, Debye):
    X=             -0.4180    Y=              0.1255    Z=              0.3216  Tot=              0.5421
 Quadrupole moment (field-independent basis, Debye-Ang):
   XX=            -48.4728   YY=            -74.1605   ZZ=            -70.8734
   XY=              3.0282   XZ=              2.7433   YZ=              1.3995

 Normal termination of Gaussian 16 at Fri Dec  8 05:32:55 2023.
