 Gaussian 16, Revision B.01,
 Gaussian 16:  ES64L-G16RevB.01 20-Dec-2017

 -------------------------
 #P B3LYP/6-311+g(d) force
 -------------------------

 -----
 DPGEN
 -----
 Symbolic Z-matrix:
 Charge =  0 Multiplicity = 2

                         Standard orientation:
 ---------------------------------------------------------------------
 Center     Atomic      Atomic             Coordinates (Angstroms)
 Number     Number       Type             X           Y           Z
 ---------------------------------------------------------------------
      1         11           0        0.183436    2.864929    0.397066
      2         11           0        2.873021    0.785328   -0.341499
      3         11           0       -0.141377   -0.074105    1.946513
      4         11           0        1.862023   -2.293690    0.116277
      5         11           0       -1.939504   -2.354681    0.028027
      6         11           0       -2.864942    1.077902   -0.373417
      7         11           0        0.027343   -0.005683   -1.772966
 ---------------------------------------------------------------------

 SCF Done:  E(UB3LYP) =  -1136.14113229     A.U. after   19 cycles

 The electronic state is 2-A.
 Alpha  occ. eigenvalues --  -38.43848 -38.43619 -38.43589 -38.43491 -38.43487
 Alpha  occ. eigenvalues --  -38.43363 -38.43193  -2.19684  -2.19465  -2.19450
 Alpha  occ. eigenvalues --   -2.19411  -2.19350  -2.19322  -2.19055  -1.13373
 Alpha  occ. eigenvalues --   -1.13343  -1.13318  -1.13179  -1.13140  -1.13137
 Alpha  occ. eigenvalues --   -1.13126  -1.13111  -1.13083  -1.13080  -1.13054
 Alpha  occ. eigenvalues --   -1.13029  -1.13023  -1.13001  -1.12989  -1.12969
 Alpha  occ. eigenvalues --   -1.12941  -1.12939  -1.12734  -1.12710  -1.12686
 Alpha  occ. eigenvalues --   -0.18795  -0.13010  -0.12471  -0.10937
 Alpha virt. eigenvalues --   -0.05356  -0.05167  -0.04665  -0.03232  -0.03002
 Alpha virt. eigenvalues --   -0.02650  -0.01373  -0.01127  -0.00260  -0.00236
 Alpha virt. eigenvalues --    0.00015   0.00374   0.00836   0.00890   0.00927

  Beta  occ. eigenvalues --  -38.43839 -38.43616 -38.43581 -38.43487 -38.43398
  Beta  occ. eigenvalues --  -38.43291 -38.43183  -2.19671  -2.19455  -2.19448
  Beta  occ. eigenvalues --   -2.19345  -2.19249  -2.19192  -2.19040  -1.13354
  Beta  occ. eigenvalues --   -1.13326  -1.13309  -1.13164  -1.13128  -1.13126
  Beta  occ. eigenvalues --   -1.13110  -1.13088  -1.13077  -1.13021  -1.13000
  Beta  occ. eigenvalues --   -1.12976  -1.12965  -1.12918  -1.12914  -1.12905
  Beta  occ. eigenvalues --   -1.12854  -1.12844  -1.12716  -1.12682  -1.12679
  Beta  occ. eigenvalues --   -0.18057  -0.12747  -0.12218
  Beta virt. eigenvalues --   -0.07027  -0.05349  -0.05129  -0.04624  -0.02444
  Beta virt. eigenvalues --   -0.02213  -0.01599  -0.01274  -0.01057  -0.00294
  Beta virt. eigenvalues --   -0.00275   0.00122   0.00393   0.00877   0.00902

 Mulliken charges and spin densities:
               1          2
     1  Na   0.109219  -0.015068
     2  Na   0.188087  -0.007877
     3  Na  -0.290853   0.715915
     4  Na   0.072777  -0.089989
     5  Na   0.020069  -0.121020
     6  Na   0.083182  -0.052325
     7  Na  -0.182481   0.570364
 Sum of Mulliken charges =  -0.00000   1.00000

 Dipole moment (field-independent basis, Debye):
    X=             -0.1804    Y=             -0.1069    Z=              0.0143  Tot=              0.2102
 Quadrupole moment (field-independent basis, Debye-Ang):
   XX=            -58.1939   YY=            -62.1821   ZZ=            -73.3820
   XY=              0.0193   XZ=              0.3695   YZ=             -0.0647

 Normal termination of Gaussian 16 at Thu Dec  7 17:49:06 2023.
