 Gaussian 16, Revision B.01,
 Gaussian 16:  ES64L-G16RevB.01 20-Dec-2017

 -------------------------
 #P B3LYP/6-311+g(d) force
 -------------------------

 -----
 DPGEN
 -----
 Symbolic Z-matrix:
 Charge =  0 Multiplicity = 2

                         Standard orientation:
 ---------------------------------------------------------------------
 Center     Atomic      Atomic             Coordinates (Angstroms)
 Number     Number       Type             X           Y           Z
 ---------------------------------------------------------------------
      1         11           0        2.516213    0.920153    1.845151
      2         11           0        4.989637   -2.102137    0.431395
      3         11           0        2.600280   -0.688120   -1.414973
      4         11           0        1.929658    3.031177   -0.671386
      5         11           0       -0.831086   -0.362006   -0.371776
      6         11           0       -4.271618   -0.648928   -0.327052
      7         11           0       -6.933085   -0.150140    0.508640
 ---------------------------------------------------------------------

 SCF Done:  E(UB3LYP) =  -1136.10627041     A.U. after   23 cycles

 The electronic state is 2-A.
 Alpha  occ. eigenvalues --  -38.46195 -38.44809 -38.44575 -38.44420 -38.44353
 Alpha  occ. eigenvalues --  -38.43472 -38.42919  -2.21993  -2.20651  -2.20373
 Alpha  occ. eigenvalues --   -2.20243  -2.20202  -2.19328  -2.18701  -1.15681
 Alpha  occ. eigenvalues --   -1.15644  -1.15594  -1.14349  -1.14311  -1.14256
 Alpha  occ. eigenvalues --   -1.14044  -1.14034  -1.13992  -1.13950  -1.13905
 Alpha  occ. eigenvalues --   -1.13894  -1.13839  -1.13815  -1.13815  -1.13009
 Alpha  occ. eigenvalues --   -1.12971  -1.12970  -1.12374  -1.12369  -1.12346
 Alpha  occ. eigenvalues --   -0.16997  -0.14135  -0.11547  -0.11418
 Alpha virt. eigenvalues --   -0.07342  -0.05918  -0.04012  -0.03034  -0.02936
 Alpha virt. eigenvalues --   -0.02644  -0.02279  -0.01960  -0.01763  -0.01047
 Alpha virt. eigenvalues --   -0.00672  -0.00280   0.00188   0.00334   0.00580

  Beta  occ. eigenvalues --  -38.46157 -38.44787 -38.44549 -38.44329 -38.44295
  Beta  occ. eigenvalues --  -38.43473 -38.42931  -2.21925  -2.20612  -2.20326
  Beta  occ. eigenvalues --   -2.20093  -2.20074  -2.19338  -2.18723  -1.15623
  Beta  occ. eigenvalues --   -1.15604  -1.15541  -1.14312  -1.14279  -1.14235
  Beta  occ. eigenvalues --   -1.14013  -1.13986  -1.13967  -1.13881  -1.13790
  Beta  occ. eigenvalues --   -1.13776  -1.13741  -1.13741  -1.13731  -1.12986
  Beta  occ. eigenvalues --   -1.12984  -1.12955  -1.12388  -1.12382  -1.12360
  Beta  occ. eigenvalues --   -0.16394  -0.13481  -0.11342
  Beta virt. eigenvalues --   -0.07924  -0.07034  -0.05471  -0.03826  -0.02732
  Beta virt. eigenvalues --   -0.02590  -0.02371  -0.01981  -0.01825  -0.01366
  Beta virt. eigenvalues --   -0.00699  -0.00508  -0.00088   0.00245   0.00431

 Mulliken charges and spin densities:
               1          2
     1  Na   0.605228   0.453899
     2  Na  -0.030971  -0.188417
     3  Na   0.820997   0.191335
     4  Na   0.103017   0.007510
     5  Na   0.122866   0.352356
     6  Na  -1.466214   0.011922
     7  Na  -0.154923   0.171394
 Sum of Mulliken charges =  -0.00000   1.00000

 Dipole moment (field-independent basis, Debye):
    X=              0.6041    Y=              1.3998    Z=              0.6122  Tot=              1.6429
 Quadrupole moment (field-independent basis, Debye-Ang):
   XX=            -67.7980   YY=            -73.5996   ZZ=            -61.5834
   XY=              1.9107   XZ=             -1.2134   YZ=             -2.6066

 Normal termination of Gaussian 16 at Thu Nov 30 08:55:22 2023.
