 Gaussian 16, Revision B.01,
 Gaussian 16:  ES64L-G16RevB.01 20-Dec-2017

 -------------------------
 #P B3LYP/6-311+g(d) force
 -------------------------

 -----
 DPGEN
 -----
 Symbolic Z-matrix:
 Charge =  0 Multiplicity = 2

                         Standard orientation:
 ---------------------------------------------------------------------
 Center     Atomic      Atomic             Coordinates (Angstroms)
 Number     Number       Type             X           Y           Z
 ---------------------------------------------------------------------
      1         11           0       -2.738289    2.890743    0.044850
      2         11           0       -4.837422   -0.432941   -0.685759
      3         11           0       -2.128588   -1.869584    0.728845
      4         11           0        0.592969   -2.336488   -0.679433
      5         11           0       -0.114933    1.255531    0.246533
      6         11           0        3.399839   -0.206320    1.327699
      7         11           0        5.826425    0.699059   -0.982735
 ---------------------------------------------------------------------

 SCF Done:  E(UB3LYP) =  -1136.11182108     A.U. after   22 cycles

 The electronic state is 2-A.
 Alpha  occ. eigenvalues --  -38.45102 -38.44738 -38.44604 -38.44392 -38.43966
 Alpha  occ. eigenvalues --  -38.43734 -38.43410  -2.20896  -2.20506  -2.20357
 Alpha  occ. eigenvalues --   -2.20247  -2.19820  -2.19557  -2.19223  -1.14553
 Alpha  occ. eigenvalues --   -1.14544  -1.14494  -1.14158  -1.14156  -1.14128
 Alpha  occ. eigenvalues --   -1.14050  -1.14027  -1.13985  -1.13931  -1.13899
 Alpha  occ. eigenvalues --   -1.13868  -1.13520  -1.13490  -1.13470  -1.13226
 Alpha  occ. eigenvalues --   -1.13198  -1.13187  -1.12913  -1.12879  -1.12838
 Alpha  occ. eigenvalues --   -0.16652  -0.13802  -0.11833  -0.11547
 Alpha virt. eigenvalues --   -0.06421  -0.05541  -0.04708  -0.03423  -0.03085
 Alpha virt. eigenvalues --   -0.02454  -0.02013  -0.01574  -0.00877  -0.00799
 Alpha virt. eigenvalues --   -0.00528  -0.00265   0.00242   0.00326   0.00583

  Beta  occ. eigenvalues --  -38.45015 -38.44677 -38.44621 -38.44327 -38.43955
  Beta  occ. eigenvalues --  -38.43736 -38.43391  -2.20734  -2.20394  -2.20390
  Beta  occ. eigenvalues --   -2.20129  -2.19802  -2.19561  -2.19191  -1.14438
  Beta  occ. eigenvalues --   -1.14434  -1.14388  -1.14082  -1.14079  -1.14073
  Beta  occ. eigenvalues --   -1.14072  -1.14043  -1.13981  -1.13853  -1.13830
  Beta  occ. eigenvalues --   -1.13768  -1.13516  -1.13469  -1.13445  -1.13227
  Beta  occ. eigenvalues --   -1.13203  -1.13185  -1.12876  -1.12861  -1.12813
  Beta  occ. eigenvalues --   -0.16095  -0.13167  -0.11410
  Beta virt. eigenvalues --   -0.08137  -0.05912  -0.05387  -0.04461  -0.03081
  Beta virt. eigenvalues --   -0.02783  -0.02056  -0.01643  -0.01498  -0.00716
  Beta virt. eigenvalues --   -0.00461  -0.00280  -0.00085   0.00278   0.00448

 Mulliken charges and spin densities:
               1          2
     1  Na   0.451287  -0.091705
     2  Na   0.020163   0.270141
     3  Na  -0.136030   0.276259
     4  Na   0.446710  -0.064304
     5  Na  -1.146422   0.308868
     6  Na   0.161521  -0.005027
     7  Na   0.202772   0.305769
 Sum of Mulliken charges =  -0.00000   1.00000

 Dipole moment (field-independent basis, Debye):
    X=              0.0211    Y=             -0.4484    Z=             -0.5762  Tot=              0.7304
 Quadrupole moment (field-independent basis, Debye-Ang):
   XX=            -59.0719   YY=            -73.3353   ZZ=            -65.2312
   XY=             -0.5690   XZ=             -2.2708   YZ=             -0.6661

 Normal termination of Gaussian 16 at Tue Nov 28 23:06:49 2023.
