 Gaussian 16, Revision B.01,
 Gaussian 16:  ES64L-G16RevB.01 20-Dec-2017

 -------------------------
 #P B3LYP/6-311+g(d) force
 -------------------------

 -----
 DPGEN
 -----
 Symbolic Z-matrix:
 Charge =  0 Multiplicity = 2

                         Standard orientation:
 ---------------------------------------------------------------------
 Center     Atomic      Atomic             Coordinates (Angstroms)
 Number     Number       Type             X           Y           Z
 ---------------------------------------------------------------------
      1         11           0        0.185774   -0.555352   -1.462599
      2         11           0        3.309809   -0.936777    0.216261
      3         11           0       -3.596192    1.928548    0.122149
      4         11           0       -0.562398    1.483765    0.815505
      5         11           0        2.750022    2.156642   -0.524471
      6         11           0        0.143335   -1.706184    1.581665
      7         11           0       -2.230351   -2.370642   -0.748510
 ---------------------------------------------------------------------

 SCF Done:  E(UB3LYP) =  -1136.11804680     A.U. after   22 cycles

 The electronic state is 2-A.
 Alpha  occ. eigenvalues --  -38.44973 -38.44445 -38.44221 -38.43925 -38.43860
 Alpha  occ. eigenvalues --  -38.43218 -38.43133  -2.20805  -2.20214  -2.20045
 Alpha  occ. eigenvalues --   -2.19829  -2.19774  -2.19138  -2.19059  -1.14479
 Alpha  occ. eigenvalues --   -1.14460  -1.14454  -1.13893  -1.13873  -1.13859
 Alpha  occ. eigenvalues --   -1.13704  -1.13701  -1.13682  -1.13569  -1.13542
 Alpha  occ. eigenvalues --   -1.13474  -1.13419  -1.13395  -1.13348  -1.12848
 Alpha  occ. eigenvalues --   -1.12816  -1.12748  -1.12728  -1.12691  -1.12664
 Alpha  occ. eigenvalues --   -0.18401  -0.13500  -0.11954  -0.10490
 Alpha virt. eigenvalues --   -0.06822  -0.05947  -0.03604  -0.03370  -0.02706
 Alpha virt. eigenvalues --   -0.02454  -0.01932  -0.01857  -0.00489  -0.00278
 Alpha virt. eigenvalues --   -0.00007   0.00125   0.00427   0.00573   0.00636

  Beta  occ. eigenvalues --  -38.44960 -38.44454 -38.44202 -38.43891 -38.43816
  Beta  occ. eigenvalues --  -38.43193 -38.43071  -2.20784  -2.20232  -2.20010
  Beta  occ. eigenvalues --   -2.19751  -2.19713  -2.19094  -2.18947  -1.14470
  Beta  occ. eigenvalues --   -1.14448  -1.14411  -1.13902  -1.13885  -1.13871
  Beta  occ. eigenvalues --   -1.13680  -1.13674  -1.13656  -1.13514  -1.13480
  Beta  occ. eigenvalues --   -1.13416  -1.13370  -1.13356  -1.13297  -1.12818
  Beta  occ. eigenvalues --   -1.12754  -1.12722  -1.12662  -1.12612  -1.12575
  Beta  occ. eigenvalues --   -0.17755  -0.13232  -0.11726
  Beta virt. eigenvalues --   -0.06829  -0.06614  -0.05712  -0.03374  -0.02856
  Beta virt. eigenvalues --   -0.02483  -0.02107  -0.01643  -0.01103  -0.00443
  Beta virt. eigenvalues --   -0.00026   0.00054   0.00182   0.00489   0.00657

 Mulliken charges and spin densities:
               1          2
     1  Na  -0.555643   0.284142
     2  Na   0.143850   0.139260
     3  Na  -0.013686  -0.123484
     4  Na  -0.627733   0.249496
     5  Na   0.619897   0.052545
     6  Na  -0.016650   0.176358
     7  Na   0.449964   0.221683
 Sum of Mulliken charges =  -0.00000   1.00000

 Dipole moment (field-independent basis, Debye):
    X=              0.2758    Y=             -0.3253    Z=             -0.1240  Tot=              0.4441
 Quadrupole moment (field-independent basis, Debye-Ang):
   XX=            -48.8421   YY=            -68.7600   ZZ=            -74.8812
   XY=              1.9796   XZ=              1.1817   YZ=             -1.6284

 Normal termination of Gaussian 16 at Mon Dec  4 04:03:32 2023.
