 Gaussian 16, Revision B.01,
 Gaussian 16:  ES64L-G16RevB.01 20-Dec-2017

 -------------------------
 #P B3LYP/6-311+g(d) force
 -------------------------

 -----
 DPGEN
 -----
 Symbolic Z-matrix:
 Charge =  0 Multiplicity = 2

                         Standard orientation:
 ---------------------------------------------------------------------
 Center     Atomic      Atomic             Coordinates (Angstroms)
 Number     Number       Type             X           Y           Z
 ---------------------------------------------------------------------
      1         11           0        2.922188   -1.331412    0.436821
      2         11           0        6.002889   -1.317352   -0.199992
      3         11           0        3.779103    1.868090   -0.034889
      4         11           0        0.183352    2.260681    0.040322
      5         11           0       -0.921839   -0.956110   -0.314089
      6         11           0       -4.330286   -0.168584    0.093007
      7         11           0       -7.635408   -0.355313   -0.021180
 ---------------------------------------------------------------------

 SCF Done:  E(UB3LYP) =  -1136.11623958     A.U. after   21 cycles

 The electronic state is 2-A.
 Alpha  occ. eigenvalues --  -38.45045 -38.45025 -38.44728 -38.44634 -38.43975
 Alpha  occ. eigenvalues --  -38.43799 -38.43401  -2.20873  -2.20872  -2.20533
 Alpha  occ. eigenvalues --   -2.20421  -2.19800  -2.19575  -2.19185  -1.14595
 Alpha  occ. eigenvalues --   -1.14558  -1.14543  -1.14511  -1.14505  -1.14449
 Alpha  occ. eigenvalues --   -1.14196  -1.14191  -1.14150  -1.14103  -1.14074
 Alpha  occ. eigenvalues --   -1.14061  -1.13461  -1.13451  -1.13426  -1.13229
 Alpha  occ. eigenvalues --   -1.13228  -1.13214  -1.12871  -1.12868  -1.12810
 Alpha  occ. eigenvalues --   -0.16766  -0.13992  -0.12229  -0.11201
 Alpha virt. eigenvalues --   -0.06931  -0.05733  -0.04424  -0.03594  -0.03325
 Alpha virt. eigenvalues --   -0.02564  -0.02014  -0.01618  -0.01335  -0.00879
 Alpha virt. eigenvalues --   -0.00731  -0.00268   0.00001   0.00332   0.00571

  Beta  occ. eigenvalues --  -38.45000 -38.44972 -38.44720 -38.44615 -38.43929
  Beta  occ. eigenvalues --  -38.43766 -38.43409  -2.20828  -2.20738  -2.20520
  Beta  occ. eigenvalues --   -2.20389  -2.19711  -2.19513  -2.19203  -1.14538
  Beta  occ. eigenvalues --   -1.14526  -1.14473  -1.14456  -1.14438  -1.14342
  Beta  occ. eigenvalues --   -1.14183  -1.14177  -1.14144  -1.14086  -1.14059
  Beta  occ. eigenvalues --   -1.14007  -1.13399  -1.13389  -1.13376  -1.13186
  Beta  occ. eigenvalues --   -1.13186  -1.13174  -1.12885  -1.12883  -1.12802
  Beta  occ. eigenvalues --   -0.16156  -0.13799  -0.11634
  Beta virt. eigenvalues --   -0.07856  -0.06567  -0.05250  -0.04223  -0.03351
  Beta virt. eigenvalues --   -0.02643  -0.02513  -0.01733  -0.01469  -0.01213
  Beta virt. eigenvalues --   -0.00537  -0.00345   0.00000   0.00113   0.00415

 Mulliken charges and spin densities:
               1          2
     1  Na  -1.196395   0.212567
     2  Na   1.180473  -0.006903
     3  Na   0.249171   0.163875
     4  Na  -0.139539   0.285671
     5  Na  -1.000715   0.247446
     6  Na   0.514118   0.087602
     7  Na   0.392887   0.009742
 Sum of Mulliken charges =  -0.00000   1.00000

 Dipole moment (field-independent basis, Debye):
    X=              3.1751    Y=              0.2114    Z=             -0.1342  Tot=              3.1849
 Quadrupole moment (field-independent basis, Debye-Ang):
   XX=            -53.2826   YY=            -68.2689   ZZ=            -73.8934
   XY=             -2.7346   XZ=             -1.3649   YZ=              0.2147

 Normal termination of Gaussian 16 at Tue Nov 28 20:40:04 2023.
