 Gaussian 16, Revision B.01,
 Gaussian 16:  ES64L-G16RevB.01 20-Dec-2017

 -------------------------
 #P B3LYP/6-311+g(d) force
 -------------------------

 -----
 DPGEN
 -----
 Symbolic Z-matrix:
 Charge =  0 Multiplicity = 2

                         Standard orientation:
 ---------------------------------------------------------------------
 Center     Atomic      Atomic             Coordinates (Angstroms)
 Number     Number       Type             X           Y           Z
 ---------------------------------------------------------------------
      1         11           0       -0.487043    0.177959    2.109491
      2         11           0        1.608452    2.344739   -0.088058
      3         11           0        3.188771   -0.471066   -0.114915
      4         11           0       -2.163944    2.160665   -0.220032
      5         11           0        0.077063   -2.647889    0.433950
      6         11           0       -2.686147   -1.086408   -0.637458
      7         11           0        0.462848   -0.478000   -1.482978
 ---------------------------------------------------------------------

 SCF Done:  E(UB3LYP) =  -1136.13341505     A.U. after   19 cycles

 The electronic state is 2-A.
 Alpha  occ. eigenvalues --  -38.44147 -38.43765 -38.43646 -38.43514 -38.43497
 Alpha  occ. eigenvalues --  -38.43287 -38.43118  -2.20018  -2.19656  -2.19548
 Alpha  occ. eigenvalues --   -2.19372  -2.19339  -2.19331  -2.19051  -1.13739
 Alpha  occ. eigenvalues --   -1.13672  -1.13645  -1.13351  -1.13307  -1.13302
 Alpha  occ. eigenvalues --   -1.13217  -1.13175  -1.13171  -1.13113  -1.13075
 Alpha  occ. eigenvalues --   -1.13040  -1.13000  -1.12996  -1.12992  -1.12967
 Alpha  occ. eigenvalues --   -1.12961  -1.12954  -1.12710  -1.12689  -1.12651
 Alpha  occ. eigenvalues --   -0.18966  -0.13380  -0.12362  -0.10980
 Alpha virt. eigenvalues --   -0.05595  -0.05153  -0.04405  -0.03323  -0.03003
 Alpha virt. eigenvalues --   -0.02584  -0.01562  -0.00929  -0.00202  -0.00198
 Alpha virt. eigenvalues --    0.00029   0.00347   0.00810   0.00908   0.00923

  Beta  occ. eigenvalues --  -38.44145 -38.43744 -38.43547 -38.43511 -38.43492
  Beta  occ. eigenvalues --  -38.43240 -38.43103  -2.20016  -2.19621  -2.19370
  Beta  occ. eigenvalues --   -2.19364  -2.19326  -2.19254  -2.19028  -1.13732
  Beta  occ. eigenvalues --   -1.13669  -1.13637  -1.13322  -1.13282  -1.13264
  Beta  occ. eigenvalues --   -1.13102  -1.13078  -1.13054  -1.13048  -1.13043
  Beta  occ. eigenvalues --   -1.13025  -1.12992  -1.12985  -1.12975  -1.12956
  Beta  occ. eigenvalues --   -1.12908  -1.12890  -1.12688  -1.12642  -1.12635
  Beta  occ. eigenvalues --   -0.18246  -0.13118  -0.12145
  Beta virt. eigenvalues --   -0.07008  -0.05508  -0.05150  -0.04359  -0.02598
  Beta virt. eigenvalues --   -0.02200  -0.01574  -0.01419  -0.00877  -0.00220
  Beta virt. eigenvalues --   -0.00162   0.00141   0.00396   0.00885   0.00910

 Mulliken charges and spin densities:
               1          2
     1  Na  -0.544552   0.640532
     2  Na  -0.012026  -0.067200
     3  Na   0.395370   0.003589
     4  Na  -0.021691  -0.016936
     5  Na   0.305131   0.100919
     6  Na   0.256020   0.066928
     7  Na  -0.378250   0.272169
 Sum of Mulliken charges =  -0.00000   1.00000

 Dipole moment (field-independent basis, Debye):
    X=              0.2083    Y=              0.0715    Z=              0.1879  Tot=              0.2895
 Quadrupole moment (field-independent basis, Debye-Ang):
   XX=            -56.3686   YY=            -65.0361   ZZ=            -72.9325
   XY=             -0.3919   XZ=              1.8829   YZ=             -1.0527

 Normal termination of Gaussian 16 at Thu Dec  7 22:48:16 2023.
