 Gaussian 16, Revision B.01,
 Gaussian 16:  ES64L-G16RevB.01 20-Dec-2017

 -------------------------
 #P B3LYP/6-311+g(d) force
 -------------------------

 -----
 DPGEN
 -----
 Symbolic Z-matrix:
 Charge =  0 Multiplicity = 2

                         Standard orientation:
 ---------------------------------------------------------------------
 Center     Atomic      Atomic             Coordinates (Angstroms)
 Number     Number       Type             X           Y           Z
 ---------------------------------------------------------------------
      1         11           0        3.614393    0.011912   -0.534108
      2         11           0        0.574598    2.470884   -1.224893
      3         11           0       -2.000790   -0.770663    1.963377
      4         11           0        0.840082   -2.473155   -0.317806
      5         11           0        1.340534    0.609284    2.207758
      6         11           0       -1.744634   -1.529964   -1.848553
      7         11           0       -2.624183    1.681702   -0.245776
 ---------------------------------------------------------------------

 SCF Done:  E(UB3LYP) =  -1136.12584432     A.U. after   21 cycles

 The electronic state is 2-A.
 Alpha  occ. eigenvalues --  -38.44934 -38.44662 -38.44497 -38.44036 -38.43898
 Alpha  occ. eigenvalues --  -38.43479 -38.43082  -2.20732  -2.20489  -2.20267
 Alpha  occ. eigenvalues --   -2.19865  -2.19674  -2.19302  -2.18904  -1.14406
 Alpha  occ. eigenvalues --   -1.14378  -1.14352  -1.14155  -1.14143  -1.14102
 Alpha  occ. eigenvalues --   -1.13943  -1.13917  -1.13905  -1.13554  -1.13505
 Alpha  occ. eigenvalues --   -1.13487  -1.13353  -1.13340  -1.13296  -1.12979
 Alpha  occ. eigenvalues --   -1.12964  -1.12942  -1.12605  -1.12567  -1.12527
 Alpha  occ. eigenvalues --   -0.17505  -0.13008  -0.11868  -0.11692
 Alpha virt. eigenvalues --   -0.06080  -0.05130  -0.04813  -0.03563  -0.03249
 Alpha virt. eigenvalues --   -0.03141  -0.01581  -0.00721  -0.00615  -0.00286
 Alpha virt. eigenvalues --   -0.00079   0.00187   0.00399   0.00523   0.00705

  Beta  occ. eigenvalues --  -38.44875 -38.44599 -38.44494 -38.43996 -38.43872
  Beta  occ. eigenvalues --  -38.43477 -38.43077  -2.20625  -2.20376  -2.20262
  Beta  occ. eigenvalues --   -2.19791  -2.19626  -2.19300  -2.18898  -1.14332
  Beta  occ. eigenvalues --   -1.14308  -1.14261  -1.14078  -1.14062  -1.14015
  Beta  occ. eigenvalues --   -1.13934  -1.13915  -1.13903  -1.13502  -1.13453
  Beta  occ. eigenvalues --   -1.13437  -1.13317  -1.13311  -1.13261  -1.12968
  Beta  occ. eigenvalues --   -1.12955  -1.12944  -1.12593  -1.12553  -1.12525
  Beta  occ. eigenvalues --   -0.16772  -0.12911  -0.11417
  Beta virt. eigenvalues --   -0.07996  -0.05843  -0.04764  -0.04481  -0.03332
  Beta virt. eigenvalues --   -0.02667  -0.02324  -0.01499  -0.00567  -0.00334
  Beta virt. eigenvalues --   -0.00160   0.00002   0.00305   0.00464   0.00646

 Mulliken charges and spin densities:
               1          2
     1  Na   0.373779  -0.058255
     2  Na  -0.169145   0.187278
     3  Na   0.105247   0.330229
     4  Na  -0.390430   0.200727
     5  Na  -0.127309   0.219480
     6  Na   0.211013   0.070026
     7  Na  -0.003153   0.050515
 Sum of Mulliken charges =  -0.00000   1.00000

 Dipole moment (field-independent basis, Debye):
    X=              0.3937    Y=              0.0689    Z=              0.1901  Tot=              0.4426
 Quadrupole moment (field-independent basis, Debye-Ang):
   XX=            -57.7049   YY=            -76.0217   ZZ=            -64.3360
   XY=              0.7898   XZ=             -1.4611   YZ=             -0.9576

 Normal termination of Gaussian 16 at Mon Dec  4 03:42:50 2023.
