 Gaussian 16, Revision B.01,
 Gaussian 16:  ES64L-G16RevB.01 20-Dec-2017

 -------------------------
 #P B3LYP/6-311+g(d) force
 -------------------------

 -----
 DPGEN
 -----
 Symbolic Z-matrix:
 Charge =  0 Multiplicity = 2

                         Standard orientation:
 ---------------------------------------------------------------------
 Center     Atomic      Atomic             Coordinates (Angstroms)
 Number     Number       Type             X           Y           Z
 ---------------------------------------------------------------------
      1         11           0       -3.881015   -0.025971   -1.417204
      2         11           0        3.718681    0.077605   -1.335835
      3         11           0        6.314818   -1.189088    0.269712
      4         11           0       -2.005729    2.713290    0.201925
      5         11           0       -3.815972   -2.682666   -0.054006
      6         11           0        0.972790    1.655041    0.442577
      7         11           0       -1.303573   -0.548211    1.892830
 ---------------------------------------------------------------------

 SCF Done:  E(UB3LYP) =  -1136.11208337     A.U. after   20 cycles

 The electronic state is 2-A.
 Alpha  occ. eigenvalues --  -38.45077 -38.44767 -38.44443 -38.43991 -38.43966
 Alpha  occ. eigenvalues --  -38.43830 -38.43670  -2.20834  -2.20576  -2.20221
 Alpha  occ. eigenvalues --   -2.19842  -2.19805  -2.19676  -2.19495  -1.14496
 Alpha  occ. eigenvalues --   -1.14494  -1.14472  -1.14262  -1.14226  -1.14175
 Alpha  occ. eigenvalues --   -1.13892  -1.13886  -1.13858  -1.13557  -1.13498
 Alpha  occ. eigenvalues --   -1.13492  -1.13471  -1.13466  -1.13419  -1.13384
 Alpha  occ. eigenvalues --   -1.13337  -1.13314  -1.13146  -1.13127  -1.13110
 Alpha  occ. eigenvalues --   -0.16622  -0.13868  -0.12175  -0.10739
 Alpha virt. eigenvalues --   -0.07366  -0.05100  -0.04552  -0.03647  -0.02832
 Alpha virt. eigenvalues --   -0.02719  -0.02239  -0.01741  -0.01009  -0.00767
 Alpha virt. eigenvalues --   -0.00530  -0.00108   0.00294   0.00405   0.00513

  Beta  occ. eigenvalues --  -38.45067 -38.44697 -38.44446 -38.43960 -38.43937
  Beta  occ. eigenvalues --  -38.43793 -38.43665  -2.20814  -2.20447  -2.20228
  Beta  occ. eigenvalues --   -2.19796  -2.19742  -2.19607  -2.19487  -1.14483
  Beta  occ. eigenvalues --   -1.14481  -1.14459  -1.14172  -1.14138  -1.14079
  Beta  occ. eigenvalues --   -1.13898  -1.13889  -1.13860  -1.13518  -1.13473
  Beta  occ. eigenvalues --   -1.13450  -1.13429  -1.13413  -1.13379  -1.13340
  Beta  occ. eigenvalues --   -1.13291  -1.13266  -1.13142  -1.13109  -1.13091
  Beta  occ. eigenvalues --   -0.15948  -0.13719  -0.12100
  Beta virt. eigenvalues --   -0.07290  -0.06778  -0.04804  -0.04076  -0.03371
  Beta virt. eigenvalues --   -0.02624  -0.02307  -0.01793  -0.01661  -0.00883
  Beta virt. eigenvalues --   -0.00634  -0.00192   0.00129   0.00343   0.00483

 Mulliken charges and spin densities:
               1          2
     1  Na  -0.383481   0.216916
     2  Na  -0.088663  -0.023107
     3  Na   0.226544   0.036609
     4  Na   0.636594   0.380130
     5  Na   0.474553   0.005062
     6  Na  -0.729250   0.021611
     7  Na  -0.136297   0.362778
 Sum of Mulliken charges =  -0.00000   1.00000

 Dipole moment (field-independent basis, Debye):
    X=              1.3333    Y=             -0.4556    Z=              0.4759  Tot=              1.4872
 Quadrupole moment (field-independent basis, Debye-Ang):
   XX=            -61.3991   YY=            -67.2803   ZZ=            -67.9764
   XY=             -2.5877   XZ=              2.5829   YZ=             -0.9558

 Normal termination of Gaussian 16 at Mon Dec  4 04:18:18 2023.
