 Gaussian 16, Revision B.01,
 Gaussian 16:  ES64L-G16RevB.01 20-Dec-2017

 -------------------------
 #P B3LYP/6-311+g(d) force
 -------------------------

 -----
 DPGEN
 -----
 Symbolic Z-matrix:
 Charge =  0 Multiplicity = 2

                         Standard orientation:
 ---------------------------------------------------------------------
 Center     Atomic      Atomic             Coordinates (Angstroms)
 Number     Number       Type             X           Y           Z
 ---------------------------------------------------------------------
      1         11           0        1.301586   -1.787104   -0.087097
      2         11           0        5.378449   -0.510959   -0.607630
      3         11           0        2.707127    1.558951   -0.296187
      4         11           0       -0.644960    2.000117   -0.006986
      5         11           0       -2.353404   -0.931776   -1.072106
      6         11           0       -0.545878   -0.372387    2.595896
      7         11           0       -5.842919    0.043158   -0.525889
 ---------------------------------------------------------------------

 SCF Done:  E(UB3LYP) =  -1136.11012733     A.U. after   26 cycles

 The electronic state is 2-A.
 Alpha  occ. eigenvalues --  -38.45303 -38.45261 -38.44621 -38.44059 -38.44043
 Alpha  occ. eigenvalues --  -38.44042 -38.43774  -2.21089  -2.21071  -2.20482
 Alpha  occ. eigenvalues --   -2.19902  -2.19835  -2.19807  -2.19498  -1.14773
 Alpha  occ. eigenvalues --   -1.14756  -1.14748  -1.14735  -1.14711  -1.14651
 Alpha  occ. eigenvalues --   -1.14157  -1.14121  -1.14093  -1.13592  -1.13568
 Alpha  occ. eigenvalues --   -1.13533  -1.13532  -1.13508  -1.13478  -1.13469
 Alpha  occ. eigenvalues --   -1.13433  -1.13424  -1.13181  -1.13177  -1.13130
 Alpha  occ. eigenvalues --   -0.17625  -0.13239  -0.11761  -0.11070
 Alpha virt. eigenvalues --   -0.07509  -0.05819  -0.04540  -0.03338  -0.02874
 Alpha virt. eigenvalues --   -0.02567  -0.02322  -0.02022  -0.01467  -0.00891
 Alpha virt. eigenvalues --   -0.00293   0.00118   0.00231   0.00388   0.00482

  Beta  occ. eigenvalues --  -38.45283 -38.45197 -38.44540 -38.44045 -38.44023
  Beta  occ. eigenvalues --  -38.44020 -38.43797  -2.21054  -2.20954  -2.20335
  Beta  occ. eigenvalues --   -2.19832  -2.19811  -2.19800  -2.19541  -1.14736
  Beta  occ. eigenvalues --   -1.14710  -1.14701  -1.14678  -1.14647  -1.14562
  Beta  occ. eigenvalues --   -1.14057  -1.14003  -1.13994  -1.13549  -1.13526
  Beta  occ. eigenvalues --   -1.13503  -1.13494  -1.13486  -1.13480  -1.13458
  Beta  occ. eigenvalues --   -1.13409  -1.13399  -1.13211  -1.13206  -1.13157
  Beta  occ. eigenvalues --   -0.16767  -0.13162  -0.11096
  Beta virt. eigenvalues --   -0.07634  -0.07211  -0.05674  -0.04024  -0.02785
  Beta virt. eigenvalues --   -0.02643  -0.02130  -0.01931  -0.01803  -0.01147
  Beta virt. eigenvalues --   -0.00825  -0.00222   0.00280   0.00421   0.00490

 Mulliken charges and spin densities:
               1          2
     1  Na  -0.556203   0.539725
     2  Na   0.576724  -0.014348
     3  Na  -0.145880  -0.078841
     4  Na  -0.248573   0.654463
     5  Na  -0.172478  -0.061735
     6  Na   0.329484   0.077193
     7  Na   0.216928  -0.116457
 Sum of Mulliken charges =  -0.00000   1.00000

 Dipole moment (field-independent basis, Debye):
    X=              0.9760    Y=             -0.1795    Z=              1.6097  Tot=              1.8910
 Quadrupole moment (field-independent basis, Debye-Ang):
   XX=            -68.5087   YY=            -69.7959   ZZ=            -67.4323
   XY=             -5.3939   XZ=             -5.7179   YZ=              1.3357

 Normal termination of Gaussian 16 at Tue Nov 28 22:12:03 2023.
