 Gaussian 16, Revision B.01,
 Gaussian 16:  ES64L-G16RevB.01 20-Dec-2017

 -------------------------
 #P B3LYP/6-311+g(d) force
 -------------------------

 -----
 DPGEN
 -----
 Symbolic Z-matrix:
 Charge =  0 Multiplicity = 2

                         Standard orientation:
 ---------------------------------------------------------------------
 Center     Atomic      Atomic             Coordinates (Angstroms)
 Number     Number       Type             X           Y           Z
 ---------------------------------------------------------------------
      1         11           0        2.037772    2.551987   -0.087960
      2         11           0        1.333209   -0.911535    2.063480
      3         11           0        0.306808   -2.594944   -1.266510
      4         11           0       -2.735536   -2.316978    0.563049
      5         11           0        4.112774   -0.779961   -0.697130
      6         11           0       -3.952475    0.649986   -0.558000
      7         11           0       -1.102552    3.401445   -0.016929
 ---------------------------------------------------------------------

 SCF Done:  E(UB3LYP) =  -1136.10884039     A.U. after   25 cycles

 The electronic state is 2-A.
 Alpha  occ. eigenvalues --  -38.45940 -38.45693 -38.44426 -38.44328 -38.43996
 Alpha  occ. eigenvalues --  -38.43852 -38.43667  -2.21671  -2.21433  -2.20206
 Alpha  occ. eigenvalues --   -2.20108  -2.19776  -2.19622  -2.19465  -1.15360
 Alpha  occ. eigenvalues --   -1.15327  -1.15302  -1.15106  -1.15077  -1.15067
 Alpha  occ. eigenvalues --   -1.13889  -1.13879  -1.13847  -1.13795  -1.13782
 Alpha  occ. eigenvalues --   -1.13739  -1.13441  -1.13421  -1.13404  -1.13299
 Alpha  occ. eigenvalues --   -1.13284  -1.13261  -1.13122  -1.13105  -1.13077
 Alpha  occ. eigenvalues --   -0.16168  -0.13414  -0.12678  -0.10027
 Alpha virt. eigenvalues --   -0.07363  -0.06348  -0.04505  -0.03426  -0.02720
 Alpha virt. eigenvalues --   -0.02530  -0.02137  -0.01975  -0.01429  -0.00912
 Alpha virt. eigenvalues --   -0.00608   0.00127   0.00165   0.00335   0.00532

  Beta  occ. eigenvalues --  -38.45944 -38.45658 -38.44426 -38.44317 -38.43945
  Beta  occ. eigenvalues --  -38.43848 -38.43576  -2.21681  -2.21368  -2.20210
  Beta  occ. eigenvalues --   -2.20091  -2.19681  -2.19618  -2.19297  -1.15367
  Beta  occ. eigenvalues --   -1.15325  -1.15308  -1.15059  -1.15033  -1.15015
  Beta  occ. eigenvalues --   -1.13896  -1.13883  -1.13821  -1.13786  -1.13763
  Beta  occ. eigenvalues --   -1.13715  -1.13376  -1.13359  -1.13339  -1.13298
  Beta  occ. eigenvalues --   -1.13280  -1.13246  -1.13006  -1.12990  -1.12966
  Beta  occ. eigenvalues --   -0.15752  -0.12849  -0.12333
  Beta virt. eigenvalues --   -0.07130  -0.06694  -0.06286  -0.04064  -0.03170
  Beta virt. eigenvalues --   -0.02445  -0.02221  -0.01749  -0.01614  -0.01294
  Beta virt. eigenvalues --   -0.00853  -0.00230   0.00212   0.00411   0.00441

 Mulliken charges and spin densities:
               1          2
     1  Na  -0.095882   0.063134
     2  Na  -0.065131   0.189448
     3  Na   0.045795  -0.050277
     4  Na   0.010556   0.037226
     5  Na   0.196311   0.531846
     6  Na  -0.142862   0.272754
     7  Na   0.051212  -0.044130
 Sum of Mulliken charges =  -0.00000   1.00000

 Dipole moment (field-independent basis, Debye):
    X=             -0.0804    Y=             -1.1549    Z=              0.3717  Tot=              1.2159
 Quadrupole moment (field-independent basis, Debye-Ang):
   XX=            -74.0753   YY=            -67.4037   ZZ=            -65.7081
   XY=              1.3797   XZ=              1.1260   YZ=              0.6320

 Normal termination of Gaussian 16 at Sun Dec  3 23:07:29 2023.
