 Gaussian 16, Revision B.01,
 Gaussian 16:  ES64L-G16RevB.01 20-Dec-2017

 -------------------------
 #P B3LYP/6-311+g(d) force
 -------------------------

 -----
 DPGEN
 -----
 Symbolic Z-matrix:
 Charge =  0 Multiplicity = 2

                         Standard orientation:
 ---------------------------------------------------------------------
 Center     Atomic      Atomic             Coordinates (Angstroms)
 Number     Number       Type             X           Y           Z
 ---------------------------------------------------------------------
      1         11           0        1.216586    3.142161    0.170090
      2         11           0       -2.370239    1.406120   -0.732308
      3         11           0       -3.055698   -1.204789    0.367093
      4         11           0        0.349232   -2.950924   -0.523499
      5         11           0        3.084033   -1.156941    0.128772
      6         11           0        0.735582    0.570155   -1.523790
      7         11           0        0.040504    0.194216    2.113640
 ---------------------------------------------------------------------

 SCF Done:  E(UB3LYP) =  -1136.12959003     A.U. after   19 cycles

 The electronic state is 2-A.
 Alpha  occ. eigenvalues --  -38.44332 -38.44004 -38.43909 -38.43873 -38.43833
 Alpha  occ. eigenvalues --  -38.43719 -38.43198  -2.20152  -2.19808  -2.19794
 Alpha  occ. eigenvalues --   -2.19689  -2.19679  -2.19562  -2.19155  -1.13831
 Alpha  occ. eigenvalues --   -1.13812  -1.13793  -1.13574  -1.13486  -1.13471
 Alpha  occ. eigenvalues --   -1.13467  -1.13437  -1.13421  -1.13393  -1.13349
 Alpha  occ. eigenvalues --   -1.13336  -1.13326  -1.13308  -1.13292  -1.13201
 Alpha  occ. eigenvalues --   -1.13190  -1.13184  -1.12829  -1.12814  -1.12767
 Alpha  occ. eigenvalues --   -0.18183  -0.13059  -0.12429  -0.10713
 Alpha virt. eigenvalues --   -0.05835  -0.05320  -0.04751  -0.03239  -0.03020
 Alpha virt. eigenvalues --   -0.02627  -0.01515  -0.01421  -0.00534  -0.00240
 Alpha virt. eigenvalues --   -0.00004   0.00349   0.00756   0.00799   0.00867

  Beta  occ. eigenvalues --  -38.44330 -38.43997 -38.43890 -38.43872 -38.43733
  Beta  occ. eigenvalues --  -38.43718 -38.43150  -2.20151  -2.19797  -2.19762
  Beta  occ. eigenvalues --   -2.19690  -2.19563  -2.19494  -2.19067  -1.13826
  Beta  occ. eigenvalues --   -1.13809  -1.13784  -1.13560  -1.13471  -1.13456
  Beta  occ. eigenvalues --   -1.13439  -1.13430  -1.13394  -1.13388  -1.13334
  Beta  occ. eigenvalues --   -1.13318  -1.13218  -1.13192  -1.13188  -1.13180
  Beta  occ. eigenvalues --   -1.13180  -1.13156  -1.12771  -1.12744  -1.12702
  Beta  occ. eigenvalues --   -0.17475  -0.12868  -0.12239
  Beta virt. eigenvalues --   -0.06808  -0.05828  -0.05172  -0.04682  -0.02540
  Beta virt. eigenvalues --   -0.02321  -0.01596  -0.01444  -0.01331  -0.00523
  Beta virt. eigenvalues --   -0.00237   0.00142   0.00396   0.00772   0.00853

 Mulliken charges and spin densities:
               1          2
     1  Na   0.018123  -0.002162
     2  Na  -0.172215   0.049854
     3  Na   0.130503   0.008200
     4  Na  -0.198920   0.046096
     5  Na   0.241292   0.022425
     6  Na   0.357896   0.147152
     7  Na  -0.376679   0.728435
 Sum of Mulliken charges =  -0.00000   1.00000

 Dipole moment (field-independent basis, Debye):
    X=              0.5351    Y=             -0.0903    Z=              0.1878  Tot=              0.5742
 Quadrupole moment (field-independent basis, Debye-Ang):
   XX=            -59.3044   YY=            -60.7954   ZZ=            -74.5412
   XY=              1.4595   XZ=              1.2689   YZ=              0.5100

 Normal termination of Gaussian 16 at Fri Dec  8 03:35:01 2023.
