 Gaussian 16, Revision B.01,
 Gaussian 16:  ES64L-G16RevB.01 20-Dec-2017

 -------------------------
 #P B3LYP/6-311+g(d) force
 -------------------------

 -----
 DPGEN
 -----
 Symbolic Z-matrix:
 Charge =  0 Multiplicity = 2

                         Standard orientation:
 ---------------------------------------------------------------------
 Center     Atomic      Atomic             Coordinates (Angstroms)
 Number     Number       Type             X           Y           Z
 ---------------------------------------------------------------------
      1         11           0       -0.227230   -0.394834   -1.791905
      2         11           0        1.157980    2.810922    0.206377
      3         11           0       -2.124921    1.840492   -0.313455
      4         11           0        2.786989   -0.226193   -0.407728
      5         11           0       -2.778719   -1.359774    0.278949
      6         11           0        0.956002   -2.710185    0.183239
      7         11           0        0.229899    0.039572    1.844522
 ---------------------------------------------------------------------

 SCF Done:  E(UB3LYP) =  -1136.13900069     A.U. after   19 cycles

 The electronic state is 2-A.
 Alpha  occ. eigenvalues --  -38.43737 -38.43587 -38.43543 -38.43446 -38.43331
 Alpha  occ. eigenvalues --  -38.43327 -38.43237  -2.19580  -2.19502  -2.19424
 Alpha  occ. eigenvalues --   -2.19354  -2.19305  -2.19293  -2.19086  -1.13264
 Alpha  occ. eigenvalues --   -1.13250  -1.13232  -1.13224  -1.13178  -1.13147
 Alpha  occ. eigenvalues --   -1.13132  -1.13085  -1.13056  -1.13043  -1.13037
 Alpha  occ. eigenvalues --   -1.12969  -1.12963  -1.12953  -1.12917  -1.12914
 Alpha  occ. eigenvalues --   -1.12911  -1.12909  -1.12752  -1.12736  -1.12731
 Alpha  occ. eigenvalues --   -0.19076  -0.13148  -0.12576  -0.10947
 Alpha virt. eigenvalues --   -0.05250  -0.05019  -0.04801  -0.03315  -0.02965
 Alpha virt. eigenvalues --   -0.02570  -0.01285  -0.01100  -0.00172  -0.00120
 Alpha virt. eigenvalues --    0.00042   0.00375   0.00887   0.00915   0.00919

  Beta  occ. eigenvalues --  -38.43732 -38.43575 -38.43535 -38.43437 -38.43252
  Beta  occ. eigenvalues --  -38.43250 -38.43235  -2.19575  -2.19484  -2.19413
  Beta  occ. eigenvalues --   -2.19343  -2.19167  -2.19144  -2.19084  -1.13262
  Beta  occ. eigenvalues --   -1.13235  -1.13221  -1.13212  -1.13152  -1.13117
  Beta  occ. eigenvalues --   -1.13112  -1.13060  -1.13040  -1.13037  -1.12992
  Beta  occ. eigenvalues --   -1.12954  -1.12885  -1.12859  -1.12826  -1.12821
  Beta  occ. eigenvalues --   -1.12814  -1.12808  -1.12734  -1.12731  -1.12721
  Beta  occ. eigenvalues --   -0.18327  -0.12885  -0.12337
  Beta virt. eigenvalues --   -0.07004  -0.05226  -0.04992  -0.04769  -0.02486
  Beta virt. eigenvalues --   -0.02210  -0.01515  -0.01203  -0.01024  -0.00177
  Beta virt. eigenvalues --   -0.00161   0.00140   0.00394   0.00904   0.00916

 Mulliken charges and spin densities:
               1          2
     1  Na  -0.213676   0.500172
     2  Na   0.034217  -0.070936
     3  Na   0.088350  -0.045632
     4  Na   0.228688   0.028842
     5  Na   0.040414  -0.076554
     6  Na   0.220050  -0.065733
     7  Na  -0.398043   0.729842
 Sum of Mulliken charges =  -0.00000   1.00000

 Dipole moment (field-independent basis, Debye):
    X=             -0.1507    Y=             -0.1495    Z=              0.0340  Tot=              0.2150
 Quadrupole moment (field-independent basis, Debye-Ang):
   XX=            -59.4736   YY=            -61.3630   ZZ=            -73.2317
   XY=              0.6466   XZ=             -1.1446   YZ=             -1.1434

 Normal termination of Gaussian 16 at Thu Dec  7 10:06:14 2023.
