 Gaussian 16, Revision B.01,
 Gaussian 16:  ES64L-G16RevB.01 20-Dec-2017

 -------------------------
 #P B3LYP/6-311+g(d) force
 -------------------------

 -----
 DPGEN
 -----
 Symbolic Z-matrix:
 Charge =  0 Multiplicity = 2

                         Standard orientation:
 ---------------------------------------------------------------------
 Center     Atomic      Atomic             Coordinates (Angstroms)
 Number     Number       Type             X           Y           Z
 ---------------------------------------------------------------------
      1         11           0        1.815078    1.558100   -1.132528
      2         11           0        4.367868   -0.959441   -0.250474
      3         11           0       -3.821949   -0.249462   -1.426338
      4         11           0       -1.472217    1.947797    0.803821
      5         11           0        1.234246    0.231773    1.640154
      6         11           0       -2.218289   -1.396823    1.373425
      7         11           0        0.095264   -1.131944   -1.008059
 ---------------------------------------------------------------------

 SCF Done:  E(UB3LYP) =  -1136.11579837     A.U. after   31 cycles

 The electronic state is 2-A.
 Alpha  occ. eigenvalues --  -38.45359 -38.44584 -38.44175 -38.44009 -38.43866
 Alpha  occ. eigenvalues --  -38.43237 -38.43091  -2.21236  -2.20337  -2.20082
 Alpha  occ. eigenvalues --   -2.19890  -2.19665  -2.19204  -2.18956  -1.14973
 Alpha  occ. eigenvalues --   -1.14933  -1.14815  -1.14021  -1.14014  -1.13959
 Alpha  occ. eigenvalues --   -1.13800  -1.13761  -1.13633  -1.13585  -1.13551
 Alpha  occ. eigenvalues --   -1.13493  -1.13330  -1.13322  -1.13284  -1.12927
 Alpha  occ. eigenvalues --   -1.12861  -1.12802  -1.12629  -1.12617  -1.12580
 Alpha  occ. eigenvalues --   -0.18569  -0.14075  -0.10969  -0.10728
 Alpha virt. eigenvalues --   -0.07379  -0.05096  -0.04806  -0.03087  -0.02822
 Alpha virt. eigenvalues --   -0.02257  -0.02125  -0.01313  -0.01203  -0.00272
 Alpha virt. eigenvalues --   -0.00112   0.00191   0.00330   0.00557   0.00695

  Beta  occ. eigenvalues --  -38.45336 -38.44594 -38.44130 -38.43967 -38.43837
  Beta  occ. eigenvalues --  -38.43208 -38.43077  -2.21200  -2.20355  -2.19998
  Beta  occ. eigenvalues --   -2.19815  -2.19609  -2.19153  -2.18933  -1.14918
  Beta  occ. eigenvalues --   -1.14890  -1.14796  -1.14033  -1.14023  -1.13972
  Beta  occ. eigenvalues --   -1.13743  -1.13704  -1.13569  -1.13530  -1.13504
  Beta  occ. eigenvalues --   -1.13423  -1.13291  -1.13277  -1.13249  -1.12897
  Beta  occ. eigenvalues --   -1.12794  -1.12768  -1.12606  -1.12586  -1.12566
  Beta  occ. eigenvalues --   -0.17823  -0.13889  -0.10560
  Beta virt. eigenvalues --   -0.07234  -0.07089  -0.04713  -0.04447  -0.02940
  Beta virt. eigenvalues --   -0.02614  -0.01722  -0.01512  -0.01234  -0.00685
  Beta virt. eigenvalues --   -0.00177  -0.00043   0.00334   0.00352   0.00638

 Mulliken charges and spin densities:
               1          2
     1  Na   0.085541   0.018039
     2  Na   0.168751  -0.059507
     3  Na  -0.075994   0.031742
     4  Na  -0.042807   0.358133
     5  Na  -0.031046   0.190812
     6  Na   0.247317  -0.009603
     7  Na  -0.351762   0.470385
 Sum of Mulliken charges =  -0.00000   1.00000

 Dipole moment (field-independent basis, Debye):
    X=              0.4573    Y=              0.3909    Z=              0.2540  Tot=              0.6530
 Quadrupole moment (field-independent basis, Debye-Ang):
   XX=            -55.7659   YY=            -73.1487   ZZ=            -68.6401
   XY=             -2.0660   XZ=             -0.6004   YZ=             -3.6158

 Normal termination of Gaussian 16 at Tue Dec  5 17:54:09 2023.
