 Gaussian 16, Revision B.01,
 Gaussian 16:  ES64L-G16RevB.01 20-Dec-2017

 -------------------------
 #P B3LYP/6-311+g(d) force
 -------------------------

 -----
 DPGEN
 -----
 Symbolic Z-matrix:
 Charge =  0 Multiplicity = 2

                         Standard orientation:
 ---------------------------------------------------------------------
 Center     Atomic      Atomic             Coordinates (Angstroms)
 Number     Number       Type             X           Y           Z
 ---------------------------------------------------------------------
      1         11           0       -2.703498   -1.222068    0.213942
      2         11           0       -2.087495    2.065665   -0.351384
      3         11           0       -0.296277   -0.344946   -1.760554
      4         11           0        0.225603    0.365806    1.815817
      5         11           0        1.558454    2.645595    0.137222
      6         11           0        0.226737   -2.631482    0.396844
      7         11           0        3.076475   -0.878571   -0.451887
 ---------------------------------------------------------------------

 SCF Done:  E(UB3LYP) =  -1136.13748831     A.U. after   19 cycles

 The electronic state is 2-A.
 Alpha  occ. eigenvalues --  -38.43974 -38.43695 -38.43593 -38.43560 -38.43368
 Alpha  occ. eigenvalues --  -38.43292 -38.43122  -2.19784  -2.19524  -2.19461
 Alpha  occ. eigenvalues --   -2.19454  -2.19344  -2.19249  -2.19055  -1.13456
 Alpha  occ. eigenvalues --   -1.13441  -1.13423  -1.13254  -1.13194  -1.13179
 Alpha  occ. eigenvalues --   -1.13154  -1.13148  -1.13139  -1.13119  -1.13095
 Alpha  occ. eigenvalues --   -1.13056  -1.13030  -1.12979  -1.12942  -1.12923
 Alpha  occ. eigenvalues --   -1.12885  -1.12860  -1.12727  -1.12710  -1.12667
 Alpha  occ. eigenvalues --   -0.18936  -0.12944  -0.12669  -0.10839
 Alpha virt. eigenvalues --   -0.05483  -0.05175  -0.04586  -0.03182  -0.03038
 Alpha virt. eigenvalues --   -0.02444  -0.01457  -0.01109  -0.00330  -0.00092
 Alpha virt. eigenvalues --    0.00011   0.00356   0.00836   0.00881   0.00939

  Beta  occ. eigenvalues --  -38.43964 -38.43692 -38.43584 -38.43553 -38.43298
  Beta  occ. eigenvalues --  -38.43215 -38.43108  -2.19767  -2.19521  -2.19452
  Beta  occ. eigenvalues --   -2.19440  -2.19215  -2.19108  -2.19033  -1.13434
  Beta  occ. eigenvalues --   -1.13429  -1.13411  -1.13238  -1.13179  -1.13166
  Beta  occ. eigenvalues --   -1.13149  -1.13147  -1.13115  -1.13081  -1.13081
  Beta  occ. eigenvalues --   -1.13047  -1.12953  -1.12895  -1.12850  -1.12831
  Beta  occ. eigenvalues --   -1.12787  -1.12763  -1.12706  -1.12671  -1.12639
  Beta  occ. eigenvalues --   -0.18205  -0.12684  -0.12404
  Beta virt. eigenvalues --   -0.06945  -0.05435  -0.05122  -0.04557  -0.02430
  Beta virt. eigenvalues --   -0.02270  -0.01439  -0.01342  -0.01026  -0.00347
  Beta virt. eigenvalues --   -0.00132   0.00130   0.00385   0.00872   0.00897

 Mulliken charges and spin densities:
               1          2
     1  Na   0.230904  -0.020815
     2  Na   0.098533  -0.069298
     3  Na  -0.362328   0.615295
     4  Na  -0.248488   0.530473
     5  Na   0.015747  -0.112546
     6  Na   0.300926   0.062830
     7  Na  -0.035294  -0.005939
 Sum of Mulliken charges =  -0.00000   1.00000

 Dipole moment (field-independent basis, Debye):
    X=              0.1466    Y=              0.1877    Z=             -0.0669  Tot=              0.2474
 Quadrupole moment (field-independent basis, Debye-Ang):
   XX=            -56.9551   YY=            -62.9060   ZZ=            -73.6165
   XY=              0.1800   XZ=             -1.4974   YZ=             -1.5798

 Normal termination of Gaussian 16 at Thu Dec  7 14:08:10 2023.
