 Gaussian 16, Revision B.01,
 Gaussian 16:  ES64L-G16RevB.01 20-Dec-2017

 -------------------------
 #P B3LYP/6-311+g(d) force
 -------------------------

 -----
 DPGEN
 -----
 Symbolic Z-matrix:
 Charge =  0 Multiplicity = 2

                         Standard orientation:
 ---------------------------------------------------------------------
 Center     Atomic      Atomic             Coordinates (Angstroms)
 Number     Number       Type             X           Y           Z
 ---------------------------------------------------------------------
      1         11           0       -0.395012    0.465171    2.033969
      2         11           0        0.213953   -0.955460   -1.699098
      3         11           0       -2.742077    0.272747   -1.056742
      4         11           0       -0.275078    2.467058   -0.352870
      5         11           0        3.202652   -1.871555    0.062352
      6         11           0        2.675350    1.269020    0.128014
      7         11           0       -2.679788   -1.646982    0.884375
 ---------------------------------------------------------------------

 SCF Done:  E(UB3LYP) =  -1136.12132453     A.U. after   22 cycles

 The electronic state is 2-A.
 Alpha  occ. eigenvalues --  -38.44427 -38.44326 -38.44228 -38.44153 -38.44100
 Alpha  occ. eigenvalues --  -38.43599 -38.42444  -2.20405  -2.20237  -2.20091
 Alpha  occ. eigenvalues --   -2.20059  -2.19982  -2.19412  -2.18379  -1.14356
 Alpha  occ. eigenvalues --   -1.14068  -1.14007  -1.13879  -1.13833  -1.13773
 Alpha  occ. eigenvalues --   -1.13763  -1.13749  -1.13729  -1.13706  -1.13703
 Alpha  occ. eigenvalues --   -1.13677  -1.13670  -1.13644  -1.13610  -1.13084
 Alpha  occ. eigenvalues --   -1.13066  -1.13051  -1.12058  -1.12042  -1.12014
 Alpha  occ. eigenvalues --   -0.18836  -0.14025  -0.11628  -0.11555
 Alpha virt. eigenvalues --   -0.06194  -0.05399  -0.04237  -0.03389  -0.03038
 Alpha virt. eigenvalues --   -0.02737  -0.01954  -0.00960  -0.00347  -0.00100
 Alpha virt. eigenvalues --    0.00168   0.00301   0.00493   0.00616   0.00856

  Beta  occ. eigenvalues --  -38.44400 -38.44295 -38.44176 -38.44099 -38.44078
  Beta  occ. eigenvalues --  -38.43603 -38.42429  -2.20359  -2.20184  -2.19997
  Beta  occ. eigenvalues --   -2.19979  -2.19921  -2.19421  -2.18355  -1.14321
  Beta  occ. eigenvalues --   -1.14018  -1.13973  -1.13827  -1.13787  -1.13723
  Beta  occ. eigenvalues --   -1.13715  -1.13678  -1.13664  -1.13657  -1.13639
  Beta  occ. eigenvalues --   -1.13625  -1.13612  -1.13609  -1.13555  -1.13090
  Beta  occ. eigenvalues --   -1.13069  -1.13056  -1.12046  -1.12029  -1.11967
  Beta  occ. eigenvalues --   -0.18047  -0.13844  -0.11439
  Beta virt. eigenvalues --   -0.07516  -0.06017  -0.05306  -0.03654  -0.03198
  Beta virt. eigenvalues --   -0.02372  -0.01853  -0.01837  -0.00791  -0.00238
  Beta virt. eigenvalues --   -0.00000   0.00200   0.00338   0.00682   0.00736

 Mulliken charges and spin densities:
               1          2
     1  Na  -0.201307   0.347827
     2  Na  -0.543904   0.224401
     3  Na   0.747654   0.073797
     4  Na  -0.026955   0.242486
     5  Na   0.108131  -0.090116
     6  Na  -0.014263  -0.002545
     7  Na  -0.069356   0.204151
 Sum of Mulliken charges =  -0.00000   1.00000

 Dipole moment (field-independent basis, Debye):
    X=             -0.0441    Y=             -0.1122    Z=              0.1888  Tot=              0.2240
 Quadrupole moment (field-independent basis, Debye-Ang):
   XX=            -57.9856   YY=            -70.3970   ZZ=            -69.7321
   XY=              0.8264   XZ=              2.1185   YZ=             -3.6436

 Normal termination of Gaussian 16 at Tue Dec  5 23:54:01 2023.
