 Gaussian 16, Revision B.01,
 Gaussian 16:  ES64L-G16RevB.01 20-Dec-2017

 -------------------------
 #P B3LYP/6-311+g(d) force
 -------------------------

 -----
 DPGEN
 -----
 Symbolic Z-matrix:
 Charge =  0 Multiplicity = 2

                         Standard orientation:
 ---------------------------------------------------------------------
 Center     Atomic      Atomic             Coordinates (Angstroms)
 Number     Number       Type             X           Y           Z
 ---------------------------------------------------------------------
      1         11           0       -3.607238    0.958724    0.515950
      2         11           0       -0.248745   -0.399726    2.004114
      3         11           0       -2.828421   -1.869872   -0.566126
      4         11           0        2.809878    1.739644    0.085412
      5         11           0        0.873880   -0.952999   -1.425990
      6         11           0       -0.580783    1.889077   -0.951724
      7         11           0        3.581428   -1.364848    0.338364
 ---------------------------------------------------------------------

 SCF Done:  E(UB3LYP) =  -1136.11330493     A.U. after   30 cycles

 The electronic state is 2-A.
 Alpha  occ. eigenvalues --  -38.45869 -38.45338 -38.44508 -38.44327 -38.44217
 Alpha  occ. eigenvalues --  -38.43574 -38.42085  -2.21643  -2.21163  -2.20339
 Alpha  occ. eigenvalues --   -2.20169  -2.20034  -2.19497  -2.17972  -1.15343
 Alpha  occ. eigenvalues --   -1.15290  -1.15252  -1.14852  -1.14810  -1.14799
 Alpha  occ. eigenvalues --   -1.14034  -1.14013  -1.13985  -1.13839  -1.13817
 Alpha  occ. eigenvalues --   -1.13796  -1.13713  -1.13682  -1.13674  -1.13198
 Alpha  occ. eigenvalues --   -1.13139  -1.13104  -1.11680  -1.11628  -1.11591
 Alpha  occ. eigenvalues --   -0.18272  -0.14525  -0.10758  -0.10710
 Alpha virt. eigenvalues --   -0.07650  -0.05984  -0.04252  -0.03152  -0.02964
 Alpha virt. eigenvalues --   -0.02392  -0.02261  -0.01566  -0.00785  -0.00636
 Alpha virt. eigenvalues --   -0.00015   0.00149   0.00281   0.00533   0.00553

  Beta  occ. eigenvalues --  -38.45824 -38.45329 -38.44509 -38.44311 -38.44198
  Beta  occ. eigenvalues --  -38.43505 -38.42058  -2.21560  -2.21147  -2.20345
  Beta  occ. eigenvalues --   -2.20140  -2.20001  -2.19374  -2.17927  -1.15279
  Beta  occ. eigenvalues --   -1.15231  -1.15190  -1.14839  -1.14797  -1.14784
  Beta  occ. eigenvalues --   -1.14038  -1.14009  -1.13975  -1.13814  -1.13800
  Beta  occ. eigenvalues --   -1.13773  -1.13694  -1.13656  -1.13637  -1.13114
  Beta  occ. eigenvalues --   -1.13040  -1.13017  -1.11644  -1.11571  -1.11567
  Beta  occ. eigenvalues --   -0.17592  -0.14272  -0.10577
  Beta virt. eigenvalues --   -0.07369  -0.06960  -0.05937  -0.03655  -0.02974
  Beta virt. eigenvalues --   -0.02794  -0.01807  -0.01591  -0.01333  -0.00655
  Beta virt. eigenvalues --   -0.00381   0.00042   0.00149   0.00450   0.00603

 Mulliken charges and spin densities:
               1          2
     1  Na   0.650632   0.208878
     2  Na  -0.384810   0.292697
     3  Na  -0.147662   0.031802
     4  Na   0.046333   0.028580
     5  Na  -0.293818   0.254425
     6  Na  -0.395532  -0.013823
     7  Na   0.524858   0.197440
 Sum of Mulliken charges =  -0.00000   1.00000

 Dipole moment (field-independent basis, Debye):
    X=             -0.2107    Y=              0.1494    Z=              0.6832  Tot=              0.7304
 Quadrupole moment (field-independent basis, Debye-Ang):
   XX=            -46.8734   YY=            -75.9985   ZZ=            -72.3986
   XY=             -0.2939   XZ=              0.8946   YZ=              1.4158

 Normal termination of Gaussian 16 at Thu Dec  7 10:01:22 2023.
