 Gaussian 16, Revision B.01,
 Gaussian 16:  ES64L-G16RevB.01 20-Dec-2017

 -------------------------
 #P B3LYP/6-311+g(d) force
 -------------------------

 -----
 DPGEN
 -----
 Symbolic Z-matrix:
 Charge =  0 Multiplicity = 2

                         Standard orientation:
 ---------------------------------------------------------------------
 Center     Atomic      Atomic             Coordinates (Angstroms)
 Number     Number       Type             X           Y           Z
 ---------------------------------------------------------------------
      1         11           0       -3.815769   -0.706653   -0.312433
      2         11           0        2.012172   -1.049292    1.637254
      3         11           0       -0.864280   -2.921278   -0.572073
      4         11           0        1.982982    2.371487   -0.196907
      5         11           0        2.996452   -0.949877   -1.553842
      6         11           0       -0.644662    0.450527    1.691392
      7         11           0       -1.666895    2.805087   -0.693391
 ---------------------------------------------------------------------

 SCF Done:  E(UB3LYP) =  -1136.12375547     A.U. after   19 cycles

 The electronic state is 2-A.
 Alpha  occ. eigenvalues --  -38.44502 -38.44493 -38.44254 -38.44214 -38.44030
 Alpha  occ. eigenvalues --  -38.43790 -38.43740  -2.20255  -2.20228  -2.20036
 Alpha  occ. eigenvalues --   -2.20020  -2.19802  -2.19680  -2.19640  -1.13937
 Alpha  occ. eigenvalues --   -1.13919  -1.13905  -1.13896  -1.13891  -1.13849
 Alpha  occ. eigenvalues --   -1.13726  -1.13706  -1.13685  -1.13671  -1.13657
 Alpha  occ. eigenvalues --   -1.13640  -1.13492  -1.13480  -1.13467  -1.13428
 Alpha  occ. eigenvalues --   -1.13311  -1.13300  -1.13286  -1.13243  -1.13239
 Alpha  occ. eigenvalues --   -0.17298  -0.13169  -0.12115  -0.10911
 Alpha virt. eigenvalues --   -0.06201  -0.05943  -0.04563  -0.03531  -0.02941
 Alpha virt. eigenvalues --   -0.02416  -0.01710  -0.01201  -0.01055  -0.00696
 Alpha virt. eigenvalues --   -0.00238   0.00402   0.00448   0.00516   0.00607

  Beta  occ. eigenvalues --  -38.44493 -38.44492 -38.44246 -38.44155 -38.44025
  Beta  occ. eigenvalues --  -38.43738 -38.43667  -2.20237  -2.20227  -2.20022
  Beta  occ. eigenvalues --   -2.19911  -2.19793  -2.19592  -2.19512  -1.13923
  Beta  occ. eigenvalues --   -1.13915  -1.13897  -1.13885  -1.13883  -1.13848
  Beta  occ. eigenvalues --   -1.13710  -1.13690  -1.13650  -1.13612  -1.13590
  Beta  occ. eigenvalues --   -1.13568  -1.13473  -1.13465  -1.13422  -1.13388
  Beta  occ. eigenvalues --   -1.13245  -1.13232  -1.13212  -1.13162  -1.13125
  Beta  occ. eigenvalues --   -0.16616  -0.12870  -0.11995
  Beta virt. eigenvalues --   -0.07092  -0.06056  -0.05776  -0.04165  -0.03266
  Beta virt. eigenvalues --   -0.02432  -0.01636  -0.01521  -0.01114  -0.00951
  Beta virt. eigenvalues --   -0.00633   0.00047   0.00491   0.00548   0.00589

 Mulliken charges and spin densities:
               1          2
     1  Na   0.114781   0.080423
     2  Na   0.382350   0.082499
     3  Na  -0.537812   0.068690
     4  Na  -0.706099   0.218171
     5  Na  -0.081647   0.415385
     6  Na   0.735622   0.116207
     7  Na   0.092804   0.018624
 Sum of Mulliken charges =  -0.00000   1.00000

 Dipole moment (field-independent basis, Debye):
    X=             -0.2865    Y=              0.0312    Z=             -0.4942  Tot=              0.5720
 Quadrupole moment (field-independent basis, Debye-Ang):
   XX=            -59.2339   YY=            -66.5885   ZZ=            -71.0574
   XY=             -1.0364   XZ=              1.2836   YZ=             -0.2877

 Normal termination of Gaussian 16 at Mon Dec  4 01:05:31 2023.
