 Gaussian 16, Revision B.01,
 Gaussian 16:  ES64L-G16RevB.01 20-Dec-2017

 -------------------------
 #P B3LYP/6-311+g(d) force
 -------------------------

 -----
 DPGEN
 -----
 Symbolic Z-matrix:
 Charge =  0 Multiplicity = 2

                         Standard orientation:
 ---------------------------------------------------------------------
 Center     Atomic      Atomic             Coordinates (Angstroms)
 Number     Number       Type             X           Y           Z
 ---------------------------------------------------------------------
      1         11           0       -0.073076    0.098645   -1.735947
      2         11           0        1.563092   -2.661288   -0.020744
      3         11           0        3.097110    0.528012   -0.257797
      4         11           0        0.457133    3.091107    0.154016
      5         11           0       -2.931133    1.169430   -0.204750
      6         11           0       -2.081546   -2.183522   -0.048127
      7         11           0       -0.031579   -0.042383    2.113349
 ---------------------------------------------------------------------

 SCF Done:  E(UB3LYP) =  -1136.14030765     A.U. after   19 cycles

 The electronic state is 2-A.
 Alpha  occ. eigenvalues --  -38.43918 -38.43894 -38.43722 -38.43666 -38.43623
 Alpha  occ. eigenvalues --  -38.43535 -38.43367  -2.19730  -2.19714  -2.19581
 Alpha  occ. eigenvalues --   -2.19467  -2.19462  -2.19354  -2.19293  -1.13411
 Alpha  occ. eigenvalues --   -1.13398  -1.13392  -1.13377  -1.13366  -1.13352
 Alpha  occ. eigenvalues --   -1.13245  -1.13209  -1.13204  -1.13145  -1.13142
 Alpha  occ. eigenvalues --   -1.13131  -1.13126  -1.13104  -1.13095  -1.13028
 Alpha  occ. eigenvalues --   -1.13019  -1.12992  -1.12973  -1.12919  -1.12918
 Alpha  occ. eigenvalues --   -0.18294  -0.12814  -0.12400  -0.10728
 Alpha virt. eigenvalues --   -0.05510  -0.05221  -0.05014  -0.03104  -0.02945
 Alpha virt. eigenvalues --   -0.02670  -0.01433  -0.01231  -0.00558  -0.00483
 Alpha virt. eigenvalues --   -0.00030   0.00366   0.00795   0.00849   0.00861

  Beta  occ. eigenvalues --  -38.43914 -38.43890 -38.43663 -38.43624 -38.43619
  Beta  occ. eigenvalues --  -38.43533 -38.43302  -2.19724  -2.19709  -2.19464
  Beta  occ. eigenvalues --   -2.19458  -2.19400  -2.19353  -2.19176  -1.13397
  Beta  occ. eigenvalues --   -1.13387  -1.13381  -1.13365  -1.13365  -1.13348
  Beta  occ. eigenvalues --   -1.13145  -1.13138  -1.13122  -1.13119  -1.13109
  Beta  occ. eigenvalues --   -1.13106  -1.13092  -1.13080  -1.13063  -1.13019
  Beta  occ. eigenvalues --   -1.13008  -1.12990  -1.12895  -1.12837  -1.12830
  Beta  occ. eigenvalues --   -0.17563  -0.12589  -0.12193
  Beta virt. eigenvalues --   -0.06821  -0.05507  -0.05245  -0.04886  -0.02337
  Beta virt. eigenvalues --   -0.02181  -0.01612  -0.01337  -0.01147  -0.00617
  Beta virt. eigenvalues --   -0.00549   0.00114   0.00389   0.00837   0.00848

 Mulliken charges and spin densities:
               1          2
     1  Na  -0.085788   0.542653
     2  Na   0.068707  -0.077526
     3  Na   0.099730  -0.068309
     4  Na   0.033456  -0.085964
     5  Na   0.167826  -0.072988
     6  Na   0.152122  -0.063147
     7  Na  -0.436054   0.825280
 Sum of Mulliken charges =  -0.00000   1.00000

 Dipole moment (field-independent basis, Debye):
    X=             -0.0334    Y=              0.0995    Z=              0.0633  Tot=              0.1226
 Quadrupole moment (field-independent basis, Debye-Ang):
   XX=            -58.1902   YY=            -60.8691   ZZ=            -74.5058
   XY=             -0.1811   XZ=             -0.1326   YZ=              0.2771

 Normal termination of Gaussian 16 at Thu Dec  7 22:52:01 2023.
