 Gaussian 16, Revision B.01,
 Gaussian 16:  ES64L-G16RevB.01 20-Dec-2017

 -------------------------
 #P B3LYP/6-311+g(d) force
 -------------------------

 -----
 DPGEN
 -----
 Symbolic Z-matrix:
 Charge =  0 Multiplicity = 2

                         Standard orientation:
 ---------------------------------------------------------------------
 Center     Atomic      Atomic             Coordinates (Angstroms)
 Number     Number       Type             X           Y           Z
 ---------------------------------------------------------------------
      1         11           0       -1.243894    2.427958   -0.486344
      2         11           0        0.258392   -0.331054   -1.751598
      3         11           0        4.199311   -0.377089   -0.260509
      4         11           0       -3.021268   -0.826449   -1.108269
      5         11           0       -0.452545   -2.424923    0.870493
      6         11           0        1.763275    1.040001    0.643018
      7         11           0       -1.503271    0.491554    2.093210
 ---------------------------------------------------------------------

 SCF Done:  E(UB3LYP) =  -1136.12367119     A.U. after   24 cycles

 The electronic state is 2-A.
 Alpha  occ. eigenvalues --  -38.44881 -38.44615 -38.44387 -38.43969 -38.43221
 Alpha  occ. eigenvalues --  -38.43134 -38.42418  -2.20682  -2.20446  -2.20313
 Alpha  occ. eigenvalues --   -2.19878  -2.19085  -2.19072  -2.18312  -1.14401
 Alpha  occ. eigenvalues --   -1.14326  -1.14306  -1.14135  -1.14097  -1.14064
 Alpha  occ. eigenvalues --   -1.14029  -1.13950  -1.13915  -1.13555  -1.13519
 Alpha  occ. eigenvalues --   -1.13487  -1.12800  -1.12762  -1.12743  -1.12733
 Alpha  occ. eigenvalues --   -1.12695  -1.12682  -1.11991  -1.11978  -1.11945
 Alpha  occ. eigenvalues --   -0.18694  -0.13408  -0.11785  -0.11343
 Alpha virt. eigenvalues --   -0.06865  -0.04284  -0.03741  -0.03422  -0.03173
 Alpha virt. eigenvalues --   -0.02814  -0.02402  -0.01045  -0.00534  -0.00019
 Alpha virt. eigenvalues --    0.00160   0.00261   0.00319   0.00849   0.00986

  Beta  occ. eigenvalues --  -38.44887 -38.44586 -38.44333 -38.43889 -38.43193
  Beta  occ. eigenvalues --  -38.43123 -38.42408  -2.20692  -2.20395  -2.20215
  Beta  occ. eigenvalues --   -2.19733  -2.19067  -2.19024  -2.18297  -1.14409
  Beta  occ. eigenvalues --   -1.14331  -1.14312  -1.14080  -1.14067  -1.14026
  Beta  occ. eigenvalues --   -1.13963  -1.13878  -1.13838  -1.13448  -1.13425
  Beta  occ. eigenvalues --   -1.13379  -1.12790  -1.12728  -1.12708  -1.12688
  Beta  occ. eigenvalues --   -1.12680  -1.12651  -1.11980  -1.11965  -1.11915
  Beta  occ. eigenvalues --   -0.17887  -0.13260  -0.11165
  Beta virt. eigenvalues --   -0.07640  -0.06733  -0.04098  -0.03531  -0.03059
  Beta virt. eigenvalues --   -0.02533  -0.02194  -0.01857  -0.00911  -0.00297
  Beta virt. eigenvalues --    0.00013   0.00203   0.00312   0.00420   0.00907

 Mulliken charges and spin densities:
               1          2
     1  Na   0.026751   0.037606
     2  Na  -0.075042   0.498221
     3  Na   0.300325  -0.048776
     4  Na   0.207153  -0.014299
     5  Na  -0.251216   0.095248
     6  Na  -0.252936   0.021397
     7  Na   0.044965   0.410602
 Sum of Mulliken charges =  -0.00000   1.00000

 Dipole moment (field-independent basis, Debye):
    X=              0.1618    Y=             -0.4052    Z=             -0.2483  Tot=              0.5020
 Quadrupole moment (field-independent basis, Debye-Ang):
   XX=            -49.8146   YY=            -75.4305   ZZ=            -67.6538
   XY=             -2.8759   XZ=              0.2453   YZ=             -1.2270

 Normal termination of Gaussian 16 at Wed Nov 29 16:21:20 2023.
