 Gaussian 16, Revision B.01,
 Gaussian 16:  ES64L-G16RevB.01 20-Dec-2017

 -------------------------
 #P B3LYP/6-311+g(d) force
 -------------------------

 -----
 DPGEN
 -----
 Symbolic Z-matrix:
 Charge =  0 Multiplicity = 2

                         Standard orientation:
 ---------------------------------------------------------------------
 Center     Atomic      Atomic             Coordinates (Angstroms)
 Number     Number       Type             X           Y           Z
 ---------------------------------------------------------------------
      1         11           0       -0.621014   -2.939328    1.124743
      2         11           0        2.834885   -2.868899    0.234060
      3         11           0        4.214091    0.245967   -0.738079
      4         11           0        1.691419    3.318573   -0.379999
      5         11           0       -3.740463    1.343118   -0.494297
      6         11           0       -1.010470    3.272047    1.184600
      7         11           0       -3.368447   -2.371479   -0.931029
 ---------------------------------------------------------------------

 SCF Done:  E(UB3LYP) =  -1136.10516858     A.U. after   24 cycles

 The electronic state is 2-A.
 Alpha  occ. eigenvalues --  -38.45200 -38.45161 -38.45068 -38.44839 -38.44138
 Alpha  occ. eigenvalues --  -38.44072 -38.43835  -2.20955  -2.20942  -2.20815
 Alpha  occ. eigenvalues --   -2.20589  -2.19947  -2.19866  -2.19619  -1.14628
 Alpha  occ. eigenvalues --   -1.14624  -1.14607  -1.14605  -1.14579  -1.14572
 Alpha  occ. eigenvalues --   -1.14499  -1.14486  -1.14455  -1.14277  -1.14265
 Alpha  occ. eigenvalues --   -1.14231  -1.13614  -1.13599  -1.13586  -1.13526
 Alpha  occ. eigenvalues --   -1.13520  -1.13486  -1.13275  -1.13260  -1.13247
 Alpha  occ. eigenvalues --   -0.15423  -0.13589  -0.13447  -0.10548
 Alpha virt. eigenvalues --   -0.07891  -0.04876  -0.04804  -0.03522  -0.03480
 Alpha virt. eigenvalues --   -0.02190  -0.02006  -0.01681  -0.01461  -0.01225
 Alpha virt. eigenvalues --   -0.00874  -0.00142   0.00007   0.00320   0.00724

  Beta  occ. eigenvalues --  -38.45148 -38.45140 -38.45078 -38.44843 -38.44114
  Beta  occ. eigenvalues --  -38.44016 -38.43765  -2.20907  -2.20860  -2.20837
  Beta  occ. eigenvalues --   -2.20603  -2.19907  -2.19761  -2.19488  -1.14595
  Beta  occ. eigenvalues --   -1.14586  -1.14564  -1.14545  -1.14536  -1.14517
  Beta  occ. eigenvalues --   -1.14507  -1.14498  -1.14446  -1.14292  -1.14279
  Beta  occ. eigenvalues --   -1.14203  -1.13581  -1.13573  -1.13553  -1.13456
  Beta  occ. eigenvalues --   -1.13449  -1.13416  -1.13186  -1.13172  -1.13161
  Beta  occ. eigenvalues --   -0.14933  -0.13040  -0.12715
  Beta virt. eigenvalues --   -0.08009  -0.07397  -0.04467  -0.04272  -0.03297
  Beta virt. eigenvalues --   -0.03173  -0.02026  -0.01807  -0.01556  -0.01318
  Beta virt. eigenvalues --   -0.00870  -0.00640   0.00082   0.00234   0.00346

 Mulliken charges and spin densities:
               1          2
     1  Na  -0.539123   0.287310
     2  Na   0.144745  -0.045678
     3  Na   0.112066   0.368216
     4  Na   0.021009   0.117992
     5  Na  -0.027079   0.271372
     6  Na  -0.141124   0.048876
     7  Na   0.429505  -0.048087
 Sum of Mulliken charges =  -0.00000   1.00000

 Dipole moment (field-independent basis, Debye):
    X=             -0.8151    Y=              0.2385    Z=             -0.2216  Tot=              0.8777
 Quadrupole moment (field-independent basis, Debye-Ang):
   XX=            -66.4532   YY=            -64.6100   ZZ=            -70.1840
   XY=              0.8776   XZ=             -0.2310   YZ=              0.7156

 Normal termination of Gaussian 16 at Mon Dec  4 00:48:51 2023.
