 Gaussian 16, Revision B.01,
 Gaussian 16:  ES64L-G16RevB.01 20-Dec-2017

 -------------------------
 #P B3LYP/6-311+g(d) force
 -------------------------

 -----
 DPGEN
 -----
 Symbolic Z-matrix:
 Charge =  0 Multiplicity = 2

                         Standard orientation:
 ---------------------------------------------------------------------
 Center     Atomic      Atomic             Coordinates (Angstroms)
 Number     Number       Type             X           Y           Z
 ---------------------------------------------------------------------
      1         11           0        3.336818   -0.370278    0.094782
      2         11           0        0.687829   -2.757366    0.005790
      3         11           0       -2.572375   -1.692863   -0.301700
      4         11           0        0.368765    0.206468   -1.488792
      5         11           0       -0.101170   -0.060006    1.673216
      6         11           0        1.470089    2.919555   -0.069690
      7         11           0       -3.189958    1.754489    0.086394
 ---------------------------------------------------------------------

 SCF Done:  E(UB3LYP) =  -1136.13015419     A.U. after   22 cycles

 The electronic state is 2-A.
 Alpha  occ. eigenvalues --  -38.44883 -38.44688 -38.43930 -38.43887 -38.43052
 Alpha  occ. eigenvalues --  -38.42948 -38.42941  -2.20693  -2.20441  -2.19733
 Alpha  occ. eigenvalues --   -2.19728  -2.18996  -2.18930  -2.18839  -1.14373
 Alpha  occ. eigenvalues --   -1.14348  -1.14327  -1.14114  -1.14101  -1.14081
 Alpha  occ. eigenvalues --   -1.13425  -1.13400  -1.13398  -1.13391  -1.13363
 Alpha  occ. eigenvalues --   -1.13363  -1.12767  -1.12644  -1.12609  -1.12594
 Alpha  occ. eigenvalues --   -1.12577  -1.12538  -1.12496  -1.12484  -1.12469
 Alpha  occ. eigenvalues --   -0.18463  -0.13263  -0.12190  -0.09851
 Alpha virt. eigenvalues --   -0.06511  -0.05487  -0.04640  -0.02990  -0.02436
 Alpha virt. eigenvalues --   -0.02160  -0.01785  -0.01392  -0.00947  -0.00458
 Alpha virt. eigenvalues --    0.00001   0.00281   0.00685   0.00746   0.00823

  Beta  occ. eigenvalues --  -38.44877 -38.44690 -38.43926 -38.43878 -38.42974
  Beta  occ. eigenvalues --  -38.42931 -38.42886  -2.20686  -2.20446  -2.19729
  Beta  occ. eigenvalues --   -2.19714  -2.18854  -2.18827  -2.18819  -1.14359
  Beta  occ. eigenvalues --   -1.14333  -1.14321  -1.14108  -1.14106  -1.14085
  Beta  occ. eigenvalues --   -1.13417  -1.13391  -1.13375  -1.13371  -1.13363
  Beta  occ. eigenvalues --   -1.13352  -1.12679  -1.12567  -1.12530  -1.12500
  Beta  occ. eigenvalues --   -1.12491  -1.12470  -1.12457  -1.12449  -1.12427
  Beta  occ. eigenvalues --   -0.17762  -0.13052  -0.11943
  Beta virt. eigenvalues --   -0.06493  -0.06020  -0.05420  -0.04637  -0.02281
  Beta virt. eigenvalues --   -0.02064  -0.01730  -0.01341  -0.01002  -0.00802
  Beta virt. eigenvalues --   -0.00491   0.00162   0.00324   0.00701   0.00786

 Mulliken charges and spin densities:
               1          2
     1  Na   0.279889  -0.018972
     2  Na   0.241729   0.045770
     3  Na   0.149575   0.047450
     4  Na  -0.235226   0.482063
     5  Na  -0.340321   0.703376
     6  Na  -0.058842  -0.164512
     7  Na  -0.036804  -0.095174
 Sum of Mulliken charges =  -0.00000   1.00000

 Dipole moment (field-independent basis, Debye):
    X=              0.1840    Y=              0.3725    Z=              0.0618  Tot=              0.4200
 Quadrupole moment (field-independent basis, Debye-Ang):
   XX=            -49.7805   YY=            -60.6223   ZZ=            -79.1375
   XY=             -1.1405   XZ=              1.1165   YZ=              0.7995

 Normal termination of Gaussian 16 at Thu Dec  7 07:55:51 2023.
