 Gaussian 16, Revision B.01,
 Gaussian 16:  ES64L-G16RevB.01 20-Dec-2017

 -------------------------
 #P B3LYP/6-311+g(d) force
 -------------------------

 -----
 DPGEN
 -----
 Symbolic Z-matrix:
 Charge =  0 Multiplicity = 2

                         Standard orientation:
 ---------------------------------------------------------------------
 Center     Atomic      Atomic             Coordinates (Angstroms)
 Number     Number       Type             X           Y           Z
 ---------------------------------------------------------------------
      1         11           0       -0.824284   -1.715800    0.544429
      2         11           0       -4.410505   -2.987915   -0.236545
      3         11           0       -2.944617    0.500586   -0.446808
      4         11           0       -2.300490    3.566938    0.055095
      5         11           0        0.819267    1.777363   -0.062755
      6         11           0        3.305730   -0.289623    0.873536
      7         11           0        6.354899   -0.851548   -0.726953
 ---------------------------------------------------------------------

 SCF Done:  E(UB3LYP) =  -1136.11997114     A.U. after   20 cycles

 The electronic state is 2-A.
 Alpha  occ. eigenvalues --  -38.45092 -38.44754 -38.44587 -38.44325 -38.44058
 Alpha  occ. eigenvalues --  -38.43464 -38.43434  -2.20885  -2.20503  -2.20380
 Alpha  occ. eigenvalues --   -2.20142  -2.19930  -2.19297  -2.19228  -1.14610
 Alpha  occ. eigenvalues --   -1.14576  -1.14444  -1.14177  -1.14175  -1.14110
 Alpha  occ. eigenvalues --   -1.14014  -1.14014  -1.13990  -1.13839  -1.13816
 Alpha  occ. eigenvalues --   -1.13749  -1.13653  -1.13627  -1.13515  -1.12967
 Alpha  occ. eigenvalues --   -1.12946  -1.12926  -1.12916  -1.12909  -1.12870
 Alpha  occ. eigenvalues --   -0.16641  -0.13747  -0.12455  -0.11174
 Alpha virt. eigenvalues --   -0.06528  -0.04997  -0.04905  -0.03799  -0.02747
 Alpha virt. eigenvalues --   -0.02428  -0.01914  -0.01703  -0.01477  -0.00852
 Alpha virt. eigenvalues --   -0.00422  -0.00173   0.00137   0.00254   0.00620

  Beta  occ. eigenvalues --  -38.45063 -38.44744 -38.44475 -38.44304 -38.44043
  Beta  occ. eigenvalues --  -38.43441 -38.43438  -2.20832  -2.20485  -2.20171
  Beta  occ. eigenvalues --   -2.20104  -2.19904  -2.19251  -2.19248  -1.14579
  Beta  occ. eigenvalues --   -1.14542  -1.14390  -1.14165  -1.14161  -1.14099
  Beta  occ. eigenvalues --   -1.13873  -1.13872  -1.13853  -1.13815  -1.13785
  Beta  occ. eigenvalues --   -1.13721  -1.13624  -1.13610  -1.13495  -1.12947
  Beta  occ. eigenvalues --   -1.12931  -1.12927  -1.12912  -1.12889  -1.12830
  Beta  occ. eigenvalues --   -0.16172  -0.13066  -0.12121
  Beta virt. eigenvalues --   -0.07746  -0.06226  -0.04715  -0.04482  -0.03603
  Beta virt. eigenvalues --   -0.02508  -0.02198  -0.01665  -0.01281  -0.01269
  Beta virt. eigenvalues --   -0.00506  -0.00081  -0.00019   0.00300   0.00373

 Mulliken charges and spin densities:
               1          2
     1  Na  -0.352349   0.187793
     2  Na   0.719525   0.053055
     3  Na  -1.018477   0.222396
     4  Na   1.215051   0.162913
     5  Na  -0.849181  -0.078980
     6  Na   0.042294  -0.116771
     7  Na   0.243137   0.569595
 Sum of Mulliken charges =  -0.00000   1.00000

 Dipole moment (field-independent basis, Debye):
    X=             -1.2445    Y=             -0.5534    Z=             -0.1207  Tot=              1.3674
 Quadrupole moment (field-independent basis, Debye-Ang):
   XX=            -60.8320   YY=            -61.8057   ZZ=            -71.7081
   XY=              5.3907   XZ=             -1.5197   YZ=              0.4891

 Normal termination of Gaussian 16 at Tue Nov 28 19:38:06 2023.
