 Gaussian 16, Revision B.01,
 Gaussian 16:  ES64L-G16RevB.01 20-Dec-2017

 -------------------------
 #P B3LYP/6-311+g(d) force
 -------------------------

 -----
 DPGEN
 -----
 Symbolic Z-matrix:
 Charge =  0 Multiplicity = 2

                         Standard orientation:
 ---------------------------------------------------------------------
 Center     Atomic      Atomic             Coordinates (Angstroms)
 Number     Number       Type             X           Y           Z
 ---------------------------------------------------------------------
      1         11           0        3.149042    0.115146   -1.099467
      2         11           0        0.323848   -0.701844    2.766054
      3         11           0        1.494518    2.816968    1.209315
      4         11           0       -0.982350    2.094877   -1.558452
      5         11           0       -1.941887   -1.889696    0.631190
      6         11           0        1.927865   -2.649351   -1.234845
      7         11           0       -3.971037    0.213900   -0.713796
 ---------------------------------------------------------------------

 SCF Done:  E(UB3LYP) =  -1136.11338612     A.U. after   21 cycles

 The electronic state is 2-A.
 Alpha  occ. eigenvalues --  -38.45492 -38.44633 -38.44450 -38.44232 -38.43959
 Alpha  occ. eigenvalues --  -38.43937 -38.43807  -2.21287  -2.20374  -2.20261
 Alpha  occ. eigenvalues --   -2.20034  -2.19766  -2.19704  -2.19621  -1.14945
 Alpha  occ. eigenvalues --   -1.14907  -1.14901  -1.14064  -1.14048  -1.13989
 Alpha  occ. eigenvalues --   -1.13978  -1.13924  -1.13879  -1.13710  -1.13692
 Alpha  occ. eigenvalues --   -1.13669  -1.13434  -1.13416  -1.13381  -1.13373
 Alpha  occ. eigenvalues --   -1.13360  -1.13337  -1.13315  -1.13281  -1.13255
 Alpha  occ. eigenvalues --   -0.16573  -0.13273  -0.12058  -0.11880
 Alpha virt. eigenvalues --   -0.06076  -0.05448  -0.04897  -0.03647  -0.03387
 Alpha virt. eigenvalues --   -0.02826  -0.01769  -0.01050  -0.00681  -0.00537
 Alpha virt. eigenvalues --   -0.00236  -0.00046   0.00134   0.00418   0.00601

  Beta  occ. eigenvalues --  -38.45382 -38.44624 -38.44421 -38.44217 -38.43930
  Beta  occ. eigenvalues --  -38.43915 -38.43801  -2.21086  -2.20356  -2.20211
  Beta  occ. eigenvalues --   -2.20006  -2.19715  -2.19661  -2.19615  -1.14808
  Beta  occ. eigenvalues --   -1.14775  -1.14753  -1.14052  -1.14038  -1.13972
  Beta  occ. eigenvalues --   -1.13936  -1.13892  -1.13838  -1.13696  -1.13672
  Beta  occ. eigenvalues --   -1.13646  -1.13393  -1.13384  -1.13344  -1.13340
  Beta  occ. eigenvalues --   -1.13330  -1.13309  -1.13298  -1.13276  -1.13246
  Beta  occ. eigenvalues --   -0.15892  -0.12834  -0.11649
  Beta virt. eigenvalues --   -0.08357  -0.05965  -0.04925  -0.04476  -0.03267
  Beta virt. eigenvalues --   -0.03015  -0.02298  -0.01648  -0.00911  -0.00583
  Beta virt. eigenvalues --   -0.00252  -0.00129   0.00085   0.00314   0.00531

 Mulliken charges and spin densities:
               1          2
     1  Na  -0.154009   0.143485
     2  Na   0.172408   0.376229
     3  Na  -0.021610   0.200915
     4  Na  -0.116861   0.039343
     5  Na  -0.390603   0.126008
     6  Na   0.157865   0.068956
     7  Na   0.352809   0.045064
 Sum of Mulliken charges =  -0.00000   1.00000

 Dipole moment (field-independent basis, Debye):
    X=             -0.2005    Y=              0.1279    Z=              0.1859  Tot=              0.3018
 Quadrupole moment (field-independent basis, Debye-Ang):
   XX=            -63.4321   YY=            -70.5815   ZZ=            -66.1505
   XY=              1.8622   XZ=              2.5814   YZ=              0.8237

 Normal termination of Gaussian 16 at Sun Dec  3 21:15:47 2023.
