 Gaussian 16, Revision B.01,
 Gaussian 16:  ES64L-G16RevB.01 20-Dec-2017

 -------------------------
 #P B3LYP/6-311+g(d) force
 -------------------------

 -----
 DPGEN
 -----
 Symbolic Z-matrix:
 Charge =  0 Multiplicity = 2

                         Standard orientation:
 ---------------------------------------------------------------------
 Center     Atomic      Atomic             Coordinates (Angstroms)
 Number     Number       Type             X           Y           Z
 ---------------------------------------------------------------------
      1         11           0       -2.750052   -1.562075   -0.226690
      2         11           0        1.495421    2.304899   -0.135186
      3         11           0        2.979389   -0.701101   -0.209865
      4         11           0        0.228103   -2.494045   -0.460438
      5         11           0        0.227969   -0.588100    2.282350
      6         11           0       -0.268271    0.525590   -1.582621
      7         11           0       -1.912558    2.514832    0.332450
 ---------------------------------------------------------------------

 SCF Done:  E(UB3LYP) =  -1136.13266254     A.U. after   18 cycles

 The electronic state is 2-A.
 Alpha  occ. eigenvalues --  -38.44078 -38.43860 -38.43774 -38.43636 -38.43421
 Alpha  occ. eigenvalues --  -38.43332 -38.43204  -2.19933  -2.19685  -2.19609
 Alpha  occ. eigenvalues --   -2.19549  -2.19354  -2.19283  -2.19154  -1.13590
 Alpha  occ. eigenvalues --   -1.13566  -1.13544  -1.13414  -1.13364  -1.13343
 Alpha  occ. eigenvalues --   -1.13318  -1.13310  -1.13264  -1.13248  -1.13193
 Alpha  occ. eigenvalues --   -1.13151  -1.13027  -1.12981  -1.12964  -1.12948
 Alpha  occ. eigenvalues --   -1.12934  -1.12927  -1.12821  -1.12810  -1.12763
 Alpha  occ. eigenvalues --   -0.18803  -0.12930  -0.12623  -0.11073
 Alpha virt. eigenvalues --   -0.05391  -0.05110  -0.04583  -0.03363  -0.03040
 Alpha virt. eigenvalues --   -0.02815  -0.01320  -0.01143  -0.00179  -0.00064
 Alpha virt. eigenvalues --   -0.00007   0.00355   0.00803   0.00888   0.00952

  Beta  occ. eigenvalues --  -38.43975 -38.43856 -38.43772 -38.43629 -38.43417
  Beta  occ. eigenvalues --  -38.43280 -38.43190  -2.19741  -2.19678  -2.19607
  Beta  occ. eigenvalues --   -2.19539  -2.19280  -2.19260  -2.19132  -1.13464
  Beta  occ. eigenvalues --   -1.13431  -1.13409  -1.13397  -1.13350  -1.13328
  Beta  occ. eigenvalues --   -1.13314  -1.13308  -1.13254  -1.13241  -1.13172
  Beta  occ. eigenvalues --   -1.13145  -1.12984  -1.12956  -1.12933  -1.12910
  Beta  occ. eigenvalues --   -1.12904  -1.12881  -1.12806  -1.12761  -1.12748
  Beta  occ. eigenvalues --   -0.18064  -0.12703  -0.12429
  Beta virt. eigenvalues --   -0.07090  -0.05375  -0.05015  -0.04538  -0.02579
  Beta virt. eigenvalues --   -0.02298  -0.01736  -0.01240  -0.01072  -0.00209
  Beta virt. eigenvalues --   -0.00052   0.00122   0.00388   0.00874   0.00883

 Mulliken charges and spin densities:
               1          2
     1  Na   0.107103  -0.050984
     2  Na   0.320100   0.071336
     3  Na   0.202054   0.028346
     4  Na   0.360390   0.096382
     5  Na  -0.821531   0.703584
     6  Na  -0.166177   0.117396
     7  Na  -0.001940   0.033940
 Sum of Mulliken charges =  -0.00000   1.00000

 Dipole moment (field-independent basis, Debye):
    X=             -0.2800    Y=              0.1929    Z=              0.3794  Tot=              0.5095
 Quadrupole moment (field-independent basis, Debye-Ang):
   XX=            -58.5945   YY=            -64.0798   ZZ=            -72.1307
   XY=             -0.5519   XZ=             -1.2771   YZ=              1.9297

 Normal termination of Gaussian 16 at Thu Dec  7 14:30:23 2023.
