 Gaussian 16, Revision B.01,
 Gaussian 16:  ES64L-G16RevB.01 20-Dec-2017

 -------------------------
 #P B3LYP/6-311+g(d) force
 -------------------------

 -----
 DPGEN
 -----
 Symbolic Z-matrix:
 Charge =  0 Multiplicity = 2

                         Standard orientation:
 ---------------------------------------------------------------------
 Center     Atomic      Atomic             Coordinates (Angstroms)
 Number     Number       Type             X           Y           Z
 ---------------------------------------------------------------------
      1         11           0        0.555227    2.880918   -0.292389
      2         11           0       -0.276284    0.199343    2.040577
      3         11           0       -2.768131    1.212574   -0.436517
      4         11           0       -2.091130   -2.166411    0.212725
      5         11           0        2.657655    0.598335    0.278350
      6         11           0        0.140071   -0.334113   -1.483344
      7         11           0        1.782590   -2.390646   -0.319403
 ---------------------------------------------------------------------

 SCF Done:  E(UB3LYP) =  -1136.13476639     A.U. after   19 cycles

 The electronic state is 2-A.
 Alpha  occ. eigenvalues --  -38.43886 -38.43788 -38.43557 -38.43530 -38.43399
 Alpha  occ. eigenvalues --  -38.43329 -38.43021  -2.19722  -2.19632  -2.19469
 Alpha  occ. eigenvalues --   -2.19438  -2.19351  -2.19200  -2.19093  -1.13406
 Alpha  occ. eigenvalues --   -1.13386  -1.13360  -1.13310  -1.13308  -1.13265
 Alpha  occ. eigenvalues --   -1.13252  -1.13151  -1.13120  -1.13095  -1.13089
 Alpha  occ. eigenvalues --   -1.13063  -1.13049  -1.12992  -1.12969  -1.12869
 Alpha  occ. eigenvalues --   -1.12844  -1.12826  -1.12752  -1.12700  -1.12696
 Alpha  occ. eigenvalues --   -0.19088  -0.13145  -0.12614  -0.10870
 Alpha virt. eigenvalues --   -0.05397  -0.05079  -0.04677  -0.03273  -0.02916
 Alpha virt. eigenvalues --   -0.02488  -0.01307  -0.01175  -0.00239  -0.00119
 Alpha virt. eigenvalues --    0.00035   0.00359   0.00857   0.00885   0.00946

  Beta  occ. eigenvalues --  -38.43876 -38.43782 -38.43523 -38.43462 -38.43390
  Beta  occ. eigenvalues --  -38.43323 -38.42963  -2.19706  -2.19624  -2.19429
  Beta  occ. eigenvalues --   -2.19338  -2.19294  -2.19192  -2.18991  -1.13389
  Beta  occ. eigenvalues --   -1.13364  -1.13348  -1.13305  -1.13276  -1.13253
  Beta  occ. eigenvalues --   -1.13243  -1.13111  -1.13077  -1.13034  -1.13020
  Beta  occ. eigenvalues --   -1.12982  -1.12966  -1.12962  -1.12932  -1.12856
  Beta  occ. eigenvalues --   -1.12832  -1.12814  -1.12680  -1.12629  -1.12625
  Beta  occ. eigenvalues --   -0.18361  -0.12894  -0.12354
  Beta virt. eigenvalues --   -0.06930  -0.05379  -0.05028  -0.04640  -0.02454
  Beta virt. eigenvalues --   -0.02169  -0.01438  -0.01222  -0.01095  -0.00262
  Beta virt. eigenvalues --   -0.00137   0.00151   0.00389   0.00871   0.00922

 Mulliken charges and spin densities:
               1          2
     1  Na   0.023960  -0.018067
     2  Na  -0.479322   0.619428
     3  Na   0.039967  -0.038399
     4  Na   0.141142  -0.004830
     5  Na   0.405405   0.139121
     6  Na  -0.566069   0.271850
     7  Na   0.434918   0.030898
 Sum of Mulliken charges =  -0.00000   1.00000

 Dipole moment (field-independent basis, Debye):
    X=             -0.4310    Y=             -0.0554    Z=              0.2356  Tot=              0.4943
 Quadrupole moment (field-independent basis, Debye-Ang):
   XX=            -59.0409   YY=            -60.7107   ZZ=            -73.8247
   XY=             -0.1442   XZ=              0.9719   YZ=             -1.2464

 Normal termination of Gaussian 16 at Fri Dec  8 07:42:51 2023.
