 Gaussian 16, Revision B.01,
 Gaussian 16:  ES64L-G16RevB.01 20-Dec-2017

 -------------------------
 #P B3LYP/6-311+g(d) force
 -------------------------

 -----
 DPGEN
 -----
 Symbolic Z-matrix:
 Charge =  0 Multiplicity = 2

                         Standard orientation:
 ---------------------------------------------------------------------
 Center     Atomic      Atomic             Coordinates (Angstroms)
 Number     Number       Type             X           Y           Z
 ---------------------------------------------------------------------
      1         11           0        0.170417    0.057570   -1.546555
      2         11           0       -2.119611   -1.957069   -0.316829
      3         11           0        0.602871    2.801573   -0.045544
      4         11           0       -0.255163   -0.251917    2.118298
      5         11           0       -3.045650    1.402981   -0.097946
      6         11           0        1.213543   -2.437480   -0.110019
      7         11           0        3.433593    0.384341   -0.001405
 ---------------------------------------------------------------------

 SCF Done:  E(UB3LYP) =  -1136.13479849     A.U. after   19 cycles

 The electronic state is 2-A.
 Alpha  occ. eigenvalues --  -38.44552 -38.44221 -38.43578 -38.43490 -38.43453
 Alpha  occ. eigenvalues --  -38.43168 -38.43091  -2.20338  -2.20010  -2.19460
 Alpha  occ. eigenvalues --   -2.19342  -2.19318  -2.19180  -2.19003  -1.14011
 Alpha  occ. eigenvalues --   -1.13993  -1.13980  -1.13682  -1.13672  -1.13650
 Alpha  occ. eigenvalues --   -1.13134  -1.13091  -1.13079  -1.13069  -1.13042
 Alpha  occ. eigenvalues --   -1.12995  -1.12983  -1.12975  -1.12924  -1.12909
 Alpha  occ. eigenvalues --   -1.12829  -1.12777  -1.12661  -1.12656  -1.12610
 Alpha  occ. eigenvalues --   -0.18636  -0.13024  -0.12321  -0.10661
 Alpha virt. eigenvalues --   -0.06132  -0.05096  -0.04434  -0.03091  -0.02764
 Alpha virt. eigenvalues --   -0.02547  -0.01923  -0.01130  -0.00412  -0.00235
 Alpha virt. eigenvalues --   -0.00038   0.00311   0.00767   0.00853   0.00887

  Beta  occ. eigenvalues --  -38.44553 -38.44220 -38.43486 -38.43475 -38.43442
  Beta  occ. eigenvalues --  -38.43109 -38.43082  -2.20342  -2.20010  -2.19327
  Beta  occ. eigenvalues --   -2.19314  -2.19271  -2.19075  -2.18990  -1.14001
  Beta  occ. eigenvalues --   -1.13997  -1.13984  -1.13676  -1.13665  -1.13653
  Beta  occ. eigenvalues --   -1.13055  -1.13044  -1.12997  -1.12977  -1.12970
  Beta  occ. eigenvalues --   -1.12962  -1.12941  -1.12933  -1.12924  -1.12854
  Beta  occ. eigenvalues --   -1.12756  -1.12703  -1.12642  -1.12607  -1.12605
  Beta  occ. eigenvalues --   -0.17899  -0.12832  -0.12078
  Beta virt. eigenvalues --   -0.06689  -0.06101  -0.05099  -0.04399  -0.02368
  Beta virt. eigenvalues --   -0.01979  -0.01843  -0.01440  -0.01074  -0.00441
  Beta virt. eigenvalues --   -0.00285   0.00123   0.00340   0.00825   0.00854

 Mulliken charges and spin densities:
               1          2
     1  Na  -0.338606   0.367772
     2  Na   0.389410   0.030207
     3  Na   0.049844  -0.107662
     4  Na  -0.636915   0.797241
     5  Na   0.044855  -0.059698
     6  Na   0.407442   0.017897
     7  Na   0.083969  -0.045757
 Sum of Mulliken charges =  -0.00000   1.00000

 Dipole moment (field-independent basis, Debye):
    X=              0.1533    Y=              0.2338    Z=              0.2042  Tot=              0.3462
 Quadrupole moment (field-independent basis, Debye-Ang):
   XX=            -52.1229   YY=            -65.1111   ZZ=            -75.0603
   XY=             -0.2883   XZ=              0.9546   YZ=              0.7357

 Normal termination of Gaussian 16 at Thu Dec  7 19:31:41 2023.
