 Gaussian 16, Revision B.01,
 Gaussian 16:  ES64L-G16RevB.01 20-Dec-2017

 -------------------------
 #P B3LYP/6-311+g(d) force
 -------------------------

 -----
 DPGEN
 -----
 Symbolic Z-matrix:
 Charge =  0 Multiplicity = 2

                         Standard orientation:
 ---------------------------------------------------------------------
 Center     Atomic      Atomic             Coordinates (Angstroms)
 Number     Number       Type             X           Y           Z
 ---------------------------------------------------------------------
      1         11           0       -2.350540   -0.023303   -1.509497
      2         11           0        1.160066   -1.238845   -1.339677
      3         11           0       -0.982941    0.652251    1.934372
      4         11           0       -4.270272   -1.305226    0.826461
      5         11           0        3.481331   -2.333844    0.186278
      6         11           0        0.052524    2.726019   -1.075506
      7         11           0        2.909831    1.522948    0.977570
 ---------------------------------------------------------------------

 SCF Done:  E(UB3LYP) =  -1136.11991096     A.U. after   21 cycles

 The electronic state is 2-A.
 Alpha  occ. eigenvalues --  -38.45484 -38.44993 -38.44283 -38.43893 -38.43765
 Alpha  occ. eigenvalues --  -38.43552 -38.43220  -2.21249  -2.20759  -2.20073
 Alpha  occ. eigenvalues --   -2.19748  -2.19621  -2.19353  -2.19043  -1.14945
 Alpha  occ. eigenvalues --   -1.14916  -1.14834  -1.14446  -1.14412  -1.14367
 Alpha  occ. eigenvalues --   -1.13746  -1.13730  -1.13705  -1.13434  -1.13406
 Alpha  occ. eigenvalues --   -1.13369  -1.13314  -1.13292  -1.13259  -1.13034
 Alpha  occ. eigenvalues --   -1.13012  -1.12985  -1.12715  -1.12692  -1.12672
 Alpha  occ. eigenvalues --   -0.17274  -0.13595  -0.11503  -0.11207
 Alpha virt. eigenvalues --   -0.06729  -0.05390  -0.04799  -0.03174  -0.02894
 Alpha virt. eigenvalues --   -0.02653  -0.02356  -0.01288  -0.01037  -0.00389
 Alpha virt. eigenvalues --   -0.00025   0.00110   0.00150   0.00381   0.00607

  Beta  occ. eigenvalues --  -38.45439 -38.44962 -38.44263 -38.43857 -38.43730
  Beta  occ. eigenvalues --  -38.43536 -38.43224  -2.21165  -2.20701  -2.20034
  Beta  occ. eigenvalues --   -2.19685  -2.19558  -2.19326  -2.19052  -1.14889
  Beta  occ. eigenvalues --   -1.14856  -1.14769  -1.14401  -1.14375  -1.14328
  Beta  occ. eigenvalues --   -1.13722  -1.13704  -1.13675  -1.13391  -1.13368
  Beta  occ. eigenvalues --   -1.13298  -1.13261  -1.13249  -1.13219  -1.13019
  Beta  occ. eigenvalues --   -1.12990  -1.12950  -1.12715  -1.12699  -1.12675
  Beta  occ. eigenvalues --   -0.16556  -0.13371  -0.11395
  Beta virt. eigenvalues --   -0.07549  -0.06370  -0.05033  -0.04358  -0.02956
  Beta virt. eigenvalues --   -0.02480  -0.02207  -0.01974  -0.01144  -0.00756
  Beta virt. eigenvalues --   -0.00373   0.00137   0.00175   0.00284   0.00594

 Mulliken charges and spin densities:
               1          2
     1  Na   0.093772   0.025268
     2  Na  -0.867922   0.147350
     3  Na  -0.356192   0.324640
     4  Na   0.300919   0.132840
     5  Na   0.657049   0.022730
     6  Na   0.170630   0.101526
     7  Na   0.001744   0.245646
 Sum of Mulliken charges =  -0.00000   1.00000

 Dipole moment (field-independent basis, Debye):
    X=             -0.2197    Y=              0.5846    Z=              0.7502  Tot=              0.9762
 Quadrupole moment (field-independent basis, Debye-Ang):
   XX=            -57.8139   YY=            -71.0956   ZZ=            -68.1405
   XY=              4.1975   XZ=              3.0739   YZ=             -3.4866

 Normal termination of Gaussian 16 at Sun Dec  3 21:26:15 2023.
