 Gaussian 16, Revision B.01,
 Gaussian 16:  ES64L-G16RevB.01 20-Dec-2017

 -------------------------
 #P B3LYP/6-311+g(d) force
 -------------------------

 -----
 DPGEN
 -----
 Symbolic Z-matrix:
 Charge =  0 Multiplicity = 2

                         Standard orientation:
 ---------------------------------------------------------------------
 Center     Atomic      Atomic             Coordinates (Angstroms)
 Number     Number       Type             X           Y           Z
 ---------------------------------------------------------------------
      1         11           0       -0.467639   -2.708286    0.058784
      2         11           0       -3.033396   -0.326092   -0.368313
      3         11           0        1.972821    2.123472   -0.094401
      4         11           0       -1.147135    2.453507    0.192984
      5         11           0       -0.183070   -0.169263    2.001262
      6         11           0        2.730737   -1.339207   -0.033488
      7         11           0        0.127683   -0.034131   -1.756829
 ---------------------------------------------------------------------

 SCF Done:  E(UB3LYP) =  -1136.14001248     A.U. after   18 cycles

 The electronic state is 2-A.
 Alpha  occ. eigenvalues --  -38.43658 -38.43653 -38.43603 -38.43365 -38.43322
 Alpha  occ. eigenvalues --  -38.43278 -38.43157  -2.19542  -2.19512  -2.19501
 Alpha  occ. eigenvalues --   -2.19276  -2.19253  -2.19224  -2.19078  -1.13229
 Alpha  occ. eigenvalues --   -1.13199  -1.13191  -1.13185  -1.13177  -1.13166
 Alpha  occ. eigenvalues --   -1.13158  -1.13144  -1.13136  -1.13005  -1.12974
 Alpha  occ. eigenvalues --   -1.12931  -1.12910  -1.12898  -1.12897  -1.12873
 Alpha  occ. eigenvalues --   -1.12850  -1.12828  -1.12747  -1.12730  -1.12693
 Alpha  occ. eigenvalues --   -0.19152  -0.12881  -0.12792  -0.11078
 Alpha virt. eigenvalues --   -0.05309  -0.04917  -0.04667  -0.03148  -0.03140
 Alpha virt. eigenvalues --   -0.02721  -0.01353  -0.00986  -0.00106  -0.00061
 Alpha virt. eigenvalues --    0.00029   0.00372   0.00875   0.00940   0.00965

  Beta  occ. eigenvalues --  -38.43651 -38.43650 -38.43510 -38.43362 -38.43313
  Beta  occ. eigenvalues --  -38.43205 -38.43149  -2.19502  -2.19499  -2.19371
  Beta  occ. eigenvalues --   -2.19250  -2.19213  -2.19143  -2.19067  -1.13183
  Beta  occ. eigenvalues --   -1.13181  -1.13159  -1.13156  -1.13145  -1.13141
  Beta  occ. eigenvalues --   -1.13105  -1.13075  -1.13027  -1.12981  -1.12926
  Beta  occ. eigenvalues --   -1.12908  -1.12884  -1.12860  -1.12846  -1.12826
  Beta  occ. eigenvalues --   -1.12799  -1.12778  -1.12734  -1.12694  -1.12687
  Beta  occ. eigenvalues --   -0.18393  -0.12631  -0.12522
  Beta virt. eigenvalues --   -0.07120  -0.05292  -0.04909  -0.04640  -0.02357
  Beta virt. eigenvalues --   -0.02290  -0.01646  -0.01270  -0.00921  -0.00148
  Beta virt. eigenvalues --   -0.00082   0.00114   0.00383   0.00909   0.00940

 Mulliken charges and spin densities:
               1          2
     1  Na   0.274149  -0.066578
     2  Na   0.149200  -0.036023
     3  Na   0.115459  -0.081502
     4  Na   0.254584   0.011951
     5  Na  -0.494126   0.673933
     6  Na   0.117351  -0.102736
     7  Na  -0.416616   0.600954
 Sum of Mulliken charges =  -0.00000   1.00000

 Dipole moment (field-independent basis, Debye):
    X=              0.0356    Y=             -0.1732    Z=              0.0788  Tot=              0.1935
 Quadrupole moment (field-independent basis, Debye-Ang):
   XX=            -58.1165   YY=            -63.5567   ZZ=            -72.5537
   XY=              0.0004   XZ=              0.8243   YZ=              0.2853

 Normal termination of Gaussian 16 at Thu Dec  7 06:23:31 2023.
