 Gaussian 16, Revision B.01,
 Gaussian 16:  ES64L-G16RevB.01 20-Dec-2017

 -------------------------
 #P B3LYP/6-311+g(d) force
 -------------------------

 -----
 DPGEN
 -----
 Symbolic Z-matrix:
 Charge =  0 Multiplicity = 2

                         Standard orientation:
 ---------------------------------------------------------------------
 Center     Atomic      Atomic             Coordinates (Angstroms)
 Number     Number       Type             X           Y           Z
 ---------------------------------------------------------------------
      1         11           0        1.908099    1.274169    0.689032
      2         11           0       -1.037112   -0.282310    1.733076
      3         11           0       -2.153951   -2.745779   -0.131275
      4         11           0        1.027493   -1.747506    0.182557
      5         11           0        4.436603   -0.279141   -0.950488
      6         11           0       -2.832539    0.340892   -1.466011
      7         11           0       -1.348593    3.439675   -0.056890
 ---------------------------------------------------------------------

 SCF Done:  E(UB3LYP) =  -1136.12592788     A.U. after   19 cycles

 The electronic state is 2-A.
 Alpha  occ. eigenvalues --  -38.44210 -38.44185 -38.44043 -38.43971 -38.43686
 Alpha  occ. eigenvalues --  -38.43672 -38.43587  -2.20140  -2.20027  -2.19898
 Alpha  occ. eigenvalues --   -2.19850  -2.19559  -2.19540  -2.19341  -1.13941
 Alpha  occ. eigenvalues --   -1.13781  -1.13740  -1.13701  -1.13678  -1.13635
 Alpha  occ. eigenvalues --   -1.13604  -1.13564  -1.13507  -1.13499  -1.13485
 Alpha  occ. eigenvalues --   -1.13455  -1.13250  -1.13229  -1.13218  -1.13209
 Alpha  occ. eigenvalues --   -1.13194  -1.13130  -1.13024  -1.13001  -1.12983
 Alpha  occ. eigenvalues --   -0.17939  -0.13766  -0.12152  -0.10873
 Alpha virt. eigenvalues --   -0.05673  -0.05444  -0.05103  -0.03700  -0.02682
 Alpha virt. eigenvalues --   -0.02172  -0.01766  -0.01234  -0.00860  -0.00572
 Alpha virt. eigenvalues --   -0.00215   0.00238   0.00492   0.00521   0.00667

  Beta  occ. eigenvalues --  -38.44149 -38.44125 -38.43978 -38.43958 -38.43676
  Beta  occ. eigenvalues --  -38.43662 -38.43594  -2.20035  -2.19912  -2.19880
  Beta  occ. eigenvalues --   -2.19728  -2.19543  -2.19527  -2.19356  -1.13864
  Beta  occ. eigenvalues --   -1.13697  -1.13667  -1.13624  -1.13604  -1.13582
  Beta  occ. eigenvalues --   -1.13549  -1.13540  -1.13460  -1.13423  -1.13415
  Beta  occ. eigenvalues --   -1.13383  -1.13239  -1.13221  -1.13202  -1.13196
  Beta  occ. eigenvalues --   -1.13159  -1.13104  -1.13035  -1.13004  -1.12992
  Beta  occ. eigenvalues --   -0.17292  -0.13131  -0.12049
  Beta virt. eigenvalues --   -0.07345  -0.05465  -0.05138  -0.04728  -0.03323
  Beta virt. eigenvalues --   -0.02253  -0.01779  -0.01445  -0.01104  -0.00684
  Beta virt. eigenvalues --   -0.00341   0.00071   0.00330   0.00566   0.00687

 Mulliken charges and spin densities:
               1          2
     1  Na  -0.206701  -0.007674
     2  Na  -0.363692   0.289748
     3  Na   0.590365   0.142822
     4  Na  -0.353969  -0.091504
     5  Na   0.317719   0.367757
     6  Na  -0.143164   0.358754
     7  Na   0.159443  -0.059904
 Sum of Mulliken charges =  -0.00000   1.00000

 Dipole moment (field-independent basis, Debye):
    X=             -0.0624    Y=             -0.5018    Z=              0.0495  Tot=              0.5081
 Quadrupole moment (field-independent basis, Debye-Ang):
   XX=            -64.3965   YY=            -63.6204   ZZ=            -69.0758
   XY=              2.3689   XZ=             -2.5520   YZ=              1.4884

 Normal termination of Gaussian 16 at Tue Nov 28 20:07:14 2023.
