 Gaussian 16, Revision B.01,
 Gaussian 16:  ES64L-G16RevB.01 20-Dec-2017

 -------------------------
 #P B3LYP/6-311+g(d) force
 -------------------------

 -----
 DPGEN
 -----
 Symbolic Z-matrix:
 Charge =  0 Multiplicity = 2

                         Standard orientation:
 ---------------------------------------------------------------------
 Center     Atomic      Atomic             Coordinates (Angstroms)
 Number     Number       Type             X           Y           Z
 ---------------------------------------------------------------------
      1         11           0       -1.830801   -1.210258    1.388221
      2         11           0       -3.734743    1.786067   -0.177510
      3         11           0        3.454680    0.694834    0.379194
      4         11           0       -3.943202   -2.047628   -0.626677
      5         11           0        6.080272   -0.674286   -0.274415
      6         11           0       -0.562501    2.455728   -0.123244
      7         11           0        0.536295   -1.004459   -0.565570
 ---------------------------------------------------------------------

 SCF Done:  E(UB3LYP) =  -1136.11310466     A.U. after   22 cycles

 The electronic state is 2-A.
 Alpha  occ. eigenvalues --  -38.45147 -38.44567 -38.44477 -38.44370 -38.43948
 Alpha  occ. eigenvalues --  -38.43913 -38.42827  -2.21009  -2.20465  -2.20309
 Alpha  occ. eigenvalues --   -2.20191  -2.19778  -2.19733  -2.18643  -1.14726
 Alpha  occ. eigenvalues --   -1.14640  -1.14605  -1.14155  -1.14139  -1.14076
 Alpha  occ. eigenvalues --   -1.13973  -1.13953  -1.13915  -1.13884  -1.13823
 Alpha  occ. eigenvalues --   -1.13818  -1.13451  -1.13449  -1.13408  -1.13400
 Alpha  occ. eigenvalues --   -1.13384  -1.13373  -1.12327  -1.12317  -1.12284
 Alpha  occ. eigenvalues --   -0.17326  -0.14214  -0.11712  -0.11482
 Alpha virt. eigenvalues --   -0.06140  -0.05418  -0.04871  -0.03467  -0.02987
 Alpha virt. eigenvalues --   -0.02695  -0.01811  -0.01482  -0.01057  -0.00626
 Alpha virt. eigenvalues --   -0.00461   0.00010   0.00266   0.00470   0.00541

  Beta  occ. eigenvalues --  -38.45072 -38.44545 -38.44402 -38.44309 -38.43950
  Beta  occ. eigenvalues --  -38.43910 -38.42832  -2.20873  -2.20430  -2.20168
  Beta  occ. eigenvalues --   -2.20077  -2.19788  -2.19728  -2.18654  -1.14622
  Beta  occ. eigenvalues --   -1.14556  -1.14509  -1.14125  -1.14090  -1.14055
  Beta  occ. eigenvalues --   -1.13878  -1.13865  -1.13813  -1.13811  -1.13745
  Beta  occ. eigenvalues --   -1.13741  -1.13462  -1.13459  -1.13399  -1.13383
  Beta  occ. eigenvalues --   -1.13374  -1.13356  -1.12338  -1.12329  -1.12268
  Beta  occ. eigenvalues --   -0.16588  -0.13611  -0.11207
  Beta virt. eigenvalues --   -0.08283  -0.05800  -0.05125  -0.04318  -0.03151
  Beta virt. eigenvalues --   -0.02795  -0.02355  -0.01373  -0.01332  -0.00692
  Beta virt. eigenvalues --   -0.00468  -0.00355   0.00116   0.00414   0.00555

 Mulliken charges and spin densities:
               1          2
     1  Na   0.094149   0.154013
     2  Na   0.066158   0.352017
     3  Na  -0.220622   0.205576
     4  Na   0.275436  -0.021941
     5  Na   0.351866   0.141307
     6  Na  -0.163349  -0.002347
     7  Na  -0.403637   0.171374
 Sum of Mulliken charges =  -0.00000   1.00000

 Dipole moment (field-independent basis, Debye):
    X=             -0.2440    Y=             -0.6710    Z=             -0.3243  Tot=              0.7842
 Quadrupole moment (field-independent basis, Debye-Ang):
   XX=            -59.4196   YY=            -74.2234   ZZ=            -66.5773
   XY=             -2.4280   XZ=              0.8566   YZ=              3.4976

 Normal termination of Gaussian 16 at Tue Nov 28 22:43:54 2023.
