 Gaussian 16, Revision B.01,
 Gaussian 16:  ES64L-G16RevB.01 20-Dec-2017

 -------------------------
 #P B3LYP/6-311+g(d) force
 -------------------------

 -----
 DPGEN
 -----
 Symbolic Z-matrix:
 Charge =  0 Multiplicity = 2

                         Standard orientation:
 ---------------------------------------------------------------------
 Center     Atomic      Atomic             Coordinates (Angstroms)
 Number     Number       Type             X           Y           Z
 ---------------------------------------------------------------------
      1         11           0       -1.947757    2.266655    0.084008
      2         11           0        1.877494    2.541358   -0.248121
      3         11           0        0.033683    0.040073   -1.403285
      4         11           0        0.447751   -0.043352    2.028679
      5         11           0        3.141961   -1.228476   -0.238962
      6         11           0       -0.492910   -2.891253   -0.062766
      7         11           0       -3.060222   -0.685005   -0.159553
 ---------------------------------------------------------------------

 SCF Done:  E(UB3LYP) =  -1136.13538122     A.U. after   19 cycles

 The electronic state is 2-A.
 Alpha  occ. eigenvalues --  -38.44617 -38.43968 -38.43796 -38.43605 -38.43471
 Alpha  occ. eigenvalues --  -38.43249 -38.42877  -2.20397  -2.19778  -2.19665
 Alpha  occ. eigenvalues --   -2.19463  -2.19319  -2.19134  -2.18893  -1.14076
 Alpha  occ. eigenvalues --   -1.14047  -1.14036  -1.13468  -1.13438  -1.13405
 Alpha  occ. eigenvalues --   -1.13372  -1.13330  -1.13314  -1.13141  -1.13118
 Alpha  occ. eigenvalues --   -1.13088  -1.13020  -1.12983  -1.12941  -1.12814
 Alpha  occ. eigenvalues --   -1.12752  -1.12746  -1.12589  -1.12532  -1.12513
 Alpha  occ. eigenvalues --   -0.18535  -0.13102  -0.12408  -0.10302
 Alpha virt. eigenvalues --   -0.06049  -0.05339  -0.04645  -0.03035  -0.02673
 Alpha virt. eigenvalues --   -0.02225  -0.01807  -0.01337  -0.00560  -0.00455
 Alpha virt. eigenvalues --    0.00003   0.00323   0.00742   0.00796   0.00880

  Beta  occ. eigenvalues --  -38.44612 -38.43961 -38.43793 -38.43602 -38.43466
  Beta  occ. eigenvalues --  -38.43149 -38.42827  -2.20391  -2.19769  -2.19662
  Beta  occ. eigenvalues --   -2.19459  -2.19313  -2.18950  -2.18803  -1.14054
  Beta  occ. eigenvalues --   -1.14044  -1.14033  -1.13456  -1.13419  -1.13401
  Beta  occ. eigenvalues --   -1.13373  -1.13325  -1.13297  -1.13137  -1.13098
  Beta  occ. eigenvalues --   -1.13085  -1.13014  -1.12958  -1.12939  -1.12692
  Beta  occ. eigenvalues --   -1.12623  -1.12614  -1.12514  -1.12467  -1.12447
  Beta  occ. eigenvalues --   -0.17839  -0.12873  -0.12183
  Beta virt. eigenvalues --   -0.06404  -0.06033  -0.05293  -0.04628  -0.02294
  Beta virt. eigenvalues --   -0.01927  -0.01723  -0.01272  -0.01169  -0.00601
  Beta virt. eigenvalues --   -0.00498   0.00160   0.00369   0.00769   0.00830

 Mulliken charges and spin densities:
               1          2
     1  Na   0.314277   0.027468
     2  Na   0.172758  -0.034322
     3  Na  -0.596079   0.285432
     4  Na  -0.516914   0.772297
     5  Na   0.135428  -0.064143
     6  Na   0.307138  -0.014157
     7  Na   0.183392   0.027425
 Sum of Mulliken charges =  -0.00000   1.00000

 Dipole moment (field-independent basis, Debye):
    X=              0.5070    Y=             -0.0244    Z=              0.0977  Tot=              0.5169
 Quadrupole moment (field-independent basis, Debye-Ang):
   XX=            -53.7304   YY=            -60.8589   ZZ=            -76.9498
   XY=             -0.2833   XZ=             -0.8786   YZ=              0.2786

 Normal termination of Gaussian 16 at Fri Dec  8 05:30:01 2023.
