 Gaussian 16, Revision B.01,
 Gaussian 16:  ES64L-G16RevB.01 20-Dec-2017

 -------------------------
 #P B3LYP/6-311+g(d) force
 -------------------------

 -----
 DPGEN
 -----
 Symbolic Z-matrix:
 Charge =  0 Multiplicity = 2

                         Standard orientation:
 ---------------------------------------------------------------------
 Center     Atomic      Atomic             Coordinates (Angstroms)
 Number     Number       Type             X           Y           Z
 ---------------------------------------------------------------------
      1         11           0       -3.317077   -0.866411   -1.162563
      2         11           0       -0.180466   -0.979129   -1.032740
      3         11           0        1.774148   -1.467497    0.958507
      4         11           0       -1.769641    2.107240   -0.262952
      5         11           0       -1.680269   -0.623160    1.881104
      6         11           0        3.912598   -0.026732   -0.967994
      7         11           0        1.260707    1.855689    0.586639
 ---------------------------------------------------------------------

 SCF Done:  E(UB3LYP) =  -1136.12015302     A.U. after   24 cycles

 The electronic state is 2-A.
 Alpha  occ. eigenvalues --  -38.45074 -38.44519 -38.44168 -38.44023 -38.43717
 Alpha  occ. eigenvalues --  -38.42614 -38.42479  -2.20896  -2.20414  -2.20168
 Alpha  occ. eigenvalues --   -2.19906  -2.19682  -2.18518  -2.18379  -1.14562
 Alpha  occ. eigenvalues --   -1.14536  -1.14520  -1.14110  -1.14062  -1.14028
 Alpha  occ. eigenvalues --   -1.14016  -1.13810  -1.13781  -1.13571  -1.13536
 Alpha  occ. eigenvalues --   -1.13525  -1.13368  -1.13312  -1.13271  -1.12232
 Alpha  occ. eigenvalues --   -1.12185  -1.12158  -1.12069  -1.12050  -1.11976
 Alpha  occ. eigenvalues --   -0.18982  -0.14488  -0.11289  -0.10988
 Alpha virt. eigenvalues --   -0.06810  -0.04834  -0.04738  -0.03101  -0.02704
 Alpha virt. eigenvalues --   -0.02272  -0.02141  -0.01229  -0.00675  -0.00043
 Alpha virt. eigenvalues --    0.00091   0.00368   0.00405   0.00768   0.00797

  Beta  occ. eigenvalues --  -38.45034 -38.44461 -38.44153 -38.43980 -38.43688
  Beta  occ. eigenvalues --  -38.42606 -38.42475  -2.20820  -2.20310  -2.20147
  Beta  occ. eigenvalues --   -2.19827  -2.19635  -2.18505  -2.18376  -1.14512
  Beta  occ. eigenvalues --   -1.14484  -1.14471  -1.14040  -1.13978  -1.13958
  Beta  occ. eigenvalues --   -1.13955  -1.13796  -1.13765  -1.13512  -1.13488
  Beta  occ. eigenvalues --   -1.13469  -1.13338  -1.13280  -1.13198  -1.12228
  Beta  occ. eigenvalues --   -1.12169  -1.12143  -1.12069  -1.12032  -1.11967
  Beta  occ. eigenvalues --   -0.18277  -0.14097  -0.10848
  Beta virt. eigenvalues --   -0.07459  -0.06491  -0.04677  -0.04227  -0.02980
  Beta virt. eigenvalues --   -0.02434  -0.01639  -0.01528  -0.00738  -0.00586
  Beta virt. eigenvalues --    0.00066   0.00162   0.00441   0.00480   0.00798

 Mulliken charges and spin densities:
               1          2
     1  Na   0.745357   0.176922
     2  Na  -1.162312   0.043883
     3  Na   0.908258   0.279617
     4  Na  -0.208585   0.098623
     5  Na  -0.099187   0.206632
     6  Na   0.509014   0.156041
     7  Na  -0.692544   0.038282
 Sum of Mulliken charges =  -0.00000   1.00000

 Dipole moment (field-independent basis, Debye):
    X=              0.3542    Y=             -0.2998    Z=              0.1695  Tot=              0.4940
 Quadrupole moment (field-independent basis, Debye-Ang):
   XX=            -47.8390   YY=            -79.9632   ZZ=            -65.5951
   XY=              0.3809   XZ=             -3.2529   YZ=             -2.0638

 Normal termination of Gaussian 16 at Tue Dec  5 12:59:07 2023.
