 Gaussian 16, Revision B.01,
 Gaussian 16:  ES64L-G16RevB.01 20-Dec-2017

 -------------------------
 #P B3LYP/6-311+g(d) force
 -------------------------

 -----
 DPGEN
 -----
 Symbolic Z-matrix:
 Charge =  0 Multiplicity = 2

                         Standard orientation:
 ---------------------------------------------------------------------
 Center     Atomic      Atomic             Coordinates (Angstroms)
 Number     Number       Type             X           Y           Z
 ---------------------------------------------------------------------
      1         11           0        0.551928   -2.482917   -0.869176
      2         11           0       -1.541240    3.604511   -0.168951
      3         11           0        0.284696    0.532616   -0.907877
      4         11           0       -1.538833   -1.950945    1.918324
      5         11           0        1.569611    0.937542    2.053159
      6         11           0       -2.957910   -0.702263   -1.147730
      7         11           0        3.631749    0.061456   -0.877749
 ---------------------------------------------------------------------

 SCF Done:  E(UB3LYP) =  -1136.12013986     A.U. after   21 cycles

 The electronic state is 2-A.
 Alpha  occ. eigenvalues --  -38.44712 -38.44586 -38.44330 -38.44245 -38.44116
 Alpha  occ. eigenvalues --  -38.43519 -38.42813  -2.20495  -2.20395  -2.20122
 Alpha  occ. eigenvalues --   -2.20055  -2.19966  -2.19248  -2.18805  -1.14184
 Alpha  occ. eigenvalues --   -1.14159  -1.14103  -1.14084  -1.14022  -1.14005
 Alpha  occ. eigenvalues --   -1.13805  -1.13770  -1.13756  -1.13723  -1.13717
 Alpha  occ. eigenvalues --   -1.13703  -1.13672  -1.13621  -1.13536  -1.12931
 Alpha  occ. eigenvalues --   -1.12909  -1.12892  -1.12520  -1.12486  -1.12406
 Alpha  occ. eigenvalues --   -0.17722  -0.12914  -0.11430  -0.11145
 Alpha virt. eigenvalues --   -0.06102  -0.05638  -0.04488  -0.03439  -0.02857
 Alpha virt. eigenvalues --   -0.02521  -0.01914  -0.01256  -0.00754  -0.00027
 Alpha virt. eigenvalues --    0.00017   0.00155   0.00286   0.00530   0.00681

  Beta  occ. eigenvalues --  -38.44695 -38.44520 -38.44325 -38.44185 -38.44092
  Beta  occ. eigenvalues --  -38.43535 -38.42785  -2.20464  -2.20272  -2.20114
  Beta  occ. eigenvalues --   -2.19943  -2.19926  -2.19277  -2.18759  -1.14150
  Beta  occ. eigenvalues --   -1.14140  -1.14083  -1.14003  -1.13929  -1.13923
  Beta  occ. eigenvalues --   -1.13796  -1.13756  -1.13751  -1.13690  -1.13645
  Beta  occ. eigenvalues --   -1.13626  -1.13593  -1.13575  -1.13508  -1.12950
  Beta  occ. eigenvalues --   -1.12927  -1.12911  -1.12476  -1.12439  -1.12372
  Beta  occ. eigenvalues --   -0.16994  -0.12713  -0.11308
  Beta virt. eigenvalues --   -0.07339  -0.06029  -0.05242  -0.03987  -0.03209
  Beta virt. eigenvalues --   -0.02100  -0.02037  -0.01771  -0.01143  -0.00312
  Beta virt. eigenvalues --   -0.00060   0.00097   0.00254   0.00342   0.00682

 Mulliken charges and spin densities:
               1          2
     1  Na   0.175465   0.124063
     2  Na  -0.028348  -0.048728
     3  Na  -0.125196  -0.039774
     4  Na  -0.161446   0.391890
     5  Na  -0.362864   0.465898
     6  Na  -0.112964   0.074701
     7  Na   0.615353   0.031950
 Sum of Mulliken charges =  -0.00000   1.00000

 Dipole moment (field-independent basis, Debye):
    X=              0.3010    Y=             -0.7927    Z=              0.1682  Tot=              0.8645
 Quadrupole moment (field-independent basis, Debye-Ang):
   XX=            -55.1651   YY=            -68.6715   ZZ=            -68.2935
   XY=              2.2217   XZ=             -0.3172   YZ=              1.7825

 Normal termination of Gaussian 16 at Tue Dec  5 15:14:15 2023.
