 Gaussian 16, Revision B.01,
 Gaussian 16:  ES64L-G16RevB.01 20-Dec-2017

 -------------------------
 #P B3LYP/6-311+g(d) force
 -------------------------

 -----
 DPGEN
 -----
 Symbolic Z-matrix:
 Charge =  0 Multiplicity = 2

                         Standard orientation:
 ---------------------------------------------------------------------
 Center     Atomic      Atomic             Coordinates (Angstroms)
 Number     Number       Type             X           Y           Z
 ---------------------------------------------------------------------
      1         11           0        3.021396   -1.859137   -0.565000
      2         11           0        1.214700    0.913692   -2.140817
      3         11           0       -0.201006    3.241110    0.588308
      4         11           0       -1.919569    0.826381   -1.297291
      5         11           0       -3.479533   -1.563392    0.569943
      6         11           0        1.540458    0.600040    2.574782
      7         11           0       -0.176446   -2.158694    0.270075
 ---------------------------------------------------------------------

 SCF Done:  E(UB3LYP) =  -1136.12723839     A.U. after   20 cycles

 The electronic state is 2-A.
 Alpha  occ. eigenvalues --  -38.45432 -38.44505 -38.44011 -38.43697 -38.43572
 Alpha  occ. eigenvalues --  -38.43365 -38.43251  -2.21206  -2.20339  -2.19792
 Alpha  occ. eigenvalues --   -2.19499  -2.19441  -2.19209  -2.19062  -1.14866
 Alpha  occ. eigenvalues --   -1.14836  -1.14810  -1.14046  -1.13978  -1.13931
 Alpha  occ. eigenvalues --   -1.13474  -1.13456  -1.13427  -1.13180  -1.13158
 Alpha  occ. eigenvalues --   -1.13156  -1.13140  -1.13113  -1.13032  -1.12909
 Alpha  occ. eigenvalues --   -1.12901  -1.12825  -1.12721  -1.12719  -1.12691
 Alpha  occ. eigenvalues --   -0.17409  -0.12626  -0.12331  -0.11865
 Alpha virt. eigenvalues --   -0.05593  -0.05258  -0.04779  -0.03602  -0.03520
 Alpha virt. eigenvalues --   -0.02839  -0.01438  -0.01141  -0.00578  -0.00092
 Alpha virt. eigenvalues --    0.00065   0.00323   0.00395   0.00465   0.00590

  Beta  occ. eigenvalues --  -38.45329 -38.44440 -38.44007 -38.43693 -38.43555
  Beta  occ. eigenvalues --  -38.43361 -38.43252  -2.21014  -2.20219  -2.19786
  Beta  occ. eigenvalues --   -2.19492  -2.19410  -2.19201  -2.19063  -1.14734
  Beta  occ. eigenvalues --   -1.14709  -1.14671  -1.13958  -1.13900  -1.13845
  Beta  occ. eigenvalues --   -1.13473  -1.13447  -1.13409  -1.13178  -1.13144
  Beta  occ. eigenvalues --   -1.13133  -1.13125  -1.13092  -1.13014  -1.12900
  Beta  occ. eigenvalues --   -1.12885  -1.12825  -1.12721  -1.12719  -1.12692
  Beta  occ. eigenvalues --   -0.16724  -0.12435  -0.12070
  Beta virt. eigenvalues --   -0.08014  -0.05154  -0.04979  -0.04582  -0.03136
  Beta virt. eigenvalues --   -0.02898  -0.02280  -0.01408  -0.01008  -0.00251
  Beta virt. eigenvalues --   -0.00089   0.00294   0.00364   0.00558   0.00618

 Mulliken charges and spin densities:
               1          2
     1  Na   0.694841   0.152522
     2  Na  -0.100965   0.140887
     3  Na  -0.187728   0.040988
     4  Na   0.316235   0.238929
     5  Na   0.453084  -0.149031
     6  Na   0.064419   0.441947
     7  Na  -1.239886   0.133758
 Sum of Mulliken charges =  -0.00000   1.00000

 Dipole moment (field-independent basis, Debye):
    X=              0.5738    Y=              0.4930    Z=              0.3961  Tot=              0.8539
 Quadrupole moment (field-independent basis, Debye-Ang):
   XX=            -62.1006   YY=            -68.8888   ZZ=            -65.9142
   XY=             -1.7155   XZ=             -1.6013   YZ=              0.2118

 Normal termination of Gaussian 16 at Sun Dec  3 14:52:17 2023.
