 Gaussian 16, Revision B.01,
 Gaussian 16:  ES64L-G16RevB.01 20-Dec-2017

 -------------------------
 #P B3LYP/6-311+g(d) force
 -------------------------

 -----
 DPGEN
 -----
 Symbolic Z-matrix:
 Charge =  0 Multiplicity = 2

                         Standard orientation:
 ---------------------------------------------------------------------
 Center     Atomic      Atomic             Coordinates (Angstroms)
 Number     Number       Type             X           Y           Z
 ---------------------------------------------------------------------
      1         11           0        0.424274   -0.007738   -1.628459
      2         11           0        1.105029   -2.350418    0.402270
      3         11           0        3.387943    0.103792   -0.207882
      4         11           0       -0.497877    0.150867    1.922178
      5         11           0       -2.279212   -1.847020   -0.347794
      6         11           0        0.872836    2.577869    0.178143
      7         11           0       -3.012992    1.372647   -0.318456
 ---------------------------------------------------------------------

 SCF Done:  E(UB3LYP) =  -1136.13439220     A.U. after   20 cycles

 The electronic state is 2-A.
 Alpha  occ. eigenvalues --  -38.44581 -38.44307 -38.43522 -38.43481 -38.43284
 Alpha  occ. eigenvalues --  -38.43126 -38.42811  -2.20418  -2.20120  -2.19471
 Alpha  occ. eigenvalues --   -2.19397  -2.19230  -2.18998  -2.18726  -1.14096
 Alpha  occ. eigenvalues --   -1.14074  -1.14055  -1.13793  -1.13787  -1.13753
 Alpha  occ. eigenvalues --   -1.13178  -1.13141  -1.13099  -1.13064  -1.13051
 Alpha  occ. eigenvalues --   -1.13032  -1.12913  -1.12865  -1.12847  -1.12686
 Alpha  occ. eigenvalues --   -1.12666  -1.12599  -1.12418  -1.12387  -1.12342
 Alpha  occ. eigenvalues --   -0.18896  -0.13514  -0.12054  -0.10770
 Alpha virt. eigenvalues --   -0.06242  -0.05063  -0.04068  -0.03373  -0.02749
 Alpha virt. eigenvalues --   -0.02400  -0.02025  -0.01018  -0.00318  -0.00078
 Alpha virt. eigenvalues --    0.00007   0.00313   0.00754   0.00850   0.00917

  Beta  occ. eigenvalues --  -38.44577 -38.44299 -38.43511 -38.43427 -38.43191
  Beta  occ. eigenvalues --  -38.43117 -38.42798  -2.20413  -2.20108  -2.19382
  Beta  occ. eigenvalues --   -2.19372  -2.19060  -2.18986  -2.18705  -1.14084
  Beta  occ. eigenvalues --   -1.14064  -1.14054  -1.13789  -1.13762  -1.13744
  Beta  occ. eigenvalues --   -1.13110  -1.13082  -1.13057  -1.13041  -1.13012
  Beta  occ. eigenvalues --   -1.12997  -1.12805  -1.12747  -1.12727  -1.12672
  Beta  occ. eigenvalues --   -1.12626  -1.12592  -1.12408  -1.12344  -1.12327
  Beta  occ. eigenvalues --   -0.18181  -0.13250  -0.11799
  Beta virt. eigenvalues --   -0.06885  -0.06131  -0.05064  -0.04031  -0.02660
  Beta virt. eigenvalues --   -0.01990  -0.01877  -0.01378  -0.00975  -0.00310
  Beta virt. eigenvalues --   -0.00064   0.00109   0.00357   0.00833   0.00865

 Mulliken charges and spin densities:
               1          2
     1  Na  -0.374933   0.519543
     2  Na   0.198197   0.027509
     3  Na   0.261411  -0.021536
     4  Na  -0.278236   0.609625
     5  Na   0.123505   0.053871
     6  Na   0.049617  -0.142502
     7  Na   0.020440  -0.046510
 Sum of Mulliken charges =  -0.00000   1.00000

 Dipole moment (field-independent basis, Debye):
    X=              0.1103    Y=              0.2068    Z=             -0.0123  Tot=              0.2347
 Quadrupole moment (field-independent basis, Debye-Ang):
   XX=            -51.1901   YY=            -67.6869   ZZ=            -73.7967
   XY=             -0.5403   XZ=              1.4752   YZ=             -0.4002

 Normal termination of Gaussian 16 at Thu Dec  7 21:44:30 2023.
