 Gaussian 16, Revision B.01,
 Gaussian 16:  ES64L-G16RevB.01 20-Dec-2017

 -------------------------
 #P B3LYP/6-311+g(d) force
 -------------------------

 -----
 DPGEN
 -----
 Symbolic Z-matrix:
 Charge =  0 Multiplicity = 2

                         Standard orientation:
 ---------------------------------------------------------------------
 Center     Atomic      Atomic             Coordinates (Angstroms)
 Number     Number       Type             X           Y           Z
 ---------------------------------------------------------------------
      1         11           0       -0.428755    1.783690    0.620908
      2         11           0        2.808803    0.026036    0.208337
      3         11           0       -0.309096   -1.882614   -1.067120
      4         11           0       -2.944404   -0.369535    1.764571
      5         11           0       -4.111669   -0.376863   -1.175412
      6         11           0        3.190040   -2.866431    0.246952
      7         11           0        1.795081    3.685717   -0.598237
 ---------------------------------------------------------------------

 SCF Done:  E(UB3LYP) =  -1136.11710762     A.U. after   25 cycles

 The electronic state is 2-A.
 Alpha  occ. eigenvalues --  -38.45271 -38.45020 -38.44433 -38.44108 -38.43636
 Alpha  occ. eigenvalues --  -38.43531 -38.43514  -2.21031  -2.20810  -2.20300
 Alpha  occ. eigenvalues --   -2.19949  -2.19491  -2.19379  -2.19344  -1.14735
 Alpha  occ. eigenvalues --   -1.14723  -1.14599  -1.14493  -1.14468  -1.14436
 Alpha  occ. eigenvalues --   -1.14015  -1.13986  -1.13975  -1.13600  -1.13587
 Alpha  occ. eigenvalues --   -1.13550  -1.13204  -1.13176  -1.13140  -1.13042
 Alpha  occ. eigenvalues --   -1.13024  -1.13003  -1.12997  -1.12995  -1.12945
 Alpha  occ. eigenvalues --   -0.16986  -0.14070  -0.12642  -0.09760
 Alpha virt. eigenvalues --   -0.07115  -0.05305  -0.04868  -0.03669  -0.02857
 Alpha virt. eigenvalues --   -0.02442  -0.01797  -0.01548  -0.01237  -0.00745
 Alpha virt. eigenvalues --   -0.00089   0.00045   0.00322   0.00473   0.00556

  Beta  occ. eigenvalues --  -38.45228 -38.45001 -38.44428 -38.44101 -38.43615
  Beta  occ. eigenvalues --  -38.43518 -38.43454  -2.20952  -2.20776  -2.20292
  Beta  occ. eigenvalues --   -2.19937  -2.19456  -2.19319  -2.19270  -1.14682
  Beta  occ. eigenvalues --   -1.14663  -1.14538  -1.14468  -1.14439  -1.14404
  Beta  occ. eigenvalues --   -1.14006  -1.13982  -1.13965  -1.13589  -1.13577
  Beta  occ. eigenvalues --   -1.13544  -1.13182  -1.13144  -1.13105  -1.12982
  Beta  occ. eigenvalues --   -1.12978  -1.12970  -1.12948  -1.12922  -1.12914
  Beta  occ. eigenvalues --   -0.16548  -0.13750  -0.12434
  Beta virt. eigenvalues --   -0.06826  -0.06161  -0.05185  -0.04615  -0.03318
  Beta virt. eigenvalues --   -0.02689  -0.02020  -0.01637  -0.01163  -0.01073
  Beta virt. eigenvalues --   -0.00350   0.00114   0.00220   0.00481   0.00587

 Mulliken charges and spin densities:
               1          2
     1  Na  -1.656933   0.303832
     2  Na  -0.716766   0.031032
     3  Na  -0.410969   0.318957
     4  Na   0.883380   0.055550
     5  Na   0.256550   0.122752
     6  Na   0.706648   0.018431
     7  Na   0.938091   0.149445
 Sum of Mulliken charges =  -0.00000   1.00000

 Dipole moment (field-independent basis, Debye):
    X=              0.2264    Y=             -0.4768    Z=             -0.4495  Tot=              0.6933
 Quadrupole moment (field-independent basis, Debye-Ang):
   XX=            -55.1210   YY=            -64.0904   ZZ=            -75.6721
   XY=             -1.2859   XZ=              2.0770   YZ=             -5.1431

 Normal termination of Gaussian 16 at Tue Nov 28 21:27:07 2023.
