 Gaussian 16, Revision B.01,
 Gaussian 16:  ES64L-G16RevB.01 20-Dec-2017

 -------------------------
 #P B3LYP/6-311+g(d) force
 -------------------------

 -----
 DPGEN
 -----
 Symbolic Z-matrix:
 Charge =  0 Multiplicity = 2

                         Standard orientation:
 ---------------------------------------------------------------------
 Center     Atomic      Atomic             Coordinates (Angstroms)
 Number     Number       Type             X           Y           Z
 ---------------------------------------------------------------------
      1         11           0       -2.216217   -2.046900   -1.445039
      2         11           0        1.109389    1.337467    1.624143
      3         11           0        1.683933   -2.139285   -0.310707
      4         11           0        3.679531    0.000506   -0.635702
      5         11           0       -3.140336    1.401219   -0.037977
      6         11           0       -1.190162   -1.482429    1.836021
      7         11           0        0.073861    2.929422   -1.030739
 ---------------------------------------------------------------------

 SCF Done:  E(UB3LYP) =  -1136.12288956     A.U. after   21 cycles

 The electronic state is 2-A.
 Alpha  occ. eigenvalues --  -38.44832 -38.44360 -38.44215 -38.44022 -38.43882
 Alpha  occ. eigenvalues --  -38.43807 -38.43710  -2.20584  -2.20139  -2.20054
 Alpha  occ. eigenvalues --   -2.19805  -2.19727  -2.19650  -2.19555  -1.14270
 Alpha  occ. eigenvalues --   -1.14240  -1.14214  -1.13811  -1.13810  -1.13785
 Alpha  occ. eigenvalues --   -1.13774  -1.13697  -1.13667  -1.13514  -1.13472
 Alpha  occ. eigenvalues --   -1.13431  -1.13399  -1.13364  -1.13346  -1.13320
 Alpha  occ. eigenvalues --   -1.13303  -1.13277  -1.13218  -1.13202  -1.13174
 Alpha  occ. eigenvalues --   -0.17259  -0.13287  -0.12269  -0.10719
 Alpha virt. eigenvalues --   -0.06418  -0.05619  -0.04434  -0.03640  -0.03138
 Alpha virt. eigenvalues --   -0.02487  -0.01706  -0.01182  -0.00762  -0.00463
 Alpha virt. eigenvalues --   -0.00203   0.00194   0.00433   0.00510   0.00652

  Beta  occ. eigenvalues --  -38.44822 -38.44333 -38.44191 -38.44017 -38.43836
  Beta  occ. eigenvalues --  -38.43798 -38.43646  -2.20567  -2.20087  -2.20011
  Beta  occ. eigenvalues --   -2.19795  -2.19644  -2.19636  -2.19440  -1.14247
  Beta  occ. eigenvalues --   -1.14231  -1.14203  -1.13782  -1.13773  -1.13752
  Beta  occ. eigenvalues --   -1.13736  -1.13665  -1.13638  -1.13497  -1.13463
  Beta  occ. eigenvalues --   -1.13424  -1.13344  -1.13308  -1.13297  -1.13289
  Beta  occ. eigenvalues --   -1.13281  -1.13261  -1.13141  -1.13128  -1.13076
  Beta  occ. eigenvalues --   -0.16638  -0.12968  -0.12137
  Beta virt. eigenvalues --   -0.07060  -0.06234  -0.05412  -0.03934  -0.03481
  Beta virt. eigenvalues --   -0.02636  -0.01722  -0.01523  -0.01059  -0.00671
  Beta virt. eigenvalues --   -0.00353   0.00064   0.00312   0.00488   0.00656

 Mulliken charges and spin densities:
               1          2
     1  Na  -0.067766   0.173699
     2  Na   0.064168   0.092595
     3  Na  -0.530318   0.126026
     4  Na   0.365811   0.065927
     5  Na  -0.264117   0.136765
     6  Na   0.404693   0.331227
     7  Na   0.027530   0.073760
 Sum of Mulliken charges =  -0.00000   1.00000

 Dipole moment (field-independent basis, Debye):
    X=             -0.3140    Y=              0.2522    Z=             -0.4088  Tot=              0.5739
 Quadrupole moment (field-independent basis, Debye-Ang):
   XX=            -59.8112   YY=            -69.2519   ZZ=            -68.9554
   XY=              2.2007   XZ=             -1.1913   YZ=              0.0253

 Normal termination of Gaussian 16 at Sun Dec  3 19:01:09 2023.
