 Gaussian 16, Revision B.01,
 Gaussian 16:  ES64L-G16RevB.01 20-Dec-2017

 -------------------------
 #P B3LYP/6-311+g(d) force
 -------------------------

 -----
 DPGEN
 -----
 Symbolic Z-matrix:
 Charge =  0 Multiplicity = 2

                         Standard orientation:
 ---------------------------------------------------------------------
 Center     Atomic      Atomic             Coordinates (Angstroms)
 Number     Number       Type             X           Y           Z
 ---------------------------------------------------------------------
      1         11           0        0.379276    3.191258    0.091540
      2         11           0        2.713660   -1.660639   -1.025842
      3         11           0        5.716528   -0.835702    0.337457
      4         11           0        0.979876    0.722300    2.028555
      5         11           0       -0.614027    0.199947   -1.910329
      6         11           0       -4.541970   -0.049294   -1.347657
      7         11           0       -4.633343   -1.567869    1.826275
 ---------------------------------------------------------------------

 SCF Done:  E(UB3LYP) =  -1136.10320858     A.U. after   22 cycles

 The electronic state is 2-A.
 Alpha  occ. eigenvalues --  -38.45108 -38.44595 -38.44420 -38.44378 -38.44330
 Alpha  occ. eigenvalues --  -38.44325 -38.44056  -2.20900  -2.20354  -2.20213
 Alpha  occ. eigenvalues --   -2.20127  -2.20112  -2.20076  -2.19828  -1.14569
 Alpha  occ. eigenvalues --   -1.14538  -1.14530  -1.14011  -1.14010  -1.13969
 Alpha  occ. eigenvalues --   -1.13879  -1.13876  -1.13853  -1.13799  -1.13796
 Alpha  occ. eigenvalues --   -1.13785  -1.13762  -1.13754  -1.13745  -1.13740
 Alpha  occ. eigenvalues --   -1.13735  -1.13714  -1.13513  -1.13492  -1.13448
 Alpha  occ. eigenvalues --   -0.15955  -0.13102  -0.12008  -0.10962
 Alpha virt. eigenvalues --   -0.07073  -0.06044  -0.04534  -0.03397  -0.03052
 Alpha virt. eigenvalues --   -0.02497  -0.02411  -0.01539  -0.01377  -0.00913
 Alpha virt. eigenvalues --   -0.00750  -0.00119   0.00052   0.00223   0.00257

  Beta  occ. eigenvalues --  -38.45057 -38.44541 -38.44418 -38.44400 -38.44321
  Beta  occ. eigenvalues --  -38.44243 -38.44044  -2.20807  -2.20251  -2.20213
  Beta  occ. eigenvalues --   -2.20156  -2.20068  -2.19964  -2.19807  -1.14500
  Beta  occ. eigenvalues --   -1.14478  -1.14461  -1.13940  -1.13939  -1.13906
  Beta  occ. eigenvalues --   -1.13879  -1.13860  -1.13850  -1.13831  -1.13810
  Beta  occ. eigenvalues --   -1.13766  -1.13739  -1.13734  -1.13709  -1.13685
  Beta  occ. eigenvalues --   -1.13649  -1.13630  -1.13500  -1.13481  -1.13417
  Beta  occ. eigenvalues --   -0.15294  -0.12865  -0.11764
  Beta virt. eigenvalues --   -0.07556  -0.06724  -0.05544  -0.04251  -0.03220
  Beta virt. eigenvalues --   -0.02596  -0.02247  -0.02103  -0.01330  -0.01201
  Beta virt. eigenvalues --   -0.00693  -0.00532  -0.00010   0.00217   0.00320

 Mulliken charges and spin densities:
               1          2
     1  Na   0.387271  -0.100364
     2  Na  -0.073065  -0.061525
     3  Na   0.158081   0.044387
     4  Na  -0.205176   0.441215
     5  Na  -0.325386   0.510798
     6  Na  -0.004181  -0.113700
     7  Na   0.062455   0.279189
 Sum of Mulliken charges =  -0.00000   1.00000

 Dipole moment (field-independent basis, Debye):
    X=              0.3383    Y=              1.0346    Z=              0.7511  Tot=              1.3225
 Quadrupole moment (field-independent basis, Debye-Ang):
   XX=            -68.5637   YY=            -67.9234   ZZ=            -66.2044
   XY=              2.0670   XZ=              3.4962   YZ=             -6.3367

 Normal termination of Gaussian 16 at Sun Dec  3 16:38:13 2023.
