 Gaussian 16, Revision B.01,
 Gaussian 16:  ES64L-G16RevB.01 20-Dec-2017

 -------------------------
 #P B3LYP/6-311+g(d) force
 -------------------------

 -----
 DPGEN
 -----
 Symbolic Z-matrix:
 Charge =  0 Multiplicity = 2

                         Standard orientation:
 ---------------------------------------------------------------------
 Center     Atomic      Atomic             Coordinates (Angstroms)
 Number     Number       Type             X           Y           Z
 ---------------------------------------------------------------------
      1         11           0       -0.058699    2.896516   -0.054385
      2         11           0        1.858911   -2.132466   -0.339288
      3         11           0       -1.625152   -2.491466    0.087598
      4         11           0        0.118333   -0.197863    1.844897
      5         11           0        2.783409    0.945640    0.213188
      6         11           0       -0.101561    0.136080   -1.828484
      7         11           0       -2.975240    0.843559    0.076474
 ---------------------------------------------------------------------

 SCF Done:  E(UB3LYP) =  -1136.14167844     A.U. after   18 cycles

 The electronic state is 2-A.
 Alpha  occ. eigenvalues --  -38.43844 -38.43496 -38.43488 -38.43366 -38.43355
 Alpha  occ. eigenvalues --  -38.43319 -38.43274  -2.19671  -2.19384  -2.19341
 Alpha  occ. eigenvalues --   -2.19277  -2.19265  -2.19237  -2.19220  -1.13348
 Alpha  occ. eigenvalues --   -1.13337  -1.13310  -1.13099  -1.13059  -1.13044
 Alpha  occ. eigenvalues --   -1.13038  -1.13014  -1.12980  -1.12960  -1.12960
 Alpha  occ. eigenvalues --   -1.12944  -1.12927  -1.12893  -1.12885  -1.12883
 Alpha  occ. eigenvalues --   -1.12876  -1.12867  -1.12850  -1.12841  -1.12828
 Alpha  occ. eigenvalues --   -0.18996  -0.12951  -0.12681  -0.10863
 Alpha virt. eigenvalues --   -0.05370  -0.05023  -0.04784  -0.03153  -0.03010
 Alpha virt. eigenvalues --   -0.02556  -0.01321  -0.01111  -0.00231  -0.00201
 Alpha virt. eigenvalues --    0.00012   0.00378   0.00863   0.00914   0.00938

  Beta  occ. eigenvalues --  -38.43842 -38.43489 -38.43484 -38.43355 -38.43350
  Beta  occ. eigenvalues --  -38.43239 -38.43193  -2.19670  -2.19375  -2.19336
  Beta  occ. eigenvalues --   -2.19249  -2.19215  -2.19129  -2.19089  -1.13340
  Beta  occ. eigenvalues --   -1.13328  -1.13309  -1.13088  -1.13043  -1.13030
  Beta  occ. eigenvalues --   -1.13012  -1.12986  -1.12978  -1.12936  -1.12922
  Beta  occ. eigenvalues --   -1.12893  -1.12875  -1.12866  -1.12843  -1.12841
  Beta  occ. eigenvalues --   -1.12799  -1.12784  -1.12781  -1.12746  -1.12738
  Beta  occ. eigenvalues --   -0.18246  -0.12702  -0.12422
  Beta virt. eigenvalues --   -0.06929  -0.05370  -0.05011  -0.04746  -0.02346
  Beta virt. eigenvalues --   -0.02203  -0.01498  -0.01237  -0.01039  -0.00286
  Beta virt. eigenvalues --   -0.00249   0.00128   0.00390   0.00883   0.00921

 Mulliken charges and spin densities:
               1          2
     1  Na   0.100983  -0.111783
     2  Na   0.231583  -0.015325
     3  Na   0.088792  -0.109836
     4  Na  -0.353513   0.716517
     5  Na   0.225104  -0.024191
     6  Na  -0.292149   0.675868
     7  Na  -0.000800  -0.131251
 Sum of Mulliken charges =  -0.00000   1.00000

 Dipole moment (field-independent basis, Debye):
    X=             -0.2106    Y=              0.0221    Z=              0.0311  Tot=              0.2141
 Quadrupole moment (field-independent basis, Debye-Ang):
   XX=            -58.3180   YY=            -61.5659   ZZ=            -73.7076
   XY=              0.1242   XZ=             -0.4566   YZ=              0.8172

 Normal termination of Gaussian 16 at Fri Dec  8 00:13:12 2023.
