 Gaussian 16, Revision B.01,
 Gaussian 16:  ES64L-G16RevB.01 20-Dec-2017

 -------------------------
 #P B3LYP/6-311+g(d) force
 -------------------------

 -----
 DPGEN
 -----
 Symbolic Z-matrix:
 Charge =  0 Multiplicity = 2

                         Standard orientation:
 ---------------------------------------------------------------------
 Center     Atomic      Atomic             Coordinates (Angstroms)
 Number     Number       Type             X           Y           Z
 ---------------------------------------------------------------------
      1         11           0        2.471023   -0.821397    1.215532
      2         11           0        0.223616    0.973432   -0.951871
      3         11           0       -2.850597    2.244397    0.111122
      4         11           0        0.286644   -2.185193   -1.545219
      5         11           0        3.582424    1.482089   -0.612982
      6         11           0       -2.819805   -1.045488   -0.912554
      7         11           0       -0.893305   -0.647840    2.695971
 ---------------------------------------------------------------------

 SCF Done:  E(UB3LYP) =  -1136.12168138     A.U. after   25 cycles

 The electronic state is 2-A.
 Alpha  occ. eigenvalues --  -38.45584 -38.44483 -38.44436 -38.44025 -38.43886
 Alpha  occ. eigenvalues --  -38.43020 -38.42614  -2.21375  -2.20339  -2.20270
 Alpha  occ. eigenvalues --   -2.19856  -2.19800  -2.18826  -2.18474  -1.15031
 Alpha  occ. eigenvalues --   -1.14993  -1.14980  -1.14023  -1.14005  -1.13980
 Alpha  occ. eigenvalues --   -1.13959  -1.13935  -1.13888  -1.13529  -1.13511
 Alpha  occ. eigenvalues --   -1.13505  -1.13497  -1.13481  -1.13396  -1.12495
 Alpha  occ. eigenvalues --   -1.12490  -1.12473  -1.12177  -1.12105  -1.12104
 Alpha  occ. eigenvalues --   -0.17947  -0.13657  -0.12144  -0.11000
 Alpha virt. eigenvalues --   -0.06209  -0.05592  -0.04369  -0.03700  -0.02890
 Alpha virt. eigenvalues --   -0.02548  -0.02144  -0.01094  -0.00725  -0.00189
 Alpha virt. eigenvalues --   -0.00052   0.00231   0.00308   0.00453   0.00722

  Beta  occ. eigenvalues --  -38.45462 -38.44462 -38.44426 -38.44018 -38.43861
  Beta  occ. eigenvalues --  -38.43023 -38.42593  -2.21150  -2.20303  -2.20254
  Beta  occ. eigenvalues --   -2.19843  -2.19757  -2.18832  -2.18438  -1.14876
  Beta  occ. eigenvalues --   -1.14844  -1.14816  -1.13998  -1.13965  -1.13954
  Beta  occ. eigenvalues --   -1.13936  -1.13927  -1.13876  -1.13515  -1.13498
  Beta  occ. eigenvalues --   -1.13488  -1.13469  -1.13448  -1.13367  -1.12499
  Beta  occ. eigenvalues --   -1.12489  -1.12476  -1.12146  -1.12084  -1.12075
  Beta  occ. eigenvalues --   -0.17262  -0.13533  -0.10819
  Beta virt. eigenvalues --   -0.07912  -0.06113  -0.05215  -0.03960  -0.03047
  Beta virt. eigenvalues --   -0.02405  -0.02082  -0.01981  -0.00890  -0.00408
  Beta virt. eigenvalues --   -0.00101   0.00025   0.00282   0.00465   0.00606

 Mulliken charges and spin densities:
               1          2
     1  Na   0.206169   0.184858
     2  Na  -1.446429   0.306948
     3  Na   0.507325  -0.038025
     4  Na  -0.081830   0.004014
     5  Na   0.317349  -0.011861
     6  Na   0.688476   0.057496
     7  Na  -0.191060   0.496570
 Sum of Mulliken charges =  -0.00000   1.00000

 Dipole moment (field-independent basis, Debye):
    X=              0.1863    Y=             -0.4597    Z=              0.5504  Tot=              0.7409
 Quadrupole moment (field-independent basis, Debye-Ang):
   XX=            -55.5938   YY=            -74.0476   ZZ=            -67.3072
   XY=              2.1447   XZ=             -1.3116   YZ=             -2.4671

 Normal termination of Gaussian 16 at Tue Dec  5 21:23:37 2023.
