 Gaussian 16, Revision B.01,
 Gaussian 16:  ES64L-G16RevB.01 20-Dec-2017

 -------------------------
 #P B3LYP/6-311+g(d) force
 -------------------------

 -----
 DPGEN
 -----
 Symbolic Z-matrix:
 Charge =  0 Multiplicity = 2

                         Standard orientation:
 ---------------------------------------------------------------------
 Center     Atomic      Atomic             Coordinates (Angstroms)
 Number     Number       Type             X           Y           Z
 ---------------------------------------------------------------------
      1         11           0       -1.856084   -2.837824   -1.623200
      2         11           0        0.325627    3.041531   -1.716420
      3         11           0       -2.253443    2.237694    1.544819
      4         11           0        4.281238   -0.293871    0.011400
      5         11           0        1.893807   -1.139000    1.835306
      6         11           0        0.085677   -0.116255   -1.024704
      7         11           0       -2.476821   -0.892277    0.972800
 ---------------------------------------------------------------------

 SCF Done:  E(UB3LYP) =  -1136.11693735     A.U. after   20 cycles

 The electronic state is 2-A.
 Alpha  occ. eigenvalues --  -38.44648 -38.44554 -38.44037 -38.43869 -38.43739
 Alpha  occ. eigenvalues --  -38.43594 -38.43447  -2.20429  -2.20371  -2.19843
 Alpha  occ. eigenvalues --   -2.19669  -2.19638  -2.19513  -2.19278  -1.14151
 Alpha  occ. eigenvalues --   -1.14091  -1.14078  -1.14030  -1.14015  -1.13950
 Alpha  occ. eigenvalues --   -1.13553  -1.13501  -1.13444  -1.13369  -1.13332
 Alpha  occ. eigenvalues --   -1.13310  -1.13306  -1.13275  -1.13256  -1.13219
 Alpha  occ. eigenvalues --   -1.13149  -1.13130  -1.12938  -1.12927  -1.12898
 Alpha  occ. eigenvalues --   -0.17160  -0.13221  -0.12000  -0.11492
 Alpha virt. eigenvalues --   -0.06255  -0.04867  -0.04574  -0.03414  -0.03079
 Alpha virt. eigenvalues --   -0.02570  -0.01957  -0.01208  -0.00753  -0.00269
 Alpha virt. eigenvalues --   -0.00066   0.00050   0.00283   0.00502   0.00688

  Beta  occ. eigenvalues --  -38.44654 -38.44534 -38.43989 -38.43806 -38.43707
  Beta  occ. eigenvalues --  -38.43555 -38.43422  -2.20442  -2.20333  -2.19757
  Beta  occ. eigenvalues --   -2.19582  -2.19553  -2.19446  -2.19231  -1.14148
  Beta  occ. eigenvalues --   -1.14100  -1.14083  -1.14006  -1.13989  -1.13934
  Beta  occ. eigenvalues --   -1.13483  -1.13444  -1.13384  -1.13303  -1.13277
  Beta  occ. eigenvalues --   -1.13271  -1.13233  -1.13201  -1.13185  -1.13155
  Beta  occ. eigenvalues --   -1.13111  -1.13071  -1.12900  -1.12895  -1.12870
  Beta  occ. eigenvalues --   -0.16548  -0.12915  -0.11504
  Beta virt. eigenvalues --   -0.07825  -0.06075  -0.04564  -0.04135  -0.03092
  Beta virt. eigenvalues --   -0.02848  -0.02106  -0.01702  -0.01087  -0.00402
  Beta virt. eigenvalues --   -0.00035  -0.00006   0.00239   0.00351   0.00655

 Mulliken charges and spin densities:
               1          2
     1  Na   0.372530   0.062112
     2  Na   0.627952   0.349612
     3  Na  -0.165686   0.156625
     4  Na   0.096915  -0.029734
     5  Na   0.229171   0.204589
     6  Na  -1.390282  -0.070882
     7  Na   0.229398   0.327678
 Sum of Mulliken charges =  -0.00000   1.00000

 Dipole moment (field-independent basis, Debye):
    X=              0.9783    Y=             -0.1351    Z=              0.1561  Tot=              0.9999
 Quadrupole moment (field-independent basis, Debye-Ang):
   XX=            -60.7764   YY=            -66.8335   ZZ=            -66.3591
   XY=              2.5624   XZ=             -4.0910   YZ=              0.4833

 Normal termination of Gaussian 16 at Mon Dec  4 05:26:11 2023.
