 Gaussian 16, Revision B.01,
 Gaussian 16:  ES64L-G16RevB.01 20-Dec-2017

 -------------------------
 #P B3LYP/6-311+g(d) force
 -------------------------

 -----
 DPGEN
 -----
 Symbolic Z-matrix:
 Charge =  0 Multiplicity = 2

                         Standard orientation:
 ---------------------------------------------------------------------
 Center     Atomic      Atomic             Coordinates (Angstroms)
 Number     Number       Type             X           Y           Z
 ---------------------------------------------------------------------
      1         11           0       -1.180962   -0.105221    1.918492
      2         11           0        3.476949   -0.387226   -0.984846
      3         11           0        1.669185   -1.570033    1.165242
      4         11           0        1.408971    2.074928    0.770333
      5         11           0       -3.561426   -1.372576   -0.349626
      6         11           0        0.055614   -0.742170   -1.711617
      7         11           0       -1.868330    2.102298   -0.807977
 ---------------------------------------------------------------------

 SCF Done:  E(UB3LYP) =  -1136.12651686     A.U. after   24 cycles

 The electronic state is 2-A.
 Alpha  occ. eigenvalues --  -38.44523 -38.44409 -38.44152 -38.44010 -38.43859
 Alpha  occ. eigenvalues --  -38.43725 -38.42610  -2.20385  -2.20265  -2.19937
 Alpha  occ. eigenvalues --   -2.19924  -2.19765  -2.19555  -2.18452  -1.14093
 Alpha  occ. eigenvalues --   -1.14038  -1.14015  -1.13972  -1.13926  -1.13863
 Alpha  occ. eigenvalues --   -1.13639  -1.13608  -1.13588  -1.13570  -1.13561
 Alpha  occ. eigenvalues --   -1.13558  -1.13452  -1.13399  -1.13362  -1.13248
 Alpha  occ. eigenvalues --   -1.13207  -1.13158  -1.12136  -1.12125  -1.12081
 Alpha  occ. eigenvalues --   -0.18533  -0.13795  -0.11683  -0.10933
 Alpha virt. eigenvalues --   -0.06569  -0.05104  -0.04645  -0.03208  -0.02832
 Alpha virt. eigenvalues --   -0.02586  -0.02204  -0.00938  -0.00831  -0.00095
 Alpha virt. eigenvalues --    0.00208   0.00276   0.00331   0.00650   0.00801

  Beta  occ. eigenvalues --  -38.44508 -38.44365 -38.44160 -38.43966 -38.43787
  Beta  occ. eigenvalues --  -38.43699 -38.42605  -2.20357  -2.20186  -2.19939
  Beta  occ. eigenvalues --   -2.19860  -2.19636  -2.19506  -2.18446  -1.14075
  Beta  occ. eigenvalues --   -1.14008  -1.13995  -1.13914  -1.13865  -1.13805
  Beta  occ. eigenvalues --   -1.13613  -1.13595  -1.13577  -1.13570  -1.13514
  Beta  occ. eigenvalues --   -1.13487  -1.13364  -1.13299  -1.13273  -1.13204
  Beta  occ. eigenvalues --   -1.13175  -1.13125  -1.12128  -1.12102  -1.12081
  Beta  occ. eigenvalues --   -0.17730  -0.13647  -0.10783
  Beta virt. eigenvalues --   -0.07638  -0.06360  -0.04975  -0.04080  -0.02938
  Beta virt. eigenvalues --   -0.02281  -0.02007  -0.01840  -0.00861  -0.00433
  Beta virt. eigenvalues --   -0.00030   0.00227   0.00360   0.00449   0.00717

 Mulliken charges and spin densities:
               1          2
     1  Na   0.341394   0.262194
     2  Na   0.716145   0.085995
     3  Na  -0.135505   0.091195
     4  Na  -0.535448   0.133009
     5  Na  -0.003835  -0.080918
     6  Na  -0.403989   0.448525
     7  Na   0.021238   0.059999
 Sum of Mulliken charges =  -0.00000   1.00000

 Dipole moment (field-independent basis, Debye):
    X=              0.1853    Y=             -0.0065    Z=             -0.3825  Tot=              0.4250
 Quadrupole moment (field-independent basis, Debye-Ang):
   XX=            -51.1746   YY=            -75.7928   ZZ=            -68.0851
   XY=              0.1024   XZ=             -0.5329   YZ=             -3.2369

 Normal termination of Gaussian 16 at Tue Dec  5 22:20:26 2023.
