 Gaussian 16, Revision B.01,
 Gaussian 16:  ES64L-G16RevB.01 20-Dec-2017

 -------------------------
 #P B3LYP/6-311+g(d) force
 -------------------------

 -----
 DPGEN
 -----
 Symbolic Z-matrix:
 Charge =  0 Multiplicity = 2

                         Standard orientation:
 ---------------------------------------------------------------------
 Center     Atomic      Atomic             Coordinates (Angstroms)
 Number     Number       Type             X           Y           Z
 ---------------------------------------------------------------------
      1         11           0        1.686054   -2.238090   -0.074021
      2         11           0       -0.368085    2.997112   -0.192331
      3         11           0       -3.089836    0.722185   -0.155903
      4         11           0       -1.611964   -2.559084    0.090835
      5         11           0        0.125689    0.256212    2.131423
      6         11           0        0.206431   -0.155811   -1.737584
      7         11           0        3.051712    0.977476   -0.062419
 ---------------------------------------------------------------------

 SCF Done:  E(UB3LYP) =  -1136.13857405     A.U. after   19 cycles

 The electronic state is 2-A.
 Alpha  occ. eigenvalues --  -38.43934 -38.43925 -38.43768 -38.43674 -38.43421
 Alpha  occ. eigenvalues --  -38.43398 -38.43395  -2.19742  -2.19735  -2.19630
 Alpha  occ. eigenvalues --   -2.19489  -2.19358  -2.19328  -2.19237  -1.13416
 Alpha  occ. eigenvalues --   -1.13411  -1.13408  -1.13396  -1.13386  -1.13381
 Alpha  occ. eigenvalues --   -1.13292  -1.13261  -1.13247  -1.13174  -1.13158
 Alpha  occ. eigenvalues --   -1.13154  -1.13117  -1.13016  -1.12993  -1.12975
 Alpha  occ. eigenvalues --   -1.12951  -1.12925  -1.12898  -1.12891  -1.12866
 Alpha  occ. eigenvalues --   -0.18507  -0.12802  -0.12536  -0.10827
 Alpha virt. eigenvalues --   -0.05614  -0.05024  -0.04911  -0.03141  -0.03019
 Alpha virt. eigenvalues --   -0.02697  -0.01464  -0.01115  -0.00473  -0.00307
 Alpha virt. eigenvalues --   -0.00035   0.00365   0.00811   0.00861   0.00904

  Beta  occ. eigenvalues --  -38.43933 -38.43922 -38.43670 -38.43670 -38.43413
  Beta  occ. eigenvalues --  -38.43393 -38.43331  -2.19741  -2.19735  -2.19484
  Beta  occ. eigenvalues --   -2.19449  -2.19320  -2.19237  -2.19233  -1.13410
  Beta  occ. eigenvalues --   -1.13399  -1.13394  -1.13392  -1.13385  -1.13383
  Beta  occ. eigenvalues --   -1.13179  -1.13161  -1.13147  -1.13122  -1.13120
  Beta  occ. eigenvalues --   -1.13116  -1.13112  -1.12978  -1.12951  -1.12929
  Beta  occ. eigenvalues --   -1.12904  -1.12879  -1.12867  -1.12863  -1.12859
  Beta  occ. eigenvalues --   -0.17764  -0.12587  -0.12320
  Beta virt. eigenvalues --   -0.06894  -0.05615  -0.05038  -0.04799  -0.02343
  Beta virt. eigenvalues --   -0.02243  -0.01642  -0.01386  -0.01037  -0.00534
  Beta virt. eigenvalues --   -0.00364   0.00114   0.00387   0.00843   0.00868

 Mulliken charges and spin densities:
               1          2
     1  Na   0.395221   0.029871
     2  Na   0.054008  -0.122635
     3  Na   0.018157  -0.072502
     4  Na   0.037405  -0.042665
     5  Na  -0.530137   0.787593
     6  Na  -0.179353   0.510366
     7  Na   0.204699  -0.090027
 Sum of Mulliken charges =  -0.00000   1.00000

 Dipole moment (field-independent basis, Debye):
    X=              0.0422    Y=              0.2543    Z=              0.1131  Tot=              0.2815
 Quadrupole moment (field-independent basis, Debye-Ang):
   XX=            -57.8388   YY=            -62.2757   ZZ=            -73.8632
   XY=              0.9291   XZ=              0.1212   YZ=             -0.9047

 Normal termination of Gaussian 16 at Tue Dec  5 17:50:28 2023.
