 Gaussian 16, Revision B.01,
 Gaussian 16:  ES64L-G16RevB.01 20-Dec-2017

 -------------------------
 #P B3LYP/6-311+g(d) force
 -------------------------

 -----
 DPGEN
 -----
 Symbolic Z-matrix:
 Charge =  0 Multiplicity = 2

                         Standard orientation:
 ---------------------------------------------------------------------
 Center     Atomic      Atomic             Coordinates (Angstroms)
 Number     Number       Type             X           Y           Z
 ---------------------------------------------------------------------
      1         11           0       -0.083007    3.827763    0.131566
      2         11           0        4.135883   -0.327089    1.245539
      3         11           0       -4.185227   -0.898934    0.512217
      4         11           0       -1.200821   -3.401129   -0.096936
      5         11           0       -3.061408    1.906032   -0.180682
      6         11           0        1.692698   -2.625193   -0.682088
      7         11           0        2.701881    1.518550   -0.929617
 ---------------------------------------------------------------------

 SCF Done:  E(UB3LYP) =  -1136.11261988     A.U. after   19 cycles

 The electronic state is 2-A.
 Alpha  occ. eigenvalues --  -38.45069 -38.44808 -38.44390 -38.44301 -38.44198
 Alpha  occ. eigenvalues --  -38.43892 -38.43826  -2.20850  -2.20623  -2.20206
 Alpha  occ. eigenvalues --   -2.20099  -2.20017  -2.19701  -2.19615  -1.14557
 Alpha  occ. eigenvalues --   -1.14522  -1.14489  -1.14268  -1.14264  -1.14235
 Alpha  occ. eigenvalues --   -1.13910  -1.13879  -1.13841  -1.13831  -1.13775
 Alpha  occ. eigenvalues --   -1.13756  -1.13659  -1.13636  -1.13621  -1.13370
 Alpha  occ. eigenvalues --   -1.13356  -1.13324  -1.13269  -1.13255  -1.13248
 Alpha  occ. eigenvalues --   -0.15860  -0.14065  -0.13211  -0.10917
 Alpha virt. eigenvalues --   -0.06748  -0.05666  -0.03785  -0.03697  -0.02934
 Alpha virt. eigenvalues --   -0.02620  -0.02276  -0.01776  -0.01337  -0.00976
 Alpha virt. eigenvalues --   -0.00254   0.00016   0.00199   0.00533   0.00655

  Beta  occ. eigenvalues --  -38.45067 -38.44750 -38.44358 -38.44293 -38.44139
  Beta  occ. eigenvalues --  -38.43865 -38.43766  -2.20852  -2.20515  -2.20153
  Beta  occ. eigenvalues --   -2.20092  -2.19910  -2.19656  -2.19504  -1.14552
  Beta  occ. eigenvalues --   -1.14529  -1.14463  -1.14196  -1.14189  -1.14167
  Beta  occ. eigenvalues --   -1.13864  -1.13847  -1.13801  -1.13778  -1.13776
  Beta  occ. eigenvalues --   -1.13737  -1.13588  -1.13571  -1.13549  -1.13333
  Beta  occ. eigenvalues --   -1.13329  -1.13281  -1.13193  -1.13182  -1.13175
  Beta  occ. eigenvalues --   -0.15365  -0.13319  -0.12354
  Beta virt. eigenvalues --   -0.07820  -0.06862  -0.05311  -0.03484  -0.03335
  Beta virt. eigenvalues --   -0.02527  -0.02282  -0.02028  -0.01637  -0.01140
  Beta virt. eigenvalues --   -0.00698  -0.00016   0.00269   0.00304   0.00544

 Mulliken charges and spin densities:
               1          2
     1  Na  -0.006289   0.290437
     2  Na   0.325156   0.273892
     3  Na   0.417207   0.246784
     4  Na  -0.219835   0.063249
     5  Na  -0.504832   0.045604
     6  Na   0.081931   0.095391
     7  Na  -0.093338  -0.015357
 Sum of Mulliken charges =  -0.00000   1.00000

 Dipole moment (field-independent basis, Debye):
    X=              1.1780    Y=             -0.1935    Z=              0.4203  Tot=              1.2656
 Quadrupole moment (field-independent basis, Debye-Ang):
   XX=            -61.9381   YY=            -70.1536   ZZ=            -68.1947
   XY=              1.9106   XZ=              0.8432   YZ=             -1.8617

 Normal termination of Gaussian 16 at Sun Dec  3 12:23:43 2023.
