 Gaussian 16, Revision B.01,
 Gaussian 16:  ES64L-G16RevB.01 20-Dec-2017

 -------------------------
 #P B3LYP/6-311+g(d) force
 -------------------------

 -----
 DPGEN
 -----
 Symbolic Z-matrix:
 Charge =  0 Multiplicity = 2

                         Standard orientation:
 ---------------------------------------------------------------------
 Center     Atomic      Atomic             Coordinates (Angstroms)
 Number     Number       Type             X           Y           Z
 ---------------------------------------------------------------------
      1         11           0       -3.580898    0.269139   -0.179266
      2         11           0       -1.297722    2.147256   -0.100256
      3         11           0        0.417261   -0.066825    2.132910
      4         11           0        2.794094   -1.529357   -0.131597
      5         11           0        0.204877   -0.619550   -1.707056
      6         11           0        2.864261    1.851086   -0.226257
      7         11           0       -1.401872   -2.051749    0.211522
 ---------------------------------------------------------------------

 SCF Done:  E(UB3LYP) =  -1136.12068466     A.U. after   22 cycles

 The electronic state is 2-A.
 Alpha  occ. eigenvalues --  -38.45080 -38.44528 -38.44140 -38.43933 -38.43864
 Alpha  occ. eigenvalues --  -38.43223 -38.43083  -2.20943  -2.20382  -2.19929
 Alpha  occ. eigenvalues --   -2.19898  -2.19757  -2.19098  -2.19027  -1.14650
 Alpha  occ. eigenvalues --   -1.14594  -1.14575  -1.14087  -1.14042  -1.14006
 Alpha  occ. eigenvalues --   -1.13643  -1.13600  -1.13589  -1.13572  -1.13527
 Alpha  occ. eigenvalues --   -1.13511  -1.13429  -1.13378  -1.13369  -1.12775
 Alpha  occ. eigenvalues --   -1.12759  -1.12746  -1.12729  -1.12680  -1.12630
 Alpha  occ. eigenvalues --   -0.18821  -0.14006  -0.11439  -0.11042
 Alpha virt. eigenvalues --   -0.06700  -0.05581  -0.03759  -0.03358  -0.02857
 Alpha virt. eigenvalues --   -0.02439  -0.02355  -0.01324  -0.00354  -0.00132
 Alpha virt. eigenvalues --    0.00118   0.00212   0.00595   0.00690   0.00815

  Beta  occ. eigenvalues --  -38.45080 -38.44520 -38.44139 -38.43878 -38.43756
  Beta  occ. eigenvalues --  -38.43215 -38.43071  -2.20945  -2.20370  -2.19929
  Beta  occ. eigenvalues --   -2.19798  -2.19559  -2.19087  -2.19010  -1.14653
  Beta  occ. eigenvalues --   -1.14596  -1.14566  -1.14069  -1.14023  -1.13997
  Beta  occ. eigenvalues --   -1.13597  -1.13583  -1.13574  -1.13570  -1.13456
  Beta  occ. eigenvalues --   -1.13438  -1.13297  -1.13241  -1.13225  -1.12770
  Beta  occ. eigenvalues --   -1.12748  -1.12720  -1.12716  -1.12635  -1.12618
  Beta  occ. eigenvalues --   -0.18084  -0.13789  -0.11218
  Beta virt. eigenvalues --   -0.07075  -0.06575  -0.05587  -0.03365  -0.02964
  Beta virt. eigenvalues --   -0.02316  -0.01812  -0.01581  -0.01297  -0.00373
  Beta virt. eigenvalues --    0.00053   0.00097   0.00249   0.00722   0.00816

 Mulliken charges and spin densities:
               1          2
     1  Na  -0.183765  -0.102501
     2  Na   0.184519   0.068364
     3  Na  -0.684113   0.502411
     4  Na   0.650552   0.072631
     5  Na  -0.692720   0.305105
     6  Na  -0.171747  -0.059869
     7  Na   0.897275   0.213859
 Sum of Mulliken charges =  -0.00000   1.00000

 Dipole moment (field-independent basis, Debye):
    X=              0.1579    Y=             -0.2135    Z=              0.0831  Tot=              0.2782
 Quadrupole moment (field-independent basis, Debye-Ang):
   XX=            -48.4504   YY=            -73.0505   ZZ=            -72.8550
   XY=              0.3771   XZ=              0.0843   YZ=             -1.3763

 Normal termination of Gaussian 16 at Tue Dec  5 21:00:30 2023.
