 Gaussian 16, Revision B.01,
 Gaussian 16:  ES64L-G16RevB.01 20-Dec-2017

 -------------------------
 #P B3LYP/6-311+g(d) force
 -------------------------

 -----
 DPGEN
 -----
 Symbolic Z-matrix:
 Charge =  0 Multiplicity = 2

                         Standard orientation:
 ---------------------------------------------------------------------
 Center     Atomic      Atomic             Coordinates (Angstroms)
 Number     Number       Type             X           Y           Z
 ---------------------------------------------------------------------
      1         11           0        0.023682    2.995421    0.529503
      2         11           0        5.950749   -0.558929   -0.443002
      3         11           0        2.652852    1.449018   -0.405252
      4         11           0        2.435793   -2.016331    0.725918
      5         11           0       -0.177910   -0.997377    0.145537
      6         11           0       -3.831000   -0.622006   -0.602646
      7         11           0       -7.054165   -0.249795    0.049942
 ---------------------------------------------------------------------

 SCF Done:  E(UB3LYP) =  -1136.10801343     A.U. after   24 cycles

 The electronic state is 2-A.
 Alpha  occ. eigenvalues --  -38.44951 -38.44691 -38.44598 -38.44499 -38.44309
 Alpha  occ. eigenvalues --  -38.44209 -38.44051  -2.20818  -2.20580  -2.20363
 Alpha  occ. eigenvalues --   -2.20352  -2.20066  -2.20018  -2.19819  -1.14656
 Alpha  occ. eigenvalues --   -1.14466  -1.14413  -1.14224  -1.14193  -1.14154
 Alpha  occ. eigenvalues --   -1.14052  -1.14024  -1.14021  -1.14021  -1.14001
 Alpha  occ. eigenvalues --   -1.13968  -1.13733  -1.13729  -1.13679  -1.13673
 Alpha  occ. eigenvalues --   -1.13669  -1.13629  -1.13496  -1.13493  -1.13450
 Alpha  occ. eigenvalues --   -0.17007  -0.13406  -0.12360  -0.11774
 Alpha virt. eigenvalues --   -0.07057  -0.05363  -0.03907  -0.03796  -0.03605
 Alpha virt. eigenvalues --   -0.02330  -0.02101  -0.01692  -0.01485  -0.00961
 Alpha virt. eigenvalues --   -0.00702  -0.00092   0.00051   0.00304   0.00523

  Beta  occ. eigenvalues --  -38.44901 -38.44621 -38.44581 -38.44459 -38.44276
  Beta  occ. eigenvalues --  -38.44168 -38.44057  -2.20732  -2.20456  -2.20330
  Beta  occ. eigenvalues --   -2.20279  -2.20004  -2.19943  -2.19832  -1.14564
  Beta  occ. eigenvalues --   -1.14413  -1.14344  -1.14145  -1.14114  -1.14052
  Beta  occ. eigenvalues --   -1.14004  -1.13999  -1.13999  -1.13979  -1.13973
  Beta  occ. eigenvalues --   -1.13905  -1.13692  -1.13683  -1.13640  -1.13621
  Beta  occ. eigenvalues --   -1.13610  -1.13586  -1.13505  -1.13502  -1.13452
  Beta  occ. eigenvalues --   -0.16209  -0.13221  -0.11509
  Beta virt. eigenvalues --   -0.08492  -0.06676  -0.05051  -0.03630  -0.03604
  Beta virt. eigenvalues --   -0.02951  -0.02234  -0.01837  -0.01468  -0.01224
  Beta virt. eigenvalues --   -0.00604  -0.00453   0.00019   0.00235   0.00363

 Mulliken charges and spin densities:
               1          2
     1  Na   0.676370  -0.048142
     2  Na  -0.013602   0.174568
     3  Na  -0.481231   0.452890
     4  Na   1.820285  -0.387150
     5  Na  -1.733131   0.743076
     6  Na  -1.033582   0.029563
     7  Na   0.764891   0.035196
 Sum of Mulliken charges =  -0.00000   1.00000

 Dipole moment (field-independent basis, Debye):
    X=              0.0751    Y=              0.3849    Z=              0.3580  Tot=              0.5310
 Quadrupole moment (field-independent basis, Debye-Ang):
   XX=            -53.6337   YY=            -68.5909   ZZ=            -72.2687
   XY=             -3.9885   XZ=             -3.3272   YZ=             -0.0298

 Normal termination of Gaussian 16 at Tue Nov 28 21:30:10 2023.
