 Gaussian 16, Revision B.01,
 Gaussian 16:  ES64L-G16RevB.01 20-Dec-2017

 -------------------------
 #P B3LYP/6-311+g(d) force
 -------------------------

 -----
 DPGEN
 -----
 Symbolic Z-matrix:
 Charge =  0 Multiplicity = 2

                         Standard orientation:
 ---------------------------------------------------------------------
 Center     Atomic      Atomic             Coordinates (Angstroms)
 Number     Number       Type             X           Y           Z
 ---------------------------------------------------------------------
      1         11           0       -0.785821    2.685850   -0.219630
      2         11           0        0.070968    0.100347   -1.496332
      3         11           0        2.758964    1.560867    0.052220
      4         11           0        0.052724   -0.055622    2.049782
      5         11           0        2.281790   -2.012150   -0.234672
      6         11           0       -1.110714   -2.344333   -0.128746
      7         11           0       -3.267910    0.065041   -0.022622
 ---------------------------------------------------------------------

 SCF Done:  E(UB3LYP) =  -1136.13559763     A.U. after   19 cycles

 The electronic state is 2-A.
 Alpha  occ. eigenvalues --  -38.44178 -38.44069 -38.43562 -38.43489 -38.43349
 Alpha  occ. eigenvalues --  -38.43037 -38.42995  -2.20012  -2.19889  -2.19421
 Alpha  occ. eigenvalues --   -2.19397  -2.19223  -2.19064  -2.18982  -1.13691
 Alpha  occ. eigenvalues --   -1.13671  -1.13653  -1.13567  -1.13551  -1.13526
 Alpha  occ. eigenvalues --   -1.13116  -1.13088  -1.13069  -1.13059  -1.13027
 Alpha  occ. eigenvalues --   -1.13009  -1.13004  -1.12876  -1.12834  -1.12819
 Alpha  occ. eigenvalues --   -1.12704  -1.12657  -1.12635  -1.12598  -1.12589
 Alpha  occ. eigenvalues --   -0.19008  -0.13131  -0.12467  -0.10708
 Alpha virt. eigenvalues --   -0.05831  -0.05158  -0.04346  -0.03099  -0.02769
 Alpha virt. eigenvalues --   -0.02483  -0.01752  -0.01129  -0.00289  -0.00099
 Alpha virt. eigenvalues --   -0.00004   0.00334   0.00775   0.00886   0.00926

  Beta  occ. eigenvalues --  -38.44177 -38.44067 -38.43556 -38.43390 -38.43341
  Beta  occ. eigenvalues --  -38.43027 -38.42934  -2.20013  -2.19888  -2.19413
  Beta  occ. eigenvalues --   -2.19216  -2.19210  -2.18972  -2.18950  -1.13695
  Beta  occ. eigenvalues --   -1.13656  -1.13651  -1.13558  -1.13538  -1.13529
  Beta  occ. eigenvalues --   -1.13103  -1.13061  -1.13051  -1.12993  -1.12955
  Beta  occ. eigenvalues --   -1.12896  -1.12875  -1.12845  -1.12819  -1.12782
  Beta  occ. eigenvalues --   -1.12631  -1.12600  -1.12597  -1.12569  -1.12541
  Beta  occ. eigenvalues --   -0.18269  -0.12911  -0.12193
  Beta virt. eigenvalues --   -0.06744  -0.05801  -0.05159  -0.04340  -0.02331
  Beta virt. eigenvalues --   -0.01968  -0.01667  -0.01373  -0.01073  -0.00340
  Beta virt. eigenvalues --   -0.00143   0.00138   0.00360   0.00821   0.00885

 Mulliken charges and spin densities:
               1          2
     1  Na   0.273280  -0.060361
     2  Na  -0.648359   0.326191
     3  Na   0.160578  -0.045575
     4  Na  -0.655111   0.783389
     5  Na   0.273437  -0.021623
     6  Na   0.443615   0.037547
     7  Na   0.152560  -0.019568
 Sum of Mulliken charges =  -0.00000   1.00000

 Dipole moment (field-independent basis, Debye):
    X=              0.1035    Y=              0.2062    Z=              0.2653  Tot=              0.3516
 Quadrupole moment (field-independent basis, Debye-Ang):
   XX=            -52.8192   YY=            -64.5136   ZZ=            -74.8827
   XY=             -0.2667   XZ=             -0.0138   YZ=              0.4701

 Normal termination of Gaussian 16 at Thu Dec  7 04:02:11 2023.
