 Gaussian 16, Revision B.01,
 Gaussian 16:  ES64L-G16RevB.01 20-Dec-2017

 -------------------------
 #P B3LYP/6-311+g(d) force
 -------------------------

 -----
 DPGEN
 -----
 Symbolic Z-matrix:
 Charge =  0 Multiplicity = 2

                         Standard orientation:
 ---------------------------------------------------------------------
 Center     Atomic      Atomic             Coordinates (Angstroms)
 Number     Number       Type             X           Y           Z
 ---------------------------------------------------------------------
      1         11           0        0.132522    0.228831    1.497080
      2         11           0       -2.205822   -1.359296   -1.225525
      3         11           0       -4.116597   -0.282833    1.255577
      4         11           0       -1.751799    1.750648   -0.624071
      5         11           0        4.066536   -0.897912    1.215104
      6         11           0        1.473365   -1.269697   -1.421654
      7         11           0        2.401796    1.830258   -0.696512
 ---------------------------------------------------------------------

 SCF Done:  E(UB3LYP) =  -1136.11349667     A.U. after   44 cycles

 The electronic state is 2-A.
 Alpha  occ. eigenvalues --  -38.45618 -38.44607 -38.44386 -38.44196 -38.44057
 Alpha  occ. eigenvalues --  -38.43471 -38.43298  -2.21463  -2.20432  -2.20253
 Alpha  occ. eigenvalues --   -2.20083  -2.19871  -2.19356  -2.19085  -1.15171
 Alpha  occ. eigenvalues --   -1.15107  -1.15084  -1.14152  -1.14099  -1.14018
 Alpha  occ. eigenvalues --   -1.13957  -1.13899  -1.13839  -1.13777  -1.13751
 Alpha  occ. eigenvalues --   -1.13702  -1.13537  -1.13525  -1.13497  -1.13058
 Alpha  occ. eigenvalues --   -1.13050  -1.12931  -1.12760  -1.12754  -1.12716
 Alpha  occ. eigenvalues --   -0.18267  -0.14469  -0.11415  -0.10221
 Alpha virt. eigenvalues --   -0.07100  -0.05694  -0.05073  -0.03163  -0.02984
 Alpha virt. eigenvalues --   -0.02183  -0.02061  -0.01527  -0.01109  -0.00393
 Alpha virt. eigenvalues --   -0.00072   0.00182   0.00190   0.00330   0.00432

  Beta  occ. eigenvalues --  -38.45596 -38.44596 -38.44321 -38.44149 -38.44041
  Beta  occ. eigenvalues --  -38.43463 -38.43291  -2.21425  -2.20413  -2.20137
  Beta  occ. eigenvalues --   -2.19998  -2.19839  -2.19342  -2.19072  -1.15130
  Beta  occ. eigenvalues --   -1.15078  -1.15054  -1.14130  -1.14083  -1.14008
  Beta  occ. eigenvalues --   -1.13878  -1.13823  -1.13737  -1.13723  -1.13698
  Beta  occ. eigenvalues --   -1.13620  -1.13515  -1.13496  -1.13473  -1.13047
  Beta  occ. eigenvalues --   -1.13025  -1.12922  -1.12751  -1.12741  -1.12709
  Beta  occ. eigenvalues --   -0.17576  -0.14320  -0.10102
  Beta virt. eigenvalues --   -0.07441  -0.06871  -0.05494  -0.04557  -0.02852
  Beta virt. eigenvalues --   -0.02640  -0.01821  -0.01523  -0.01242  -0.00719
  Beta virt. eigenvalues --   -0.00330  -0.00039   0.00255   0.00320   0.00422

 Mulliken charges and spin densities:
               1          2
     1  Na  -0.856549   0.321021
     2  Na  -0.148787   0.053488
     3  Na   0.469486   0.098571
     4  Na   0.104791   0.188680
     5  Na   0.244805   0.027505
     6  Na  -0.234980   0.300854
     7  Na   0.421234   0.009881
 Sum of Mulliken charges =  -0.00000   1.00000

 Dipole moment (field-independent basis, Debye):
    X=             -0.1736    Y=              1.0181    Z=             -0.0908  Tot=              1.0368
 Quadrupole moment (field-independent basis, Debye-Ang):
   XX=            -61.8419   YY=            -75.3201   ZZ=            -65.7490
   XY=              2.1323   XZ=             -2.5535   YZ=              0.0754

 Normal termination of Gaussian 16 at Thu Dec  7 23:34:31 2023.
