 Gaussian 16, Revision B.01,
 Gaussian 16:  ES64L-G16RevB.01 20-Dec-2017

 -------------------------
 #P B3LYP/6-311+g(d) force
 -------------------------

 -----
 DPGEN
 -----
 Symbolic Z-matrix:
 Charge =  0 Multiplicity = 2

                         Standard orientation:
 ---------------------------------------------------------------------
 Center     Atomic      Atomic             Coordinates (Angstroms)
 Number     Number       Type             X           Y           Z
 ---------------------------------------------------------------------
      1         11           0        1.953024    1.515911   -1.033388
      2         11           0       -1.326170    2.802131    0.333407
      3         11           0       -3.973453    0.680641    0.260283
      4         11           0        4.581819   -0.554926   -1.262934
      5         11           0       -4.221863   -2.538639   -1.051423
      6         11           0       -0.036447   -0.341264    1.138595
      7         11           0        3.023089   -1.563853    1.615460
 ---------------------------------------------------------------------

 SCF Done:  E(UB3LYP) =  -1136.11617556     A.U. after   23 cycles

 The electronic state is 2-A.
 Alpha  occ. eigenvalues --  -38.44822 -38.44695 -38.44457 -38.44391 -38.44045
 Alpha  occ. eigenvalues --  -38.43751 -38.43728  -2.20645  -2.20552  -2.20292
 Alpha  occ. eigenvalues --   -2.20218  -2.19840  -2.19551  -2.19499  -1.14347
 Alpha  occ. eigenvalues --   -1.14324  -1.14253  -1.14237  -1.14203  -1.14168
 Alpha  occ. eigenvalues --   -1.13953  -1.13950  -1.13924  -1.13871  -1.13869
 Alpha  occ. eigenvalues --   -1.13827  -1.13526  -1.13505  -1.13474  -1.13221
 Alpha  occ. eigenvalues --   -1.13211  -1.13185  -1.13170  -1.13168  -1.13129
 Alpha  occ. eigenvalues --   -0.17114  -0.14250  -0.11620  -0.11227
 Alpha virt. eigenvalues --   -0.07231  -0.05212  -0.04202  -0.04010  -0.03177
 Alpha virt. eigenvalues --   -0.02629  -0.01957  -0.01644  -0.01153  -0.00585
 Alpha virt. eigenvalues --   -0.00232  -0.00028   0.00212   0.00264   0.00463

  Beta  occ. eigenvalues --  -38.44783 -38.44631 -38.44404 -38.44342 -38.44040
  Beta  occ. eigenvalues --  -38.43752 -38.43724  -2.20576  -2.20439  -2.20198
  Beta  occ. eigenvalues --   -2.20129  -2.19830  -2.19543  -2.19500  -1.14302
  Beta  occ. eigenvalues --   -1.14274  -1.14189  -1.14165  -1.14128  -1.14060
  Beta  occ. eigenvalues --   -1.13893  -1.13874  -1.13854  -1.13810  -1.13795
  Beta  occ. eigenvalues --   -1.13768  -1.13519  -1.13499  -1.13467  -1.13214
  Beta  occ. eigenvalues --   -1.13205  -1.13180  -1.13171  -1.13168  -1.13129
  Beta  occ. eigenvalues --   -0.16426  -0.13957  -0.11242
  Beta virt. eigenvalues --   -0.07435  -0.07144  -0.04865  -0.03952  -0.03722
  Beta virt. eigenvalues --   -0.02543  -0.02402  -0.01642  -0.01419  -0.00848
  Beta virt. eigenvalues --   -0.00489  -0.00071   0.00156   0.00246   0.00481

 Mulliken charges and spin densities:
               1          2
     1  Na  -0.143232   0.312710
     2  Na   0.723129   0.022264
     3  Na   0.294799   0.104726
     4  Na   0.167034   0.136422
     5  Na   0.124960  -0.042636
     6  Na  -1.365777   0.569520
     7  Na   0.199087  -0.103006
 Sum of Mulliken charges =  -0.00000   1.00000

 Dipole moment (field-independent basis, Debye):
    X=              1.4976    Y=              0.3568    Z=              0.0691  Tot=              1.5411
 Quadrupole moment (field-independent basis, Debye-Ang):
   XX=            -67.4720   YY=            -63.8742   ZZ=            -70.1203
   XY=             -7.8020   XZ=             -0.9234   YZ=              1.7890

 Normal termination of Gaussian 16 at Tue Nov 28 23:09:24 2023.
