 Gaussian 16, Revision B.01,
 Gaussian 16:  ES64L-G16RevB.01 20-Dec-2017

 -------------------------
 #P B3LYP/6-311+g(d) force
 -------------------------

 -----
 DPGEN
 -----
 Symbolic Z-matrix:
 Charge =  0 Multiplicity = 2

                         Standard orientation:
 ---------------------------------------------------------------------
 Center     Atomic      Atomic             Coordinates (Angstroms)
 Number     Number       Type             X           Y           Z
 ---------------------------------------------------------------------
      1         11           0       -0.048341   -2.806097   -1.238247
      2         11           0        0.205130   -0.410408    3.045776
      3         11           0        2.650570   -1.453151   -1.319272
      4         11           0        2.354873    1.235641    1.120236
      5         11           0        0.901881    3.049079   -1.255059
      6         11           0       -3.255116    1.744344   -0.702256
      7         11           0       -2.808997   -1.359408    0.348822
 ---------------------------------------------------------------------

 SCF Done:  E(UB3LYP) =  -1136.11116917     A.U. after   21 cycles

 The electronic state is 2-A.
 Alpha  occ. eigenvalues --  -38.45879 -38.44750 -38.44630 -38.44190 -38.43881
 Alpha  occ. eigenvalues --  -38.43864 -38.43578  -2.21680  -2.20513  -2.20381
 Alpha  occ. eigenvalues --   -2.20010  -2.19711  -2.19661  -2.19398  -1.15320
 Alpha  occ. eigenvalues --   -1.15303  -1.15285  -1.14176  -1.14167  -1.14145
 Alpha  occ. eigenvalues --   -1.14053  -1.14042  -1.14024  -1.13723  -1.13662
 Alpha  occ. eigenvalues --   -1.13636  -1.13398  -1.13368  -1.13361  -1.13336
 Alpha  occ. eigenvalues --   -1.13328  -1.13307  -1.13071  -1.13049  -1.13036
 Alpha  occ. eigenvalues --   -0.16705  -0.12934  -0.12321  -0.12098
 Alpha virt. eigenvalues --   -0.06485  -0.05672  -0.04650  -0.03743  -0.03258
 Alpha virt. eigenvalues --   -0.02999  -0.01363  -0.00971  -0.00832  -0.00655
 Alpha virt. eigenvalues --   -0.00437  -0.00017   0.00273   0.00457   0.00493

  Beta  occ. eigenvalues --  -38.45746 -38.44712 -38.44625 -38.44168 -38.43874
  Beta  occ. eigenvalues --  -38.43865 -38.43575  -2.21435  -2.20442  -2.20371
  Beta  occ. eigenvalues --   -2.19970  -2.19704  -2.19663  -2.19394  -1.15152
  Beta  occ. eigenvalues --   -1.15138  -1.15114  -1.14130  -1.14119  -1.14095
  Beta  occ. eigenvalues --   -1.14046  -1.14038  -1.14015  -1.13694  -1.13633
  Beta  occ. eigenvalues --   -1.13611  -1.13386  -1.13363  -1.13335  -1.13331
  Beta  occ. eigenvalues --   -1.13325  -1.13311  -1.13063  -1.13048  -1.13030
  Beta  occ. eigenvalues --   -0.16013  -0.12869  -0.11879
  Beta virt. eigenvalues --   -0.08299  -0.06303  -0.05193  -0.04027  -0.03487
  Beta virt. eigenvalues --   -0.02833  -0.02531  -0.01211  -0.00795  -0.00768
  Beta virt. eigenvalues --   -0.00448  -0.00173   0.00110   0.00412   0.00526

 Mulliken charges and spin densities:
               1          2
     1  Na   0.056855  -0.041883
     2  Na  -0.247930   0.680931
     3  Na   0.054801   0.133724
     4  Na   0.604985  -0.190981
     5  Na  -0.338850   0.298242
     6  Na   0.109207   0.009805
     7  Na  -0.239069   0.110162
 Sum of Mulliken charges =  -0.00000   1.00000

 Dipole moment (field-independent basis, Debye):
    X=             -0.0181    Y=              0.4108    Z=              0.3002  Tot=              0.5091
 Quadrupole moment (field-independent basis, Debye-Ang):
   XX=            -65.8113   YY=            -69.8986   ZZ=            -66.1073
   XY=              0.1240   XZ=             -0.8336   YZ=             -4.8828

 Normal termination of Gaussian 16 at Mon Dec  4 03:52:06 2023.
