 Gaussian 16, Revision B.01,
 Gaussian 16:  ES64L-G16RevB.01 20-Dec-2017

 -------------------------
 #P B3LYP/6-311+g(d) force
 -------------------------

 -----
 DPGEN
 -----
 Symbolic Z-matrix:
 Charge =  0 Multiplicity = 2

                         Standard orientation:
 ---------------------------------------------------------------------
 Center     Atomic      Atomic             Coordinates (Angstroms)
 Number     Number       Type             X           Y           Z
 ---------------------------------------------------------------------
      1         11           0       -1.813277    2.442013   -0.089979
      2         11           0       -3.059837   -0.813554    0.540031
      3         11           0        0.187752    0.729297   -1.831126
      4         11           0        0.058839   -0.048583    1.964750
      5         11           0        2.751537    1.677862    0.154728
      6         11           0       -0.663377   -2.282658   -0.988849
      7         11           0        2.538363   -1.704377    0.250446
 ---------------------------------------------------------------------

 SCF Done:  E(UB3LYP) =  -1136.13287176     A.U. after   20 cycles

 The electronic state is 2-A.
 Alpha  occ. eigenvalues --  -38.44190 -38.44189 -38.44071 -38.43834 -38.43531
 Alpha  occ. eigenvalues --  -38.43499 -38.42876  -2.20035  -2.20011  -2.19958
 Alpha  occ. eigenvalues --   -2.19679  -2.19441  -2.19364  -2.18779  -1.13713
 Alpha  occ. eigenvalues --   -1.13708  -1.13694  -1.13676  -1.13668  -1.13650
 Alpha  occ. eigenvalues --   -1.13629  -1.13595  -1.13575  -1.13354  -1.13336
 Alpha  occ. eigenvalues --   -1.13316  -1.13159  -1.13109  -1.13070  -1.13019
 Alpha  occ. eigenvalues --   -1.12997  -1.12983  -1.12466  -1.12423  -1.12406
 Alpha  occ. eigenvalues --   -0.18635  -0.13343  -0.11899  -0.11294
 Alpha virt. eigenvalues --   -0.05892  -0.05386  -0.03892  -0.03550  -0.03068
 Alpha virt. eigenvalues --   -0.02862  -0.01700  -0.01095  -0.00278  -0.00095
 Alpha virt. eigenvalues --    0.00134   0.00367   0.00679   0.00754   0.00847

  Beta  occ. eigenvalues --  -38.44186 -38.44181 -38.43996 -38.43830 -38.43529
  Beta  occ. eigenvalues --  -38.43421 -38.42846  -2.20020  -2.20008  -2.19821
  Beta  occ. eigenvalues --   -2.19675  -2.19363  -2.19299  -2.18726  -1.13705
  Beta  occ. eigenvalues --   -1.13688  -1.13675  -1.13664  -1.13662  -1.13646
  Beta  occ. eigenvalues --   -1.13542  -1.13500  -1.13476  -1.13344  -1.13326
  Beta  occ. eigenvalues --   -1.13308  -1.13109  -1.13016  -1.13008  -1.12991
  Beta  occ. eigenvalues --   -1.12965  -1.12927  -1.12424  -1.12385  -1.12360
  Beta  occ. eigenvalues --   -0.17879  -0.13098  -0.11672
  Beta virt. eigenvalues --   -0.07368  -0.05839  -0.05319  -0.03746  -0.02861
  Beta virt. eigenvalues --   -0.02349  -0.01828  -0.01573  -0.01054  -0.00268
  Beta virt. eigenvalues --    0.00015   0.00141   0.00395   0.00758   0.00834

 Mulliken charges and spin densities:
               1          2
     1  Na  -0.142304  -0.030967
     2  Na   0.044326   0.090075
     3  Na   0.244832   0.334991
     4  Na  -0.104229   0.435438
     5  Na  -0.016075  -0.050892
     6  Na  -0.043459   0.147326
     7  Na   0.016909   0.074029
 Sum of Mulliken charges =  -0.00000   1.00000

 Dipole moment (field-independent basis, Debye):
    X=              0.2222    Y=              0.2265    Z=              0.4171  Tot=              0.5241
 Quadrupole moment (field-independent basis, Debye-Ang):
   XX=            -54.9389   YY=            -68.2748   ZZ=            -71.4485
   XY=              0.2875   XZ=             -0.4799   YZ=              1.0234

 Normal termination of Gaussian 16 at Tue Dec  5 22:53:55 2023.
