 Gaussian 16, Revision B.01,
 Gaussian 16:  ES64L-G16RevB.01 20-Dec-2017

 -------------------------
 #P B3LYP/6-311+g(d) force
 -------------------------

 -----
 DPGEN
 -----
 Symbolic Z-matrix:
 Charge =  0 Multiplicity = 2

                         Standard orientation:
 ---------------------------------------------------------------------
 Center     Atomic      Atomic             Coordinates (Angstroms)
 Number     Number       Type             X           Y           Z
 ---------------------------------------------------------------------
      1         11           0        3.201126    0.153389    0.767601
      2         11           0        3.005411   -2.856560    0.759181
      3         11           0       -3.192233   -0.425355   -1.083720
      4         11           0        2.091788    3.585763   -0.090600
      5         11           0       -4.900261    0.308082    1.692915
      6         11           0       -0.307144   -2.014535   -1.209764
      7         11           0        0.101313    1.249216   -0.835614
 ---------------------------------------------------------------------

 SCF Done:  E(UB3LYP) =  -1136.12227103     A.U. after   19 cycles

 The electronic state is 2-A.
 Alpha  occ. eigenvalues --  -38.45246 -38.44491 -38.44107 -38.43928 -38.43830
 Alpha  occ. eigenvalues --  -38.43297 -38.43255  -2.21052  -2.20334  -2.19959
 Alpha  occ. eigenvalues --   -2.19765  -2.19711  -2.19127  -2.19076  -1.14679
 Alpha  occ. eigenvalues --   -1.14679  -1.14671  -1.14032  -1.14000  -1.13928
 Alpha  occ. eigenvalues --   -1.13643  -1.13637  -1.13596  -1.13449  -1.13438
 Alpha  occ. eigenvalues --   -1.13419  -1.13409  -1.13396  -1.13318  -1.12810
 Alpha  occ. eigenvalues --   -1.12773  -1.12745  -1.12743  -1.12731  -1.12706
 Alpha  occ. eigenvalues --   -0.16876  -0.14233  -0.12112  -0.11763
 Alpha virt. eigenvalues --   -0.05491  -0.05278  -0.04812  -0.03981  -0.02738
 Alpha virt. eigenvalues --   -0.02284  -0.02061  -0.01397  -0.00955  -0.00789
 Alpha virt. eigenvalues --   -0.00290  -0.00058   0.00047   0.00426   0.00684

  Beta  occ. eigenvalues --  -38.45125 -38.44443 -38.44081 -38.43927 -38.43809
  Beta  occ. eigenvalues --  -38.43281 -38.43254  -2.20827  -2.20248  -2.19913
  Beta  occ. eigenvalues --   -2.19773  -2.19674  -2.19097  -2.19073  -1.14526
  Beta  occ. eigenvalues --   -1.14524  -1.14522  -1.13969  -1.13946  -1.13864
  Beta  occ. eigenvalues --   -1.13614  -1.13609  -1.13552  -1.13463  -1.13451
  Beta  occ. eigenvalues --   -1.13385  -1.13374  -1.13357  -1.13282  -1.12781
  Beta  occ. eigenvalues --   -1.12754  -1.12741  -1.12730  -1.12727  -1.12704
  Beta  occ. eigenvalues --   -0.16322  -0.13346  -0.11973
  Beta virt. eigenvalues --   -0.08097  -0.05142  -0.05005  -0.04605  -0.03748
  Beta virt. eigenvalues --   -0.02116  -0.01957  -0.01767  -0.01309  -0.00834
  Beta virt. eigenvalues --   -0.00438  -0.00001   0.00160   0.00255   0.00474

 Mulliken charges and spin densities:
               1          2
     1  Na   0.068336   0.206281
     2  Na  -0.033449   0.072282
     3  Na  -0.246907  -0.063965
     4  Na   1.349749   0.068892
     5  Na   0.313588   0.574780
     6  Na   0.320192   0.067409
     7  Na  -1.771510   0.074321
 Sum of Mulliken charges =  -0.00000   1.00000

 Dipole moment (field-independent basis, Debye):
    X=             -0.7500    Y=             -0.0002    Z=              0.3475  Tot=              0.8267
 Quadrupole moment (field-independent basis, Debye-Ang):
   XX=            -64.6496   YY=            -64.0017   ZZ=            -67.8497
   XY=              1.8726   XZ=             -0.6192   YZ=              2.1495

 Normal termination of Gaussian 16 at Wed Nov 29 01:16:28 2023.
