 Gaussian 16, Revision B.01,
 Gaussian 16:  ES64L-G16RevB.01 20-Dec-2017

 -------------------------
 #P B3LYP/6-311+g(d) force
 -------------------------

 -----
 DPGEN
 -----
 Symbolic Z-matrix:
 Charge =  0 Multiplicity = 2

                         Standard orientation:
 ---------------------------------------------------------------------
 Center     Atomic      Atomic             Coordinates (Angstroms)
 Number     Number       Type             X           Y           Z
 ---------------------------------------------------------------------
      1         11           0        3.500838   -0.779546    0.520960
      2         11           0        1.521186    2.593302   -0.414003
      3         11           0        1.501236   -1.489150   -1.637470
      4         11           0       -2.181821    1.148811    1.806275
      5         11           0        0.468609   -0.825425    1.997201
      6         11           0       -1.589942    1.120403   -1.870922
      7         11           0       -3.220106   -1.768393   -0.402041
 ---------------------------------------------------------------------

 SCF Done:  E(UB3LYP) =  -1136.11832857     A.U. after   24 cycles

 The electronic state is 2-A.
 Alpha  occ. eigenvalues --  -38.45183 -38.45085 -38.44475 -38.44285 -38.43751
 Alpha  occ. eigenvalues --  -38.43405 -38.43141  -2.21010  -2.20851  -2.20288
 Alpha  occ. eigenvalues --   -2.20138  -2.19520  -2.19237  -2.18937  -1.14700
 Alpha  occ. eigenvalues --   -1.14668  -1.14620  -1.14517  -1.14503  -1.14471
 Alpha  occ. eigenvalues --   -1.13978  -1.13925  -1.13908  -1.13827  -1.13788
 Alpha  occ. eigenvalues --   -1.13762  -1.13189  -1.13163  -1.13153  -1.12922
 Alpha  occ. eigenvalues --   -1.12911  -1.12858  -1.12628  -1.12616  -1.12561
 Alpha  occ. eigenvalues --   -0.17467  -0.13694  -0.11616  -0.10894
 Alpha virt. eigenvalues --   -0.06348  -0.05589  -0.04965  -0.03274  -0.03039
 Alpha virt. eigenvalues --   -0.02785  -0.01887  -0.01258  -0.00870  -0.00286
 Alpha virt. eigenvalues --   -0.00035   0.00279   0.00315   0.00372   0.00590

  Beta  occ. eigenvalues --  -38.45138 -38.45045 -38.44435 -38.44287 -38.43714
  Beta  occ. eigenvalues --  -38.43380 -38.43138  -2.20925  -2.20775  -2.20216
  Beta  occ. eigenvalues --   -2.20144  -2.19450  -2.19193  -2.18935  -1.14639
  Beta  occ. eigenvalues --   -1.14611  -1.14562  -1.14464  -1.14445  -1.14422
  Beta  occ. eigenvalues --   -1.13919  -1.13875  -1.13856  -1.13818  -1.13793
  Beta  occ. eigenvalues --   -1.13767  -1.13135  -1.13116  -1.13111  -1.12892
  Beta  occ. eigenvalues --   -1.12867  -1.12826  -1.12623  -1.12612  -1.12549
  Beta  occ. eigenvalues --   -0.16809  -0.13419  -0.10677
  Beta virt. eigenvalues --   -0.08029  -0.05816  -0.05167  -0.04788  -0.03026
  Beta virt. eigenvalues --   -0.02520  -0.02214  -0.01760  -0.00933  -0.00513
  Beta virt. eigenvalues --   -0.00153   0.00157   0.00310   0.00366   0.00469

 Mulliken charges and spin densities:
               1          2
     1  Na   0.627345   0.012926
     2  Na  -0.212510   0.186525
     3  Na  -0.067138   0.131752
     4  Na   0.329234   0.171773
     5  Na  -0.581630   0.194011
     6  Na  -0.212543   0.111862
     7  Na   0.117241   0.191151
 Sum of Mulliken charges =  -0.00000   1.00000

 Dipole moment (field-independent basis, Debye):
    X=              0.0835    Y=             -0.6664    Z=             -0.0695  Tot=              0.6752
 Quadrupole moment (field-independent basis, Debye-Ang):
   XX=            -54.0541   YY=            -69.1026   ZZ=            -74.0357
   XY=              1.8790   XZ=              1.1968   YZ=              8.9831

 Normal termination of Gaussian 16 at Mon Dec  4 01:46:52 2023.
