 Gaussian 16, Revision B.01,
 Gaussian 16:  ES64L-G16RevB.01 20-Dec-2017

 -------------------------
 #P B3LYP/6-311+g(d) force
 -------------------------

 -----
 DPGEN
 -----
 Symbolic Z-matrix:
 Charge =  0 Multiplicity = 2

                         Standard orientation:
 ---------------------------------------------------------------------
 Center     Atomic      Atomic             Coordinates (Angstroms)
 Number     Number       Type             X           Y           Z
 ---------------------------------------------------------------------
      1         11           0        2.353695    1.493932   -0.084699
      2         11           0       -1.495860    0.576433    1.165813
      3         11           0       -1.877555   -2.245776   -0.398612
      4         11           0        1.137310   -1.909588    0.307870
      5         11           0        4.725606   -0.841767   -0.229186
      6         11           0       -4.406708   -0.140190   -0.401863
      7         11           0       -0.436488    3.066957   -0.359323
 ---------------------------------------------------------------------

 SCF Done:  E(UB3LYP) =  -1136.12657988     A.U. after   19 cycles

 The electronic state is 2-A.
 Alpha  occ. eigenvalues --  -38.44262 -38.44259 -38.43913 -38.43821 -38.43802
 Alpha  occ. eigenvalues --  -38.43514 -38.43176  -2.20176  -2.20115  -2.19731
 Alpha  occ. eigenvalues --   -2.19711  -2.19677  -2.19385  -2.19031  -1.13882
 Alpha  occ. eigenvalues --   -1.13862  -1.13829  -1.13763  -1.13743  -1.13725
 Alpha  occ. eigenvalues --   -1.13419  -1.13407  -1.13383  -1.13371  -1.13365
 Alpha  occ. eigenvalues --   -1.13364  -1.13350  -1.13349  -1.13277  -1.13064
 Alpha  occ. eigenvalues --   -1.13056  -1.12985  -1.12704  -1.12684  -1.12667
 Alpha  occ. eigenvalues --   -0.17643  -0.14286  -0.12443  -0.11015
 Alpha virt. eigenvalues --   -0.06079  -0.05012  -0.04512  -0.03980  -0.02737
 Alpha virt. eigenvalues --   -0.02043  -0.01847  -0.01471  -0.00723  -0.00516
 Alpha virt. eigenvalues --   -0.00401  -0.00049   0.00606   0.00627   0.00725

  Beta  occ. eigenvalues --  -38.44249 -38.44176 -38.43852 -38.43814 -38.43779
  Beta  occ. eigenvalues --  -38.43471 -38.43179  -2.20162  -2.19954  -2.19679
  Beta  occ. eigenvalues --   -2.19669  -2.19618  -2.19312  -2.19038  -1.13875
  Beta  occ. eigenvalues --   -1.13838  -1.13796  -1.13654  -1.13636  -1.13628
  Beta  occ. eigenvalues --   -1.13374  -1.13369  -1.13360  -1.13351  -1.13333
  Beta  occ. eigenvalues --   -1.13301  -1.13298  -1.13282  -1.13236  -1.13019
  Beta  occ. eigenvalues --   -1.13006  -1.12905  -1.12709  -1.12687  -1.12669
  Beta  occ. eigenvalues --   -0.17040  -0.13590  -0.12095
  Beta virt. eigenvalues --   -0.07477  -0.05934  -0.04870  -0.04000  -0.03609
  Beta virt. eigenvalues --   -0.02433  -0.01824  -0.01408  -0.00973  -0.00569
  Beta virt. eigenvalues --   -0.00415  -0.00144   0.00192   0.00711   0.00727

 Mulliken charges and spin densities:
               1          2
     1  Na  -0.728855   0.088298
     2  Na  -0.027541   0.158105
     3  Na  -0.093830  -0.020801
     4  Na  -0.336489   0.044242
     5  Na   0.922069   0.363352
     6  Na   0.185540   0.425133
     7  Na   0.079107  -0.058329
 Sum of Mulliken charges =  -0.00000   1.00000

 Dipole moment (field-independent basis, Debye):
    X=             -0.4184    Y=             -0.1752    Z=             -0.3292  Tot=              0.5604
 Quadrupole moment (field-independent basis, Debye-Ang):
   XX=            -61.2846   YY=            -68.2804   ZZ=            -68.5205
   XY=             -1.8414   XZ=              0.9251   YZ=             -0.3871

 Normal termination of Gaussian 16 at Tue Nov 28 19:26:07 2023.
