 Gaussian 16, Revision B.01,
 Gaussian 16:  ES64L-G16RevB.01 20-Dec-2017

 -------------------------
 #P B3LYP/6-311+g(d) force
 -------------------------

 -----
 DPGEN
 -----
 Symbolic Z-matrix:
 Charge =  0 Multiplicity = 2

                         Standard orientation:
 ---------------------------------------------------------------------
 Center     Atomic      Atomic             Coordinates (Angstroms)
 Number     Number       Type             X           Y           Z
 ---------------------------------------------------------------------
      1         11           0       -3.913340   -1.040996    0.148081
      2         11           0        3.915515   -0.694869    0.780095
      3         11           0       -1.648053   -2.900770   -1.510022
      4         11           0       -2.198084    2.242688    1.649875
      5         11           0       -0.439165    3.703192   -0.836522
      6         11           0        2.804358    1.779119   -1.027501
      7         11           0        1.478770   -3.088363    0.795994
 ---------------------------------------------------------------------

 SCF Done:  E(UB3LYP) =  -1136.10614707     A.U. after   22 cycles

 The electronic state is 2-A.
 Alpha  occ. eigenvalues --  -38.45294 -38.44822 -38.44715 -38.44423 -38.44392
 Alpha  occ. eigenvalues --  -38.44077 -38.43899  -2.21047  -2.20572  -2.20493
 Alpha  occ. eigenvalues --   -2.20199  -2.20187  -2.19865  -2.19703  -1.14724
 Alpha  occ. eigenvalues --   -1.14707  -1.14685  -1.14257  -1.14246  -1.14221
 Alpha  occ. eigenvalues --   -1.14158  -1.14144  -1.14118  -1.13870  -1.13864
 Alpha  occ. eigenvalues --   -1.13859  -1.13848  -1.13840  -1.13835  -1.13518
 Alpha  occ. eigenvalues --   -1.13505  -1.13497  -1.13361  -1.13347  -1.13325
 Alpha  occ. eigenvalues --   -0.15504  -0.13581  -0.13239  -0.10429
 Alpha virt. eigenvalues --   -0.07694  -0.05027  -0.04713  -0.03635  -0.03438
 Alpha virt. eigenvalues --   -0.02072  -0.01875  -0.01526  -0.01322  -0.01099
 Alpha virt. eigenvalues --   -0.01004  -0.00010  -0.00002   0.00287   0.00633

  Beta  occ. eigenvalues --  -38.45279 -38.44835 -38.44657 -38.44398 -38.44396
  Beta  occ. eigenvalues --  -38.44018 -38.43835  -2.21023  -2.20601  -2.20386
  Beta  occ. eigenvalues --   -2.20201  -2.20154  -2.19754  -2.19582  -1.14709
  Beta  occ. eigenvalues --   -1.14694  -1.14646  -1.14280  -1.14268  -1.14211
  Beta  occ. eigenvalues --   -1.14086  -1.14074  -1.14039  -1.13877  -1.13873
  Beta  occ. eigenvalues --   -1.13834  -1.13821  -1.13813  -1.13797  -1.13441
  Beta  occ. eigenvalues --   -1.13432  -1.13426  -1.13280  -1.13266  -1.13248
  Beta  occ. eigenvalues --   -0.15002  -0.12981  -0.12654
  Beta virt. eigenvalues --   -0.07750  -0.07302  -0.04491  -0.04238  -0.03487
  Beta virt. eigenvalues --   -0.03161  -0.01899  -0.01627  -0.01277  -0.01210
  Beta virt. eigenvalues --   -0.00893  -0.00762   0.00106   0.00240   0.00403

 Mulliken charges and spin densities:
               1          2
     1  Na   0.107951   0.054262
     2  Na   0.650788   0.013611
     3  Na   0.042369   0.141253
     4  Na  -0.225961   0.297724
     5  Na   0.192065  -0.067910
     6  Na  -0.463960   0.283241
     7  Na  -0.303252   0.277819
 Sum of Mulliken charges =  -0.00000   1.00000

 Dipole moment (field-independent basis, Debye):
    X=             -0.6323    Y=             -0.3407    Z=             -0.0077  Tot=              0.7183
 Quadrupole moment (field-independent basis, Debye-Ang):
   XX=            -64.6575   YY=            -69.4054   ZZ=            -67.9206
   XY=             -0.6464   XZ=             -0.3641   YZ=             -1.4532

 Normal termination of Gaussian 16 at Sun Dec  3 14:03:35 2023.
