 Gaussian 16, Revision B.01,
 Gaussian 16:  ES64L-G16RevB.01 20-Dec-2017

 -------------------------
 #P B3LYP/6-311+g(d) force
 -------------------------

 -----
 DPGEN
 -----
 Symbolic Z-matrix:
 Charge =  0 Multiplicity = 2

                         Standard orientation:
 ---------------------------------------------------------------------
 Center     Atomic      Atomic             Coordinates (Angstroms)
 Number     Number       Type             X           Y           Z
 ---------------------------------------------------------------------
      1         11           0       -0.195925   -0.291220    2.010400
      2         11           0        1.881654    2.262150    0.861118
      3         11           0        0.177928   -2.483382   -0.604889
      4         11           0        0.701849    0.734429   -1.645950
      5         11           0        3.047727   -1.243400   -0.141231
      6         11           0       -2.013899    1.941895   -0.794018
      7         11           0       -3.599335   -0.920472    0.314570
 ---------------------------------------------------------------------

 SCF Done:  E(UB3LYP) =  -1136.12940823     A.U. after   20 cycles

 The electronic state is 2-A.
 Alpha  occ. eigenvalues --  -38.44496 -38.44299 -38.44146 -38.43763 -38.43467
 Alpha  occ. eigenvalues --  -38.43288 -38.43201  -2.20263  -2.20149  -2.20008
 Alpha  occ. eigenvalues --   -2.19607  -2.19319  -2.19266  -2.19074  -1.13936
 Alpha  occ. eigenvalues --   -1.13928  -1.13900  -1.13830  -1.13810  -1.13785
 Alpha  occ. eigenvalues --   -1.13685  -1.13651  -1.13617  -1.13346  -1.13251
 Alpha  occ. eigenvalues --   -1.13218  -1.13042  -1.12985  -1.12945  -1.12936
 Alpha  occ. eigenvalues --   -1.12891  -1.12861  -1.12758  -1.12740  -1.12689
 Alpha  occ. eigenvalues --   -0.18424  -0.13195  -0.11968  -0.11175
 Alpha virt. eigenvalues --   -0.06265  -0.05126  -0.04082  -0.03386  -0.03054
 Alpha virt. eigenvalues --   -0.02695  -0.01943  -0.01183  -0.00372  -0.00039
 Alpha virt. eigenvalues --   -0.00000   0.00291   0.00602   0.00745   0.00840

  Beta  occ. eigenvalues --  -38.44499 -38.44294 -38.44064 -38.43739 -38.43444
  Beta  occ. eigenvalues --  -38.43232 -38.43190  -2.20269  -2.20143  -2.19857
  Beta  occ. eigenvalues --   -2.19566  -2.19279  -2.19165  -2.19056  -1.13937
  Beta  occ. eigenvalues --   -1.13930  -1.13903  -1.13821  -1.13805  -1.13772
  Beta  occ. eigenvalues --   -1.13586  -1.13547  -1.13501  -1.13305  -1.13215
  Beta  occ. eigenvalues --   -1.13194  -1.13009  -1.12940  -1.12915  -1.12873
  Beta  occ. eigenvalues --   -1.12816  -1.12798  -1.12744  -1.12713  -1.12669
  Beta  occ. eigenvalues --   -0.17696  -0.13003  -0.11703
  Beta virt. eigenvalues --   -0.07255  -0.06150  -0.05045  -0.03937  -0.02812
  Beta virt. eigenvalues --   -0.02344  -0.01889  -0.01671  -0.01069  -0.00250
  Beta virt. eigenvalues --   -0.00029   0.00056   0.00328   0.00773   0.00824

 Mulliken charges and spin densities:
               1          2
     1  Na  -0.323601   0.642226
     2  Na  -0.086411   0.095476
     3  Na  -0.271437  -0.023145
     4  Na   0.384446   0.338134
     5  Na   0.410602   0.001580
     6  Na  -0.176550  -0.035100
     7  Na   0.062951  -0.019171
 Sum of Mulliken charges =  -0.00000   1.00000

 Dipole moment (field-independent basis, Debye):
    X=             -0.0145    Y=             -0.2027    Z=              0.2969  Tot=              0.3597
 Quadrupole moment (field-independent basis, Debye-Ang):
   XX=            -52.2823   YY=            -69.7041   ZZ=            -72.1130
   XY=              0.9611   XZ=              1.0069   YZ=              1.1996

 Normal termination of Gaussian 16 at Tue Dec  5 20:30:24 2023.
