 Gaussian 16, Revision B.01,
 Gaussian 16:  ES64L-G16RevB.01 20-Dec-2017

 -------------------------
 #P B3LYP/6-311+g(d) force
 -------------------------

 -----
 DPGEN
 -----
 Symbolic Z-matrix:
 Charge =  0 Multiplicity = 2

                         Standard orientation:
 ---------------------------------------------------------------------
 Center     Atomic      Atomic             Coordinates (Angstroms)
 Number     Number       Type             X           Y           Z
 ---------------------------------------------------------------------
      1         11           0        0.056231    2.869140    0.033972
      2         11           0       -3.090877    1.091231   -0.280126
      3         11           0        2.222510   -1.995815   -0.881087
      4         11           0       -0.346530   -0.216380   -1.652311
      5         11           0        3.012975    1.054232    0.299246
      6         11           0        0.245571   -0.634773    2.057015
      7         11           0       -2.099880   -2.167634    0.423291
 ---------------------------------------------------------------------

 SCF Done:  E(UB3LYP) =  -1136.13451730     A.U. after   19 cycles

 The electronic state is 2-A.
 Alpha  occ. eigenvalues --  -38.44187 -38.44095 -38.43946 -38.43748 -38.43655
 Alpha  occ. eigenvalues --  -38.43501 -38.43007  -2.20014  -2.19922  -2.19818
 Alpha  occ. eigenvalues --   -2.19601  -2.19517  -2.19458  -2.18825  -1.13700
 Alpha  occ. eigenvalues --   -1.13671  -1.13646  -1.13594  -1.13583  -1.13574
 Alpha  occ. eigenvalues --   -1.13495  -1.13451  -1.13442  -1.13313  -1.13236
 Alpha  occ. eigenvalues --   -1.13229  -1.13203  -1.13186  -1.13143  -1.13125
 Alpha  occ. eigenvalues --   -1.13077  -1.13076  -1.12510  -1.12498  -1.12456
 Alpha  occ. eigenvalues --   -0.18405  -0.13373  -0.12063  -0.11050
 Alpha virt. eigenvalues --   -0.05868  -0.05342  -0.04414  -0.03396  -0.02880
 Alpha virt. eigenvalues --   -0.02668  -0.01725  -0.01147  -0.00408  -0.00216
 Alpha virt. eigenvalues --   -0.00037   0.00329   0.00708   0.00844   0.00856

  Beta  occ. eigenvalues --  -38.44182 -38.44091 -38.43860 -38.43717 -38.43643
  Beta  occ. eigenvalues --  -38.43441 -38.43008  -2.20007  -2.19916  -2.19659
  Beta  occ. eigenvalues --   -2.19547  -2.19499  -2.19348  -2.18830  -1.13685
  Beta  occ. eigenvalues --   -1.13663  -1.13645  -1.13583  -1.13576  -1.13564
  Beta  occ. eigenvalues --   -1.13391  -1.13339  -1.13331  -1.13260  -1.13200
  Beta  occ. eigenvalues --   -1.13187  -1.13182  -1.13143  -1.13132  -1.13052
  Beta  occ. eigenvalues --   -1.13012  -1.12990  -1.12512  -1.12496  -1.12453
  Beta  occ. eigenvalues --   -0.17722  -0.13141  -0.11783
  Beta virt. eigenvalues --   -0.07166  -0.05792  -0.05281  -0.04229  -0.02768
  Beta virt. eigenvalues --   -0.02174  -0.01688  -0.01616  -0.01034  -0.00398
  Beta virt. eigenvalues --   -0.00225   0.00102   0.00379   0.00819   0.00846

 Mulliken charges and spin densities:
               1          2
     1  Na  -0.201331  -0.009904
     2  Na   0.097711  -0.014486
     3  Na   0.149604   0.063418
     4  Na   0.039641   0.337595
     5  Na   0.020077   0.041053
     6  Na  -0.256672   0.558136
     7  Na   0.150970   0.024187
 Sum of Mulliken charges =  -0.00000   1.00000

 Dipole moment (field-independent basis, Debye):
    X=             -0.1233    Y=             -0.1985    Z=              0.1895  Tot=              0.3008
 Quadrupole moment (field-independent basis, Debye-Ang):
   XX=            -54.2378   YY=            -67.3497   ZZ=            -73.0583
   XY=             -0.0812   XZ=             -0.1965   YZ=              1.0704

 Normal termination of Gaussian 16 at Thu Dec  7 23:29:44 2023.
