 Gaussian 16, Revision B.01,
 Gaussian 16:  ES64L-G16RevB.01 20-Dec-2017

 -------------------------
 #P B3LYP/6-311+g(d) force
 -------------------------

 -----
 DPGEN
 -----
 Symbolic Z-matrix:
 Charge =  0 Multiplicity = 2

                         Standard orientation:
 ---------------------------------------------------------------------
 Center     Atomic      Atomic             Coordinates (Angstroms)
 Number     Number       Type             X           Y           Z
 ---------------------------------------------------------------------
      1         11           0        0.825587   -2.294171   -0.709948
      2         11           0       -1.205653    0.349713   -1.650256
      3         11           0        3.392547   -0.145623   -0.185957
      4         11           0        1.128247    2.300317   -0.690697
      5         11           0       -2.568485   -2.032257    0.126878
      6         11           0       -2.336136    2.063618    0.659083
      7         11           0        0.763894   -0.241598    2.450896
 ---------------------------------------------------------------------

 SCF Done:  E(UB3LYP) =  -1136.13110960     A.U. after   18 cycles

 The electronic state is 2-A.
 Alpha  occ. eigenvalues --  -38.44585 -38.44070 -38.44059 -38.43830 -38.43445
 Alpha  occ. eigenvalues --  -38.43418 -38.43334  -2.20388  -2.19891  -2.19883
 Alpha  occ. eigenvalues --   -2.19642  -2.19412  -2.19273  -2.19187  -1.14034
 Alpha  occ. eigenvalues --   -1.14024  -1.14005  -1.13603  -1.13553  -1.13547
 Alpha  occ. eigenvalues --   -1.13545  -1.13530  -1.13515  -1.13334  -1.13300
 Alpha  occ. eigenvalues --   -1.13283  -1.13122  -1.13067  -1.13037  -1.12943
 Alpha  occ. eigenvalues --   -1.12928  -1.12879  -1.12874  -1.12855  -1.12801
 Alpha  occ. eigenvalues --   -0.18143  -0.13119  -0.12067  -0.11193
 Alpha virt. eigenvalues --   -0.05759  -0.05426  -0.04313  -0.03634  -0.03006
 Alpha virt. eigenvalues --   -0.02982  -0.01525  -0.01099  -0.00328  -0.00091
 Alpha virt. eigenvalues --   -0.00014   0.00335   0.00646   0.00722   0.00829

  Beta  occ. eigenvalues --  -38.44482 -38.44060 -38.44059 -38.43832 -38.43408
  Beta  occ. eigenvalues --  -38.43401 -38.43320  -2.20197  -2.19885  -2.19874
  Beta  occ. eigenvalues --   -2.19647  -2.19343  -2.19245  -2.19163  -1.13905
  Beta  occ. eigenvalues --   -1.13891  -1.13870  -1.13591  -1.13556  -1.13545
  Beta  occ. eigenvalues --   -1.13523  -1.13520  -1.13503  -1.13333  -1.13299
  Beta  occ. eigenvalues --   -1.13283  -1.13079  -1.13015  -1.12992  -1.12913
  Beta  occ. eigenvalues --   -1.12895  -1.12861  -1.12855  -1.12823  -1.12788
  Beta  occ. eigenvalues --   -0.17446  -0.12974  -0.11885
  Beta virt. eigenvalues --   -0.07268  -0.05520  -0.05380  -0.04089  -0.03085
  Beta virt. eigenvalues --   -0.02330  -0.01989  -0.01443  -0.01004  -0.00246
  Beta virt. eigenvalues --   -0.00036   0.00074   0.00404   0.00806   0.00847

 Mulliken charges and spin densities:
               1          2
     1  Na  -0.345584   0.059149
     2  Na   0.901485   0.086593
     3  Na   0.420907   0.016707
     4  Na  -0.305286   0.100291
     5  Na   0.046643  -0.014121
     6  Na  -0.199111   0.095582
     7  Na  -0.519053   0.655798
 Sum of Mulliken charges =  -0.00000   1.00000

 Dipole moment (field-independent basis, Debye):
    X=             -0.0710    Y=              0.0016    Z=              0.4643  Tot=              0.4697
 Quadrupole moment (field-independent basis, Debye-Ang):
   XX=            -56.3436   YY=            -69.3048   ZZ=            -70.1728
   XY=             -0.0108   XZ=             -3.1270   YZ=              0.7141

 Normal termination of Gaussian 16 at Thu Dec  7 09:24:56 2023.
