 Gaussian 16, Revision B.01,
 Gaussian 16:  ES64L-G16RevB.01 20-Dec-2017

 -------------------------
 #P B3LYP/6-311+g(d) force
 -------------------------

 -----
 DPGEN
 -----
 Symbolic Z-matrix:
 Charge =  0 Multiplicity = 2

                         Standard orientation:
 ---------------------------------------------------------------------
 Center     Atomic      Atomic             Coordinates (Angstroms)
 Number     Number       Type             X           Y           Z
 ---------------------------------------------------------------------
      1         11           0        7.876406    1.305634   -0.220830
      2         11           0       -1.473944   -0.316972    1.200849
      3         11           0        5.816341   -0.777546    0.047800
      4         11           0        2.257666   -1.201991   -0.178736
      5         11           0       -4.542144   -1.561083   -0.596791
      6         11           0       -3.271138    1.886406   -0.223155
      7         11           0       -6.663187    0.665553   -0.029138
 ---------------------------------------------------------------------

 SCF Done:  E(UB3LYP) =  -1136.10281037     A.U. after   23 cycles

 The electronic state is 2-A.
 Alpha  occ. eigenvalues --  -38.46078 -38.45349 -38.44436 -38.44229 -38.43857
 Alpha  occ. eigenvalues --  -38.43642 -38.43175  -2.21910  -2.21203  -2.20256
 Alpha  occ. eigenvalues --   -2.20009  -2.19690  -2.19449  -2.19004  -1.15587
 Alpha  occ. eigenvalues --   -1.15556  -1.15529  -1.14873  -1.14855  -1.14807
 Alpha  occ. eigenvalues --   -1.13931  -1.13915  -1.13904  -1.13664  -1.13661
 Alpha  occ. eigenvalues --   -1.13607  -1.13399  -1.13315  -1.13314  -1.13138
 Alpha  occ. eigenvalues --   -1.13123  -1.13098  -1.12676  -1.12663  -1.12656
 Alpha  occ. eigenvalues --   -0.16777  -0.14027  -0.12197  -0.10735
 Alpha virt. eigenvalues --   -0.07627  -0.05398  -0.04633  -0.03237  -0.02856
 Alpha virt. eigenvalues --   -0.02564  -0.02442  -0.01856  -0.01613  -0.00806
 Alpha virt. eigenvalues --   -0.00617  -0.00241  -0.00112   0.00065   0.00165

  Beta  occ. eigenvalues --  -38.46041 -38.45288 -38.44441 -38.44134 -38.43796
  Beta  occ. eigenvalues --  -38.43659 -38.43179  -2.21841  -2.21090  -2.20269
  Beta  occ. eigenvalues --   -2.19832  -2.19575  -2.19487  -2.19018  -1.15539
  Beta  occ. eigenvalues --   -1.15519  -1.15468  -1.14792  -1.14783  -1.14732
  Beta  occ. eigenvalues --   -1.13930  -1.13921  -1.13913  -1.13543  -1.13541
  Beta  occ. eigenvalues --   -1.13494  -1.13327  -1.13236  -1.13235  -1.13160
  Beta  occ. eigenvalues --   -1.13148  -1.13107  -1.12682  -1.12680  -1.12621
  Beta  occ. eigenvalues --   -0.16506  -0.13215  -0.11731
  Beta virt. eigenvalues --   -0.07416  -0.07329  -0.05290  -0.04335  -0.02744
  Beta virt. eigenvalues --   -0.02663  -0.02283  -0.02152  -0.01701  -0.01581
  Beta virt. eigenvalues --   -0.00412  -0.00375  -0.00017   0.00094   0.00208

 Mulliken charges and spin densities:
               1          2
     1  Na   0.423131   0.260628
     2  Na  -0.260552  -0.115486
     3  Na  -0.184350  -0.158446
     4  Na  -0.295379   0.585678
     5  Na   0.099273   0.241433
     6  Na   0.053857   0.228445
     7  Na   0.164020  -0.042252
 Sum of Mulliken charges =  -0.00000   1.00000

 Dipole moment (field-independent basis, Debye):
    X=             -3.6475    Y=              0.7757    Z=             -0.3425  Tot=              3.7447
 Quadrupole moment (field-independent basis, Debye-Ang):
   XX=            -67.9863   YY=            -61.8310   ZZ=            -72.2622
   XY=              0.8819   XZ=             -1.6955   YZ=             -0.5262

 Normal termination of Gaussian 16 at Mon Dec  4 02:02:52 2023.
