 Gaussian 16, Revision B.01,
 Gaussian 16:  ES64L-G16RevB.01 20-Dec-2017

 -------------------------
 #P B3LYP/6-311+g(d) force
 -------------------------

 -----
 DPGEN
 -----
 Symbolic Z-matrix:
 Charge =  0 Multiplicity = 2

                         Standard orientation:
 ---------------------------------------------------------------------
 Center     Atomic      Atomic             Coordinates (Angstroms)
 Number     Number       Type             X           Y           Z
 ---------------------------------------------------------------------
      1         11           0       -2.104752   -1.251367    0.044172
      2         11           0       -5.128016   -2.142951   -0.219130
      3         11           0       -4.276495    2.008576   -1.107694
      4         11           0       -1.345553    2.098002    0.977492
      5         11           0        1.525834   -0.313285    1.460020
      6         11           0        3.998825   -0.357905   -0.535833
      7         11           0        7.330157   -0.041070   -0.619026
 ---------------------------------------------------------------------

 SCF Done:  E(UB3LYP) =  -1136.11098733     A.U. after   22 cycles

 The electronic state is 2-A.
 Alpha  occ. eigenvalues --  -38.45594 -38.44812 -38.44641 -38.44228 -38.44100
 Alpha  occ. eigenvalues --  -38.43868 -38.43689  -2.21371  -2.20602  -2.20478
 Alpha  occ. eigenvalues --   -2.19997  -2.19907  -2.19683  -2.19493  -1.15038
 Alpha  occ. eigenvalues --   -1.15014  -1.14975  -1.14292  -1.14286  -1.14212
 Alpha  occ. eigenvalues --   -1.14178  -1.14145  -1.14095  -1.13652  -1.13651
 Alpha  occ. eigenvalues --   -1.13630  -1.13573  -1.13555  -1.13520  -1.13394
 Alpha  occ. eigenvalues --   -1.13348  -1.13298  -1.13165  -1.13164  -1.13117
 Alpha  occ. eigenvalues --   -0.16435  -0.13923  -0.12084  -0.11493
 Alpha virt. eigenvalues --   -0.06964  -0.05341  -0.04344  -0.03573  -0.03269
 Alpha virt. eigenvalues --   -0.02544  -0.02222  -0.01746  -0.01255  -0.00880
 Alpha virt. eigenvalues --   -0.00791  -0.00215   0.00086   0.00419   0.00462

  Beta  occ. eigenvalues --  -38.45518 -38.44794 -38.44609 -38.44194 -38.44058
  Beta  occ. eigenvalues --  -38.43847 -38.43698  -2.21230  -2.20572  -2.20421
  Beta  occ. eigenvalues --   -2.19934  -2.19833  -2.19643  -2.19513  -1.14944
  Beta  occ. eigenvalues --   -1.14911  -1.14875  -1.14277  -1.14268  -1.14162
  Beta  occ. eigenvalues --   -1.14140  -1.14098  -1.14050  -1.13608  -1.13607
  Beta  occ. eigenvalues --   -1.13590  -1.13512  -1.13504  -1.13477  -1.13374
  Beta  occ. eigenvalues --   -1.13318  -1.13279  -1.13179  -1.13178  -1.13111
  Beta  occ. eigenvalues --   -0.15816  -0.13594  -0.11324
  Beta virt. eigenvalues --   -0.08213  -0.06591  -0.05096  -0.04033  -0.03357
  Beta virt. eigenvalues --   -0.02674  -0.02364  -0.01955  -0.01567  -0.00905
  Beta virt. eigenvalues --   -0.00673  -0.00450  -0.00077   0.00245   0.00453

 Mulliken charges and spin densities:
               1          2
     1  Na  -1.011347   0.298320
     2  Na   0.109474   0.236160
     3  Na   0.182575   0.268516
     4  Na   0.008917   0.127279
     5  Na   0.216200   0.051523
     6  Na  -0.362143  -0.032306
     7  Na   0.856324   0.050508
 Sum of Mulliken charges =  -0.00000   1.00000

 Dipole moment (field-independent basis, Debye):
    X=             -1.7757    Y=              0.8254    Z=             -0.0743  Tot=              1.9596
 Quadrupole moment (field-independent basis, Debye-Ang):
   XX=            -55.6381   YY=            -68.6526   ZZ=            -70.3208
   XY=             -1.5250   XZ=              3.1463   YZ=             -1.0379

 Normal termination of Gaussian 16 at Tue Nov 28 19:34:49 2023.
