 Gaussian 16, Revision B.01,
 Gaussian 16:  ES64L-G16RevB.01 20-Dec-2017

 -------------------------
 #P B3LYP/6-311+g(d) force
 -------------------------

 -----
 DPGEN
 -----
 Symbolic Z-matrix:
 Charge =  0 Multiplicity = 2

                         Standard orientation:
 ---------------------------------------------------------------------
 Center     Atomic      Atomic             Coordinates (Angstroms)
 Number     Number       Type             X           Y           Z
 ---------------------------------------------------------------------
      1         11           0        2.792312    1.087749   -0.032811
      2         11           0       -3.137653    1.059910   -0.280708
      3         11           0        0.064344    2.780134    0.372730
      4         11           0        0.177285   -0.789317    2.053238
      5         11           0        0.082394    0.051288   -1.619516
      6         11           0        2.180903   -2.028120   -0.485712
      7         11           0       -2.159585   -2.161644   -0.007221
 ---------------------------------------------------------------------

 SCF Done:  E(UB3LYP) =  -1136.13485137     A.U. after   20 cycles

 The electronic state is 2-A.
 Alpha  occ. eigenvalues --  -38.44275 -38.43891 -38.43815 -38.43632 -38.43615
 Alpha  occ. eigenvalues --  -38.43374 -38.42947  -2.20080  -2.19794  -2.19649
 Alpha  occ. eigenvalues --   -2.19522  -2.19495  -2.19357  -2.18805  -1.13753
 Alpha  occ. eigenvalues --   -1.13738  -1.13725  -1.13490  -1.13461  -1.13445
 Alpha  occ. eigenvalues --   -1.13333  -1.13319  -1.13283  -1.13237  -1.13187
 Alpha  occ. eigenvalues --   -1.13152  -1.13144  -1.13113  -1.13106  -1.13036
 Alpha  occ. eigenvalues --   -1.12989  -1.12970  -1.12486  -1.12461  -1.12443
 Alpha  occ. eigenvalues --   -0.18689  -0.13416  -0.12209  -0.10825
 Alpha virt. eigenvalues --   -0.05798  -0.05466  -0.04289  -0.03350  -0.02937
 Alpha virt. eigenvalues --   -0.02486  -0.01664  -0.01128  -0.00410  -0.00178
 Alpha virt. eigenvalues --   -0.00031   0.00340   0.00734   0.00841   0.00915

  Beta  occ. eigenvalues --  -38.44272 -38.43885 -38.43812 -38.43616 -38.43524
  Beta  occ. eigenvalues --  -38.43315 -38.42939  -2.20076  -2.19786  -2.19647
  Beta  occ. eigenvalues --   -2.19498  -2.19325  -2.19249  -2.18793  -1.13738
  Beta  occ. eigenvalues --   -1.13737  -1.13725  -1.13483  -1.13460  -1.13412
  Beta  occ. eigenvalues --   -1.13326  -1.13301  -1.13280  -1.13210  -1.13151
  Beta  occ. eigenvalues --   -1.13121  -1.13039  -1.13002  -1.12988  -1.12961
  Beta  occ. eigenvalues --   -1.12918  -1.12888  -1.12480  -1.12444  -1.12428
  Beta  occ. eigenvalues --   -0.17976  -0.13167  -0.11973
  Beta virt. eigenvalues --   -0.06921  -0.05723  -0.05457  -0.04205  -0.02589
  Beta virt. eigenvalues --   -0.02184  -0.01581  -0.01459  -0.01073  -0.00449
  Beta virt. eigenvalues --   -0.00191   0.00132   0.00384   0.00825   0.00834

 Mulliken charges and spin densities:
               1          2
     1  Na   0.196578   0.085848
     2  Na  -0.020241   0.000686
     3  Na  -0.129453   0.047016
     4  Na  -0.486732   0.656005
     5  Na  -0.205420   0.284465
     6  Na   0.463234   0.002381
     7  Na   0.182035  -0.076402
 Sum of Mulliken charges =  -0.00000   1.00000

 Dipole moment (field-independent basis, Debye):
    X=             -0.2402    Y=             -0.2072    Z=              0.0975  Tot=              0.3318
 Quadrupole moment (field-independent basis, Debye-Ang):
   XX=            -54.8476   YY=            -65.6244   ZZ=            -73.7614
   XY=             -0.6118   XZ=              0.1592   YZ=              1.5255

 Normal termination of Gaussian 16 at Tue Dec  5 19:15:29 2023.
