 Gaussian 16, Revision B.01,
 Gaussian 16:  ES64L-G16RevB.01 20-Dec-2017

 -------------------------
 #P B3LYP/6-311+g(d) force
 -------------------------

 -----
 DPGEN
 -----
 Symbolic Z-matrix:
 Charge =  0 Multiplicity = 2

                         Standard orientation:
 ---------------------------------------------------------------------
 Center     Atomic      Atomic             Coordinates (Angstroms)
 Number     Number       Type             X           Y           Z
 ---------------------------------------------------------------------
      1         11           0        0.496854    0.049364    1.933448
      2         11           0       -2.738837   -1.713185    0.162897
      3         11           0       -2.911829    1.823711   -0.426930
      4         11           0        0.638922   -2.771271   -0.014326
      5         11           0        3.391235   -0.137234   -0.495786
      6         11           0        0.953477    3.015372    0.166123
      7         11           0        0.170177   -0.266756   -1.325425
 ---------------------------------------------------------------------

 SCF Done:  E(UB3LYP) =  -1136.12966841     A.U. after   19 cycles

 The electronic state is 2-A.
 Alpha  occ. eigenvalues --  -38.44443 -38.44048 -38.44015 -38.43894 -38.43516
 Alpha  occ. eigenvalues --  -38.43328 -38.43262  -2.20253  -2.19823  -2.19815
 Alpha  occ. eigenvalues --   -2.19681  -2.19432  -2.19343  -2.19174  -1.13933
 Alpha  occ. eigenvalues --   -1.13900  -1.13883  -1.13502  -1.13499  -1.13492
 Alpha  occ. eigenvalues --   -1.13475  -1.13455  -1.13442  -1.13362  -1.13350
 Alpha  occ. eigenvalues --   -1.13327  -1.13311  -1.13096  -1.13030  -1.13021
 Alpha  occ. eigenvalues --   -1.12933  -1.12912  -1.12847  -1.12794  -1.12774
 Alpha  occ. eigenvalues --   -0.18366  -0.12969  -0.12406  -0.10243
 Alpha virt. eigenvalues --   -0.06023  -0.05459  -0.04855  -0.02913  -0.02687
 Alpha virt. eigenvalues --   -0.02086  -0.01929  -0.01273  -0.00829  -0.00530
 Alpha virt. eigenvalues --   -0.00028   0.00275   0.00717   0.00775   0.00816

  Beta  occ. eigenvalues --  -38.44419 -38.44038 -38.44014 -38.43889 -38.43507
  Beta  occ. eigenvalues --  -38.43288 -38.43168  -2.20213  -2.19825  -2.19798
  Beta  occ. eigenvalues --   -2.19675  -2.19419  -2.19275  -2.19001  -1.13893
  Beta  occ. eigenvalues --   -1.13874  -1.13852  -1.13498  -1.13498  -1.13475
  Beta  occ. eigenvalues --   -1.13466  -1.13446  -1.13434  -1.13349  -1.13336
  Beta  occ. eigenvalues --   -1.13311  -1.13306  -1.13057  -1.13006  -1.12972
  Beta  occ. eigenvalues --   -1.12888  -1.12867  -1.12734  -1.12678  -1.12645
  Beta  occ. eigenvalues --   -0.17700  -0.12692  -0.12160
  Beta virt. eigenvalues --   -0.06513  -0.05836  -0.05399  -0.04803  -0.02278
  Beta virt. eigenvalues --   -0.01999  -0.01814  -0.01235  -0.01078  -0.00806
  Beta virt. eigenvalues --   -0.00570   0.00138   0.00342   0.00766   0.00798

 Mulliken charges and spin densities:
               1          2
     1  Na  -0.120430   0.556308
     2  Na   0.045289   0.028484
     3  Na  -0.054610   0.033058
     4  Na   0.478314   0.052230
     5  Na   0.217257   0.044471
     6  Na  -0.080979  -0.033749
     7  Na  -0.484842   0.319199
 Sum of Mulliken charges =  -0.00000   1.00000

 Dipole moment (field-independent basis, Debye):
    X=              0.2461    Y=              0.0448    Z=              0.2231  Tot=              0.3352
 Quadrupole moment (field-independent basis, Debye-Ang):
   XX=            -54.4667   YY=            -60.7778   ZZ=            -76.5541
   XY=              1.0691   XZ=             -0.7594   YZ=             -1.2403

 Normal termination of Gaussian 16 at Thu Dec  7 10:41:18 2023.
