 Gaussian 16, Revision B.01,
 Gaussian 16:  ES64L-G16RevB.01 20-Dec-2017

 -------------------------
 #P B3LYP/6-311+g(d) force
 -------------------------

 -----
 DPGEN
 -----
 Symbolic Z-matrix:
 Charge =  0 Multiplicity = 2

                         Standard orientation:
 ---------------------------------------------------------------------
 Center     Atomic      Atomic             Coordinates (Angstroms)
 Number     Number       Type             X           Y           Z
 ---------------------------------------------------------------------
      1         11           0       -0.082149   -0.066374    1.924477
      2         11           0       -2.610368   -1.034082   -0.047615
      3         11           0       -1.879095    2.365325   -0.154261
      4         11           0        1.714556    2.282357    0.166311
      5         11           0        2.720022   -0.700289   -0.173171
      6         11           0        0.094902   -2.815953    0.039726
      7         11           0        0.042132   -0.030983   -1.755466
 ---------------------------------------------------------------------

 SCF Done:  E(UB3LYP) =  -1136.13990673     A.U. after   19 cycles

 The electronic state is 2-A.
 Alpha  occ. eigenvalues --  -38.43509 -38.43453 -38.43442 -38.43426 -38.43327
 Alpha  occ. eigenvalues --  -38.43242 -38.43214  -2.19389  -2.19353  -2.19352
 Alpha  occ. eigenvalues --   -2.19342  -2.19252  -2.19231  -2.19164  -1.13113
 Alpha  occ. eigenvalues --   -1.13092  -1.13054  -1.13045  -1.13042  -1.13031
 Alpha  occ. eigenvalues --   -1.13020  -1.13011  -1.12991  -1.12987  -1.12976
 Alpha  occ. eigenvalues --   -1.12972  -1.12960  -1.12905  -1.12884  -1.12872
 Alpha  occ. eigenvalues --   -1.12857  -1.12824  -1.12817  -1.12795  -1.12779
 Alpha  occ. eigenvalues --   -0.19363  -0.13048  -0.12781  -0.11051
 Alpha virt. eigenvalues --   -0.05129  -0.04904  -0.04821  -0.03210  -0.03033
 Alpha virt. eigenvalues --   -0.02645  -0.01143  -0.01100  -0.00088  -0.00021
 Alpha virt. eigenvalues --    0.00030   0.00378   0.00927   0.00933   0.00964

  Beta  occ. eigenvalues --  -38.43506 -38.43448 -38.43435 -38.43336 -38.43319
  Beta  occ. eigenvalues --  -38.43234 -38.43137  -2.19350  -2.19344  -2.19336
  Beta  occ. eigenvalues --   -2.19242  -2.19225  -2.19155  -2.19091  -1.13081
  Beta  occ. eigenvalues --   -1.13075  -1.13037  -1.13023  -1.13005  -1.12995
  Beta  occ. eigenvalues --   -1.12982  -1.12976  -1.12969  -1.12961  -1.12936
  Beta  occ. eigenvalues --   -1.12898  -1.12885  -1.12871  -1.12855  -1.12836
  Beta  occ. eigenvalues --   -1.12790  -1.12782  -1.12774  -1.12738  -1.12722
  Beta  occ. eigenvalues --   -0.18598  -0.12770  -0.12517
  Beta virt. eigenvalues --   -0.07081  -0.05137  -0.04876  -0.04818  -0.02349
  Beta virt. eigenvalues --   -0.02222  -0.01565  -0.01074  -0.01027  -0.00132
  Beta virt. eigenvalues --   -0.00063   0.00122   0.00387   0.00932   0.00949

 Mulliken charges and spin densities:
               1          2
     1  Na  -0.537388   0.712768
     2  Na   0.212888  -0.081751
     3  Na   0.032217  -0.112060
     4  Na   0.118376  -0.064522
     5  Na   0.299156  -0.030524
     6  Na   0.324174  -0.038976
     7  Na  -0.449423   0.615064
 Sum of Mulliken charges =  -0.00000   1.00000

 Dipole moment (field-independent basis, Debye):
    X=             -0.1024    Y=              0.1316    Z=              0.0951  Tot=              0.1920
 Quadrupole moment (field-independent basis, Debye-Ang):
   XX=            -60.7217   YY=            -60.6580   ZZ=            -72.8519
   XY=             -0.2892   XZ=              0.2774   YZ=              0.1037

 Normal termination of Gaussian 16 at Fri Dec  8 02:56:53 2023.
