 Gaussian 16, Revision B.01,
 Gaussian 16:  ES64L-G16RevB.01 20-Dec-2017

 -------------------------
 #P B3LYP/6-311+g(d) force
 -------------------------

 -----
 DPGEN
 -----
 Symbolic Z-matrix:
 Charge =  0 Multiplicity = 2

                         Standard orientation:
 ---------------------------------------------------------------------
 Center     Atomic      Atomic             Coordinates (Angstroms)
 Number     Number       Type             X           Y           Z
 ---------------------------------------------------------------------
      1         11           0        2.350712   -1.664168    0.169759
      2         11           0        5.834597   -0.485558   -0.926726
      3         11           0        3.848891    2.162917   -0.238569
      4         11           0        0.205312    1.260155    1.238631
      5         11           0       -0.836589   -1.834061    0.498581
      6         11           0       -4.352533    0.215122    0.318748
      7         11           0       -7.050392    0.345594   -1.060424
 ---------------------------------------------------------------------

 SCF Done:  E(UB3LYP) =  -1136.11694431     A.U. after   20 cycles

 The electronic state is 2-A.
 Alpha  occ. eigenvalues --  -38.44728 -38.44639 -38.44629 -38.44363 -38.44198
 Alpha  occ. eigenvalues --  -38.44093 -38.43800  -2.20557  -2.20452  -2.20415
 Alpha  occ. eigenvalues --   -2.20147  -2.20044  -2.19885  -2.19604  -1.14249
 Alpha  occ. eigenvalues --   -1.14223  -1.14175  -1.14125  -1.14105  -1.14094
 Alpha  occ. eigenvalues --   -1.14075  -1.14067  -1.14042  -1.13813  -1.13803
 Alpha  occ. eigenvalues --   -1.13775  -1.13708  -1.13694  -1.13679  -1.13597
 Alpha  occ. eigenvalues --   -1.13536  -1.13536  -1.13270  -1.13266  -1.13213
 Alpha  occ. eigenvalues --   -0.16654  -0.13834  -0.12334  -0.11175
 Alpha virt. eigenvalues --   -0.06985  -0.05712  -0.04186  -0.03831  -0.03029
 Alpha virt. eigenvalues --   -0.02640  -0.02384  -0.01502  -0.01298  -0.00845
 Alpha virt. eigenvalues --   -0.00771  -0.00246   0.00176   0.00229   0.00579

  Beta  occ. eigenvalues --  -38.44677 -38.44591 -38.44578 -38.44349 -38.44181
  Beta  occ. eigenvalues --  -38.44097 -38.43799  -2.20465  -2.20346  -2.20337
  Beta  occ. eigenvalues --   -2.20120  -2.20013  -2.19893  -2.19600  -1.14189
  Beta  occ. eigenvalues --   -1.14150  -1.14102  -1.14050  -1.14048  -1.14031
  Beta  occ. eigenvalues --   -1.14023  -1.13984  -1.13977  -1.13795  -1.13777
  Beta  occ. eigenvalues --   -1.13758  -1.13686  -1.13665  -1.13652  -1.13602
  Beta  occ. eigenvalues --   -1.13542  -1.13541  -1.13267  -1.13264  -1.13214
  Beta  occ. eigenvalues --   -0.15967  -0.13738  -0.12254
  Beta virt. eigenvalues --   -0.07355  -0.06755  -0.04971  -0.04017  -0.03660
  Beta virt. eigenvalues --   -0.02532  -0.02370  -0.02138  -0.01389  -0.01262
  Beta virt. eigenvalues --   -0.00508  -0.00347   0.00046   0.00247   0.00409

 Mulliken charges and spin densities:
               1          2
     1  Na  -0.507593   0.380982
     2  Na   0.550159   0.065837
     3  Na   0.030831   0.114617
     4  Na  -0.279172   0.423463
     5  Na   0.295517   0.005509
     6  Na  -0.267458  -0.005091
     7  Na   0.177717   0.014683
 Sum of Mulliken charges =  -0.00000   1.00000

 Dipole moment (field-independent basis, Debye):
    X=              0.9414    Y=             -0.1508    Z=             -0.2293  Tot=              0.9806
 Quadrupole moment (field-independent basis, Debye-Ang):
   XX=            -55.2811   YY=            -69.1401   ZZ=            -71.3533
   XY=             -0.0024   XZ=              0.9403   YZ=              0.0876

 Normal termination of Gaussian 16 at Wed Nov 29 00:59:10 2023.
