 Gaussian 16, Revision B.01,
 Gaussian 16:  ES64L-G16RevB.01 20-Dec-2017

 -------------------------
 #P B3LYP/6-311+g(d) force
 -------------------------

 -----
 DPGEN
 -----
 Symbolic Z-matrix:
 Charge =  0 Multiplicity = 2

                         Standard orientation:
 ---------------------------------------------------------------------
 Center     Atomic      Atomic             Coordinates (Angstroms)
 Number     Number       Type             X           Y           Z
 ---------------------------------------------------------------------
      1         11           0       -2.915488    1.659351   -0.235255
      2         11           0       -3.143372   -1.183790    0.051647
      3         11           0        2.408039   -1.758931    0.268137
      4         11           0        3.307105    1.255107   -0.202310
      5         11           0        0.009885   -1.473490   -1.656675
      6         11           0       -0.213884   -0.516762    1.911346
      7         11           0        0.547716    2.018515   -0.136891
 ---------------------------------------------------------------------

 SCF Done:  E(UB3LYP) =  -1136.11409803     A.U. after   24 cycles

 The electronic state is 2-A.
 Alpha  occ. eigenvalues --  -38.45130 -38.44808 -38.44647 -38.44080 -38.43802
 Alpha  occ. eigenvalues --  -38.43480 -38.43281  -2.21000  -2.20686  -2.20503
 Alpha  occ. eigenvalues --   -2.19985  -2.19671  -2.19401  -2.19192  -1.14782
 Alpha  occ. eigenvalues --   -1.14645  -1.14625  -1.14427  -1.14336  -1.14305
 Alpha  occ. eigenvalues --   -1.14162  -1.14140  -1.14127  -1.13698  -1.13645
 Alpha  occ. eigenvalues --   -1.13627  -1.13341  -1.13304  -1.13292  -1.13086
 Alpha  occ. eigenvalues --   -1.13022  -1.13010  -1.12858  -1.12848  -1.12842
 Alpha  occ. eigenvalues --   -0.18786  -0.14489  -0.11692  -0.10621
 Alpha virt. eigenvalues --   -0.07114  -0.05995  -0.03899  -0.03479  -0.02670
 Alpha virt. eigenvalues --   -0.02495  -0.02250  -0.01530  -0.00576  -0.00130
 Alpha virt. eigenvalues --    0.00144   0.00177   0.00553   0.00637   0.00650

  Beta  occ. eigenvalues --  -38.45123 -38.44803 -38.44644 -38.44073 -38.43757
  Beta  occ. eigenvalues --  -38.43378 -38.43272  -2.20993  -2.20677  -2.20499
  Beta  occ. eigenvalues --   -2.19977  -2.19586  -2.19212  -2.19178  -1.14780
  Beta  occ. eigenvalues --   -1.14623  -1.14611  -1.14423  -1.14333  -1.14287
  Beta  occ. eigenvalues --   -1.14162  -1.14135  -1.14110  -1.13690  -1.13627
  Beta  occ. eigenvalues --   -1.13601  -1.13284  -1.13245  -1.13229  -1.12964
  Beta  occ. eigenvalues --   -1.12891  -1.12881  -1.12852  -1.12837  -1.12797
  Beta  occ. eigenvalues --   -0.18104  -0.14252  -0.11474
  Beta virt. eigenvalues --   -0.07004  -0.06759  -0.05943  -0.03370  -0.03108
  Beta virt. eigenvalues --   -0.02548  -0.01842  -0.01591  -0.01239  -0.00583
  Beta virt. eigenvalues --    0.00102   0.00176   0.00219   0.00656   0.00712

 Mulliken charges and spin densities:
               1          2
     1  Na  -0.235374  -0.122736
     2  Na   0.690346   0.337735
     3  Na   0.891789   0.548129
     4  Na   0.014557  -0.272699
     5  Na  -0.667303  -0.025796
     6  Na  -0.538487   0.133914
     7  Na  -0.155529   0.401453
 Sum of Mulliken charges =  -0.00000   1.00000

 Dipole moment (field-independent basis, Debye):
    X=             -0.3131    Y=             -0.3937    Z=              0.0717  Tot=              0.5081
 Quadrupole moment (field-independent basis, Debye-Ang):
   XX=            -47.4100   YY=            -73.9483   ZZ=            -74.6110
   XY=             -0.8103   XZ=              0.4224   YZ=             -1.2894

 Normal termination of Gaussian 16 at Thu Dec  7 20:05:14 2023.
