 Gaussian 16, Revision B.01,
 Gaussian 16:  ES64L-G16RevB.01 20-Dec-2017

 -------------------------
 #P B3LYP/6-311+g(d) force
 -------------------------

 -----
 DPGEN
 -----
 Symbolic Z-matrix:
 Charge =  0 Multiplicity = 2

                         Standard orientation:
 ---------------------------------------------------------------------
 Center     Atomic      Atomic             Coordinates (Angstroms)
 Number     Number       Type             X           Y           Z
 ---------------------------------------------------------------------
      1         11           0       -6.336778   -0.310936    0.487745
      2         11           0       -9.377623   -0.802826    0.253520
      3         11           0       -2.419384    0.634444   -0.292159
      4         11           0        0.237098    2.138460   -0.475768
      5         11           0        3.002941   -0.676421   -0.656433
      6         11           0        8.176809    0.110372    1.546052
      7         11           0        6.716937   -1.093092   -0.862958
 ---------------------------------------------------------------------

 SCF Done:  E(UB3LYP) =  -1136.10429442     A.U. after   20 cycles

 The electronic state is 2-A.
 Alpha  occ. eigenvalues --  -38.45058 -38.44795 -38.44703 -38.44536 -38.44506
 Alpha  occ. eigenvalues --  -38.44248 -38.43968  -2.20834  -2.20607  -2.20492
 Alpha  occ. eigenvalues --   -2.20330  -2.20315  -2.20049  -2.19753  -1.14488
 Alpha  occ. eigenvalues --   -1.14484  -1.14425  -1.14280  -1.14242  -1.14238
 Alpha  occ. eigenvalues --   -1.14229  -1.14159  -1.14137  -1.14000  -1.13976
 Alpha  occ. eigenvalues --   -1.13976  -1.13964  -1.13961  -1.13914  -1.13719
 Alpha  occ. eigenvalues --   -1.13716  -1.13697  -1.13419  -1.13418  -1.13399
 Alpha  occ. eigenvalues --   -0.15115  -0.14180  -0.13076  -0.11190
 Alpha virt. eigenvalues --   -0.07344  -0.05317  -0.04203  -0.03374  -0.03059
 Alpha virt. eigenvalues --   -0.02820  -0.02522  -0.02190  -0.01776  -0.01272
 Alpha virt. eigenvalues --   -0.00678  -0.00577  -0.00210   0.00265   0.00434

  Beta  occ. eigenvalues --  -38.44953 -38.44729 -38.44721 -38.44512 -38.44459
  Beta  occ. eigenvalues --  -38.44257 -38.43973  -2.20639  -2.20528  -2.20484
  Beta  occ. eigenvalues --   -2.20285  -2.20226  -2.20071  -2.19766  -1.14354
  Beta  occ. eigenvalues --   -1.14352  -1.14299  -1.14234  -1.14202  -1.14187
  Beta  occ. eigenvalues --   -1.14158  -1.14153  -1.14148  -1.13972  -1.13945
  Beta  occ. eigenvalues --   -1.13945  -1.13903  -1.13899  -1.13870  -1.13738
  Beta  occ. eigenvalues --   -1.13730  -1.13676  -1.13430  -1.13430  -1.13388
  Beta  occ. eigenvalues --   -0.14447  -0.13636  -0.12818
  Beta virt. eigenvalues --   -0.07987  -0.06708  -0.04886  -0.04059  -0.03150
  Beta virt. eigenvalues --   -0.02838  -0.02631  -0.02368  -0.02019  -0.01545
  Beta virt. eigenvalues --   -0.00945  -0.00346  -0.00314   0.00071   0.00348

 Mulliken charges and spin densities:
               1          2
     1  Na  -1.047100  -0.118083
     2  Na   0.796246   0.129217
     3  Na  -1.198116   0.230213
     4  Na   1.395936  -0.022947
     5  Na  -0.361207   0.513439
     6  Na   0.156652   0.312762
     7  Na   0.257590  -0.044601
 Sum of Mulliken charges =  -0.00000   1.00000

 Dipole moment (field-independent basis, Debye):
    X=              0.6053    Y=              0.2178    Z=              0.2795  Tot=              0.7014
 Quadrupole moment (field-independent basis, Debye-Ang):
   XX=            -51.6496   YY=            -69.3175   ZZ=            -70.6654
   XY=              5.7943   XZ=              4.4386   YZ=              2.4921

 Normal termination of Gaussian 16 at Sun Dec  3 14:35:57 2023.
