 Gaussian 16, Revision B.01,
 Gaussian 16:  ES64L-G16RevB.01 20-Dec-2017

 -------------------------
 #P B3LYP/6-311+g(d) force
 -------------------------

 -----
 DPGEN
 -----
 Symbolic Z-matrix:
 Charge =  0 Multiplicity = 2

                         Standard orientation:
 ---------------------------------------------------------------------
 Center     Atomic      Atomic             Coordinates (Angstroms)
 Number     Number       Type             X           Y           Z
 ---------------------------------------------------------------------
      1         11           0        2.491039   -1.950127   -0.067927
      2         11           0        1.161352    0.171511   -1.969639
      3         11           0        1.073957    0.106952    2.122582
      4         11           0        1.830556    2.128654    0.017853
      5         11           0       -1.422547    1.442576   -0.072535
      6         11           0       -0.995958   -1.642627   -0.026829
      7         11           0       -4.138400   -0.256940   -0.003505
 ---------------------------------------------------------------------

 SCF Done:  E(UB3LYP) =  -1136.12184296     A.U. after   20 cycles

 The electronic state is 2-A.
 Alpha  occ. eigenvalues --  -38.44922 -38.44137 -38.44016 -38.43408 -38.43239
 Alpha  occ. eigenvalues --  -38.43121 -38.43057  -2.20731  -2.20098  -2.20029
 Alpha  occ. eigenvalues --   -2.19339  -2.19126  -2.19088  -2.19034  -1.14408
 Alpha  occ. eigenvalues --   -1.14386  -1.14369  -1.13779  -1.13757  -1.13745
 Alpha  occ. eigenvalues --   -1.13690  -1.13682  -1.13632  -1.13109  -1.13033
 Alpha  occ. eigenvalues --   -1.12918  -1.12806  -1.12802  -1.12784  -1.12764
 Alpha  occ. eigenvalues --   -1.12749  -1.12718  -1.12707  -1.12677  -1.12604
 Alpha  occ. eigenvalues --   -0.19412  -0.13838  -0.11707  -0.11653
 Alpha virt. eigenvalues --   -0.06754  -0.04521  -0.03452  -0.03307  -0.03232
 Alpha virt. eigenvalues --   -0.02849  -0.02289  -0.01035  -0.00379   0.00086
 Alpha virt. eigenvalues --    0.00302   0.00333   0.00410   0.00880   0.00940

  Beta  occ. eigenvalues --  -38.44931 -38.44037 -38.43927 -38.43397 -38.43232
  Beta  occ. eigenvalues --  -38.43113 -38.43044  -2.20748  -2.19914  -2.19866
  Beta  occ. eigenvalues --   -2.19323  -2.19118  -2.19076  -2.19017  -1.14420
  Beta  occ. eigenvalues --   -1.14395  -1.14380  -1.13660  -1.13640  -1.13627
  Beta  occ. eigenvalues --   -1.13570  -1.13557  -1.13513  -1.13102  -1.12986
  Beta  occ. eigenvalues --   -1.12915  -1.12800  -1.12793  -1.12754  -1.12747
  Beta  occ. eigenvalues --   -1.12722  -1.12709  -1.12677  -1.12640  -1.12601
  Beta  occ. eigenvalues --   -0.18616  -0.13701  -0.11410
  Beta virt. eigenvalues --   -0.07550  -0.06533  -0.04535  -0.03328  -0.02834
  Beta virt. eigenvalues --   -0.02271  -0.02085  -0.01970  -0.01021  -0.00094
  Beta virt. eigenvalues --    0.00138   0.00290   0.00334   0.00708   0.00910

 Mulliken charges and spin densities:
               1          2
     1  Na   0.251474  -0.021697
     2  Na   0.025219   0.487519
     3  Na  -0.101577   0.547157
     4  Na   0.523608  -0.011887
     5  Na  -0.483399   0.075048
     6  Na  -0.455531   0.103355
     7  Na   0.240205  -0.179495
 Sum of Mulliken charges =  -0.00000   1.00000

 Dipole moment (field-independent basis, Debye):
    X=             -1.0222    Y=             -0.1792    Z=              0.1468  Tot=              1.0482
 Quadrupole moment (field-independent basis, Debye-Ang):
   XX=            -49.1548   YY=            -74.6948   ZZ=            -69.2350
   XY=              0.5880   XZ=              0.0618   YZ=              0.0851

 Normal termination of Gaussian 16 at Thu Dec  7 10:43:16 2023.
