 Gaussian 16, Revision B.01,
 Gaussian 16:  ES64L-G16RevB.01 20-Dec-2017

 -------------------------
 #P B3LYP/6-311+g(d) force
 -------------------------

 -----
 DPGEN
 -----
 Symbolic Z-matrix:
 Charge =  0 Multiplicity = 2

                         Standard orientation:
 ---------------------------------------------------------------------
 Center     Atomic      Atomic             Coordinates (Angstroms)
 Number     Number       Type             X           Y           Z
 ---------------------------------------------------------------------
      1         11           0       -2.190275    1.627834    0.368645
      2         11           0       -0.627748   -1.107951   -1.690571
      3         11           0        1.698405   -2.963819    0.475329
      4         11           0        0.803529    3.125385   -0.354620
      5         11           0        2.772372    0.390178   -0.903537
      6         11           0        0.830327    0.191546    2.100171
      7         11           0       -3.286609   -1.263172    0.004583
 ---------------------------------------------------------------------

 SCF Done:  E(UB3LYP) =  -1136.13158113     A.U. after   20 cycles

 The electronic state is 2-A.
 Alpha  occ. eigenvalues --  -38.44134 -38.44036 -38.44029 -38.44023 -38.43839
 Alpha  occ. eigenvalues --  -38.43682 -38.43388  -2.19965  -2.19886  -2.19861
 Alpha  occ. eigenvalues --   -2.19814  -2.19696  -2.19546  -2.19208  -1.13642
 Alpha  occ. eigenvalues --   -1.13638  -1.13594  -1.13583  -1.13574  -1.13529
 Alpha  occ. eigenvalues --   -1.13522  -1.13507  -1.13488  -1.13476  -1.13462
 Alpha  occ. eigenvalues --   -1.13444  -1.13365  -1.13350  -1.13299  -1.13222
 Alpha  occ. eigenvalues --   -1.13215  -1.13168  -1.12877  -1.12868  -1.12852
 Alpha  occ. eigenvalues --   -0.17846  -0.13252  -0.12354  -0.10744
 Alpha virt. eigenvalues --   -0.05837  -0.05352  -0.04874  -0.03390  -0.03123
 Alpha virt. eigenvalues --   -0.02554  -0.01545  -0.01299  -0.00567  -0.00312
 Alpha virt. eigenvalues --   -0.00079   0.00354   0.00644   0.00744   0.00801

  Beta  occ. eigenvalues --  -38.44103 -38.44039 -38.44020 -38.43940 -38.43796
  Beta  occ. eigenvalues --  -38.43674 -38.43382  -2.19910  -2.19893  -2.19798
  Beta  occ. eigenvalues --   -2.19709  -2.19615  -2.19532  -2.19200  -1.13605
  Beta  occ. eigenvalues --   -1.13594  -1.13586  -1.13570  -1.13542  -1.13523
  Beta  occ. eigenvalues --   -1.13472  -1.13450  -1.13445  -1.13424  -1.13402
  Beta  occ. eigenvalues --   -1.13349  -1.13311  -1.13293  -1.13246  -1.13208
  Beta  occ. eigenvalues --   -1.13201  -1.13157  -1.12874  -1.12857  -1.12835
  Beta  occ. eigenvalues --   -0.17198  -0.13021  -0.12151
  Beta virt. eigenvalues --   -0.06998  -0.05768  -0.05091  -0.04719  -0.02799
  Beta virt. eigenvalues --   -0.02507  -0.01690  -0.01396  -0.01180  -0.00566
  Beta virt. eigenvalues --   -0.00261   0.00102   0.00419   0.00745   0.00792

 Mulliken charges and spin densities:
               1          2
     1  Na  -0.276861   0.077035
     2  Na   0.059532   0.273940
     3  Na  -0.053321  -0.007807
     4  Na  -0.062741  -0.010207
     5  Na   0.019372   0.240380
     6  Na  -0.076537   0.521872
     7  Na   0.390555  -0.095213
 Sum of Mulliken charges =  -0.00000   1.00000

 Dipole moment (field-independent basis, Debye):
    X=             -0.0729    Y=             -0.5072    Z=              0.0941  Tot=              0.5210
 Quadrupole moment (field-independent basis, Debye-Ang):
   XX=            -60.4994   YY=            -62.3798   ZZ=            -72.9177
   XY=              0.2682   XZ=             -2.0821   YZ=             -1.6514

 Normal termination of Gaussian 16 at Sun Dec  3 17:26:54 2023.
