 Gaussian 16, Revision B.01,
 Gaussian 16:  ES64L-G16RevB.01 20-Dec-2017

 -------------------------
 #P B3LYP/6-311+g(d) force
 -------------------------

 -----
 DPGEN
 -----
 Symbolic Z-matrix:
 Charge =  0 Multiplicity = 2

                         Standard orientation:
 ---------------------------------------------------------------------
 Center     Atomic      Atomic             Coordinates (Angstroms)
 Number     Number       Type             X           Y           Z
 ---------------------------------------------------------------------
      1         11           0        2.093760   -0.275674    2.163937
      2         11           0        3.161000   -0.814918   -1.604473
      3         11           0       -1.896616    3.273003   -0.955418
      4         11           0        1.285710    1.526585   -0.111314
      5         11           0       -1.638347    0.980321    1.165378
      6         11           0       -0.073239   -1.660073   -0.401687
      7         11           0       -2.932269   -3.029244   -0.256424
 ---------------------------------------------------------------------

 SCF Done:  E(UB3LYP) =  -1136.12403865     A.U. after   20 cycles

 The electronic state is 2-A.
 Alpha  occ. eigenvalues --  -38.44565 -38.44266 -38.43904 -38.43861 -38.43785
 Alpha  occ. eigenvalues --  -38.43402 -38.42876  -2.20446  -2.20107  -2.19793
 Alpha  occ. eigenvalues --   -2.19757  -2.19679  -2.19185  -2.18791  -1.14160
 Alpha  occ. eigenvalues --   -1.14081  -1.14034  -1.13770  -1.13757  -1.13711
 Alpha  occ. eigenvalues --   -1.13553  -1.13496  -1.13461  -1.13445  -1.13414
 Alpha  occ. eigenvalues --   -1.13335  -1.13326  -1.13309  -1.13276  -1.12869
 Alpha  occ. eigenvalues --   -1.12845  -1.12827  -1.12497  -1.12476  -1.12384
 Alpha  occ. eigenvalues --   -0.18286  -0.13215  -0.12014  -0.11225
 Alpha virt. eigenvalues --   -0.05827  -0.05494  -0.04795  -0.03153  -0.02574
 Alpha virt. eigenvalues --   -0.02397  -0.01665  -0.01397  -0.01072  -0.00245
 Alpha virt. eigenvalues --    0.00134   0.00180   0.00300   0.00580   0.00676

  Beta  occ. eigenvalues --  -38.44484 -38.44200 -38.43895 -38.43843 -38.43771
  Beta  occ. eigenvalues --  -38.43407 -38.42865  -2.20298  -2.19983  -2.19778
  Beta  occ. eigenvalues --   -2.19738  -2.19644  -2.19195  -2.18774  -1.14059
  Beta  occ. eigenvalues --   -1.13979  -1.13925  -1.13682  -1.13669  -1.13634
  Beta  occ. eigenvalues --   -1.13542  -1.13463  -1.13439  -1.13411  -1.13382
  Beta  occ. eigenvalues --   -1.13318  -1.13301  -1.13296  -1.13255  -1.12875
  Beta  occ. eigenvalues --   -1.12852  -1.12834  -1.12487  -1.12439  -1.12377
  Beta  occ. eigenvalues --   -0.17564  -0.12899  -0.11930
  Beta virt. eigenvalues --   -0.07375  -0.05524  -0.05228  -0.04385  -0.02912
  Beta virt. eigenvalues --   -0.02040  -0.02017  -0.01321  -0.01298  -0.00564
  Beta virt. eigenvalues --   -0.00149   0.00242   0.00357   0.00426   0.00722

 Mulliken charges and spin densities:
               1          2
     1  Na   0.268117   0.357535
     2  Na   1.022361   0.273164
     3  Na  -0.188894  -0.023605
     4  Na   0.058526   0.396405
     5  Na   0.462257   0.117177
     6  Na  -1.541155   0.083627
     7  Na  -0.081212  -0.204304
 Sum of Mulliken charges =  -0.00000   1.00000

 Dipole moment (field-independent basis, Debye):
    X=              0.6179    Y=              0.4355    Z=              0.1564  Tot=              0.7719
 Quadrupole moment (field-independent basis, Debye-Ang):
   XX=            -57.8845   YY=            -67.6548   ZZ=            -67.0526
   XY=             -2.9178   XZ=              0.3931   YZ=             -2.8290

 Normal termination of Gaussian 16 at Wed Nov 29 16:49:46 2023.
