 Gaussian 16, Revision B.01,
 Gaussian 16:  ES64L-G16RevB.01 20-Dec-2017

 -------------------------
 #P B3LYP/6-311+g(d) force
 -------------------------

 -----
 DPGEN
 -----
 Symbolic Z-matrix:
 Charge =  0 Multiplicity = 2

                         Standard orientation:
 ---------------------------------------------------------------------
 Center     Atomic      Atomic             Coordinates (Angstroms)
 Number     Number       Type             X           Y           Z
 ---------------------------------------------------------------------
      1         11           0       -3.198835    1.256912   -0.186136
      2         11           0       -0.504522    3.445201   -0.219607
      3         11           0        2.959079    1.902370    0.275681
      4         11           0       -0.044314   -0.154217    0.228143
      5         11           0        3.568568   -1.418701   -0.073983
      6         11           0        0.467746   -3.002489   -0.356919
      7         11           0       -3.247722   -2.029075    0.332821
 ---------------------------------------------------------------------

 SCF Done:  E(UB3LYP) =  -1136.12713648     A.U. after   24 cycles

 The electronic state is 2-A.
 Alpha  occ. eigenvalues --  -38.44599 -38.44440 -38.43893 -38.43756 -38.43647
 Alpha  occ. eigenvalues --  -38.43519 -38.43480  -2.20411  -2.20280  -2.19826
 Alpha  occ. eigenvalues --   -2.19580  -2.19479  -2.19363  -2.19337  -1.14094
 Alpha  occ. eigenvalues --   -1.14073  -1.14049  -1.13961  -1.13960  -1.13913
 Alpha  occ. eigenvalues --   -1.13574  -1.13526  -1.13442  -1.13250  -1.13238
 Alpha  occ. eigenvalues --   -1.13198  -1.13143  -1.13132  -1.13100  -1.13030
 Alpha  occ. eigenvalues --   -1.13002  -1.12999  -1.12984  -1.12974  -1.12955
 Alpha  occ. eigenvalues --   -0.17332  -0.14037  -0.13174  -0.09788
 Alpha virt. eigenvalues --   -0.06731  -0.05525  -0.04309  -0.03057  -0.02875
 Alpha virt. eigenvalues --   -0.02323  -0.01936  -0.01670  -0.01517  -0.00105
 Alpha virt. eigenvalues --    0.00186   0.00290   0.00539   0.00632   0.00701

  Beta  occ. eigenvalues --  -38.44581 -38.44420 -38.43894 -38.43709 -38.43596
  Beta  occ. eigenvalues --  -38.43488 -38.43434  -2.20384  -2.20250  -2.19826
  Beta  occ. eigenvalues --   -2.19495  -2.19388  -2.19281  -2.19276  -1.14082
  Beta  occ. eigenvalues --   -1.14056  -1.13987  -1.13949  -1.13947  -1.13839
  Beta  occ. eigenvalues --   -1.13563  -1.13521  -1.13460  -1.13195  -1.13186
  Beta  occ. eigenvalues --   -1.13120  -1.13083  -1.13067  -1.13028  -1.12976
  Beta  occ. eigenvalues --   -1.12962  -1.12943  -1.12940  -1.12937  -1.12902
  Beta  occ. eigenvalues --   -0.17027  -0.13215  -0.12676
  Beta virt. eigenvalues --   -0.06791  -0.06443  -0.05314  -0.04169  -0.02516
  Beta virt. eigenvalues --   -0.02270  -0.02105  -0.01723  -0.01430  -0.01319
  Beta virt. eigenvalues --    0.00028   0.00356   0.00507   0.00634   0.00676

 Mulliken charges and spin densities:
               1          2
     1  Na   0.794437   0.186291
     2  Na   0.451528   0.148500
     3  Na   1.154965   0.415664
     4  Na  -4.946391  -0.389507
     5  Na   0.540470   0.114955
     6  Na   0.974287   0.137994
     7  Na   1.030703   0.386102
 Sum of Mulliken charges =  -0.00000   1.00000

 Dipole moment (field-independent basis, Debye):
    X=              0.0740    Y=             -0.2370    Z=             -0.2637  Tot=              0.3622
 Quadrupole moment (field-independent basis, Debye-Ang):
   XX=            -66.8772   YY=            -58.0413   ZZ=            -72.2901
   XY=             -4.9418   XZ=              0.0121   YZ=             -0.1741

 Normal termination of Gaussian 16 at Fri Dec  8 19:41:26 2023.
