 Gaussian 16, Revision B.01,
 Gaussian 16:  ES64L-G16RevB.01 20-Dec-2017

 -------------------------
 #P B3LYP/6-311+g(d) force
 -------------------------

 -----
 DPGEN
 -----
 Symbolic Z-matrix:
 Charge =  0 Multiplicity = 2

                         Standard orientation:
 ---------------------------------------------------------------------
 Center     Atomic      Atomic             Coordinates (Angstroms)
 Number     Number       Type             X           Y           Z
 ---------------------------------------------------------------------
      1         11           0       -0.039257    3.138240   -0.730577
      2         11           0       -0.076935    0.134931   -1.555174
      3         11           0        0.268335    0.047900    2.169392
      4         11           0        3.324860    0.568796    0.122083
      5         11           0        1.390369   -2.619281   -0.201615
      6         11           0       -2.780451    1.125095    0.644863
      7         11           0       -2.086921   -2.395681   -0.448972
 ---------------------------------------------------------------------

 SCF Done:  E(UB3LYP) =  -1136.13572180     A.U. after   19 cycles

 The electronic state is 2-A.
 Alpha  occ. eigenvalues --  -38.44083 -38.44067 -38.43802 -38.43765 -38.43697
 Alpha  occ. eigenvalues --  -38.43481 -38.43230  -2.19930  -2.19841  -2.19623
 Alpha  occ. eigenvalues --   -2.19591  -2.19531  -2.19301  -2.19195  -1.13594
 Alpha  occ. eigenvalues --   -1.13567  -1.13548  -1.13516  -1.13490  -1.13485
 Alpha  occ. eigenvalues --   -1.13319  -1.13298  -1.13282  -1.13260  -1.13227
 Alpha  occ. eigenvalues --   -1.13226  -1.13207  -1.13204  -1.13146  -1.12990
 Alpha  occ. eigenvalues --   -1.12955  -1.12938  -1.12874  -1.12830  -1.12812
 Alpha  occ. eigenvalues --   -0.18152  -0.12687  -0.12377  -0.10964
 Alpha virt. eigenvalues --   -0.05586  -0.05037  -0.04964  -0.03224  -0.02947
 Alpha virt. eigenvalues --   -0.02715  -0.01500  -0.01300  -0.00534  -0.00335
 Alpha virt. eigenvalues --   -0.00023   0.00335   0.00794   0.00831   0.00852

  Beta  occ. eigenvalues --  -38.44068 -38.43989 -38.43786 -38.43743 -38.43692
  Beta  occ. eigenvalues --  -38.43476 -38.43175  -2.19845  -2.19755  -2.19595
  Beta  occ. eigenvalues --   -2.19552  -2.19525  -2.19295  -2.19097  -1.13513
  Beta  occ. eigenvalues --   -1.13499  -1.13488  -1.13476  -1.13449  -1.13407
  Beta  occ. eigenvalues --   -1.13284  -1.13269  -1.13254  -1.13238  -1.13217
  Beta  occ. eigenvalues --   -1.13198  -1.13196  -1.13180  -1.13138  -1.12977
  Beta  occ. eigenvalues --   -1.12951  -1.12928  -1.12805  -1.12758  -1.12744
  Beta  occ. eigenvalues --   -0.17458  -0.12448  -0.12118
  Beta virt. eigenvalues --   -0.07093  -0.05531  -0.04949  -0.04859  -0.02504
  Beta virt. eigenvalues --   -0.02295  -0.01721  -0.01398  -0.01182  -0.00504
  Beta virt. eigenvalues --   -0.00358   0.00103   0.00372   0.00809   0.00855

 Mulliken charges and spin densities:
               1          2
     1  Na   0.080443   0.016667
     2  Na  -0.025945   0.277548
     3  Na  -0.299057   0.627174
     4  Na  -0.003546  -0.045493
     5  Na   0.087944  -0.024163
     6  Na   0.082724   0.155566
     7  Na   0.077437  -0.007298
 Sum of Mulliken charges =  -0.00000   1.00000

 Dipole moment (field-independent basis, Debye):
    X=              0.2034    Y=              0.0929    Z=              0.2517  Tot=              0.3367
 Quadrupole moment (field-independent basis, Debye-Ang):
   XX=            -58.5279   YY=            -61.3855   ZZ=            -73.6213
   XY=              0.4843   XZ=             -0.8620   YZ=              0.0951

 Normal termination of Gaussian 16 at Thu Dec  7 19:09:43 2023.
