 Gaussian 16, Revision B.01,
 Gaussian 16:  ES64L-G16RevB.01 20-Dec-2017

 -------------------------
 #P B3LYP/6-311+g(d) force
 -------------------------

 -----
 DPGEN
 -----
 Symbolic Z-matrix:
 Charge =  0 Multiplicity = 2

                         Standard orientation:
 ---------------------------------------------------------------------
 Center     Atomic      Atomic             Coordinates (Angstroms)
 Number     Number       Type             X           Y           Z
 ---------------------------------------------------------------------
      1         11           0       -4.044319   -1.223848    0.238546
      2         11           0       -0.341137   -0.251549    1.989125
      3         11           0        2.310343   -2.590893    0.056126
      4         11           0        0.363061   -0.726976   -1.603822
      5         11           0        0.535045    2.966660    0.290025
      6         11           0       -2.406421    1.155032   -0.904310
      7         11           0        3.583429    0.671575   -0.065689
 ---------------------------------------------------------------------

 SCF Done:  E(UB3LYP) =  -1136.11836438     A.U. after   26 cycles

 The electronic state is 2-A.
 Alpha  occ. eigenvalues --  -38.46065 -38.45164 -38.44273 -38.44067 -38.43612
 Alpha  occ. eigenvalues --  -38.43485 -38.42549  -2.21821  -2.20936  -2.20146
 Alpha  occ. eigenvalues --   -2.19890  -2.19497  -2.19320  -2.18345  -1.15510
 Alpha  occ. eigenvalues --   -1.15469  -1.15448  -1.14636  -1.14591  -1.14572
 Alpha  occ. eigenvalues --   -1.13842  -1.13801  -1.13768  -1.13568  -1.13516
 Alpha  occ. eigenvalues --   -1.13499  -1.13185  -1.13151  -1.13120  -1.13006
 Alpha  occ. eigenvalues --   -1.12967  -1.12960  -1.12015  -1.12007  -1.12003
 Alpha  occ. eigenvalues --   -0.17745  -0.13735  -0.11417  -0.10420
 Alpha virt. eigenvalues --   -0.07531  -0.05168  -0.04327  -0.03562  -0.02892
 Alpha virt. eigenvalues --   -0.02411  -0.02323  -0.01440  -0.00721  -0.00395
 Alpha virt. eigenvalues --   -0.00260   0.00054   0.00390   0.00601   0.00676

  Beta  occ. eigenvalues --  -38.46062 -38.45175 -38.44219 -38.43970 -38.43587
  Beta  occ. eigenvalues --  -38.43483 -38.42548  -2.21816  -2.20957  -2.20049
  Beta  occ. eigenvalues --   -2.19710  -2.19453  -2.19319  -2.18347  -1.15497
  Beta  occ. eigenvalues --   -1.15468  -1.15447  -1.14651  -1.14600  -1.14582
  Beta  occ. eigenvalues --   -1.13767  -1.13728  -1.13701  -1.13445  -1.13389
  Beta  occ. eigenvalues --   -1.13370  -1.13150  -1.13111  -1.13091  -1.13003
  Beta  occ. eigenvalues --   -1.12966  -1.12947  -1.12013  -1.12006  -1.11996
  Beta  occ. eigenvalues --   -0.17035  -0.13639  -0.11269
  Beta virt. eigenvalues --   -0.07396  -0.06528  -0.05047  -0.04247  -0.02990
  Beta virt. eigenvalues --   -0.02662  -0.01776  -0.01464  -0.01297  -0.00732
  Beta virt. eigenvalues --   -0.00235  -0.00177   0.00088   0.00539   0.00675

 Mulliken charges and spin densities:
               1          2
     1  Na   0.061999  -0.056367
     2  Na  -0.454262   0.726040
     3  Na   0.313927  -0.044458
     4  Na  -0.140552   0.292969
     5  Na  -0.129692  -0.049901
     6  Na   0.324616   0.133433
     7  Na   0.023964  -0.001715
 Sum of Mulliken charges =  -0.00000   1.00000

 Dipole moment (field-independent basis, Debye):
    X=              0.5052    Y=             -0.4934    Z=              0.1131  Tot=              0.7151
 Quadrupole moment (field-independent basis, Debye-Ang):
   XX=            -46.5893   YY=            -69.5867   ZZ=            -76.4020
   XY=              3.4843   XZ=              0.2585   YZ=             -1.7920

 Normal termination of Gaussian 16 at Thu Dec  7 16:05:11 2023.
