 Gaussian 16, Revision B.01,
 Gaussian 16:  ES64L-G16RevB.01 20-Dec-2017

 -------------------------
 #P B3LYP/6-311+g(d) force
 -------------------------

 -----
 DPGEN
 -----
 Symbolic Z-matrix:
 Charge =  0 Multiplicity = 2

                         Standard orientation:
 ---------------------------------------------------------------------
 Center     Atomic      Atomic             Coordinates (Angstroms)
 Number     Number       Type             X           Y           Z
 ---------------------------------------------------------------------
      1         11           0       -1.720653    3.334888   -0.223876
      2         11           0        3.573293    0.208687   -0.999704
      3         11           0       -1.377104   -3.253885   -0.176065
      4         11           0        1.540330   -2.034029    0.994514
      5         11           0        1.172335    2.103080    1.135375
      6         11           0       -3.295256   -0.357850   -0.046974
      7         11           0        0.107056   -0.000890   -0.683269
 ---------------------------------------------------------------------

 SCF Done:  E(UB3LYP) =  -1136.12396853     A.U. after   21 cycles

 The electronic state is 2-A.
 Alpha  occ. eigenvalues --  -38.44228 -38.44220 -38.43885 -38.43819 -38.43778
 Alpha  occ. eigenvalues --  -38.43731 -38.43384  -2.20094  -2.20009  -2.19830
 Alpha  occ. eigenvalues --   -2.19713  -2.19675  -2.19547  -2.19232  -1.13887
 Alpha  occ. eigenvalues --   -1.13752  -1.13703  -1.13688  -1.13654  -1.13629
 Alpha  occ. eigenvalues --   -1.13614  -1.13504  -1.13441  -1.13391  -1.13384
 Alpha  occ. eigenvalues --   -1.13361  -1.13329  -1.13307  -1.13248  -1.13210
 Alpha  occ. eigenvalues --   -1.13200  -1.13159  -1.12889  -1.12883  -1.12835
 Alpha  occ. eigenvalues --   -0.17916  -0.13392  -0.13145  -0.09521
 Alpha virt. eigenvalues --   -0.06003  -0.05664  -0.05559  -0.02814  -0.02563
 Alpha virt. eigenvalues --   -0.02052  -0.01813  -0.01355  -0.01126  -0.00812
 Alpha virt. eigenvalues --   -0.00014   0.00252   0.00534   0.00636   0.00708

  Beta  occ. eigenvalues --  -38.44229 -38.44195 -38.43881 -38.43817 -38.43737
  Beta  occ. eigenvalues --  -38.43686 -38.43313  -2.20048  -2.20013  -2.19829
  Beta  occ. eigenvalues --   -2.19711  -2.19602  -2.19463  -2.19099  -1.13863
  Beta  occ. eigenvalues --   -1.13717  -1.13692  -1.13677  -1.13651  -1.13611
  Beta  occ. eigenvalues --   -1.13591  -1.13493  -1.13440  -1.13394  -1.13370
  Beta  occ. eigenvalues --   -1.13338  -1.13281  -1.13267  -1.13188  -1.13148
  Beta  occ. eigenvalues --   -1.13145  -1.13107  -1.12795  -1.12791  -1.12750
  Beta  occ. eigenvalues --   -0.17557  -0.12894  -0.12710
  Beta virt. eigenvalues --   -0.06276  -0.05784  -0.05359  -0.05288  -0.02327
  Beta virt. eigenvalues --   -0.02220  -0.01823  -0.01668  -0.01095  -0.00881
  Beta virt. eigenvalues --   -0.00455   0.00219   0.00406   0.00654   0.00721

 Mulliken charges and spin densities:
               1          2
     1  Na   0.247017   0.004275
     2  Na   0.486803   0.311930
     3  Na   0.257034   0.042818
     4  Na   0.001967   0.167549
     5  Na   0.012085   0.099289
     6  Na   0.409748   0.306202
     7  Na  -1.414653   0.067936
 Sum of Mulliken charges =  -0.00000   1.00000

 Dipole moment (field-independent basis, Debye):
    X=             -0.2409    Y=              0.2310    Z=              0.4915  Tot=              0.5941
 Quadrupole moment (field-independent basis, Debye-Ang):
   XX=            -64.6941   YY=            -59.5260   ZZ=            -72.0169
   XY=             -1.4167   XZ=              2.0659   YZ=              0.1503

 Normal termination of Gaussian 16 at Wed Nov 29 15:39:35 2023.
