 Gaussian 16, Revision B.01,
 Gaussian 16:  ES64L-G16RevB.01 20-Dec-2017

 -------------------------
 #P B3LYP/6-311+g(d) force
 -------------------------

 -----
 DPGEN
 -----
 Symbolic Z-matrix:
 Charge =  0 Multiplicity = 2

                         Standard orientation:
 ---------------------------------------------------------------------
 Center     Atomic      Atomic             Coordinates (Angstroms)
 Number     Number       Type             X           Y           Z
 ---------------------------------------------------------------------
      1         11           0       -2.016212   -2.325325   -0.065854
      2         11           0        2.027344   -2.354355   -0.219021
      3         11           0        0.482521   -0.432354    1.640162
      4         11           0       -0.538413    2.919823    0.025574
      5         11           0       -2.798517    0.750297    0.165044
      6         11           0       -0.060287    0.074747   -1.512938
      7         11           0        2.903563    1.367167   -0.032967
 ---------------------------------------------------------------------

 SCF Done:  E(UB3LYP) =  -1136.13387502     A.U. after   21 cycles

 The electronic state is 2-A.
 Alpha  occ. eigenvalues --  -38.44359 -38.44143 -38.43787 -38.43585 -38.43464
 Alpha  occ. eigenvalues --  -38.42867 -38.42672  -2.20170  -2.19992  -2.19645
 Alpha  occ. eigenvalues --   -2.19504  -2.19336  -2.18853  -2.18705  -1.13848
 Alpha  occ. eigenvalues --   -1.13834  -1.13803  -1.13702  -1.13655  -1.13604
 Alpha  occ. eigenvalues --   -1.13359  -1.13306  -1.13285  -1.13219  -1.13155
 Alpha  occ. eigenvalues --   -1.13136  -1.13013  -1.12983  -1.12959  -1.12577
 Alpha  occ. eigenvalues --   -1.12488  -1.12454  -1.12391  -1.12329  -1.12317
 Alpha  occ. eigenvalues --   -0.18958  -0.13287  -0.12665  -0.10057
 Alpha virt. eigenvalues --   -0.05928  -0.05329  -0.04772  -0.03038  -0.02630
 Alpha virt. eigenvalues --   -0.01808  -0.01666  -0.01386  -0.00501  -0.00381
 Alpha virt. eigenvalues --    0.00056   0.00355   0.00788   0.00840   0.00909

  Beta  occ. eigenvalues --  -38.44354 -38.44135 -38.43782 -38.43578 -38.43460
  Beta  occ. eigenvalues --  -38.42795 -38.42603  -2.20166  -2.19982  -2.19639
  Beta  occ. eigenvalues --   -2.19495  -2.19331  -2.18722  -2.18581  -1.13835
  Beta  occ. eigenvalues --   -1.13818  -1.13804  -1.13691  -1.13623  -1.13602
  Beta  occ. eigenvalues --   -1.13359  -1.13286  -1.13272  -1.13217  -1.13143
  Beta  occ. eigenvalues --   -1.13110  -1.13006  -1.12963  -1.12956  -1.12486
  Beta  occ. eigenvalues --   -1.12393  -1.12359  -1.12297  -1.12239  -1.12226
  Beta  occ. eigenvalues --   -0.18255  -0.13033  -0.12419
  Beta virt. eigenvalues --   -0.06194  -0.05928  -0.05272  -0.04771  -0.02230
  Beta virt. eigenvalues --   -0.01896  -0.01592  -0.01314  -0.00849  -0.00559
  Beta virt. eigenvalues --   -0.00420   0.00197   0.00396   0.00792   0.00871

 Mulliken charges and spin densities:
               1          2
     1  Na   0.310647  -0.033447
     2  Na   0.184494  -0.140213
     3  Na  -0.446284   0.688745
     4  Na   0.174985  -0.031058
     5  Na   0.136451   0.040592
     6  Na  -0.487429   0.572658
     7  Na   0.127135  -0.097277
 Sum of Mulliken charges =  -0.00000   1.00000

 Dipole moment (field-independent basis, Debye):
    X=              0.5093    Y=             -0.1669    Z=              0.0014  Tot=              0.5359
 Quadrupole moment (field-independent basis, Debye-Ang):
   XX=            -54.7309   YY=            -58.1741   ZZ=            -77.9619
   XY=              0.8137   XZ=             -1.2235   YZ=              1.1931

 Normal termination of Gaussian 16 at Wed Nov 29 02:24:21 2023.
