 Gaussian 16, Revision B.01,
 Gaussian 16:  ES64L-G16RevB.01 20-Dec-2017

 -------------------------
 #P B3LYP/6-311+g(d) force
 -------------------------

 -----
 DPGEN
 -----
 Symbolic Z-matrix:
 Charge =  0 Multiplicity = 2

                         Standard orientation:
 ---------------------------------------------------------------------
 Center     Atomic      Atomic             Coordinates (Angstroms)
 Number     Number       Type             X           Y           Z
 ---------------------------------------------------------------------
      1         11           0       -0.022280   -1.502355   -1.463621
      2         11           0       -0.904220    0.812822    1.926195
      3         11           0       -3.170622   -1.430048    0.145519
      4         11           0        0.920639    2.269790    0.244276
      5         11           0        2.132112   -1.642534    1.449094
      6         11           0        3.144185    0.136035   -1.139719
      7         11           0       -2.099815    1.356289   -1.161744
 ---------------------------------------------------------------------

 SCF Done:  E(UB3LYP) =  -1136.12716373     A.U. after   20 cycles

 The electronic state is 2-A.
 Alpha  occ. eigenvalues --  -38.44429 -38.44379 -38.44130 -38.44101 -38.43627
 Alpha  occ. eigenvalues --  -38.43460 -38.42513  -2.20273  -2.20202  -2.20027
 Alpha  occ. eigenvalues --   -2.19929  -2.19468  -2.19395  -2.18433  -1.13953
 Alpha  occ. eigenvalues --   -1.13935  -1.13917  -1.13863  -1.13839  -1.13812
 Alpha  occ. eigenvalues --   -1.13718  -1.13714  -1.13651  -1.13591  -1.13578
 Alpha  occ. eigenvalues --   -1.13553  -1.13161  -1.13156  -1.13145  -1.13069
 Alpha  occ. eigenvalues --   -1.13021  -1.13005  -1.12137  -1.12083  -1.12042
 Alpha  occ. eigenvalues --   -0.18439  -0.13775  -0.11502  -0.11240
 Alpha virt. eigenvalues --   -0.06167  -0.05403  -0.04380  -0.03303  -0.02944
 Alpha virt. eigenvalues --   -0.02813  -0.01849  -0.00903  -0.00442  -0.00091
 Alpha virt. eigenvalues --    0.00204   0.00328   0.00387   0.00655   0.00808

  Beta  occ. eigenvalues --  -38.44409 -38.44333 -38.44105 -38.44103 -38.43604
  Beta  occ. eigenvalues --  -38.43407 -38.42502  -2.20238  -2.20116  -2.19980
  Beta  occ. eigenvalues --   -2.19934  -2.19428  -2.19298  -2.18418  -1.13924
  Beta  occ. eigenvalues --   -1.13902  -1.13892  -1.13802  -1.13780  -1.13754
  Beta  occ. eigenvalues --   -1.13695  -1.13674  -1.13622  -1.13586  -1.13579
  Beta  occ. eigenvalues --   -1.13545  -1.13137  -1.13103  -1.13084  -1.13044
  Beta  occ. eigenvalues --   -1.12955  -1.12924  -1.12118  -1.12051  -1.12036
  Beta  occ. eigenvalues --   -0.17731  -0.13589  -0.11346
  Beta virt. eigenvalues --   -0.07450  -0.05929  -0.05006  -0.03997  -0.03215
  Beta virt. eigenvalues --   -0.02345  -0.01937  -0.01710  -0.00643  -0.00252
  Beta virt. eigenvalues --    0.00035   0.00290   0.00369   0.00524   0.00727

 Mulliken charges and spin densities:
               1          2
     1  Na  -0.239057   0.481374
     2  Na   0.109760   0.612857
     3  Na   0.171614  -0.125101
     4  Na  -0.040030   0.222815
     5  Na  -0.279229  -0.076691
     6  Na   0.385311   0.001061
     7  Na  -0.108368  -0.116316
 Sum of Mulliken charges =  -0.00000   1.00000

 Dipole moment (field-independent basis, Debye):
    X=             -0.0461    Y=             -0.3900    Z=             -0.1579  Tot=              0.4232
 Quadrupole moment (field-independent basis, Debye-Ang):
   XX=            -54.0208   YY=            -73.7699   ZZ=            -67.7952
   XY=              0.6705   XZ=             -1.2056   YZ=             -5.6151

 Normal termination of Gaussian 16 at Tue Dec  5 18:33:05 2023.
