 Gaussian 16, Revision B.01,
 Gaussian 16:  ES64L-G16RevB.01 20-Dec-2017

 -------------------------
 #P B3LYP/6-311+g(d) force
 -------------------------

 -----
 DPGEN
 -----
 Symbolic Z-matrix:
 Charge =  0 Multiplicity = 2

                         Standard orientation:
 ---------------------------------------------------------------------
 Center     Atomic      Atomic             Coordinates (Angstroms)
 Number     Number       Type             X           Y           Z
 ---------------------------------------------------------------------
      1         11           0       -0.107263   -0.250274    1.933167
      2         11           0        2.522325    1.998646   -0.177048
      3         11           0       -0.376140   -2.691878   -0.326313
      4         11           0       -3.342801   -0.205293    0.096337
      5         11           0       -1.143619    2.614971    0.044645
      6         11           0       -0.250303   -0.060756   -1.744155
      7         11           0        2.697802   -1.405416    0.173368
 ---------------------------------------------------------------------

 SCF Done:  E(UB3LYP) =  -1136.13687331     A.U. after   19 cycles

 The electronic state is 2-A.
 Alpha  occ. eigenvalues --  -38.44457 -38.43798 -38.43685 -38.43528 -38.43463
 Alpha  occ. eigenvalues --  -38.43319 -38.43136  -2.20259  -2.19651  -2.19486
 Alpha  occ. eigenvalues --   -2.19441  -2.19306  -2.19293  -2.19054  -1.13932
 Alpha  occ. eigenvalues --   -1.13909  -1.13905  -1.13329  -1.13316  -1.13303
 Alpha  occ. eigenvalues --   -1.13158  -1.13142  -1.13133  -1.13125  -1.13082
 Alpha  occ. eigenvalues --   -1.13053  -1.13052  -1.13016  -1.12977  -1.12924
 Alpha  occ. eigenvalues --   -1.12920  -1.12886  -1.12714  -1.12703  -1.12654
 Alpha  occ. eigenvalues --   -0.18697  -0.13059  -0.12376  -0.10732
 Alpha virt. eigenvalues --   -0.05909  -0.05138  -0.04511  -0.03189  -0.02833
 Alpha virt. eigenvalues --   -0.02535  -0.01797  -0.01042  -0.00349  -0.00276
 Alpha virt. eigenvalues --   -0.00015   0.00342   0.00786   0.00882   0.00884

  Beta  occ. eigenvalues --  -38.44454 -38.43793 -38.43685 -38.43458 -38.43443
  Beta  occ. eigenvalues --  -38.43242 -38.43122  -2.20257  -2.19646  -2.19488
  Beta  occ. eigenvalues --   -2.19300  -2.19284  -2.19153  -2.19033  -1.13915
  Beta  occ. eigenvalues --   -1.13908  -1.13904  -1.13323  -1.13306  -1.13291
  Beta  occ. eigenvalues --   -1.13150  -1.13140  -1.13134  -1.13029  -1.13009
  Beta  occ. eigenvalues --   -1.12976  -1.12958  -1.12947  -1.12933  -1.12917
  Beta  occ. eigenvalues --   -1.12835  -1.12789  -1.12690  -1.12650  -1.12639
  Beta  occ. eigenvalues --   -0.17957  -0.12844  -0.12120
  Beta virt. eigenvalues --   -0.06808  -0.05872  -0.05138  -0.04472  -0.02416
  Beta virt. eigenvalues --   -0.02059  -0.01706  -0.01469  -0.00981  -0.00389
  Beta virt. eigenvalues --   -0.00323   0.00119   0.00369   0.00838   0.00878

 Mulliken charges and spin densities:
               1          2
     1  Na  -0.345195   0.754371
     2  Na  -0.089641  -0.095457
     3  Na   0.341733  -0.082834
     4  Na   0.164972  -0.096724
     5  Na  -0.047517  -0.108893
     6  Na  -0.180635   0.646871
     7  Na   0.156283  -0.017334
 Sum of Mulliken charges =  -0.00000   1.00000

 Dipole moment (field-independent basis, Debye):
    X=             -0.3373    Y=              0.0243    Z=              0.1474  Tot=              0.3689
 Quadrupole moment (field-independent basis, Debye-Ang):
   XX=            -53.8568   YY=            -64.5568   ZZ=            -74.6050
   XY=              0.0877   XZ=             -0.3240   YZ=              0.1479

 Normal termination of Gaussian 16 at Thu Dec  7 04:54:06 2023.
