 Gaussian 16, Revision B.01,
 Gaussian 16:  ES64L-G16RevB.01 20-Dec-2017

 -------------------------
 #P B3LYP/6-311+g(d) force
 -------------------------

 -----
 DPGEN
 -----
 Symbolic Z-matrix:
 Charge =  0 Multiplicity = 2

                         Standard orientation:
 ---------------------------------------------------------------------
 Center     Atomic      Atomic             Coordinates (Angstroms)
 Number     Number       Type             X           Y           Z
 ---------------------------------------------------------------------
      1         11           0        0.323946   -0.010688    2.290052
      2         11           0       -4.658805    0.567262   -0.661319
      3         11           0        4.042745   -0.813963   -1.142359
      4         11           0       -0.935005    1.775355   -1.155546
      5         11           0        2.379157    2.387489    0.632040
      6         11           0        1.286737   -2.042108   -0.455818
      7         11           0       -2.438775   -1.863347    0.492948
 ---------------------------------------------------------------------

 SCF Done:  E(UB3LYP) =  -1136.11574443     A.U. after   25 cycles

 The electronic state is 2-A.
 Alpha  occ. eigenvalues --  -38.45109 -38.45064 -38.44728 -38.44389 -38.44037
 Alpha  occ. eigenvalues --  -38.43580 -38.43218  -2.20890  -2.20838  -2.20506
 Alpha  occ. eigenvalues --   -2.20216  -2.19828  -2.19360  -2.19050  -1.14551
 Alpha  occ. eigenvalues --   -1.14548  -1.14544  -1.14521  -1.14487  -1.14435
 Alpha  occ. eigenvalues --   -1.14166  -1.14156  -1.14127  -1.13885  -1.13853
 Alpha  occ. eigenvalues --   -1.13828  -1.13521  -1.13502  -1.13451  -1.13042
 Alpha  occ. eigenvalues --   -1.13014  -1.13001  -1.12737  -1.12722  -1.12703
 Alpha  occ. eigenvalues --   -0.17099  -0.13776  -0.11434  -0.11388
 Alpha virt. eigenvalues --   -0.06920  -0.05591  -0.04522  -0.03205  -0.03003
 Alpha virt. eigenvalues --   -0.02728  -0.02291  -0.01722  -0.01094  -0.00458
 Alpha virt. eigenvalues --   -0.00157   0.00026   0.00279   0.00422   0.00650

  Beta  occ. eigenvalues --  -38.45113 -38.44981 -38.44685 -38.44314 -38.44029
  Beta  occ. eigenvalues --  -38.43576 -38.43220  -2.20844  -2.20737  -2.20424
  Beta  occ. eigenvalues --   -2.20076  -2.19816  -2.19355  -2.19060  -1.14553
  Beta  occ. eigenvalues --   -1.14524  -1.14454  -1.14441  -1.14435  -1.14367
  Beta  occ. eigenvalues --   -1.14110  -1.14102  -1.14074  -1.13793  -1.13758
  Beta  occ. eigenvalues --   -1.13732  -1.13515  -1.13494  -1.13421  -1.13032
  Beta  occ. eigenvalues --   -1.13012  -1.12995  -1.12750  -1.12735  -1.12662
  Beta  occ. eigenvalues --   -0.16489  -0.13129  -0.11152
  Beta virt. eigenvalues --   -0.08025  -0.06701  -0.05240  -0.03920  -0.03112
  Beta virt. eigenvalues --   -0.02664  -0.02289  -0.01897  -0.01549  -0.00777
  Beta virt. eigenvalues --   -0.00305  -0.00050   0.00080   0.00426   0.00550

 Mulliken charges and spin densities:
               1          2
     1  Na   0.183836   0.275136
     2  Na   0.276058   0.216372
     3  Na   0.190471   0.281112
     4  Na  -0.294639   0.001281
     5  Na   0.008447   0.145914
     6  Na  -0.451089   0.092446
     7  Na   0.086916  -0.012262
 Sum of Mulliken charges =  -0.00000   1.00000

 Dipole moment (field-independent basis, Debye):
    X=             -0.5933    Y=              0.5065    Z=              0.3754  Tot=              0.8657
 Quadrupole moment (field-independent basis, Debye-Ang):
   XX=            -54.5296   YY=            -77.3016   ZZ=            -66.6561
   XY=              3.8985   XZ=              0.3984   YZ=             -1.5859

 Normal termination of Gaussian 16 at Sun Dec  3 18:21:25 2023.
