 Gaussian 16, Revision B.01,
 Gaussian 16:  ES64L-G16RevB.01 20-Dec-2017

 -------------------------
 #P B3LYP/6-311+g(d) force
 -------------------------

 -----
 DPGEN
 -----
 Symbolic Z-matrix:
 Charge =  0 Multiplicity = 2

                         Standard orientation:
 ---------------------------------------------------------------------
 Center     Atomic      Atomic             Coordinates (Angstroms)
 Number     Number       Type             X           Y           Z
 ---------------------------------------------------------------------
      1         11           0        0.187240   -0.146140    1.839846
      2         11           0        0.068796   -0.150789   -1.740967
      3         11           0        2.273796   -1.663757    0.078868
      4         11           0        2.304671    1.571585   -0.129039
      5         11           0       -1.228888   -2.438890   -0.136889
      6         11           0       -0.740767    2.496814   -0.010478
      7         11           0       -2.864848    0.331177    0.098659
 ---------------------------------------------------------------------

 SCF Done:  E(UB3LYP) =  -1136.13389098     A.U. after   19 cycles

 The electronic state is 2-A.
 Alpha  occ. eigenvalues --  -38.43655 -38.43523 -38.43409 -38.43345 -38.43261
 Alpha  occ. eigenvalues --  -38.43222 -38.43010  -2.19577  -2.19457  -2.19368
 Alpha  occ. eigenvalues --   -2.19353  -2.19287  -2.19191  -2.18974  -1.13291
 Alpha  occ. eigenvalues --   -1.13248  -1.13226  -1.13222  -1.13151  -1.13105
 Alpha  occ. eigenvalues --   -1.13079  -1.13045  -1.13024  -1.13000  -1.12978
 Alpha  occ. eigenvalues --   -1.12971  -1.12957  -1.12932  -1.12889  -1.12838
 Alpha  occ. eigenvalues --   -1.12811  -1.12797  -1.12641  -1.12614  -1.12608
 Alpha  occ. eigenvalues --   -0.19852  -0.13373  -0.12781  -0.11183
 Alpha virt. eigenvalues --   -0.05231  -0.04973  -0.04418  -0.03316  -0.02998
 Alpha virt. eigenvalues --   -0.02596  -0.01244  -0.00924  -0.00014   0.00120
 Alpha virt. eigenvalues --    0.00191   0.00371   0.00901   0.00987   0.01002

  Beta  occ. eigenvalues --  -38.43651 -38.43514 -38.43401 -38.43258 -38.43252
  Beta  occ. eigenvalues --  -38.43140 -38.43003  -2.19573  -2.19446  -2.19343
  Beta  occ. eigenvalues --   -2.19210  -2.19181  -2.19138  -2.18965  -1.13291
  Beta  occ. eigenvalues --   -1.13248  -1.13202  -1.13191  -1.13108  -1.13091
  Beta  occ. eigenvalues --   -1.13059  -1.12984  -1.12971  -1.12962  -1.12920
  Beta  occ. eigenvalues --   -1.12882  -1.12860  -1.12843  -1.12811  -1.12796
  Beta  occ. eigenvalues --   -1.12784  -1.12742  -1.12634  -1.12608  -1.12569
  Beta  occ. eigenvalues --   -0.19084  -0.13083  -0.12482
  Beta virt. eigenvalues --   -0.07179  -0.05218  -0.04976  -0.04425  -0.02443
  Beta virt. eigenvalues --   -0.02144  -0.01506  -0.01168  -0.00867   0.00044
  Beta virt. eigenvalues --    0.00126   0.00140   0.00387   0.00948   0.00988

 Mulliken charges and spin densities:
               1          2
     1  Na  -0.698800   0.671745
     2  Na  -0.665231   0.589161
     3  Na   0.423594  -0.079890
     4  Na   0.282855  -0.031909
     5  Na   0.366330  -0.082274
     6  Na   0.226974  -0.027415
     7  Na   0.064278  -0.039419
 Sum of Mulliken charges =  -0.00000   1.00000

 Dipole moment (field-independent basis, Debye):
    X=              0.0658    Y=             -0.1744    Z=              0.0837  Tot=              0.2044
 Quadrupole moment (field-independent basis, Debye-Ang):
   XX=            -58.2173   YY=            -63.9903   ZZ=            -72.4781
   XY=              0.0938   XZ=             -0.3523   YZ=             -0.0484

 Normal termination of Gaussian 16 at Fri Dec  8 19:18:04 2023.
