 Gaussian 16, Revision B.01,
 Gaussian 16:  ES64L-G16RevB.01 20-Dec-2017

 -------------------------
 #P B3LYP/6-311+g(d) force
 -------------------------

 -----
 DPGEN
 -----
 Symbolic Z-matrix:
 Charge =  0 Multiplicity = 2

                         Standard orientation:
 ---------------------------------------------------------------------
 Center     Atomic      Atomic             Coordinates (Angstroms)
 Number     Number       Type             X           Y           Z
 ---------------------------------------------------------------------
      1         11           0       -0.418074    3.506028    0.073777
      2         11           0       -3.954860    2.077244    0.117173
      3         11           0       -3.508809   -1.555815   -0.776793
      4         11           0       -1.247550   -3.180818    0.970204
      5         11           0        2.357022   -3.480835   -0.305768
      6         11           0        3.524039   -0.356673   -0.163155
      7         11           0        3.248232    2.990870    0.084561
 ---------------------------------------------------------------------

 SCF Done:  E(UB3LYP) =  -1136.10953021     A.U. after   22 cycles

 The electronic state is 2-A.
 Alpha  occ. eigenvalues --  -38.45633 -38.44891 -38.44840 -38.44690 -38.44409
 Alpha  occ. eigenvalues --  -38.43940 -38.43706  -2.21352  -2.20668  -2.20627
 Alpha  occ. eigenvalues --   -2.20472  -2.20175  -2.19740  -2.19514  -1.15051
 Alpha  occ. eigenvalues --   -1.15038  -1.14963  -1.14348  -1.14337  -1.14312
 Alpha  occ. eigenvalues --   -1.14300  -1.14299  -1.14271  -1.14141  -1.14130
 Alpha  occ. eigenvalues --   -1.14098  -1.13842  -1.13820  -1.13805  -1.13397
 Alpha  occ. eigenvalues --   -1.13392  -1.13370  -1.13169  -1.13166  -1.13143
 Alpha  occ. eigenvalues --   -0.15432  -0.13854  -0.13442  -0.10880
 Alpha virt. eigenvalues --   -0.07548  -0.04942  -0.04521  -0.03340  -0.03320
 Alpha virt. eigenvalues --   -0.02529  -0.02341  -0.02046  -0.01711  -0.00572
 Alpha virt. eigenvalues --   -0.00378  -0.00117   0.00227   0.00330   0.00444

  Beta  occ. eigenvalues --  -38.45622 -38.44861 -38.44820 -38.44665 -38.44362
  Beta  occ. eigenvalues --  -38.43892 -38.43660  -2.21338  -2.20616  -2.20597
  Beta  occ. eigenvalues --   -2.20429  -2.20089  -2.19654  -2.19428  -1.15046
  Beta  occ. eigenvalues --   -1.15032  -1.14922  -1.14308  -1.14305  -1.14297
  Beta  occ. eigenvalues --   -1.14285  -1.14251  -1.14206  -1.14115  -1.14102
  Beta  occ. eigenvalues --   -1.14050  -1.13784  -1.13764  -1.13739  -1.13338
  Beta  occ. eigenvalues --   -1.13330  -1.13310  -1.13112  -1.13107  -1.13088
  Beta  occ. eigenvalues --   -0.14886  -0.13137  -0.12640
  Beta virt. eigenvalues --   -0.07754  -0.07745  -0.04540  -0.04136  -0.03052
  Beta virt. eigenvalues --   -0.02939  -0.02278  -0.02129  -0.01838  -0.01536
  Beta virt. eigenvalues --   -0.00231  -0.00166   0.00086   0.00254   0.00399

 Mulliken charges and spin densities:
               1          2
     1  Na  -0.159011   0.124284
     2  Na   0.102002   0.135786
     3  Na  -0.072946   0.069362
     4  Na  -0.212838   0.115354
     5  Na   0.116338   0.106392
     6  Na  -0.268055   0.194420
     7  Na   0.494509   0.254402
 Sum of Mulliken charges =  -0.00000   1.00000

 Dipole moment (field-independent basis, Debye):
    X=             -0.4718    Y=             -0.1252    Z=              0.0398  Tot=              0.4897
 Quadrupole moment (field-independent basis, Debye-Ang):
   XX=            -64.1057   YY=            -64.8709   ZZ=            -71.2741
   XY=              1.0113   XZ=              0.9056   YZ=              0.0058

 Normal termination of Gaussian 16 at Sun Dec  3 14:14:03 2023.
