 Gaussian 16, Revision B.01,
 Gaussian 16:  ES64L-G16RevB.01 20-Dec-2017

 -------------------------
 #P B3LYP/6-311+g(d) force
 -------------------------

 -----
 DPGEN
 -----
 Symbolic Z-matrix:
 Charge =  0 Multiplicity = 2

                         Standard orientation:
 ---------------------------------------------------------------------
 Center     Atomic      Atomic             Coordinates (Angstroms)
 Number     Number       Type             X           Y           Z
 ---------------------------------------------------------------------
      1         11           0        0.125761   -0.645282   -1.319080
      2         11           0       -1.553176    1.471910    0.710346
      3         11           0        3.013698   -1.031810   -0.455197
      4         11           0        1.450903    0.600244    1.415228
      5         11           0       -2.847036   -0.921855   -0.673447
      6         11           0       -0.675137   -1.487700    1.280824
      7         11           0        0.484987    2.014492   -0.958674
 ---------------------------------------------------------------------

 SCF Done:  E(UB3LYP) =  -1136.09504746     A.U. after   19 cycles

 The electronic state is 2-A.
 Alpha  occ. eigenvalues --  -38.44260 -38.44080 -38.43705 -38.43622 -38.43619
 Alpha  occ. eigenvalues --  -38.43390 -38.43207  -2.20169  -2.20055  -2.19963
 Alpha  occ. eigenvalues --   -2.19768  -2.19711  -2.19505  -2.19329  -1.13936
 Alpha  occ. eigenvalues --   -1.13902  -1.13870  -1.13852  -1.13768  -1.13741
 Alpha  occ. eigenvalues --   -1.13718  -1.13690  -1.13549  -1.13514  -1.13485
 Alpha  occ. eigenvalues --   -1.13397  -1.13337  -1.13326  -1.13293  -1.13244
 Alpha  occ. eigenvalues --   -1.13065  -1.13038  -1.12965  -1.12920  -1.12792
 Alpha  occ. eigenvalues --   -0.20862  -0.14063  -0.12153  -0.11937
 Alpha virt. eigenvalues --   -0.05876  -0.04365  -0.03883  -0.03467  -0.02778
 Alpha virt. eigenvalues --   -0.02668  -0.01736  -0.00585  -0.00247   0.00307
 Alpha virt. eigenvalues --    0.00552   0.00655   0.00982   0.01014   0.01029

  Beta  occ. eigenvalues --  -38.44254 -38.44068 -38.43640 -38.43572 -38.43563
  Beta  occ. eigenvalues --  -38.43362 -38.43185  -2.20159  -2.20033  -2.19850
  Beta  occ. eigenvalues --   -2.19672  -2.19625  -2.19458  -2.19295  -1.13922
  Beta  occ. eigenvalues --   -1.13869  -1.13835  -1.13788  -1.13752  -1.13707
  Beta  occ. eigenvalues --   -1.13670  -1.13665  -1.13471  -1.13451  -1.13415
  Beta  occ. eigenvalues --   -1.13345  -1.13279  -1.13258  -1.13208  -1.13178
  Beta  occ. eigenvalues --   -1.13014  -1.12986  -1.12931  -1.12869  -1.12762
  Beta  occ. eigenvalues --   -0.20001  -0.13829  -0.11740
  Beta virt. eigenvalues --   -0.07778  -0.05809  -0.04233  -0.03425  -0.03112
  Beta virt. eigenvalues --   -0.02105  -0.01677  -0.01565  -0.00483  -0.00051
  Beta virt. eigenvalues --    0.00322   0.00577   0.00716   0.00998   0.01037

 Mulliken charges and spin densities:
               1          2
     1  Na  -0.592117   0.276578
     2  Na  -0.181523   0.245337
     3  Na  -0.299782  -0.018330
     4  Na   0.151999   0.070785
     5  Na   0.819544  -0.109243
     6  Na  -0.119300   0.356467
     7  Na   0.221179   0.178406
 Sum of Mulliken charges =  -0.00000   1.00000

 Dipole moment (field-independent basis, Debye):
    X=              0.1177    Y=             -0.2357    Z=             -0.0407  Tot=              0.2666
 Quadrupole moment (field-independent basis, Debye-Ang):
   XX=            -53.3424   YY=            -74.0880   ZZ=            -67.2121
   XY=             -0.5207   XZ=              0.2405   YZ=              0.3122

 Normal termination of Gaussian 16 at Fri Dec  8 19:04:40 2023.
