 Gaussian 16, Revision B.01,
 Gaussian 16:  ES64L-G16RevB.01 20-Dec-2017

 -------------------------
 #P B3LYP/6-311+g(d) force
 -------------------------

 -----
 DPGEN
 -----
 Symbolic Z-matrix:
 Charge =  0 Multiplicity = 2

                         Standard orientation:
 ---------------------------------------------------------------------
 Center     Atomic      Atomic             Coordinates (Angstroms)
 Number     Number       Type             X           Y           Z
 ---------------------------------------------------------------------
      1         11           0        1.089760    3.288971    0.377344
      2         11           0        4.025394   -0.041951    0.295041
      3         11           0        3.012849   -2.615035   -0.646870
      4         11           0        0.720465    0.189350   -0.114117
      5         11           0       -2.315025    2.032389   -0.504739
      6         11           0       -3.679071   -1.074830   -1.160911
      7         11           0       -2.854372   -1.778893    1.754253
 ---------------------------------------------------------------------

 SCF Done:  E(UB3LYP) =  -1136.11630682     A.U. after   22 cycles

 The electronic state is 2-A.
 Alpha  occ. eigenvalues --  -38.45278 -38.44293 -38.44236 -38.44130 -38.43463
 Alpha  occ. eigenvalues --  -38.43418 -38.43217  -2.21140  -2.20179  -2.20096
 Alpha  occ. eigenvalues --   -2.19956  -2.19305  -2.19253  -2.19039  -1.14846
 Alpha  occ. eigenvalues --   -1.14796  -1.14782  -1.13885  -1.13855  -1.13804
 Alpha  occ. eigenvalues --   -1.13760  -1.13729  -1.13721  -1.13647  -1.13622
 Alpha  occ. eigenvalues --   -1.13608  -1.12981  -1.12965  -1.12901  -1.12898
 Alpha  occ. eigenvalues --   -1.12892  -1.12872  -1.12713  -1.12703  -1.12669
 Alpha  occ. eigenvalues --   -0.16888  -0.14600  -0.12295  -0.09634
 Alpha virt. eigenvalues --   -0.06491  -0.05619  -0.04872  -0.03584  -0.02725
 Alpha virt. eigenvalues --   -0.02463  -0.01896  -0.01463  -0.01082  -0.00749
 Alpha virt. eigenvalues --   -0.00092   0.00003   0.00399   0.00459   0.00602

  Beta  occ. eigenvalues --  -38.45275 -38.44290 -38.44211 -38.44128 -38.43400
  Beta  occ. eigenvalues --  -38.43340 -38.43209  -2.21138  -2.20175  -2.20049
  Beta  occ. eigenvalues --   -2.19960  -2.19188  -2.19107  -2.19026  -1.14841
  Beta  occ. eigenvalues --   -1.14797  -1.14763  -1.13872  -1.13843  -1.13811
  Beta  occ. eigenvalues --   -1.13729  -1.13697  -1.13692  -1.13644  -1.13626
  Beta  occ. eigenvalues --   -1.13575  -1.12899  -1.12885  -1.12823  -1.12802
  Beta  occ. eigenvalues --   -1.12791  -1.12775  -1.12702  -1.12695  -1.12652
  Beta  occ. eigenvalues --   -0.16574  -0.14081  -0.11964
  Beta virt. eigenvalues --   -0.06468  -0.06092  -0.05203  -0.04686  -0.03366
  Beta virt. eigenvalues --   -0.02573  -0.01981  -0.01613  -0.01186  -0.01002
  Beta virt. eigenvalues --   -0.00374   0.00139   0.00182   0.00520   0.00593

 Mulliken charges and spin densities:
               1          2
     1  Na   0.923340   0.036541
     2  Na   0.745223  -0.112670
     3  Na   0.425004   0.114995
     4  Na  -3.720699   0.074364
     5  Na   0.745091   0.486314
     6  Na   0.976231  -0.020622
     7  Na  -0.094190   0.421078
 Sum of Mulliken charges =  -0.00000   1.00000

 Dipole moment (field-independent basis, Debye):
    X=              1.9294    Y=             -0.0013    Z=             -0.2384  Tot=              1.9441
 Quadrupole moment (field-independent basis, Debye-Ang):
   XX=            -60.5529   YY=            -66.8734   ZZ=            -71.4279
   XY=              1.6182   XZ=              4.2080   YZ=              5.9216

 Normal termination of Gaussian 16 at Tue Dec  5 10:11:33 2023.
