 Gaussian 16, Revision B.01,
 Gaussian 16:  ES64L-G16RevB.01 20-Dec-2017

 -------------------------
 #P B3LYP/6-311+g(d) force
 -------------------------

 -----
 DPGEN
 -----
 Symbolic Z-matrix:
 Charge =  0 Multiplicity = 2

                         Standard orientation:
 ---------------------------------------------------------------------
 Center     Atomic      Atomic             Coordinates (Angstroms)
 Number     Number       Type             X           Y           Z
 ---------------------------------------------------------------------
      1         11           0        0.438553    1.866405    1.485827
      2         11           0        0.825154   -1.439354    1.399884
      3         11           0       -2.306128    2.781716   -0.409868
      4         11           0       -3.544378   -0.100373   -1.095764
      5         11           0       -2.954739   -2.791862    0.199992
      6         11           0        3.987294   -1.606710   -0.990321
      7         11           0        3.554244    1.290177   -0.589751
 ---------------------------------------------------------------------

 SCF Done:  E(UB3LYP) =  -1136.11009644     A.U. after   22 cycles

 The electronic state is 2-A.
 Alpha  occ. eigenvalues --  -38.45537 -38.45239 -38.44821 -38.43845 -38.43816
 Alpha  occ. eigenvalues --  -38.43634 -38.43531  -2.21362  -2.21035  -2.20653
 Alpha  occ. eigenvalues --   -2.19696  -2.19630  -2.19429  -2.19361  -1.15081
 Alpha  occ. eigenvalues --   -1.15018  -1.14981  -1.14711  -1.14690  -1.14629
 Alpha  occ. eigenvalues --   -1.14320  -1.14292  -1.14270  -1.13433  -1.13372
 Alpha  occ. eigenvalues --   -1.13351  -1.13287  -1.13268  -1.13255  -1.13086
 Alpha  occ. eigenvalues --   -1.13078  -1.13065  -1.13044  -1.13021  -1.12983
 Alpha  occ. eigenvalues --   -0.16725  -0.14359  -0.11676  -0.11580
 Alpha virt. eigenvalues --   -0.07054  -0.05029  -0.04308  -0.03912  -0.03579
 Alpha virt. eigenvalues --   -0.02246  -0.01970  -0.01422  -0.01073  -0.00589
 Alpha virt. eigenvalues --   -0.00346  -0.00178   0.00246   0.00421   0.00497

  Beta  occ. eigenvalues --  -38.45506 -38.45156 -38.44787 -38.43816 -38.43790
  Beta  occ. eigenvalues --  -38.43638 -38.43501  -2.21311  -2.20883  -2.20592
  Beta  occ. eigenvalues --   -2.19643  -2.19583  -2.19437  -2.19307  -1.15036
  Beta  occ. eigenvalues --   -1.14986  -1.14931  -1.14601  -1.14581  -1.14526
  Beta  occ. eigenvalues --   -1.14269  -1.14252  -1.14227  -1.13391  -1.13340
  Beta  occ. eigenvalues --   -1.13316  -1.13256  -1.13242  -1.13214  -1.13092
  Beta  occ. eigenvalues --   -1.13078  -1.13060  -1.12997  -1.12989  -1.12941
  Beta  occ. eigenvalues --   -0.15994  -0.13756  -0.11639
  Beta virt. eigenvalues --   -0.07934  -0.06853  -0.04623  -0.03951  -0.03406
  Beta virt. eigenvalues --   -0.03184  -0.02087  -0.01624  -0.01129  -0.01027
  Beta virt. eigenvalues --   -0.00439  -0.00210   0.00061   0.00388   0.00479

 Mulliken charges and spin densities:
               1          2
     1  Na   0.194602   0.208937
     2  Na  -0.891725   0.405353
     3  Na   0.132242   0.052199
     4  Na  -0.253292   0.148544
     5  Na   0.422545  -0.039530
     6  Na   0.473093   0.096752
     7  Na  -0.077466   0.127745
 Sum of Mulliken charges =  -0.00000   1.00000

 Dipole moment (field-independent basis, Debye):
    X=              1.8290    Y=             -0.1372    Z=             -0.2190  Tot=              1.8472
 Quadrupole moment (field-independent basis, Debye-Ang):
   XX=            -65.9174   YY=            -63.7692   ZZ=            -70.9841
   XY=             -1.0139   XZ=              0.2148   YZ=             -2.1061

 Normal termination of Gaussian 16 at Sun Dec  3 17:39:59 2023.
