 Gaussian 16, Revision B.01,
 Gaussian 16:  ES64L-G16RevB.01 20-Dec-2017

 -------------------------
 #P B3LYP/6-311+g(d) force
 -------------------------

 -----
 DPGEN
 -----
 Symbolic Z-matrix:
 Charge =  0 Multiplicity = 2

                         Standard orientation:
 ---------------------------------------------------------------------
 Center     Atomic      Atomic             Coordinates (Angstroms)
 Number     Number       Type             X           Y           Z
 ---------------------------------------------------------------------
      1         11           0       -4.070078    0.502088    0.282616
      2         11           0        2.232049    1.800239   -0.016698
      3         11           0        5.034085   -0.489236    0.104355
      4         11           0       -2.194252   -2.747568   -0.349307
      5         11           0        0.159269   -0.745363    2.068249
      6         11           0       -1.848837    2.592962   -0.395495
      7         11           0        0.687764   -0.913122   -1.693719
 ---------------------------------------------------------------------

 SCF Done:  E(UB3LYP) =  -1136.10717163     A.U. after   34 cycles

 The electronic state is 2-A.
 Alpha  occ. eigenvalues --  -38.46821 -38.46219 -38.44346 -38.43934 -38.43569
 Alpha  occ. eigenvalues --  -38.43371 -38.42968  -2.22569  -2.21968  -2.20141
 Alpha  occ. eigenvalues --   -2.19737  -2.19348  -2.19190  -2.18768  -1.16226
 Alpha  occ. eigenvalues --   -1.16207  -1.16188  -1.15660  -1.15641  -1.15593
 Alpha  occ. eigenvalues --   -1.13785  -1.13780  -1.13742  -1.13443  -1.13409
 Alpha  occ. eigenvalues --   -1.13358  -1.13032  -1.13006  -1.12986  -1.12875
 Alpha  occ. eigenvalues --   -1.12851  -1.12816  -1.12446  -1.12433  -1.12397
 Alpha  occ. eigenvalues --   -0.16985  -0.13635  -0.11427  -0.10607
 Alpha virt. eigenvalues --   -0.07936  -0.05513  -0.04632  -0.03280  -0.03220
 Alpha virt. eigenvalues --   -0.02440  -0.02284  -0.02061  -0.01123  -0.00715
 Alpha virt. eigenvalues --   -0.00460  -0.00195   0.00241   0.00383   0.00625

  Beta  occ. eigenvalues --  -38.46765 -38.46243 -38.44233 -38.43932 -38.43566
  Beta  occ. eigenvalues --  -38.43337 -38.42963  -2.22464  -2.22015  -2.19930
  Beta  occ. eigenvalues --   -2.19737  -2.19343  -2.19126  -2.18759  -1.16158
  Beta  occ. eigenvalues --   -1.16132  -1.16114  -1.15686  -1.15664  -1.15640
  Beta  occ. eigenvalues --   -1.13641  -1.13635  -1.13604  -1.13449  -1.13406
  Beta  occ. eigenvalues --   -1.13325  -1.13031  -1.13001  -1.12975  -1.12837
  Beta  occ. eigenvalues --   -1.12809  -1.12769  -1.12443  -1.12431  -1.12373
  Beta  occ. eigenvalues --   -0.16574  -0.12891  -0.11391
  Beta virt. eigenvalues --   -0.07717  -0.07073  -0.05253  -0.04119  -0.03023
  Beta virt. eigenvalues --   -0.02929  -0.02347  -0.02199  -0.01536  -0.00728
  Beta virt. eigenvalues --   -0.00385  -0.00158  -0.00063   0.00373   0.00498

 Mulliken charges and spin densities:
               1          2
     1  Na  -0.195186   0.213189
     2  Na  -0.185478   0.035544
     3  Na   0.128741   0.644732
     4  Na   0.149614   0.155204
     5  Na   0.134788   0.124844
     6  Na  -0.053873   0.034733
     7  Na   0.021395  -0.208246
 Sum of Mulliken charges =  -0.00000   1.00000

 Dipole moment (field-independent basis, Debye):
    X=              0.5917    Y=             -1.0370    Z=              0.6873  Tot=              1.3777
 Quadrupole moment (field-independent basis, Debye-Ang):
   XX=            -79.0170   YY=            -75.0262   ZZ=            -58.8675
   XY=              3.8335   XZ=             -0.3271   YZ=             -0.5321

 Normal termination of Gaussian 16 at Sun Dec  3 20:14:28 2023.
