 Gaussian 16, Revision B.01,
 Gaussian 16:  ES64L-G16RevB.01 20-Dec-2017

 -------------------------
 #P B3LYP/6-311+g(d) force
 -------------------------

 -----
 DPGEN
 -----
 Symbolic Z-matrix:
 Charge =  0 Multiplicity = 2

                         Standard orientation:
 ---------------------------------------------------------------------
 Center     Atomic      Atomic             Coordinates (Angstroms)
 Number     Number       Type             X           Y           Z
 ---------------------------------------------------------------------
      1         11           0       -1.476345    2.206106    0.023046
      2         11           0       -2.030941   -0.292560    1.537205
      3         11           0        3.581416   -0.241634   -0.901920
      4         11           0        0.205098   -0.090309   -1.317808
      5         11           0       -3.437572   -1.170271   -1.122827
      6         11           0        1.537267   -2.274553    1.105159
      7         11           0        1.621077    1.863221    0.677144
 ---------------------------------------------------------------------

 SCF Done:  E(UB3LYP) =  -1136.12090959     A.U. after   22 cycles

 The electronic state is 2-A.
 Alpha  occ. eigenvalues --  -38.44566 -38.44068 -38.44064 -38.44029 -38.43744
 Alpha  occ. eigenvalues --  -38.43328 -38.43142  -2.20419  -2.20044  -2.19988
 Alpha  occ. eigenvalues --   -2.19858  -2.19558  -2.19246  -2.19097  -1.14096
 Alpha  occ. eigenvalues --   -1.14083  -1.14040  -1.13775  -1.13712  -1.13706
 Alpha  occ. eigenvalues --   -1.13673  -1.13663  -1.13628  -1.13506  -1.13496
 Alpha  occ. eigenvalues --   -1.13466  -1.13227  -1.13215  -1.13173  -1.12959
 Alpha  occ. eigenvalues --   -1.12903  -1.12884  -1.12779  -1.12768  -1.12673
 Alpha  occ. eigenvalues --   -0.18640  -0.14281  -0.11506  -0.10601
 Alpha virt. eigenvalues --   -0.06584  -0.05208  -0.04836  -0.03263  -0.02592
 Alpha virt. eigenvalues --   -0.02338  -0.01948  -0.01090  -0.00653  -0.00124
 Alpha virt. eigenvalues --    0.00068   0.00234   0.00343   0.00662   0.00747

  Beta  occ. eigenvalues --  -38.44550 -38.44038 -38.44033 -38.43996 -38.43698
  Beta  occ. eigenvalues --  -38.43324 -38.43136  -2.20389  -2.19991  -2.19933
  Beta  occ. eigenvalues --   -2.19795  -2.19472  -2.19241  -2.19089  -1.14077
  Beta  occ. eigenvalues --   -1.14056  -1.14017  -1.13731  -1.13674  -1.13665
  Beta  occ. eigenvalues --   -1.13629  -1.13616  -1.13585  -1.13458  -1.13449
  Beta  occ. eigenvalues --   -1.13422  -1.13171  -1.13151  -1.13110  -1.12959
  Beta  occ. eigenvalues --   -1.12893  -1.12862  -1.12774  -1.12747  -1.12662
  Beta  occ. eigenvalues --   -0.18026  -0.14027  -0.11239
  Beta virt. eigenvalues --   -0.06983  -0.06354  -0.05069  -0.04246  -0.03025
  Beta virt. eigenvalues --   -0.02274  -0.01934  -0.01256  -0.00966  -0.00359
  Beta virt. eigenvalues --   -0.00036   0.00172   0.00274   0.00466   0.00766

 Mulliken charges and spin densities:
               1          2
     1  Na   0.300329   0.148511
     2  Na   0.002186   0.069881
     3  Na   1.082750   0.030475
     4  Na  -1.033914   0.008934
     5  Na   0.053632   0.272266
     6  Na  -0.323680   0.293989
     7  Na  -0.081302   0.175943
 Sum of Mulliken charges =  -0.00000   1.00000

 Dipole moment (field-independent basis, Debye):
    X=              0.5617    Y=              0.0244    Z=              0.0002  Tot=              0.5622
 Quadrupole moment (field-independent basis, Debye-Ang):
   XX=            -51.6116   YY=            -73.3141   ZZ=            -69.7632
   XY=             -0.0997   XZ=             -0.5331   YZ=              0.7560

 Normal termination of Gaussian 16 at Tue Dec  5 20:14:17 2023.
