 Gaussian 16, Revision B.01,
 Gaussian 16:  ES64L-G16RevB.01 20-Dec-2017

 -------------------------
 #P B3LYP/6-311+g(d) force
 -------------------------

 -----
 DPGEN
 -----
 Symbolic Z-matrix:
 Charge =  0 Multiplicity = 2

                         Standard orientation:
 ---------------------------------------------------------------------
 Center     Atomic      Atomic             Coordinates (Angstroms)
 Number     Number       Type             X           Y           Z
 ---------------------------------------------------------------------
      1         11           0        2.231422   -1.100740   -0.721689
      2         11           0        4.667477   -1.928596    1.197332
      3         11           0        4.103850    1.835146    0.398988
      4         11           0        1.062390    2.057179   -0.560266
      5         11           0       -1.327308   -0.501688   -1.292806
      6         11           0       -4.707039   -0.833709   -0.631136
      7         11           0       -6.030792    0.472407    1.609577
 ---------------------------------------------------------------------

 SCF Done:  E(UB3LYP) =  -1136.11564223     A.U. after   21 cycles

 The electronic state is 2-A.
 Alpha  occ. eigenvalues --  -38.44711 -38.44490 -38.44179 -38.44117 -38.43929
 Alpha  occ. eigenvalues --  -38.43818 -38.43324  -2.20551  -2.20306  -2.20065
 Alpha  occ. eigenvalues --   -2.19986  -2.19772  -2.19634  -2.19144  -1.14242
 Alpha  occ. eigenvalues --   -1.14216  -1.14144  -1.14042  -1.13942  -1.13940
 Alpha  occ. eigenvalues --   -1.13771  -1.13761  -1.13679  -1.13653  -1.13653
 Alpha  occ. eigenvalues --   -1.13588  -1.13424  -1.13418  -1.13417  -1.13300
 Alpha  occ. eigenvalues --   -1.13284  -1.13243  -1.12816  -1.12809  -1.12764
 Alpha  occ. eigenvalues --   -0.16848  -0.14276  -0.11988  -0.11477
 Alpha virt. eigenvalues --   -0.06706  -0.04949  -0.03975  -0.03776  -0.03160
 Alpha virt. eigenvalues --   -0.02547  -0.02420  -0.01352  -0.01002  -0.00674
 Alpha virt. eigenvalues --   -0.00485  -0.00061   0.00167   0.00393   0.00690

  Beta  occ. eigenvalues --  -38.44647 -38.44470 -38.44147 -38.44077 -38.43932
  Beta  occ. eigenvalues --  -38.43776 -38.43296  -2.20437  -2.20270  -2.20008
  Beta  occ. eigenvalues --   -2.19917  -2.19780  -2.19557  -2.19093  -1.14155
  Beta  occ. eigenvalues --   -1.14143  -1.14052  -1.14021  -1.13918  -1.13915
  Beta  occ. eigenvalues --   -1.13728  -1.13714  -1.13639  -1.13612  -1.13602
  Beta  occ. eigenvalues --   -1.13508  -1.13426  -1.13425  -1.13413  -1.13238
  Beta  occ. eigenvalues --   -1.13230  -1.13199  -1.12778  -1.12772  -1.12738
  Beta  occ. eigenvalues --   -0.16133  -0.14015  -0.11527
  Beta virt. eigenvalues --   -0.07872  -0.06324  -0.04710  -0.03694  -0.03496
  Beta virt. eigenvalues --   -0.02646  -0.02413  -0.02019  -0.01169  -0.00734
  Beta virt. eigenvalues --   -0.00445  -0.00181   0.00105   0.00293   0.00446

 Mulliken charges and spin densities:
               1          2
     1  Na  -0.939480   0.484836
     2  Na   0.723290   0.020554
     3  Na   0.331207   0.140545
     4  Na  -0.055222   0.288021
     5  Na   0.260002   0.007995
     6  Na  -0.354448  -0.002371
     7  Na   0.034651   0.060419
 Sum of Mulliken charges =  -0.00000   1.00000

 Dipole moment (field-independent basis, Debye):
    X=              0.4560    Y=              0.6977    Z=              0.7815  Tot=              1.1425
 Quadrupole moment (field-independent basis, Debye-Ang):
   XX=            -62.3877   YY=            -66.4522   ZZ=            -66.8823
   XY=             -0.8515   XZ=             -0.7470   YZ=              2.8918

 Normal termination of Gaussian 16 at Wed Nov 29 01:02:37 2023.
