 Gaussian 16, Revision B.01,
 Gaussian 16:  ES64L-G16RevB.01 20-Dec-2017

 -------------------------
 #P B3LYP/6-311+g(d) force
 -------------------------

 -----
 DPGEN
 -----
 Symbolic Z-matrix:
 Charge =  0 Multiplicity = 2

                         Standard orientation:
 ---------------------------------------------------------------------
 Center     Atomic      Atomic             Coordinates (Angstroms)
 Number     Number       Type             X           Y           Z
 ---------------------------------------------------------------------
      1         11           0       -2.904876   -1.686680   -0.617556
      2         11           0       -2.229744    1.944252    0.182553
      3         11           0        1.560402   -2.843814    0.549139
      4         11           0        1.174849    2.874395    0.163911
      5         11           0       -0.476264   -0.259294    1.961824
      6         11           0        2.883193    0.128821   -0.525439
      7         11           0       -0.007560   -0.157680   -1.714432
 ---------------------------------------------------------------------

 SCF Done:  E(UB3LYP) =  -1136.13541716     A.U. after   20 cycles

 The electronic state is 2-A.
 Alpha  occ. eigenvalues --  -38.44140 -38.43867 -38.43788 -38.43768 -38.43578
 Alpha  occ. eigenvalues --  -38.43519 -38.43344  -2.19935  -2.19712  -2.19664
 Alpha  occ. eigenvalues --   -2.19574  -2.19509  -2.19403  -2.19175  -1.13612
 Alpha  occ. eigenvalues --   -1.13583  -1.13570  -1.13425  -1.13389  -1.13333
 Alpha  occ. eigenvalues --   -1.13326  -1.13288  -1.13286  -1.13245  -1.13236
 Alpha  occ. eigenvalues --   -1.13225  -1.13214  -1.13173  -1.13128  -1.13065
 Alpha  occ. eigenvalues --   -1.13048  -1.13017  -1.12848  -1.12830  -1.12818
 Alpha  occ. eigenvalues --   -0.18314  -0.13014  -0.12321  -0.10884
 Alpha virt. eigenvalues --   -0.05649  -0.05219  -0.04800  -0.03219  -0.02985
 Alpha virt. eigenvalues --   -0.02556  -0.01566  -0.01332  -0.00428  -0.00271
 Alpha virt. eigenvalues --   -0.00031   0.00336   0.00746   0.00820   0.00840

  Beta  occ. eigenvalues --  -38.44119 -38.43859 -38.43754 -38.43709 -38.43514
  Beta  occ. eigenvalues --  -38.43509 -38.43346  -2.19899  -2.19701  -2.19551
  Beta  occ. eigenvalues --   -2.19518  -2.19395  -2.19385  -2.19181  -1.13574
  Beta  occ. eigenvalues --   -1.13555  -1.13550  -1.13401  -1.13370  -1.13315
  Beta  occ. eigenvalues --   -1.13245  -1.13224  -1.13213  -1.13206  -1.13191
  Beta  occ. eigenvalues --   -1.13169  -1.13161  -1.13096  -1.13060  -1.13046
  Beta  occ. eigenvalues --   -1.13004  -1.12993  -1.12852  -1.12834  -1.12807
  Beta  occ. eigenvalues --   -0.17636  -0.12745  -0.12047
  Beta virt. eigenvalues --   -0.07094  -0.05579  -0.05064  -0.04705  -0.02566
  Beta virt. eigenvalues --   -0.02310  -0.01606  -0.01417  -0.01198  -0.00440
  Beta virt. eigenvalues --   -0.00289   0.00099   0.00385   0.00792   0.00871

 Mulliken charges and spin densities:
               1          2
     1  Na   0.032580   0.010471
     2  Na   0.176092   0.037351
     3  Na  -0.068609   0.006805
     4  Na  -0.208580  -0.040939
     5  Na  -0.216620   0.553310
     6  Na   0.297067   0.055947
     7  Na  -0.011929   0.377055
 Sum of Mulliken charges =  -0.00000   1.00000

 Dipole moment (field-independent basis, Debye):
    X=             -0.4082    Y=             -0.2370    Z=              0.1066  Tot=              0.4839
 Quadrupole moment (field-independent basis, Debye-Ang):
   XX=            -59.1690   YY=            -61.2791   ZZ=            -73.6094
   XY=              0.2921   XZ=              0.7131   YZ=              0.2446

 Normal termination of Gaussian 16 at Thu Dec  7 02:11:17 2023.
