 Gaussian 16, Revision B.01,
 Gaussian 16:  ES64L-G16RevB.01 20-Dec-2017

 -------------------------
 #P B3LYP/6-311+g(d) force
 -------------------------

 -----
 DPGEN
 -----
 Symbolic Z-matrix:
 Charge =  0 Multiplicity = 2

                         Standard orientation:
 ---------------------------------------------------------------------
 Center     Atomic      Atomic             Coordinates (Angstroms)
 Number     Number       Type             X           Y           Z
 ---------------------------------------------------------------------
      1         11           0        2.161184   -2.119182    0.692344
      2         11           0        2.092165    1.637570    0.699805
      3         11           0       -0.771988    3.243349   -0.305950
      4         11           0        4.664877   -0.507549   -0.767952
      5         11           0       -3.293501   -2.775706   -0.247252
      6         11           0       -3.900215    0.888721    0.168310
      7         11           0       -0.952522   -0.367203   -0.239304
 ---------------------------------------------------------------------

 SCF Done:  E(UB3LYP) =  -1136.12384784     A.U. after   22 cycles

 The electronic state is 2-A.
 Alpha  occ. eigenvalues --  -38.44667 -38.44494 -38.44421 -38.44359 -38.43579
 Alpha  occ. eigenvalues --  -38.43247 -38.43163  -2.20434  -2.20307  -2.20228
 Alpha  occ. eigenvalues --   -2.20181  -2.19416  -2.19086  -2.19049  -1.14114
 Alpha  occ. eigenvalues --   -1.14101  -1.14069  -1.14011  -1.13987  -1.13918
 Alpha  occ. eigenvalues --   -1.13913  -1.13891  -1.13861  -1.13859  -1.13845
 Alpha  occ. eigenvalues --   -1.13770  -1.13067  -1.13057  -1.13027  -1.12795
 Alpha  occ. eigenvalues --   -1.12764  -1.12729  -1.12715  -1.12701  -1.12679
 Alpha  occ. eigenvalues --   -0.16945  -0.14278  -0.12084  -0.10084
 Alpha virt. eigenvalues --   -0.06773  -0.05305  -0.04833  -0.03458  -0.02662
 Alpha virt. eigenvalues --   -0.02315  -0.01893  -0.01546  -0.01093  -0.00813
 Alpha virt. eigenvalues --   -0.00091   0.00144   0.00369   0.00498   0.00575

  Beta  occ. eigenvalues --  -38.44676 -38.44484 -38.44409 -38.44300 -38.43499
  Beta  occ. eigenvalues --  -38.43250 -38.43127  -2.20453  -2.20292  -2.20210
  Beta  occ. eigenvalues --   -2.20071  -2.19266  -2.19057  -2.19024  -1.14128
  Beta  occ. eigenvalues --   -1.14109  -1.14074  -1.14000  -1.13965  -1.13908
  Beta  occ. eigenvalues --   -1.13899  -1.13871  -1.13818  -1.13789  -1.13769
  Beta  occ. eigenvalues --   -1.13694  -1.12964  -1.12954  -1.12933  -1.12759
  Beta  occ. eigenvalues --   -1.12735  -1.12715  -1.12695  -1.12678  -1.12648
  Beta  occ. eigenvalues --   -0.16362  -0.13776  -0.11904
  Beta virt. eigenvalues --   -0.06721  -0.06406  -0.04976  -0.04636  -0.02973
  Beta virt. eigenvalues --   -0.02413  -0.01879  -0.01670  -0.01502  -0.00982
  Beta virt. eigenvalues --   -0.00406   0.00261   0.00298   0.00481   0.00643

 Mulliken charges and spin densities:
               1          2
     1  Na  -0.112082   0.070272
     2  Na   0.464380   0.120514
     3  Na   0.554720  -0.087170
     4  Na   0.484875   0.446206
     5  Na   0.341221   0.016251
     6  Na   0.695994   0.348577
     7  Na  -2.429109   0.085351
 Sum of Mulliken charges =  -0.00000   1.00000

 Dipole moment (field-independent basis, Debye):
    X=             -0.7991    Y=             -0.5279    Z=              0.2597  Tot=              0.9923
 Quadrupole moment (field-independent basis, Debye-Ang):
   XX=            -66.7017   YY=            -59.9191   ZZ=            -70.5020
   XY=              3.8295   XZ=              0.6029   YZ=             -0.2689

 Normal termination of Gaussian 16 at Wed Nov 29 17:26:11 2023.
