 Gaussian 16, Revision B.01,
 Gaussian 16:  ES64L-G16RevB.01 20-Dec-2017

 -------------------------
 #P B3LYP/6-311+g(d) force
 -------------------------

 -----
 DPGEN
 -----
 Symbolic Z-matrix:
 Charge =  0 Multiplicity = 2

                         Standard orientation:
 ---------------------------------------------------------------------
 Center     Atomic      Atomic             Coordinates (Angstroms)
 Number     Number       Type             X           Y           Z
 ---------------------------------------------------------------------
      1         11           0       -1.918784    2.759819    0.222264
      2         11           0        0.947048    2.505002   -0.390241
      3         11           0        4.055567    0.054280   -1.417003
      4         11           0        1.861934   -2.030915    0.967721
      5         11           0       -1.298722   -2.353305   -0.709258
      6         11           0       -3.813607   -0.900429   -0.904207
      7         11           0        0.166562   -0.034452    2.230724
 ---------------------------------------------------------------------

 SCF Done:  E(UB3LYP) =  -1136.11312016     A.U. after   19 cycles

 The electronic state is 2-A.
 Alpha  occ. eigenvalues --  -38.45094 -38.45016 -38.44156 -38.43998 -38.43852
 Alpha  occ. eigenvalues --  -38.43813 -38.43801  -2.20963  -2.20794  -2.19988
 Alpha  occ. eigenvalues --   -2.19823  -2.19716  -2.19659  -2.19623  -1.14683
 Alpha  occ. eigenvalues --   -1.14590  -1.14568  -1.14439  -1.14428  -1.14402
 Alpha  occ. eigenvalues --   -1.13769  -1.13650  -1.13636  -1.13515  -1.13475
 Alpha  occ. eigenvalues --   -1.13451  -1.13434  -1.13419  -1.13365  -1.13325
 Alpha  occ. eigenvalues --   -1.13320  -1.13298  -1.13257  -1.13236  -1.13172
 Alpha  occ. eigenvalues --   -0.17129  -0.13251  -0.12759  -0.11502
 Alpha virt. eigenvalues --   -0.06085  -0.05633  -0.04429  -0.03865  -0.03336
 Alpha virt. eigenvalues --   -0.02314  -0.01841  -0.01453  -0.00753  -0.00657
 Alpha virt. eigenvalues --   -0.00336   0.00134   0.00350   0.00511   0.00644

  Beta  occ. eigenvalues --  -38.45020 -38.44910 -38.44154 -38.43999 -38.43839
  Beta  occ. eigenvalues --  -38.43811 -38.43778  -2.20828  -2.20596  -2.19985
  Beta  occ. eigenvalues --   -2.19823  -2.19699  -2.19653  -2.19584  -1.14592
  Beta  occ. eigenvalues --   -1.14502  -1.14467  -1.14304  -1.14291  -1.14273
  Beta  occ. eigenvalues --   -1.13762  -1.13643  -1.13637  -1.13497  -1.13472
  Beta  occ. eigenvalues --   -1.13452  -1.13415  -1.13400  -1.13360  -1.13318
  Beta  occ. eigenvalues --   -1.13299  -1.13285  -1.13232  -1.13211  -1.13152
  Beta  occ. eigenvalues --   -0.16609  -0.12677  -0.12418
  Beta virt. eigenvalues --   -0.07938  -0.05783  -0.05490  -0.03946  -0.03661
  Beta virt. eigenvalues --   -0.02758  -0.01933  -0.01515  -0.01247  -0.00574
  Beta virt. eigenvalues --   -0.00373  -0.00278   0.00298   0.00513   0.00672

 Mulliken charges and spin densities:
               1          2
     1  Na   0.169971   0.041203
     2  Na  -0.311110   0.050574
     3  Na   0.104898   0.493004
     4  Na   0.318789   0.025067
     5  Na  -0.368638   0.102448
     6  Na   0.273994   0.018730
     7  Na  -0.187903   0.268974
 Sum of Mulliken charges =  -0.00000   1.00000

 Dipole moment (field-independent basis, Debye):
    X=              0.1842    Y=              0.3275    Z=              0.3473  Tot=              0.5116
 Quadrupole moment (field-independent basis, Debye-Ang):
   XX=            -62.0380   YY=            -70.5435   ZZ=            -69.1801
   XY=             -5.7867   XZ=             -2.9891   YZ=              0.1668

 Normal termination of Gaussian 16 at Sun Dec  3 20:08:27 2023.
