 Gaussian 16, Revision B.01,
 Gaussian 16:  ES64L-G16RevB.01 20-Dec-2017

 -------------------------
 #P B3LYP/6-311+g(d) force
 -------------------------

 -----
 DPGEN
 -----
 Symbolic Z-matrix:
 Charge =  0 Multiplicity = 2

                         Standard orientation:
 ---------------------------------------------------------------------
 Center     Atomic      Atomic             Coordinates (Angstroms)
 Number     Number       Type             X           Y           Z
 ---------------------------------------------------------------------
      1         11           0        0.858339    0.569916    1.482726
      2         11           0        1.578080    2.480990   -1.300709
      3         11           0       -4.487908   -0.673742   -0.593700
      4         11           0        2.040340   -2.476401    0.969686
      5         11           0        4.112611   -0.183167   -0.729039
      6         11           0       -1.798873   -1.929291   -0.934930
      7         11           0       -2.302590    2.211695    1.105966
 ---------------------------------------------------------------------

 SCF Done:  E(UB3LYP) =  -1136.11466767     A.U. after   21 cycles

 The electronic state is 2-A.
 Alpha  occ. eigenvalues --  -38.44975 -38.44565 -38.44549 -38.44414 -38.44073
 Alpha  occ. eigenvalues --  -38.43780 -38.43459  -2.20764  -2.20359  -2.20308
 Alpha  occ. eigenvalues --   -2.20189  -2.19901  -2.19645  -2.19284  -1.14442
 Alpha  occ. eigenvalues --   -1.14403  -1.14390  -1.14071  -1.14026  -1.14006
 Alpha  occ. eigenvalues --   -1.13987  -1.13956  -1.13930  -1.13871  -1.13860
 Alpha  occ. eigenvalues --   -1.13801  -1.13552  -1.13542  -1.13521  -1.13340
 Alpha  occ. eigenvalues --   -1.13313  -1.13265  -1.12956  -1.12931  -1.12915
 Alpha  occ. eigenvalues --   -0.16748  -0.13953  -0.11795  -0.10928
 Alpha virt. eigenvalues --   -0.06913  -0.05228  -0.04498  -0.03539  -0.03376
 Alpha virt. eigenvalues --   -0.02347  -0.01826  -0.01745  -0.00903  -0.00673
 Alpha virt. eigenvalues --   -0.00281  -0.00073   0.00280   0.00436   0.00618

  Beta  occ. eigenvalues --  -38.44931 -38.44556 -38.44518 -38.44389 -38.44043
  Beta  occ. eigenvalues --  -38.43740 -38.43431  -2.20683  -2.20347  -2.20251
  Beta  occ. eigenvalues --   -2.20144  -2.19847  -2.19575  -2.19233  -1.14388
  Beta  occ. eigenvalues --   -1.14351  -1.14321  -1.14054  -1.14019  -1.13985
  Beta  occ. eigenvalues --   -1.13942  -1.13920  -1.13891  -1.13844  -1.13835
  Beta  occ. eigenvalues --   -1.13749  -1.13514  -1.13506  -1.13484  -1.13296
  Beta  occ. eigenvalues --   -1.13251  -1.13208  -1.12910  -1.12898  -1.12883
  Beta  occ. eigenvalues --   -0.16169  -0.13439  -0.11428
  Beta virt. eigenvalues --   -0.07486  -0.06822  -0.04948  -0.04008  -0.03305
  Beta virt. eigenvalues --   -0.02900  -0.02218  -0.01602  -0.01264  -0.00666
  Beta virt. eigenvalues --   -0.00431  -0.00204   0.00079   0.00376   0.00554

 Mulliken charges and spin densities:
               1          2
     1  Na  -0.251528   0.321582
     2  Na  -0.020945   0.159075
     3  Na   0.452866   0.105163
     4  Na   0.440471   0.015381
     5  Na   0.000208   0.233427
     6  Na  -0.554455   0.067510
     7  Na  -0.066616   0.097864
 Sum of Mulliken charges =  -0.00000   1.00000

 Dipole moment (field-independent basis, Debye):
    X=             -0.0435    Y=              0.2994    Z=             -0.3416  Tot=              0.4563
 Quadrupole moment (field-independent basis, Debye-Ang):
   XX=            -55.6956   YY=            -71.3233   ZZ=            -70.7087
   XY=             -7.2758   XZ=             -2.5889   YZ=             -0.6678

 Normal termination of Gaussian 16 at Sun Dec  3 12:36:41 2023.
