 Gaussian 16, Revision B.01,
 Gaussian 16:  ES64L-G16RevB.01 20-Dec-2017

 -------------------------
 #P B3LYP/6-311+g(d) force
 -------------------------

 -----
 DPGEN
 -----
 Symbolic Z-matrix:
 Charge =  0 Multiplicity = 2

                         Standard orientation:
 ---------------------------------------------------------------------
 Center     Atomic      Atomic             Coordinates (Angstroms)
 Number     Number       Type             X           Y           Z
 ---------------------------------------------------------------------
      1         11           0        0.259400    0.319953    0.830369
      2         11           0       -1.250159   -1.814779   -1.138547
      3         11           0       -2.432695    1.551528   -1.027641
      4         11           0        3.507201    0.164382    0.597090
      5         11           0        0.773497    3.208762   -0.233722
      6         11           0       -2.780601   -1.054636    1.684199
      7         11           0        1.923357   -2.375210   -0.711747
 ---------------------------------------------------------------------

 SCF Done:  E(UB3LYP) =  -1136.12821623     A.U. after   20 cycles

 The electronic state is 2-A.
 Alpha  occ. eigenvalues --  -38.44380 -38.44324 -38.43809 -38.43712 -38.43541
 Alpha  occ. eigenvalues --  -38.43385 -38.43098  -2.20210  -2.20150  -2.19676
 Alpha  occ. eigenvalues --   -2.19516  -2.19404  -2.19304  -2.19122  -1.13889
 Alpha  occ. eigenvalues --   -1.13872  -1.13836  -1.13832  -1.13809  -1.13765
 Alpha  occ. eigenvalues --   -1.13332  -1.13323  -1.13291  -1.13237  -1.13182
 Alpha  occ. eigenvalues --   -1.13135  -1.13113  -1.13057  -1.13046  -1.13001
 Alpha  occ. eigenvalues --   -1.12953  -1.12908  -1.12823  -1.12766  -1.12751
 Alpha  occ. eigenvalues --   -0.18168  -0.13657  -0.12489  -0.10385
 Alpha virt. eigenvalues --   -0.06203  -0.05153  -0.05060  -0.03257  -0.02645
 Alpha virt. eigenvalues --   -0.02151  -0.01713  -0.01102  -0.00642  -0.00476
 Alpha virt. eigenvalues --   -0.00186   0.00300   0.00474   0.00699   0.00764

  Beta  occ. eigenvalues --  -38.44367 -38.44293 -38.43730 -38.43719 -38.43522
  Beta  occ. eigenvalues --  -38.43352 -38.43080  -2.20185  -2.20095  -2.19531
  Beta  occ. eigenvalues --   -2.19528  -2.19371  -2.19248  -2.19092  -1.13870
  Beta  occ. eigenvalues --   -1.13853  -1.13823  -1.13788  -1.13767  -1.13726
  Beta  occ. eigenvalues --   -1.13250  -1.13228  -1.13220  -1.13194  -1.13192
  Beta  occ. eigenvalues --   -1.13134  -1.13081  -1.13037  -1.13014  -1.12969
  Beta  occ. eigenvalues --   -1.12898  -1.12855  -1.12773  -1.12751  -1.12732
  Beta  occ. eigenvalues --   -0.17630  -0.13378  -0.12145
  Beta virt. eigenvalues --   -0.06806  -0.06014  -0.04994  -0.04585  -0.02890
  Beta virt. eigenvalues --   -0.02182  -0.01899  -0.01138  -0.00943  -0.00451
  Beta virt. eigenvalues --   -0.00322   0.00036   0.00393   0.00649   0.00760

 Mulliken charges and spin densities:
               1          2
     1  Na  -0.867687   0.503013
     2  Na   0.149718   0.229150
     3  Na   0.011039   0.120652
     4  Na   0.416689   0.012205
     5  Na   0.023275  -0.033357
     6  Na   0.391714   0.143348
     7  Na  -0.124748   0.024990
 Sum of Mulliken charges =  -0.00000   1.00000

 Dipole moment (field-independent basis, Debye):
    X=              0.2426    Y=              0.3349    Z=             -0.3272  Tot=              0.5274
 Quadrupole moment (field-independent basis, Debye-Ang):
   XX=            -53.4852   YY=            -66.1065   ZZ=            -73.2888
   XY=             -0.0034   XZ=              1.5182   YZ=             -0.7106

 Normal termination of Gaussian 16 at Tue Nov 28 22:44:33 2023.
