 Gaussian 16, Revision B.01,
 Gaussian 16:  ES64L-G16RevB.01 20-Dec-2017

 -------------------------
 #P B3LYP/6-311+g(d) force
 -------------------------

 -----
 DPGEN
 -----
 Symbolic Z-matrix:
 Charge =  0 Multiplicity = 2

                         Standard orientation:
 ---------------------------------------------------------------------
 Center     Atomic      Atomic             Coordinates (Angstroms)
 Number     Number       Type             X           Y           Z
 ---------------------------------------------------------------------
      1         11           0       -2.793054    1.565064   -0.157993
      2         11           0       -0.623859   -0.248266   -1.664420
      3         11           0        3.511025    0.114927   -0.137695
      4         11           0       -2.387062   -2.128791    0.431032
      5         11           0        0.587068    2.516026   -0.234741
      6         11           0        1.371490   -2.061016   -0.404294
      7         11           0        0.334392    0.242058    2.168112
 ---------------------------------------------------------------------

 SCF Done:  E(UB3LYP) =  -1136.13001020     A.U. after   19 cycles

 The electronic state is 2-A.
 Alpha  occ. eigenvalues --  -38.44669 -38.44203 -38.43965 -38.43735 -38.43431
 Alpha  occ. eigenvalues --  -38.43231 -38.43002  -2.20487  -2.20036  -2.19832
 Alpha  occ. eigenvalues --   -2.19549  -2.19433  -2.19157  -2.18873  -1.14190
 Alpha  occ. eigenvalues --   -1.14141  -1.14113  -1.13738  -1.13689  -1.13662
 Alpha  occ. eigenvalues --   -1.13500  -1.13467  -1.13439  -1.13233  -1.13211
 Alpha  occ. eigenvalues --   -1.13199  -1.13183  -1.13081  -1.13032  -1.12827
 Alpha  occ. eigenvalues --   -1.12801  -1.12763  -1.12568  -1.12553  -1.12478
 Alpha  occ. eigenvalues --   -0.18656  -0.13326  -0.12010  -0.10955
 Alpha virt. eigenvalues --   -0.06226  -0.05184  -0.03958  -0.03405  -0.02907
 Alpha virt. eigenvalues --   -0.02655  -0.01969  -0.01162  -0.00246  -0.00106
 Alpha virt. eigenvalues --    0.00060   0.00301   0.00716   0.00803   0.00869

  Beta  occ. eigenvalues --  -38.44670 -38.44199 -38.43867 -38.43728 -38.43373
  Beta  occ. eigenvalues --  -38.43217 -38.42994  -2.20491  -2.20032  -2.19651
  Beta  occ. eigenvalues --   -2.19537  -2.19328  -2.19135  -2.18862  -1.14194
  Beta  occ. eigenvalues --   -1.14132  -1.14114  -1.13726  -1.13676  -1.13663
  Beta  occ. eigenvalues --   -1.13381  -1.13339  -1.13310  -1.13219  -1.13188
  Beta  occ. eigenvalues --   -1.13185  -1.13124  -1.13009  -1.12959  -1.12802
  Beta  occ. eigenvalues --   -1.12767  -1.12741  -1.12564  -1.12515  -1.12473
  Beta  occ. eigenvalues --   -0.17921  -0.13134  -0.11766
  Beta virt. eigenvalues --   -0.07029  -0.06122  -0.05155  -0.03903  -0.02710
  Beta virt. eigenvalues --   -0.02101  -0.01878  -0.01631  -0.01078  -0.00274
  Beta virt. eigenvalues --    0.00003   0.00087   0.00331   0.00794   0.00861

 Mulliken charges and spin densities:
               1          2
     1  Na   0.212471  -0.061278
     2  Na  -0.058852   0.281223
     3  Na   0.008392  -0.073047
     4  Na  -0.010251   0.028163
     5  Na   0.150228  -0.053345
     6  Na   0.386221   0.115620
     7  Na  -0.688209   0.762664
 Sum of Mulliken charges =  -0.00000   1.00000

 Dipole moment (field-independent basis, Debye):
    X=             -0.0238    Y=              0.2099    Z=              0.3247  Tot=              0.3874
 Quadrupole moment (field-independent basis, Debye-Ang):
   XX=            -51.1392   YY=            -69.2738   ZZ=            -72.9258
   XY=              0.9426   XZ=             -1.7028   YZ=             -1.4415

 Normal termination of Gaussian 16 at Tue Dec  5 20:39:28 2023.
