 Gaussian 16, Revision B.01,
 Gaussian 16:  ES64L-G16RevB.01 20-Dec-2017

 -------------------------
 #P B3LYP/6-311+g(d) force
 -------------------------

 -----
 DPGEN
 -----
 Symbolic Z-matrix:
 Charge =  0 Multiplicity = 2

                         Standard orientation:
 ---------------------------------------------------------------------
 Center     Atomic      Atomic             Coordinates (Angstroms)
 Number     Number       Type             X           Y           Z
 ---------------------------------------------------------------------
      1         11           0        3.928229    1.838310   -0.957190
      2         11           0        0.489692   -2.248342   -1.010215
      3         11           0       -3.298719    2.371870    0.694850
      4         11           0        2.321664   -1.072054    1.874702
      5         11           0        0.348167    1.055112   -0.539961
      6         11           0       -2.560654   -1.078118   -1.730911
      7         11           0       -1.228379   -0.866779    1.668725
 ---------------------------------------------------------------------

 SCF Done:  E(UB3LYP) =  -1136.12109079     A.U. after   24 cycles

 The electronic state is 2-A.
 Alpha  occ. eigenvalues --  -38.44592 -38.44542 -38.44426 -38.44061 -38.43914
 Alpha  occ. eigenvalues --  -38.43703 -38.43391  -2.20400  -2.20368  -2.20312
 Alpha  occ. eigenvalues --   -2.19817  -2.19777  -2.19450  -2.19280  -1.14085
 Alpha  occ. eigenvalues --   -1.14054  -1.14048  -1.14031  -1.14021  -1.14013
 Alpha  occ. eigenvalues --   -1.13979  -1.13956  -1.13893  -1.13503  -1.13479
 Alpha  occ. eigenvalues --   -1.13478  -1.13471  -1.13436  -1.13356  -1.13124
 Alpha  occ. eigenvalues --   -1.13120  -1.13075  -1.12978  -1.12927  -1.12904
 Alpha  occ. eigenvalues --   -0.18036  -0.13009  -0.11481  -0.11411
 Alpha virt. eigenvalues --   -0.06043  -0.05700  -0.04915  -0.03119  -0.02689
 Alpha virt. eigenvalues --   -0.02302  -0.02111  -0.01532  -0.01056  -0.00192
 Alpha virt. eigenvalues --   -0.00091   0.00106   0.00224   0.00353   0.00608

  Beta  occ. eigenvalues --  -38.44550 -38.44502 -38.44377 -38.44022 -38.43903
  Beta  occ. eigenvalues --  -38.43696 -38.43377  -2.20326  -2.20295  -2.20223
  Beta  occ. eigenvalues --   -2.19759  -2.19744  -2.19439  -2.19258  -1.14026
  Beta  occ. eigenvalues --   -1.14007  -1.13994  -1.13982  -1.13969  -1.13951
  Beta  occ. eigenvalues --   -1.13921  -1.13889  -1.13819  -1.13476  -1.13452
  Beta  occ. eigenvalues --   -1.13429  -1.13425  -1.13392  -1.13344  -1.13114
  Beta  occ. eigenvalues --   -1.13111  -1.13068  -1.12963  -1.12916  -1.12863
  Beta  occ. eigenvalues --   -0.17404  -0.12637  -0.10995
  Beta virt. eigenvalues --   -0.07897  -0.05791  -0.05445  -0.04548  -0.02751
  Beta virt. eigenvalues --   -0.02301  -0.01912  -0.01787  -0.01266  -0.00702
  Beta virt. eigenvalues --   -0.00124   0.00076   0.00165   0.00352   0.00409

 Mulliken charges and spin densities:
               1          2
     1  Na   0.189557   0.170183
     2  Na   0.286482   0.109981
     3  Na   0.234965  -0.053541
     4  Na   0.361355   0.100591
     5  Na  -1.257701   0.138496
     6  Na   0.145831   0.093153
     7  Na   0.039512   0.441137
 Sum of Mulliken charges =  -0.00000   1.00000

 Dipole moment (field-independent basis, Debye):
    X=             -0.1197    Y=             -1.0629    Z=              0.1606  Tot=              1.0816
 Quadrupole moment (field-independent basis, Debye-Ang):
   XX=            -56.0675   YY=            -71.8307   ZZ=            -66.5249
   XY=             -1.5585   XZ=              3.1184   YZ=             -1.0709

 Normal termination of Gaussian 16 at Thu Dec  7 13:07:46 2023.
