 Gaussian 16, Revision B.01,
 Gaussian 16:  ES64L-G16RevB.01 20-Dec-2017

 -------------------------
 #P B3LYP/6-311+g(d) force
 -------------------------

 -----
 DPGEN
 -----
 Symbolic Z-matrix:
 Charge =  0 Multiplicity = 2

                         Standard orientation:
 ---------------------------------------------------------------------
 Center     Atomic      Atomic             Coordinates (Angstroms)
 Number     Number       Type             X           Y           Z
 ---------------------------------------------------------------------
      1         11           0       -2.596000   -1.134673    1.584523
      2         11           0        1.819889    0.615853    2.102906
      3         11           0        0.470244   -2.115544   -0.098654
      4         11           0       -2.009408    2.239244    0.429103
      5         11           0        1.432892    1.946650   -1.339829
      6         11           0       -2.827351   -0.672227   -1.996254
      7         11           0        3.709733   -0.879303   -0.681796
 ---------------------------------------------------------------------

 SCF Done:  E(UB3LYP) =  -1136.12039069     A.U. after   21 cycles

 The electronic state is 2-A.
 Alpha  occ. eigenvalues --  -38.45103 -38.44954 -38.44613 -38.44419 -38.43761
 Alpha  occ. eigenvalues --  -38.43505 -38.43385  -2.20887  -2.20728  -2.20413
 Alpha  occ. eigenvalues --   -2.20215  -2.19538  -2.19272  -2.19182  -1.14559
 Alpha  occ. eigenvalues --   -1.14527  -1.14513  -1.14395  -1.14364  -1.14352
 Alpha  occ. eigenvalues --   -1.14088  -1.14061  -1.14047  -1.13884  -1.13871
 Alpha  occ. eigenvalues --   -1.13853  -1.13223  -1.13201  -1.13162  -1.12954
 Alpha  occ. eigenvalues --   -1.12941  -1.12911  -1.12879  -1.12876  -1.12793
 Alpha  occ. eigenvalues --   -0.17200  -0.13798  -0.10918  -0.10797
 Alpha virt. eigenvalues --   -0.06331  -0.06027  -0.05322  -0.03081  -0.02798
 Alpha virt. eigenvalues --   -0.02694  -0.02034  -0.01199  -0.00854  -0.00576
 Alpha virt. eigenvalues --   -0.00079   0.00128   0.00199   0.00287   0.00316

  Beta  occ. eigenvalues --  -38.45052 -38.44900 -38.44601 -38.44400 -38.43742
  Beta  occ. eigenvalues --  -38.43504 -38.43378  -2.20792  -2.20627  -2.20392
  Beta  occ. eigenvalues --   -2.20182  -2.19504  -2.19274  -2.19173  -1.14492
  Beta  occ. eigenvalues --   -1.14457  -1.14445  -1.14322  -1.14294  -1.14285
  Beta  occ. eigenvalues --   -1.14066  -1.14045  -1.14035  -1.13857  -1.13850
  Beta  occ. eigenvalues --   -1.13820  -1.13199  -1.13173  -1.13137  -1.12948
  Beta  occ. eigenvalues --   -1.12934  -1.12914  -1.12874  -1.12842  -1.12792
  Beta  occ. eigenvalues --   -0.16596  -0.13544  -0.10795
  Beta virt. eigenvalues --   -0.07390  -0.05950  -0.05382  -0.05144  -0.02995
  Beta virt. eigenvalues --   -0.02212  -0.02038  -0.01904  -0.00896  -0.00601
  Beta virt. eigenvalues --   -0.00314   0.00127   0.00135   0.00314   0.00363

 Mulliken charges and spin densities:
               1          2
     1  Na   0.333728   0.280803
     2  Na   0.011425   0.232182
     3  Na  -0.440963   0.164691
     4  Na  -0.123481   0.094793
     5  Na  -0.205120   0.169504
     6  Na   0.032452   0.099920
     7  Na   0.391958  -0.041892
 Sum of Mulliken charges =  -0.00000   1.00000

 Dipole moment (field-independent basis, Debye):
    X=              0.4298    Y=             -0.2723    Z=              0.0647  Tot=              0.5129
 Quadrupole moment (field-independent basis, Debye-Ang):
   XX=            -52.1510   YY=            -79.7142   ZZ=            -63.9283
   XY=              0.0617   XZ=             -0.2414   YZ=              1.2287

 Normal termination of Gaussian 16 at Thu Dec  7 22:28:02 2023.
