 Gaussian 16, Revision B.01,
 Gaussian 16:  ES64L-G16RevB.01 20-Dec-2017

 -------------------------
 #P B3LYP/6-311+g(d) force
 -------------------------

 -----
 DPGEN
 -----
 Symbolic Z-matrix:
 Charge =  0 Multiplicity = 2

                         Standard orientation:
 ---------------------------------------------------------------------
 Center     Atomic      Atomic             Coordinates (Angstroms)
 Number     Number       Type             X           Y           Z
 ---------------------------------------------------------------------
      1         11           0       -3.515783   -1.297310   -1.481372
      2         11           0        3.406102   -0.858565   -1.294612
      3         11           0        2.139736    2.761204   -0.093969
      4         11           0       -1.547286   -1.862972    1.650130
      5         11           0        1.908664   -2.874703    0.449498
      6         11           0       -0.462532    2.066484    1.761927
      7         11           0       -1.928900    2.065861   -0.991601
 ---------------------------------------------------------------------

 SCF Done:  E(UB3LYP) =  -1136.11289421     A.U. after   21 cycles

 The electronic state is 2-A.
 Alpha  occ. eigenvalues --  -38.45244 -38.45014 -38.44365 -38.44269 -38.44141
 Alpha  occ. eigenvalues --  -38.44056 -38.43758  -2.21039  -2.20780  -2.20134
 Alpha  occ. eigenvalues --   -2.20126  -2.19931  -2.19831  -2.19563  -1.14755
 Alpha  occ. eigenvalues --   -1.14712  -1.14634  -1.14477  -1.14443  -1.14407
 Alpha  occ. eigenvalues --   -1.13811  -1.13799  -1.13777  -1.13775  -1.13765
 Alpha  occ. eigenvalues --   -1.13728  -1.13646  -1.13597  -1.13577  -1.13496
 Alpha  occ. eigenvalues --   -1.13488  -1.13457  -1.13216  -1.13213  -1.13191
 Alpha  occ. eigenvalues --   -0.16506  -0.13154  -0.12798  -0.10774
 Alpha virt. eigenvalues --   -0.06865  -0.05440  -0.04878  -0.03677  -0.03392
 Alpha virt. eigenvalues --   -0.02292  -0.01646  -0.01069  -0.00954  -0.00802
 Alpha virt. eigenvalues --   -0.00516  -0.00224   0.00123   0.00413   0.00483

  Beta  occ. eigenvalues --  -38.45219 -38.45013 -38.44319 -38.44233 -38.44143
  Beta  occ. eigenvalues --  -38.44009 -38.43734  -2.20994  -2.20779  -2.20058
  Beta  occ. eigenvalues --   -2.20048  -2.19937  -2.19743  -2.19517  -1.14716
  Beta  occ. eigenvalues --   -1.14684  -1.14592  -1.14471  -1.14443  -1.14402
  Beta  occ. eigenvalues --   -1.13767  -1.13741  -1.13731  -1.13713  -1.13706
  Beta  occ. eigenvalues --   -1.13676  -1.13644  -1.13603  -1.13569  -1.13434
  Beta  occ. eigenvalues --   -1.13427  -1.13394  -1.13188  -1.13184  -1.13159
  Beta  occ. eigenvalues --   -0.16005  -0.12855  -0.12422
  Beta virt. eigenvalues --   -0.07391  -0.06812  -0.04907  -0.04312  -0.03462
  Beta virt. eigenvalues --   -0.02995  -0.01825  -0.01546  -0.00987  -0.00796
  Beta virt. eigenvalues --   -0.00627  -0.00331   0.00037   0.00345   0.00524

 Mulliken charges and spin densities:
               1          2
     1  Na   0.138917   0.274037
     2  Na  -0.077027   0.173151
     3  Na  -0.069790  -0.054197
     4  Na  -0.422183   0.223204
     5  Na   0.169949  -0.061639
     6  Na   0.406934   0.368537
     7  Na  -0.146800   0.076906
 Sum of Mulliken charges =  -0.00000   1.00000

 Dipole moment (field-independent basis, Debye):
    X=             -0.0683    Y=              0.9503    Z=             -0.2149  Tot=              0.9766
 Quadrupole moment (field-independent basis, Debye-Ang):
   XX=            -68.0462   YY=            -63.6334   ZZ=            -69.0307
   XY=              4.2013   XZ=             -0.4967   YZ=             -0.7785

 Normal termination of Gaussian 16 at Sun Dec  3 17:15:06 2023.
