 Gaussian 16, Revision B.01,
 Gaussian 16:  ES64L-G16RevB.01 20-Dec-2017

 -------------------------
 #P B3LYP/6-311+g(d) force
 -------------------------

 -----
 DPGEN
 -----
 Symbolic Z-matrix:
 Charge =  0 Multiplicity = 2

                         Standard orientation:
 ---------------------------------------------------------------------
 Center     Atomic      Atomic             Coordinates (Angstroms)
 Number     Number       Type             X           Y           Z
 ---------------------------------------------------------------------
      1         11           0       -4.811920    0.358999   -0.114590
      2         11           0        4.056792   -1.626380   -0.581407
      3         11           0        2.736185    1.374654    0.006320
      4         11           0        0.449261    3.756209    0.130495
      5         11           0       -2.621853   -2.291733   -0.299527
      6         11           0       -0.858218    0.776797   -0.023366
      7         11           0        1.049754   -2.348546    0.882075
 ---------------------------------------------------------------------

 SCF Done:  E(UB3LYP) =  -1136.12994436     A.U. after   23 cycles

 The electronic state is 2-A.
 Alpha  occ. eigenvalues --  -38.44320 -38.44113 -38.44030 -38.43975 -38.43854
 Alpha  occ. eigenvalues --  -38.43597 -38.43469  -2.20123  -2.19964  -2.19840
 Alpha  occ. eigenvalues --   -2.19829  -2.19667  -2.19434  -2.19303  -1.13813
 Alpha  occ. eigenvalues --   -1.13790  -1.13762  -1.13663  -1.13650  -1.13583
 Alpha  occ. eigenvalues --   -1.13545  -1.13525  -1.13485  -1.13484  -1.13444
 Alpha  occ. eigenvalues --   -1.13427  -1.13357  -1.13338  -1.13278  -1.13099
 Alpha  occ. eigenvalues --   -1.13085  -1.13066  -1.12961  -1.12951  -1.12926
 Alpha  occ. eigenvalues --   -0.16879  -0.13998  -0.12759  -0.10585
 Alpha virt. eigenvalues --   -0.05865  -0.05374  -0.04879  -0.03655  -0.02619
 Alpha virt. eigenvalues --   -0.02254  -0.01734  -0.01509  -0.01356  -0.00813
 Alpha virt. eigenvalues --   -0.00251   0.00035   0.00586   0.00617   0.00640

  Beta  occ. eigenvalues --  -38.44314 -38.44095 -38.43964 -38.43942 -38.43820
  Beta  occ. eigenvalues --  -38.43597 -38.43427  -2.20118  -2.19933  -2.19810
  Beta  occ. eigenvalues --   -2.19676  -2.19607  -2.19434  -2.19226  -1.13816
  Beta  occ. eigenvalues --   -1.13794  -1.13708  -1.13644  -1.13629  -1.13543
  Beta  occ. eigenvalues --   -1.13533  -1.13493  -1.13422  -1.13373  -1.13371
  Beta  occ. eigenvalues --   -1.13339  -1.13318  -1.13300  -1.13216  -1.13098
  Beta  occ. eigenvalues --   -1.13085  -1.13065  -1.12904  -1.12894  -1.12882
  Beta  occ. eigenvalues --   -0.16412  -0.13326  -0.12509
  Beta virt. eigenvalues --   -0.07028  -0.05717  -0.05246  -0.04454  -0.03196
  Beta virt. eigenvalues --   -0.02229  -0.02020  -0.01634  -0.01304  -0.01189
  Beta virt. eigenvalues --   -0.00370   0.00098   0.00253   0.00642   0.00669

 Mulliken charges and spin densities:
               1          2
     1  Na   0.666318   0.432833
     2  Na   0.316269   0.098165
     3  Na  -0.123334   0.392738
     4  Na   1.035529   0.060470
     5  Na   1.309540  -0.020846
     6  Na  -3.088933  -0.109154
     7  Na  -0.115389   0.145793
 Sum of Mulliken charges =  -0.00000   1.00000

 Dipole moment (field-independent basis, Debye):
    X=             -0.1129    Y=              0.1731    Z=              0.0239  Tot=              0.2081
 Quadrupole moment (field-independent basis, Debye-Ang):
   XX=            -67.8238   YY=            -57.7764   ZZ=            -71.5531
   XY=              0.2617   XZ=             -0.7787   YZ=              1.3111

 Normal termination of Gaussian 16 at Wed Nov 29 17:07:21 2023.
