 Gaussian 16, Revision B.01,
 Gaussian 16:  ES64L-G16RevB.01 20-Dec-2017

 -------------------------
 #P B3LYP/6-311+g(d) force
 -------------------------

 -----
 DPGEN
 -----
 Symbolic Z-matrix:
 Charge =  0 Multiplicity = 2

                         Standard orientation:
 ---------------------------------------------------------------------
 Center     Atomic      Atomic             Coordinates (Angstroms)
 Number     Number       Type             X           Y           Z
 ---------------------------------------------------------------------
      1         11           0        0.003482   -0.085643    1.873022
      2         11           0        2.255753    1.953168    0.298394
      3         11           0       -1.327005    2.515003   -0.060983
      4         11           0        2.693052   -1.314096   -0.559633
      5         11           0       -0.145919   -0.024232   -1.826610
      6         11           0       -0.270443   -2.484737    0.464556
      7         11           0       -3.208920   -0.559462   -0.188746
 ---------------------------------------------------------------------

 SCF Done:  E(UB3LYP) =  -1136.13485624     A.U. after   19 cycles

 The electronic state is 2-A.
 Alpha  occ. eigenvalues --  -38.44169 -38.43691 -38.43649 -38.43536 -38.43532
 Alpha  occ. eigenvalues --  -38.43305 -38.43060  -2.19989  -2.19687  -2.19522
 Alpha  occ. eigenvalues --   -2.19498  -2.19376  -2.19160  -2.19022  -1.13666
 Alpha  occ. eigenvalues --   -1.13640  -1.13633  -1.13495  -1.13321  -1.13274
 Alpha  occ. eigenvalues --   -1.13228  -1.13181  -1.13178  -1.13166  -1.13139
 Alpha  occ. eigenvalues --   -1.13100  -1.13052  -1.13028  -1.13009  -1.12844
 Alpha  occ. eigenvalues --   -1.12834  -1.12773  -1.12715  -1.12656  -1.12598
 Alpha  occ. eigenvalues --   -0.19060  -0.13106  -0.12378  -0.11157
 Alpha virt. eigenvalues --   -0.05668  -0.04969  -0.04224  -0.03335  -0.03018
 Alpha virt. eigenvalues --   -0.02736  -0.01656  -0.00948  -0.00152  -0.00049
 Alpha virt. eigenvalues --    0.00108   0.00348   0.00819   0.00910   0.00948

  Beta  occ. eigenvalues --  -38.44166 -38.43635 -38.43601 -38.43527 -38.43462
  Beta  occ. eigenvalues --  -38.43301 -38.43041  -2.19987  -2.19524  -2.19499
  Beta  occ. eigenvalues --   -2.19370  -2.19361  -2.19157  -2.18994  -1.13654
  Beta  occ. eigenvalues --   -1.13640  -1.13627  -1.13385  -1.13212  -1.13190
  Beta  occ. eigenvalues --   -1.13168  -1.13162  -1.13138  -1.13088  -1.13052
  Beta  occ. eigenvalues --   -1.13033  -1.13018  -1.13004  -1.13001  -1.12836
  Beta  occ. eigenvalues --   -1.12817  -1.12769  -1.12681  -1.12606  -1.12585
  Beta  occ. eigenvalues --   -0.18318  -0.12849  -0.12092
  Beta virt. eigenvalues --   -0.07209  -0.05631  -0.04950  -0.04205  -0.02571
  Beta virt. eigenvalues --   -0.02188  -0.01678  -0.01553  -0.00879  -0.00137
  Beta virt. eigenvalues --   -0.00037   0.00139   0.00372   0.00881   0.00908

 Mulliken charges and spin densities:
               1          2
     1  Na  -0.222269   0.533589
     2  Na   0.007293  -0.054840
     3  Na  -0.033806  -0.113236
     4  Na   0.085635   0.044949
     5  Na  -0.298794   0.642909
     6  Na   0.438365   0.045863
     7  Na   0.023576  -0.099234
 Sum of Mulliken charges =  -0.00000   1.00000

 Dipole moment (field-independent basis, Debye):
    X=             -0.2294    Y=              0.1290    Z=             -0.1610  Tot=              0.3085
 Quadrupole moment (field-independent basis, Debye-Ang):
   XX=            -54.9260   YY=            -66.2987   ZZ=            -72.5067
   XY=              0.1920   XZ=             -0.3270   YZ=              0.7963

 Normal termination of Gaussian 16 at Fri Dec  8 05:32:14 2023.
