 Gaussian 16, Revision B.01,
 Gaussian 16:  ES64L-G16RevB.01 20-Dec-2017

 -------------------------
 #P B3LYP/6-311+g(d) force
 -------------------------

 -----
 DPGEN
 -----
 Symbolic Z-matrix:
 Charge =  0 Multiplicity = 2

                         Standard orientation:
 ---------------------------------------------------------------------
 Center     Atomic      Atomic             Coordinates (Angstroms)
 Number     Number       Type             X           Y           Z
 ---------------------------------------------------------------------
      1         11           0       -1.105329   -2.624290   -0.826177
      2         11           0        2.671079   -1.914424    0.489178
      3         11           0       -3.773013    0.352430   -0.041784
      4         11           0        2.715634    2.247344    0.245781
      5         11           0       -0.553795   -0.581987    2.062355
      6         11           0       -1.188444    2.474149   -0.197230
      7         11           0        1.233867    0.046777   -1.732123
 ---------------------------------------------------------------------

 SCF Done:  E(UB3LYP) =  -1136.12767477     A.U. after   19 cycles

 The electronic state is 2-A.
 Alpha  occ. eigenvalues --  -38.44672 -38.44624 -38.44150 -38.43925 -38.43834
 Alpha  occ. eigenvalues --  -38.43678 -38.43430  -2.20444  -2.20412  -2.19930
 Alpha  occ. eigenvalues --   -2.19746  -2.19626  -2.19478  -2.19322  -1.14119
 Alpha  occ. eigenvalues --   -1.14107  -1.14099  -1.14081  -1.14073  -1.14039
 Alpha  occ. eigenvalues --   -1.13611  -1.13587  -1.13572  -1.13417  -1.13399
 Alpha  occ. eigenvalues --   -1.13353  -1.13304  -1.13287  -1.13246  -1.13168
 Alpha  occ. eigenvalues --   -1.13161  -1.13095  -1.12993  -1.12988  -1.12929
 Alpha  occ. eigenvalues --   -0.17565  -0.13088  -0.12032  -0.10394
 Alpha virt. eigenvalues --   -0.06344  -0.05796  -0.04522  -0.03302  -0.02886
 Alpha virt. eigenvalues --   -0.02390  -0.01961  -0.01512  -0.00871  -0.00283
 Alpha virt. eigenvalues --   -0.00124   0.00296   0.00521   0.00642   0.00715

  Beta  occ. eigenvalues --  -38.44675 -38.44616 -38.44151 -38.43846 -38.43808
  Beta  occ. eigenvalues --  -38.43674 -38.43379  -2.20450  -2.20399  -2.19933
  Beta  occ. eigenvalues --   -2.19599  -2.19579  -2.19473  -2.19228  -1.14123
  Beta  occ. eigenvalues --   -1.14103  -1.14086  -1.14085  -1.14047  -1.14033
  Beta  occ. eigenvalues --   -1.13607  -1.13586  -1.13574  -1.13320  -1.13302
  Beta  occ. eigenvalues --   -1.13264  -1.13245  -1.13238  -1.13217  -1.13163
  Beta  occ. eigenvalues --   -1.13143  -1.13094  -1.12931  -1.12922  -1.12856
  Beta  occ. eigenvalues --   -0.16905  -0.12969  -0.11817
  Beta virt. eigenvalues --   -0.06621  -0.06215  -0.05728  -0.04318  -0.02742
  Beta virt. eigenvalues --   -0.02240  -0.01880  -0.01466  -0.01414  -0.00829
  Beta virt. eigenvalues --   -0.00291   0.00073   0.00347   0.00657   0.00734

 Mulliken charges and spin densities:
               1          2
     1  Na  -0.171343   0.011759
     2  Na   0.038462  -0.035718
     3  Na   0.229691  -0.009943
     4  Na  -0.000648  -0.071669
     5  Na  -0.230434   0.720208
     6  Na  -0.333955  -0.123908
     7  Na   0.468227   0.509270
 Sum of Mulliken charges =  -0.00000   1.00000

 Dipole moment (field-independent basis, Debye):
    X=              0.0010    Y=             -0.1604    Z=              0.2156  Tot=              0.2687
 Quadrupole moment (field-independent basis, Debye-Ang):
   XX=            -51.6547   YY=            -66.8138   ZZ=            -75.0543
   XY=              0.4660   XZ=              2.8731   YZ=              1.1955

 Normal termination of Gaussian 16 at Mon Dec  4 04:01:21 2023.
