 Gaussian 16, Revision B.01,
 Gaussian 16:  ES64L-G16RevB.01 20-Dec-2017

 -------------------------
 #P B3LYP/6-311+g(d) force
 -------------------------

 -----
 DPGEN
 -----
 Symbolic Z-matrix:
 Charge =  0 Multiplicity = 2

                         Standard orientation:
 ---------------------------------------------------------------------
 Center     Atomic      Atomic             Coordinates (Angstroms)
 Number     Number       Type             X           Y           Z
 ---------------------------------------------------------------------
      1         11           0       -1.128998    2.174545   -0.362623
      2         11           0       -0.381083   -2.866437    0.559015
      3         11           0       -3.775160   -0.644985   -1.290363
      4         11           0        3.254757   -2.486346   -0.786921
      5         11           0        1.977630    0.325704    0.398428
      6         11           0        1.858576    3.463600   -0.168515
      7         11           0       -1.805721    0.033919    1.650978
 ---------------------------------------------------------------------

 SCF Done:  E(UB3LYP) =  -1136.12180655     A.U. after   20 cycles

 The electronic state is 2-A.
 Alpha  occ. eigenvalues --  -38.44786 -38.44488 -38.44406 -38.43900 -38.43735
 Alpha  occ. eigenvalues --  -38.43694 -38.43684  -2.20561  -2.20360  -2.20238
 Alpha  occ. eigenvalues --   -2.19701  -2.19583  -2.19564  -2.19533  -1.14244
 Alpha  occ. eigenvalues --   -1.14233  -1.14175  -1.14114  -1.14041  -1.13985
 Alpha  occ. eigenvalues --   -1.13920  -1.13887  -1.13849  -1.13357  -1.13345
 Alpha  occ. eigenvalues --   -1.13311  -1.13278  -1.13272  -1.13258  -1.13228
 Alpha  occ. eigenvalues --   -1.13223  -1.13189  -1.13184  -1.13165  -1.13130
 Alpha  occ. eigenvalues --   -0.17454  -0.13392  -0.13019  -0.10086
 Alpha virt. eigenvalues --   -0.06626  -0.05680  -0.04862  -0.03442  -0.02724
 Alpha virt. eigenvalues --   -0.01990  -0.01759  -0.01496  -0.01261  -0.00973
 Alpha virt. eigenvalues --   -0.00057   0.00034   0.00295   0.00572   0.00616

  Beta  occ. eigenvalues --  -38.44768 -38.44486 -38.44410 -38.43813 -38.43700
  Beta  occ. eigenvalues --  -38.43688 -38.43646  -2.20531  -2.20359  -2.20248
  Beta  occ. eigenvalues --   -2.19558  -2.19539  -2.19515  -2.19467  -1.14219
  Beta  occ. eigenvalues --   -1.14201  -1.14155  -1.14107  -1.14043  -1.13975
  Beta  occ. eigenvalues --   -1.13928  -1.13891  -1.13850  -1.13268  -1.13246
  Beta  occ. eigenvalues --   -1.13237  -1.13229  -1.13221  -1.13212  -1.13208
  Beta  occ. eigenvalues --   -1.13174  -1.13143  -1.13124  -1.13116  -1.13098
  Beta  occ. eigenvalues --   -0.17000  -0.13050  -0.12683
  Beta virt. eigenvalues --   -0.06539  -0.06353  -0.05534  -0.04644  -0.02981
  Beta virt. eigenvalues --   -0.02351  -0.01862  -0.01394  -0.01293  -0.00882
  Beta virt. eigenvalues --   -0.00770   0.00215   0.00265   0.00380   0.00644

 Mulliken charges and spin densities:
               1          2
     1  Na  -0.371648   0.093923
     2  Na  -0.045862  -0.017429
     3  Na   0.039648   0.467480
     4  Na   0.413406   0.117036
     5  Na  -1.072455   0.061577
     6  Na   0.833708   0.030168
     7  Na   0.203203   0.247245
 Sum of Mulliken charges =  -0.00000   1.00000

 Dipole moment (field-independent basis, Debye):
    X=              0.4750    Y=              0.3168    Z=              0.2364  Tot=              0.6180
 Quadrupole moment (field-independent basis, Debye-Ang):
   XX=            -69.3013   YY=            -55.6660   ZZ=            -72.9793
   XY=              4.9437   XZ=             -2.6925   YZ=              1.4753

 Normal termination of Gaussian 16 at Mon Dec  4 01:26:49 2023.
