 Gaussian 16, Revision B.01,
 Gaussian 16:  ES64L-G16RevB.01 20-Dec-2017

 -------------------------
 #P B3LYP/6-311+g(d) force
 -------------------------

 -----
 DPGEN
 -----
 Symbolic Z-matrix:
 Charge =  0 Multiplicity = 2

                         Standard orientation:
 ---------------------------------------------------------------------
 Center     Atomic      Atomic             Coordinates (Angstroms)
 Number     Number       Type             X           Y           Z
 ---------------------------------------------------------------------
      1         11           0       -0.331988   -3.815465   -0.610208
      2         11           0       -1.743167    3.341924    0.183107
      3         11           0        4.584360    0.683875   -0.420494
      4         11           0        3.024957   -2.665524    0.905787
      5         11           0       -4.182147    1.091673    0.146733
      6         11           0        1.850508    3.645147   -0.146107
      7         11           0       -3.202524   -2.281629   -0.058818
 ---------------------------------------------------------------------

 SCF Done:  E(UB3LYP) =  -1136.10265520     A.U. after   26 cycles

 The electronic state is 2-A.
 Alpha  occ. eigenvalues --  -38.45578 -38.45492 -38.45104 -38.45035 -38.44273
 Alpha  occ. eigenvalues --  -38.44194 -38.43708  -2.21290  -2.21221  -2.20886
 Alpha  occ. eigenvalues --   -2.20802  -2.20043  -2.19981  -2.19526  -1.14977
 Alpha  occ. eigenvalues --   -1.14955  -1.14923  -1.14901  -1.14884  -1.14839
 Alpha  occ. eigenvalues --   -1.14562  -1.14556  -1.14528  -1.14487  -1.14478
 Alpha  occ. eigenvalues --   -1.14444  -1.13705  -1.13695  -1.13660  -1.13644
 Alpha  occ. eigenvalues --   -1.13641  -1.13615  -1.13174  -1.13173  -1.13166
 Alpha  occ. eigenvalues --   -0.15306  -0.13633  -0.13571  -0.10872
 Alpha virt. eigenvalues --   -0.08104  -0.05235  -0.04404  -0.03471  -0.03447
 Alpha virt. eigenvalues --   -0.02497  -0.02362  -0.01887  -0.01577  -0.00888
 Alpha virt. eigenvalues --   -0.00529  -0.00324  -0.00074   0.00203   0.00314

  Beta  occ. eigenvalues --  -38.45575 -38.45464 -38.45081 -38.45021 -38.44209
  Beta  occ. eigenvalues --  -38.44160 -38.43654  -2.21287  -2.21169  -2.20849
  Beta  occ. eigenvalues --   -2.20784  -2.19926  -2.19921  -2.19428  -1.14977
  Beta  occ. eigenvalues --   -1.14955  -1.14906  -1.14867  -1.14851  -1.14795
  Beta  occ. eigenvalues --   -1.14542  -1.14534  -1.14481  -1.14473  -1.14467
  Beta  occ. eigenvalues --   -1.14383  -1.13626  -1.13617  -1.13605  -1.13601
  Beta  occ. eigenvalues --   -1.13577  -1.13564  -1.13109  -1.13106  -1.13101
  Beta  occ. eigenvalues --   -0.14711  -0.13015  -0.12739
  Beta virt. eigenvalues --   -0.08358  -0.07777  -0.04717  -0.03850  -0.03298
  Beta virt. eigenvalues --   -0.03194  -0.02284  -0.02161  -0.01759  -0.01413
  Beta virt. eigenvalues --   -0.00552  -0.00315  -0.00131   0.00173   0.00307

 Mulliken charges and spin densities:
               1          2
     1  Na  -0.318870   0.045670
     2  Na   0.141632   0.120822
     3  Na  -0.016797   0.061879
     4  Na  -0.125920   0.133333
     5  Na   0.463009   0.222652
     6  Na  -0.111151   0.226854
     7  Na  -0.031902   0.188790
 Sum of Mulliken charges =  -0.00000   1.00000

 Dipole moment (field-independent basis, Debye):
    X=              0.6469    Y=             -0.4688    Z=              0.0518  Tot=              0.8006
 Quadrupole moment (field-independent basis, Debye-Ang):
   XX=            -59.7915   YY=            -66.8232   ZZ=            -72.8707
   XY=              1.0414   XZ=             -1.3089   YZ=             -1.2624

 Normal termination of Gaussian 16 at Sun Dec  3 13:41:19 2023.
