 Gaussian 16, Revision B.01,
 Gaussian 16:  ES64L-G16RevB.01 20-Dec-2017

 -------------------------
 #P B3LYP/6-311+g(d) force
 -------------------------

 -----
 DPGEN
 -----
 Symbolic Z-matrix:
 Charge =  0 Multiplicity = 2

                         Standard orientation:
 ---------------------------------------------------------------------
 Center     Atomic      Atomic             Coordinates (Angstroms)
 Number     Number       Type             X           Y           Z
 ---------------------------------------------------------------------
      1         11           0        0.838759    3.149838   -0.349397
      2         11           0        3.998653    1.001489    0.805715
      3         11           0       -2.237696    2.851154   -1.001577
      4         11           0       -3.376197    0.404584    1.430844
      5         11           0       -2.655225   -2.864118    0.235949
      6         11           0        0.287124   -2.722771   -1.334798
      7         11           0        3.144583   -1.820176    0.213264
 ---------------------------------------------------------------------

 SCF Done:  E(UB3LYP) =  -1136.11033376     A.U. after   20 cycles

 The electronic state is 2-A.
 Alpha  occ. eigenvalues --  -38.44888 -38.44677 -38.44673 -38.44641 -38.44269
 Alpha  occ. eigenvalues --  -38.43993 -38.43758  -2.20670  -2.20504  -2.20445
 Alpha  occ. eigenvalues --   -2.20429  -2.20075  -2.19825  -2.19582  -1.14347
 Alpha  occ. eigenvalues --   -1.14332  -1.14306  -1.14213  -1.14166  -1.14160
 Alpha  occ. eigenvalues --   -1.14127  -1.14122  -1.14106  -1.14091  -1.14066
 Alpha  occ. eigenvalues --   -1.14040  -1.13741  -1.13730  -1.13716  -1.13485
 Alpha  occ. eigenvalues --   -1.13461  -1.13446  -1.13233  -1.13223  -1.13215
 Alpha  occ. eigenvalues --   -0.15884  -0.13937  -0.13366  -0.10679
 Alpha virt. eigenvalues --   -0.07345  -0.04998  -0.04337  -0.03688  -0.03563
 Alpha virt. eigenvalues --   -0.01955  -0.01856  -0.01629  -0.01430  -0.01057
 Alpha virt. eigenvalues --   -0.00630  -0.00075   0.00085   0.00461   0.00770

  Beta  occ. eigenvalues --  -38.44857 -38.44681 -38.44668 -38.44572 -38.44257
  Beta  occ. eigenvalues --  -38.43944 -38.43698  -2.20617  -2.20494  -2.20464
  Beta  occ. eigenvalues --   -2.20301  -2.20057  -2.19736  -2.19469  -1.14307
  Beta  occ. eigenvalues --   -1.14300  -1.14257  -1.14183  -1.14163  -1.14144
  Beta  occ. eigenvalues --   -1.14138  -1.14135  -1.14078  -1.14005  -1.13985
  Beta  occ. eigenvalues --   -1.13954  -1.13725  -1.13720  -1.13687  -1.13425
  Beta  occ. eigenvalues --   -1.13401  -1.13386  -1.13156  -1.13148  -1.13144
  Beta  occ. eigenvalues --   -0.15366  -0.13241  -0.12773
  Beta virt. eigenvalues --   -0.07504  -0.07388  -0.04553  -0.03954  -0.03322
  Beta virt. eigenvalues --   -0.03225  -0.01828  -0.01659  -0.01529  -0.01051
  Beta virt. eigenvalues --   -0.00929  -0.00327   0.00170   0.00318   0.00457

 Mulliken charges and spin densities:
               1          2
     1  Na  -0.103865   0.162753
     2  Na   0.426356   0.213848
     3  Na  -0.029097  -0.025353
     4  Na  -0.110679   0.352756
     5  Na   0.343008  -0.050137
     6  Na  -0.346903   0.307964
     7  Na  -0.178819   0.038170
 Sum of Mulliken charges =  -0.00000   1.00000

 Dipole moment (field-independent basis, Debye):
    X=             -0.2782    Y=              0.3522    Z=              0.1000  Tot=              0.4599
 Quadrupole moment (field-independent basis, Debye-Ang):
   XX=            -65.0018   YY=            -66.3403   ZZ=            -70.4216
   XY=              1.2696   XZ=              1.4356   YZ=             -0.0819

 Normal termination of Gaussian 16 at Sun Dec  3 19:44:11 2023.
