 Gaussian 16, Revision B.01,
 Gaussian 16:  ES64L-G16RevB.01 20-Dec-2017

 -------------------------
 #P B3LYP/6-311+g(d) force
 -------------------------

 -----
 DPGEN
 -----
 Symbolic Z-matrix:
 Charge =  0 Multiplicity = 2

                         Standard orientation:
 ---------------------------------------------------------------------
 Center     Atomic      Atomic             Coordinates (Angstroms)
 Number     Number       Type             X           Y           Z
 ---------------------------------------------------------------------
      1         11           0       -2.981548   -0.439618   -0.038784
      2         11           0       -0.242118    0.012385    1.781211
      3         11           0       -1.321240    2.452430   -0.163327
      4         11           0        2.115013    2.101363    0.104165
      5         11           0        0.176972    0.044028   -1.627470
      6         11           0        2.727823   -1.405153    0.044038
      7         11           0       -0.474902   -2.765435   -0.099833
 ---------------------------------------------------------------------

 SCF Done:  E(UB3LYP) =  -1136.14004866     A.U. after   20 cycles

 The electronic state is 2-A.
 Alpha  occ. eigenvalues --  -38.43780 -38.43680 -38.43581 -38.43308 -38.43293
 Alpha  occ. eigenvalues --  -38.43044 -38.42877  -2.19627  -2.19566  -2.19446
 Alpha  occ. eigenvalues --   -2.19228  -2.19189  -2.19036  -2.18916  -1.13307
 Alpha  occ. eigenvalues --   -1.13290  -1.13270  -1.13251  -1.13227  -1.13218
 Alpha  occ. eigenvalues --   -1.13133  -1.13112  -1.13080  -1.12940  -1.12901
 Alpha  occ. eigenvalues --   -1.12895  -1.12863  -1.12842  -1.12808  -1.12719
 Alpha  occ. eigenvalues --   -1.12650  -1.12646  -1.12589  -1.12538  -1.12526
 Alpha  occ. eigenvalues --   -0.19267  -0.13097  -0.12800  -0.10591
 Alpha virt. eigenvalues --   -0.05372  -0.05193  -0.04731  -0.03026  -0.02874
 Alpha virt. eigenvalues --   -0.02223  -0.01429  -0.01137  -0.00224  -0.00190
 Alpha virt. eigenvalues --    0.00034   0.00367   0.00848   0.00918   0.00934

  Beta  occ. eigenvalues --  -38.43778 -38.43674 -38.43577 -38.43298 -38.43286
  Beta  occ. eigenvalues --  -38.42961 -38.42804  -2.19625  -2.19560  -2.19441
  Beta  occ. eigenvalues --   -2.19215  -2.19180  -2.18884  -2.18784  -1.13302
  Beta  occ. eigenvalues --   -1.13274  -1.13268  -1.13247  -1.13219  -1.13192
  Beta  occ. eigenvalues --   -1.13128  -1.13086  -1.13079  -1.12929  -1.12887
  Beta  occ. eigenvalues --   -1.12854  -1.12839  -1.12823  -1.12807  -1.12623
  Beta  occ. eigenvalues --   -1.12545  -1.12536  -1.12497  -1.12443  -1.12430
  Beta  occ. eigenvalues --   -0.18530  -0.12843  -0.12522
  Beta virt. eigenvalues --   -0.06652  -0.05357  -0.05193  -0.04725  -0.02223
  Beta virt. eigenvalues --   -0.02054  -0.01355  -0.01175  -0.01074  -0.00278
  Beta virt. eigenvalues --   -0.00251   0.00160   0.00389   0.00890   0.00908

 Mulliken charges and spin densities:
               1          2
     1  Na   0.275528  -0.042171
     2  Na  -0.484933   0.778341
     3  Na   0.294030  -0.059006
     4  Na   0.107268  -0.091243
     5  Na  -0.409908   0.618339
     6  Na   0.052004  -0.101329
     7  Na   0.166010  -0.102931
 Sum of Mulliken charges =  -0.00000   1.00000

 Dipole moment (field-independent basis, Debye):
    X=              0.1337    Y=             -0.0358    Z=              0.0848  Tot=              0.1623
 Quadrupole moment (field-independent basis, Debye-Ang):
   XX=            -55.9605   YY=            -61.0792   ZZ=            -75.3106
   XY=              0.1604   XZ=              0.9919   YZ=              0.0886

 Normal termination of Gaussian 16 at Fri Dec  8 05:35:00 2023.
