 Gaussian 16, Revision B.01,
 Gaussian 16:  ES64L-G16RevB.01 20-Dec-2017

 -------------------------
 #P B3LYP/6-311+g(d) force
 -------------------------

 -----
 DPGEN
 -----
 Symbolic Z-matrix:
 Charge =  0 Multiplicity = 2

                         Standard orientation:
 ---------------------------------------------------------------------
 Center     Atomic      Atomic             Coordinates (Angstroms)
 Number     Number       Type             X           Y           Z
 ---------------------------------------------------------------------
      1         11           0        1.450140   -2.381309    0.801952
      2         11           0       -0.080084   -0.696549   -1.531230
      3         11           0       -0.737347    0.106243    1.895621
      4         11           0        3.412770   -0.127832   -0.529269
      5         11           0       -3.499527   -1.179981   -0.592453
      6         11           0       -1.912684    1.849768    0.028628
      7         11           0        1.366733    2.429661   -0.073249
 ---------------------------------------------------------------------

 SCF Done:  E(UB3LYP) =  -1136.12646559     A.U. after   21 cycles

 The electronic state is 2-A.
 Alpha  occ. eigenvalues --  -38.44534 -38.44492 -38.44045 -38.43835 -38.43581
 Alpha  occ. eigenvalues --  -38.43343 -38.42735  -2.20377  -2.20294  -2.19953
 Alpha  occ. eigenvalues --   -2.19799  -2.19539  -2.19218  -2.18598  -1.14045
 Alpha  occ. eigenvalues --   -1.14035  -1.14019  -1.13956  -1.13954  -1.13923
 Alpha  occ. eigenvalues --   -1.13676  -1.13651  -1.13621  -1.13552  -1.13440
 Alpha  occ. eigenvalues --   -1.13372  -1.13193  -1.13162  -1.13110  -1.12890
 Alpha  occ. eigenvalues --   -1.12868  -1.12849  -1.12273  -1.12270  -1.12241
 Alpha  occ. eigenvalues --   -0.18701  -0.13813  -0.11865  -0.10930
 Alpha virt. eigenvalues --   -0.06507  -0.05105  -0.04304  -0.03333  -0.02735
 Alpha virt. eigenvalues --   -0.02433  -0.02231  -0.01033  -0.00406  -0.00074
 Alpha virt. eigenvalues --    0.00029   0.00214   0.00589   0.00803   0.00848

  Beta  occ. eigenvalues --  -38.44522 -38.44469 -38.44011 -38.43746 -38.43571
  Beta  occ. eigenvalues --  -38.43316 -38.42734  -2.20356  -2.20253  -2.19891
  Beta  occ. eigenvalues --   -2.19638  -2.19523  -2.19170  -2.18599  -1.14029
  Beta  occ. eigenvalues --   -1.14012  -1.14008  -1.13927  -1.13914  -1.13900
  Beta  occ. eigenvalues --   -1.13621  -1.13582  -1.13562  -1.13503  -1.13330
  Beta  occ. eigenvalues --   -1.13265  -1.13177  -1.13113  -1.13085  -1.12860
  Beta  occ. eigenvalues --   -1.12832  -1.12802  -1.12274  -1.12273  -1.12220
  Beta  occ. eigenvalues --   -0.18050  -0.13529  -0.11579
  Beta virt. eigenvalues --   -0.07183  -0.06289  -0.04982  -0.04022  -0.02911
  Beta virt. eigenvalues --   -0.02242  -0.01938  -0.01452  -0.01015  -0.00239
  Beta virt. eigenvalues --    0.00037   0.00056   0.00274   0.00710   0.00859

 Mulliken charges and spin densities:
               1          2
     1  Na  -0.075164   0.081841
     2  Na  -0.299314   0.327469
     3  Na   0.085594   0.213394
     4  Na   0.379970   0.049977
     5  Na   0.057920   0.129733
     6  Na   0.329298   0.242249
     7  Na  -0.478304  -0.044663
 Sum of Mulliken charges =  -0.00000   1.00000

 Dipole moment (field-independent basis, Debye):
    X=             -0.1741    Y=             -0.4037    Z=             -0.0737  Tot=              0.4458
 Quadrupole moment (field-independent basis, Debye-Ang):
   XX=            -51.4526   YY=            -70.6458   ZZ=            -72.3060
   XY=              0.3574   XZ=             -0.1659   YZ=             -1.0500

 Normal termination of Gaussian 16 at Tue Dec  5 16:47:58 2023.
