 Gaussian 16, Revision B.01,
 Gaussian 16:  ES64L-G16RevB.01 20-Dec-2017

 -------------------------
 #P B3LYP/6-311+g(d) force
 -------------------------

 -----
 DPGEN
 -----
 Symbolic Z-matrix:
 Charge =  0 Multiplicity = 2

                         Standard orientation:
 ---------------------------------------------------------------------
 Center     Atomic      Atomic             Coordinates (Angstroms)
 Number     Number       Type             X           Y           Z
 ---------------------------------------------------------------------
      1         11           0       -5.326498    0.881901   -0.272187
      2         11           0        5.943741    0.012656   -1.195356
      3         11           0        0.949774    2.339023    1.021204
      4         11           0        0.271356   -1.658570   -0.163102
      5         11           0       -3.825003   -2.161576    0.335925
      6         11           0        4.123707   -0.665054    1.054000
      7         11           0       -2.137076    1.251620   -0.780484
 ---------------------------------------------------------------------

 SCF Done:  E(UB3LYP) =  -1136.10994140     A.U. after   21 cycles

 The electronic state is 2-A.
 Alpha  occ. eigenvalues --  -38.45031 -38.44825 -38.44450 -38.44312 -38.43881
 Alpha  occ. eigenvalues --  -38.43795 -38.43790  -2.20805  -2.20589  -2.20201
 Alpha  occ. eigenvalues --   -2.20137  -2.19710  -2.19616  -2.19590  -1.14489
 Alpha  occ. eigenvalues --   -1.14457  -1.14427  -1.14274  -1.14236  -1.14193
 Alpha  occ. eigenvalues --   -1.13876  -1.13855  -1.13842  -1.13821  -1.13810
 Alpha  occ. eigenvalues --   -1.13748  -1.13427  -1.13377  -1.13362  -1.13329
 Alpha  occ. eigenvalues --   -1.13283  -1.13260  -1.13233  -1.13225  -1.13143
 Alpha  occ. eigenvalues --   -0.16207  -0.13903  -0.11480  -0.11251
 Alpha virt. eigenvalues --   -0.06565  -0.06184  -0.03963  -0.03639  -0.03102
 Alpha virt. eigenvalues --   -0.02771  -0.01916  -0.01541  -0.01408  -0.00707
 Alpha virt. eigenvalues --   -0.00346  -0.00195   0.00119   0.00246   0.00437

  Beta  occ. eigenvalues --  -38.44999 -38.44762 -38.44419 -38.44283 -38.43853
  Beta  occ. eigenvalues --  -38.43794 -38.43791  -2.20745  -2.20473  -2.20141
  Beta  occ. eigenvalues --   -2.20086  -2.19658  -2.19615  -2.19592  -1.14450
  Beta  occ. eigenvalues --   -1.14416  -1.14372  -1.14196  -1.14158  -1.14102
  Beta  occ. eigenvalues --   -1.13835  -1.13810  -1.13803  -1.13785  -1.13762
  Beta  occ. eigenvalues --   -1.13709  -1.13427  -1.13332  -1.13328  -1.13300
  Beta  occ. eigenvalues --   -1.13281  -1.13261  -1.13233  -1.13226  -1.13144
  Beta  occ. eigenvalues --   -0.15527  -0.13787  -0.11298
  Beta virt. eigenvalues --   -0.07580  -0.06239  -0.05659  -0.03787  -0.03409
  Beta virt. eigenvalues --   -0.02580  -0.02334  -0.01681  -0.01485  -0.01108
  Beta virt. eigenvalues --   -0.00586  -0.00190   0.00114   0.00264   0.00392

 Mulliken charges and spin densities:
               1          2
     1  Na   0.337176   0.116051
     2  Na   0.237873  -0.028224
     3  Na   0.074750   0.135710
     4  Na  -0.165230   0.523803
     5  Na   0.142763   0.007877
     6  Na  -0.271714   0.067806
     7  Na  -0.355618   0.176977
 Sum of Mulliken charges =  -0.00000   1.00000

 Dipole moment (field-independent basis, Debye):
    X=             -1.0210    Y=              0.0737    Z=              0.0556  Tot=              1.0252
 Quadrupole moment (field-independent basis, Debye-Ang):
   XX=            -67.0624   YY=            -66.9256   ZZ=            -66.7059
   XY=              4.2338   XZ=             -3.4086   YZ=             -1.1492

 Normal termination of Gaussian 16 at Sun Dec  3 20:20:14 2023.
