 Gaussian 16, Revision B.01,
 Gaussian 16:  ES64L-G16RevB.01 20-Dec-2017

 -------------------------
 #P B3LYP/6-311+g(d) force
 -------------------------

 -----
 DPGEN
 -----
 Symbolic Z-matrix:
 Charge =  0 Multiplicity = 2

                         Standard orientation:
 ---------------------------------------------------------------------
 Center     Atomic      Atomic             Coordinates (Angstroms)
 Number     Number       Type             X           Y           Z
 ---------------------------------------------------------------------
      1         11           0        3.181767   -1.188677   -0.449823
      2         11           0        0.138779   -0.031398    2.110495
      3         11           0       -0.310498   -2.702390    0.469108
      4         11           0       -1.676273    2.185949    0.319441
      5         11           0        1.710297    2.451422   -0.087765
      6         11           0       -0.091076    0.107564   -1.748406
      7         11           0       -2.952997   -0.822469   -0.613050
 ---------------------------------------------------------------------

 SCF Done:  E(UB3LYP) =  -1136.13626051     A.U. after   20 cycles

 The electronic state is 2-A.
 Alpha  occ. eigenvalues --  -38.44176 -38.43938 -38.43580 -38.43568 -38.43558
 Alpha  occ. eigenvalues --  -38.43314 -38.43251  -2.19941  -2.19846  -2.19517
 Alpha  occ. eigenvalues --   -2.19440  -2.19416  -2.19181  -2.19150  -1.13621
 Alpha  occ. eigenvalues --   -1.13588  -1.13582  -1.13521  -1.13487  -1.13459
 Alpha  occ. eigenvalues --   -1.13233  -1.13203  -1.13152  -1.13101  -1.13090
 Alpha  occ. eigenvalues --   -1.13082  -1.13079  -1.13064  -1.13043  -1.12882
 Alpha  occ. eigenvalues --   -1.12836  -1.12829  -1.12814  -1.12789  -1.12767
 Alpha  occ. eigenvalues --   -0.18681  -0.12757  -0.12432  -0.11261
 Alpha virt. eigenvalues --   -0.05596  -0.05007  -0.04415  -0.03244  -0.03208
 Alpha virt. eigenvalues --   -0.02862  -0.01518  -0.01060  -0.00274  -0.00076
 Alpha virt. eigenvalues --    0.00023   0.00348   0.00795   0.00879   0.00937

  Beta  occ. eigenvalues --  -38.44171 -38.43840 -38.43578 -38.43555 -38.43495
  Beta  occ. eigenvalues --  -38.43301 -38.43241  -2.19932  -2.19666  -2.19421
  Beta  occ. eigenvalues --   -2.19415  -2.19402  -2.19161  -2.19136  -1.13606
  Beta  occ. eigenvalues --   -1.13581  -1.13577  -1.13402  -1.13353  -1.13335
  Beta  occ. eigenvalues --   -1.13173  -1.13145  -1.13086  -1.13083  -1.13072
  Beta  occ. eigenvalues --   -1.13062  -1.13055  -1.13042  -1.13007  -1.12856
  Beta  occ. eigenvalues --   -1.12820  -1.12804  -1.12783  -1.12782  -1.12754
  Beta  occ. eigenvalues --   -0.17934  -0.12488  -0.12180
  Beta virt. eigenvalues --   -0.07340  -0.05530  -0.04968  -0.04351  -0.02538
  Beta virt. eigenvalues --   -0.02389  -0.01857  -0.01397  -0.01010  -0.00221
  Beta virt. eigenvalues --   -0.00112   0.00104   0.00374   0.00857   0.00891

 Mulliken charges and spin densities:
               1          2
     1  Na  -0.108600  -0.063135
     2  Na  -0.199111   0.498606
     3  Na   0.098023   0.018097
     4  Na   0.250915   0.079365
     5  Na  -0.011487  -0.100857
     6  Na  -0.242265   0.535498
     7  Na   0.212526   0.032426
 Sum of Mulliken charges =  -0.00000   1.00000

 Dipole moment (field-independent basis, Debye):
    X=              0.2766    Y=              0.0268    Z=              0.0279  Tot=              0.2792
 Quadrupole moment (field-independent basis, Debye-Ang):
   XX=            -57.7464   YY=            -64.8468   ZZ=            -71.7178
   XY=              0.2545   XZ=             -0.3479   YZ=              0.7096

 Normal termination of Gaussian 16 at Tue Dec  5 12:26:06 2023.
