 Gaussian 16, Revision B.01,
 Gaussian 16:  ES64L-G16RevB.01 20-Dec-2017

 -------------------------
 #P B3LYP/6-311+g(d) force
 -------------------------

 -----
 DPGEN
 -----
 Symbolic Z-matrix:
 Charge =  0 Multiplicity = 2

                         Standard orientation:
 ---------------------------------------------------------------------
 Center     Atomic      Atomic             Coordinates (Angstroms)
 Number     Number       Type             X           Y           Z
 ---------------------------------------------------------------------
      1         11           0       -0.148614    1.323839    0.398966
      2         11           0        1.304710    4.306682   -0.312209
      3         11           0        2.930761    0.644318    0.122706
      4         11           0        0.843538   -2.245633    0.356545
      5         11           0       -2.630175   -0.893777    1.380141
      6         11           0        3.787383   -2.719430   -0.851760
      7         11           0       -6.087603   -0.415999   -1.094389
 ---------------------------------------------------------------------

 SCF Done:  E(UB3LYP) =  -1136.11921877     A.U. after   21 cycles

 The electronic state is 2-A.
 Alpha  occ. eigenvalues --  -38.44966 -38.44874 -38.44385 -38.44183 -38.44145
 Alpha  occ. eigenvalues --  -38.43453 -38.43241  -2.20791  -2.20651  -2.20159
 Alpha  occ. eigenvalues --   -2.20004  -2.19993  -2.19345  -2.19013  -1.14541
 Alpha  occ. eigenvalues --   -1.14490  -1.14345  -1.14278  -1.14278  -1.14249
 Alpha  occ. eigenvalues --   -1.13834  -1.13826  -1.13772  -1.13710  -1.13693
 Alpha  occ. eigenvalues --   -1.13688  -1.13656  -1.13638  -1.13543  -1.13082
 Alpha  occ. eigenvalues --   -1.13036  -1.12914  -1.12704  -1.12687  -1.12646
 Alpha  occ. eigenvalues --   -0.16850  -0.13180  -0.12798  -0.11096
 Alpha virt. eigenvalues --   -0.06492  -0.05259  -0.04632  -0.03930  -0.02559
 Alpha virt. eigenvalues --   -0.02193  -0.01938  -0.01682  -0.01589  -0.00919
 Alpha virt. eigenvalues --   -0.00480  -0.00086  -0.00036   0.00304   0.00543

  Beta  occ. eigenvalues --  -38.44964 -38.44723 -38.44377 -38.44167 -38.44130
  Beta  occ. eigenvalues --  -38.43441 -38.43252  -2.20788  -2.20369  -2.20144
  Beta  occ. eigenvalues --   -2.19975  -2.19968  -2.19324  -2.19038  -1.14532
  Beta  occ. eigenvalues --   -1.14488  -1.14343  -1.14087  -1.14087  -1.14061
  Beta  occ. eigenvalues --   -1.13824  -1.13815  -1.13763  -1.13691  -1.13677
  Beta  occ. eigenvalues --   -1.13672  -1.13636  -1.13616  -1.13515  -1.13072
  Beta  occ. eigenvalues --   -1.13023  -1.12888  -1.12724  -1.12707  -1.12633
  Beta  occ. eigenvalues --   -0.16596  -0.12902  -0.12106
  Beta virt. eigenvalues --   -0.07232  -0.06304  -0.04821  -0.04533  -0.03779
  Beta virt. eigenvalues --   -0.02486  -0.01798  -0.01668  -0.01346  -0.01068
  Beta virt. eigenvalues --   -0.00626  -0.00038   0.00033   0.00214   0.00498

 Mulliken charges and spin densities:
               1          2
     1  Na  -1.882471   0.064934
     2  Na   0.539651   0.027340
     3  Na  -0.258933   0.109061
     4  Na  -0.241207   0.052637
     5  Na   0.926187  -0.179791
     6  Na   0.800616   0.102062
     7  Na   0.116157   0.823756
 Sum of Mulliken charges =  -0.00000   1.00000

 Dipole moment (field-independent basis, Debye):
    X=              2.0334    Y=              0.2665    Z=             -0.4204  Tot=              2.0934
 Quadrupole moment (field-independent basis, Debye-Ang):
   XX=            -68.2265   YY=            -56.8869   ZZ=            -71.3858
   XY=             -3.1999   XZ=             -1.7895   YZ=             -0.1736

 Normal termination of Gaussian 16 at Wed Nov 29 00:28:33 2023.
