 Gaussian 16, Revision B.01,
 Gaussian 16:  ES64L-G16RevB.01 20-Dec-2017

 -------------------------
 #P B3LYP/6-311+g(d) force
 -------------------------

 -----
 DPGEN
 -----
 Symbolic Z-matrix:
 Charge =  0 Multiplicity = 2

                         Standard orientation:
 ---------------------------------------------------------------------
 Center     Atomic      Atomic             Coordinates (Angstroms)
 Number     Number       Type             X           Y           Z
 ---------------------------------------------------------------------
      1         11           0        0.330972   -0.752430    1.425853
      2         11           0        0.223361    1.946596   -0.186449
      3         11           0        3.262232    1.150712    0.544825
      4         11           0        2.780702   -1.472079   -0.782319
      5         11           0       -0.608205   -1.085099   -1.247154
      6         11           0       -2.948490    1.513004   -0.489416
      7         11           0       -3.040572   -1.300703    0.734660
 ---------------------------------------------------------------------

 SCF Done:  E(UB3LYP) =  -1136.11003315     A.U. after   27 cycles

 The electronic state is 2-A.
 Alpha  occ. eigenvalues --  -38.44730 -38.44513 -38.44441 -38.44426 -38.44240
 Alpha  occ. eigenvalues --  -38.43296 -38.42867  -2.20623  -2.20409  -2.20349
 Alpha  occ. eigenvalues --   -2.20307  -2.20236  -2.19326  -2.18812  -1.14383
 Alpha  occ. eigenvalues --   -1.14271  -1.14256  -1.14113  -1.14075  -1.14049
 Alpha  occ. eigenvalues --   -1.14042  -1.14027  -1.14007  -1.13988  -1.13960
 Alpha  occ. eigenvalues --   -1.13949  -1.13891  -1.13872  -1.13803  -1.13064
 Alpha  occ. eigenvalues --   -1.12952  -1.12900  -1.12535  -1.12461  -1.12430
 Alpha  occ. eigenvalues --   -0.19413  -0.14976  -0.11438  -0.10457
 Alpha virt. eigenvalues --   -0.07540  -0.05519  -0.04223  -0.03198  -0.03140
 Alpha virt. eigenvalues --   -0.02104  -0.01575  -0.01498  -0.00555  -0.00133
 Alpha virt. eigenvalues --    0.00051   0.00313   0.00501   0.00681   0.00725

  Beta  occ. eigenvalues --  -38.44714 -38.44488 -38.44419 -38.44410 -38.44202
  Beta  occ. eigenvalues --  -38.43249 -38.42849  -2.20595  -2.20366  -2.20301
  Beta  occ. eigenvalues --   -2.20289  -2.20170  -2.19244  -2.18786  -1.14362
  Beta  occ. eigenvalues --   -1.14254  -1.14224  -1.14089  -1.14037  -1.14012
  Beta  occ. eigenvalues --   -1.13999  -1.13990  -1.13969  -1.13963  -1.13929
  Beta  occ. eigenvalues --   -1.13923  -1.13870  -1.13822  -1.13748  -1.13013
  Beta  occ. eigenvalues --   -1.12870  -1.12836  -1.12524  -1.12430  -1.12385
  Beta  occ. eigenvalues --   -0.18764  -0.14704  -0.11087
  Beta virt. eigenvalues --   -0.07413  -0.06718  -0.05435  -0.03495  -0.03079
  Beta virt. eigenvalues --   -0.02967  -0.01523  -0.01374  -0.00839  -0.00233
  Beta virt. eigenvalues --   -0.00104   0.00107   0.00319   0.00595   0.00731

 Mulliken charges and spin densities:
               1          2
     1  Na  -0.560978   0.320374
     2  Na  -0.926687  -0.010823
     3  Na   1.022530   0.132981
     4  Na  -0.196220   0.009296
     5  Na  -0.001626   0.381087
     6  Na  -0.102868  -0.088179
     7  Na   0.765850   0.255264
 Sum of Mulliken charges =  -0.00000   1.00000

 Dipole moment (field-independent basis, Debye):
    X=              0.1620    Y=             -0.2050    Z=             -0.1078  Tot=              0.2826
 Quadrupole moment (field-independent basis, Debye-Ang):
   XX=            -41.9317   YY=            -76.7907   ZZ=            -74.0712
   XY=             -0.7627   XZ=             -0.3963   YZ=              0.3616

 Normal termination of Gaussian 16 at Tue Dec  5 16:24:53 2023.
