 Gaussian 16, Revision B.01,
 Gaussian 16:  ES64L-G16RevB.01 20-Dec-2017

 -------------------------
 #P B3LYP/6-311+g(d) force
 -------------------------

 -----
 DPGEN
 -----
 Symbolic Z-matrix:
 Charge =  0 Multiplicity = 2

                         Standard orientation:
 ---------------------------------------------------------------------
 Center     Atomic      Atomic             Coordinates (Angstroms)
 Number     Number       Type             X           Y           Z
 ---------------------------------------------------------------------
      1         11           0        0.017273   -0.001992   -1.425871
      2         11           0        3.503686   -0.184131   -0.087182
      3         11           0        0.832558   -2.660499   -0.054925
      4         11           0       -2.564832    1.644959   -0.209115
      5         11           0       -2.527996   -1.833025   -0.023495
      6         11           0       -0.105446    0.124417    1.832221
      7         11           0        0.844758    2.910271   -0.031634
 ---------------------------------------------------------------------

 SCF Done:  E(UB3LYP) =  -1136.13598529     A.U. after   19 cycles

 The electronic state is 2-A.
 Alpha  occ. eigenvalues --  -38.44575 -38.43836 -38.43679 -38.43659 -38.43389
 Alpha  occ. eigenvalues --  -38.42931 -38.42837  -2.20341  -2.19697  -2.19517
 Alpha  occ. eigenvalues --   -2.19510  -2.19277  -2.18882  -2.18877  -1.14018
 Alpha  occ. eigenvalues --   -1.13995  -1.13981  -1.13388  -1.13362  -1.13329
 Alpha  occ. eigenvalues --   -1.13199  -1.13188  -1.13182  -1.13176  -1.13165
 Alpha  occ. eigenvalues --   -1.13130  -1.13015  -1.12941  -1.12878  -1.12638
 Alpha  occ. eigenvalues --   -1.12526  -1.12514  -1.12494  -1.12488  -1.12474
 Alpha  occ. eigenvalues --   -0.18786  -0.12931  -0.12642  -0.10155
 Alpha virt. eigenvalues --   -0.06020  -0.05197  -0.04773  -0.02812  -0.02694
 Alpha virt. eigenvalues --   -0.02001  -0.01873  -0.01293  -0.00564  -0.00388
 Alpha virt. eigenvalues --    0.00022   0.00317   0.00755   0.00816   0.00880

  Beta  occ. eigenvalues --  -38.44576 -38.43826 -38.43674 -38.43654 -38.43381
  Beta  occ. eigenvalues --  -38.42839 -38.42780  -2.20345  -2.19683  -2.19511
  Beta  occ. eigenvalues --   -2.19505  -2.19266  -2.18776  -2.18711  -1.14008
  Beta  occ. eigenvalues --   -1.14000  -1.13985  -1.13378  -1.13331  -1.13319
  Beta  occ. eigenvalues --   -1.13195  -1.13184  -1.13166  -1.13155  -1.13145
  Beta  occ. eigenvalues --   -1.13131  -1.13004  -1.12905  -1.12876  -1.12546
  Beta  occ. eigenvalues --   -1.12444  -1.12422  -1.12402  -1.12373  -1.12363
  Beta  occ. eigenvalues --   -0.18067  -0.12701  -0.12386
  Beta virt. eigenvalues --   -0.06269  -0.05979  -0.05195  -0.04755  -0.02098
  Beta virt. eigenvalues --   -0.01908  -0.01812  -0.01229  -0.00964  -0.00611
  Beta virt. eigenvalues --   -0.00430   0.00169   0.00359   0.00788   0.00817

 Mulliken charges and spin densities:
               1          2
     1  Na  -0.569808   0.485917
     2  Na   0.022600  -0.090783
     3  Na   0.237754  -0.049986
     4  Na   0.319162  -0.005519
     5  Na   0.303286   0.012711
     6  Na  -0.379503   0.769469
     7  Na   0.066509  -0.121809
 Sum of Mulliken charges =  -0.00000   1.00000

 Dipole moment (field-independent basis, Debye):
    X=              0.2759    Y=              0.1645    Z=              0.1306  Tot=              0.3467
 Quadrupole moment (field-independent basis, Debye-Ang):
   XX=            -52.0417   YY=            -60.5572   ZZ=            -77.6419
   XY=              0.7427   XZ=              0.2512   YZ=             -0.3431

 Normal termination of Gaussian 16 at Fri Dec  8 02:46:52 2023.
