 Gaussian 16, Revision B.01,
 Gaussian 16:  ES64L-G16RevB.01 20-Dec-2017

 -------------------------
 #P B3LYP/6-311+g(d) force
 -------------------------

 -----
 DPGEN
 -----
 Symbolic Z-matrix:
 Charge =  0 Multiplicity = 2

                         Standard orientation:
 ---------------------------------------------------------------------
 Center     Atomic      Atomic             Coordinates (Angstroms)
 Number     Number       Type             X           Y           Z
 ---------------------------------------------------------------------
      1         11           0       -1.088845   -2.472920   -0.172458
      2         11           0        0.046621    0.006161    1.663483
      3         11           0        2.569066   -1.758870    0.077655
      4         11           0        0.363867    0.053589   -1.630893
      5         11           0       -1.140204    2.559566   -0.155865
      6         11           0       -3.272612   -0.113522    0.103394
      7         11           0        2.522107    1.725997    0.114684
 ---------------------------------------------------------------------

 SCF Done:  E(UB3LYP) =  -1136.13638031     A.U. after   20 cycles

 The electronic state is 2-A.
 Alpha  occ. eigenvalues --  -38.44307 -38.43946 -38.43899 -38.43203 -38.43128
 Alpha  occ. eigenvalues --  -38.42984 -38.42845  -2.20148  -2.19816  -2.19758
 Alpha  occ. eigenvalues --   -2.19081  -2.19032  -2.18992  -2.18878  -1.13821
 Alpha  occ. eigenvalues --   -1.13808  -1.13795  -1.13511  -1.13489  -1.13452
 Alpha  occ. eigenvalues --   -1.13430  -1.13418  -1.13382  -1.12802  -1.12772
 Alpha  occ. eigenvalues --   -1.12759  -1.12713  -1.12701  -1.12679  -1.12653
 Alpha  occ. eigenvalues --   -1.12598  -1.12593  -1.12546  -1.12495  -1.12483
 Alpha  occ. eigenvalues --   -0.19159  -0.13470  -0.12385  -0.10393
 Alpha virt. eigenvalues --   -0.05910  -0.05392  -0.04291  -0.03155  -0.02591
 Alpha virt. eigenvalues --   -0.02056  -0.01809  -0.01220  -0.00354  -0.00150
 Alpha virt. eigenvalues --    0.00029   0.00338   0.00761   0.00872   0.00914

  Beta  occ. eigenvalues --  -38.44306 -38.43938 -38.43893 -38.43196 -38.43119
  Beta  occ. eigenvalues --  -38.42910 -38.42767  -2.20149  -2.19806  -2.19751
  Beta  occ. eigenvalues --   -2.19072  -2.19021  -2.18856  -2.18738  -1.13826
  Beta  occ. eigenvalues --   -1.13798  -1.13788  -1.13506  -1.13454  -1.13447
  Beta  occ. eigenvalues --   -1.13418  -1.13396  -1.13378  -1.12787  -1.12751
  Beta  occ. eigenvalues --   -1.12720  -1.12698  -1.12666  -1.12651  -1.12601
  Beta  occ. eigenvalues --   -1.12510  -1.12494  -1.12451  -1.12397  -1.12382
  Beta  occ. eigenvalues --   -0.18437  -0.13224  -0.12105
  Beta virt. eigenvalues --   -0.06476  -0.05866  -0.05402  -0.04297  -0.02362
  Beta virt. eigenvalues --   -0.01805  -0.01721  -0.01173  -0.01029  -0.00399
  Beta virt. eigenvalues --   -0.00199   0.00165   0.00373   0.00808   0.00871

 Mulliken charges and spin densities:
               1          2
     1  Na   0.243105  -0.086782
     2  Na  -0.496734   0.712217
     3  Na   0.225157  -0.072687
     4  Na  -0.407430   0.676423
     5  Na   0.187984  -0.110182
     6  Na   0.015058  -0.034357
     7  Na   0.232861  -0.084632
 Sum of Mulliken charges =  -0.00000   1.00000

 Dipole moment (field-independent basis, Debye):
    X=              0.1099    Y=              0.0467    Z=              0.0704  Tot=              0.1386
 Quadrupole moment (field-independent basis, Debye-Ang):
   XX=            -51.1679   YY=            -63.7030   ZZ=            -76.4169
   XY=             -0.3227   XZ=              0.5212   YZ=              0.0941

 Normal termination of Gaussian 16 at Sat Dec  9 06:20:44 2023.
