 Gaussian 16, Revision B.01,
 Gaussian 16:  ES64L-G16RevB.01 20-Dec-2017

 -------------------------
 #P B3LYP/6-311+g(d) force
 -------------------------

 -----
 DPGEN
 -----
 Symbolic Z-matrix:
 Charge =  0 Multiplicity = 2

                         Standard orientation:
 ---------------------------------------------------------------------
 Center     Atomic      Atomic             Coordinates (Angstroms)
 Number     Number       Type             X           Y           Z
 ---------------------------------------------------------------------
      1         11           0       -1.622358    3.733358   -0.341872
      2         11           0       -3.341363   -2.361815    0.459730
      3         11           0       -0.141416   -3.439252   -0.324052
      4         11           0       -4.506859    0.625458   -0.212998
      5         11           0        3.543247   -2.726490    0.261743
      6         11           0        4.038404    0.843749   -0.633142
      7         11           0        2.030344    3.324992    0.790590
 ---------------------------------------------------------------------

 SCF Done:  E(UB3LYP) =  -1136.10082361     A.U. after   29 cycles

 The electronic state is 2-A.
 Alpha  occ. eigenvalues --  -38.45426 -38.45235 -38.45105 -38.44533 -38.44484
 Alpha  occ. eigenvalues --  -38.44425 -38.44194  -2.21145  -2.21008  -2.20836
 Alpha  occ. eigenvalues --   -2.20304  -2.20280  -2.20185  -2.19981  -1.14837
 Alpha  occ. eigenvalues --   -1.14817  -1.14791  -1.14671  -1.14663  -1.14645
 Alpha  occ. eigenvalues --   -1.14528  -1.14519  -1.14476  -1.13978  -1.13967
 Alpha  occ. eigenvalues --   -1.13953  -1.13945  -1.13937  -1.13894  -1.13841
 Alpha  occ. eigenvalues --   -1.13828  -1.13802  -1.13640  -1.13630  -1.13602
 Alpha  occ. eigenvalues --   -0.15197  -0.13876  -0.13194  -0.10663
 Alpha virt. eigenvalues --   -0.08223  -0.05099  -0.04656  -0.03487  -0.03299
 Alpha virt. eigenvalues --   -0.02692  -0.02329  -0.02005  -0.01462  -0.00764
 Alpha virt. eigenvalues --   -0.00484  -0.00187  -0.00119   0.00008   0.00268

  Beta  occ. eigenvalues --  -38.45447 -38.45194 -38.45120 -38.44482 -38.44472
  Beta  occ. eigenvalues --  -38.44343 -38.44135  -2.21188  -2.20935  -2.20868
  Beta  occ. eigenvalues --   -2.20263  -2.20210  -2.20032  -2.19870  -1.14869
  Beta  occ. eigenvalues --   -1.14848  -1.14798  -1.14623  -1.14616  -1.14576
  Beta  occ. eigenvalues --   -1.14554  -1.14544  -1.14464  -1.13945  -1.13940
  Beta  occ. eigenvalues --   -1.13913  -1.13900  -1.13892  -1.13841  -1.13737
  Beta  occ. eigenvalues --   -1.13725  -1.13698  -1.13563  -1.13556  -1.13535
  Beta  occ. eigenvalues --   -0.14693  -0.13313  -0.12407
  Beta virt. eigenvalues --   -0.08369  -0.07546  -0.04647  -0.04160  -0.03314
  Beta virt. eigenvalues --   -0.02959  -0.02503  -0.02128  -0.01894  -0.01312
  Beta virt. eigenvalues --   -0.00367  -0.00322  -0.00118   0.00016   0.00251

 Mulliken charges and spin densities:
               1          2
     1  Na   0.040302   0.442631
     2  Na   0.105779   0.027571
     3  Na  -0.281403   0.265457
     4  Na   0.156619   0.213085
     5  Na   0.165965  -0.122102
     6  Na  -0.145736   0.290086
     7  Na  -0.041526  -0.116727
 Sum of Mulliken charges =  -0.00000   1.00000

 Dipole moment (field-independent basis, Debye):
    X=             -0.0482    Y=             -0.3530    Z=              0.1324  Tot=              0.3801
 Quadrupole moment (field-independent basis, Debye-Ang):
   XX=            -59.7046   YY=            -68.2642   ZZ=            -72.0774
   XY=             -4.3242   XZ=              1.9704   YZ=             -0.5923

 Normal termination of Gaussian 16 at Sun Dec  3 16:08:55 2023.
