 Gaussian 16, Revision B.01,
 Gaussian 16:  ES64L-G16RevB.01 20-Dec-2017

 -------------------------
 #P B3LYP/6-311+g(d) force
 -------------------------

 -----
 DPGEN
 -----
 Symbolic Z-matrix:
 Charge =  0 Multiplicity = 2

                         Standard orientation:
 ---------------------------------------------------------------------
 Center     Atomic      Atomic             Coordinates (Angstroms)
 Number     Number       Type             X           Y           Z
 ---------------------------------------------------------------------
      1         11           0       -2.933750   -2.504898   -1.221932
      2         11           0       -1.745324    1.364784   -1.159305
      3         11           0        5.423577    1.413661   -0.409163
      4         11           0        4.122821   -1.043379    0.474621
      5         11           0        0.306247   -2.188483    0.221831
      6         11           0       -2.584690   -0.776232    1.715771
      7         11           0       -2.588880    3.734547    0.378178
 ---------------------------------------------------------------------

 SCF Done:  E(UB3LYP) =  -1136.10614017     A.U. after   22 cycles

 The electronic state is 2-A.
 Alpha  occ. eigenvalues --  -38.47057 -38.44604 -38.44257 -38.43859 -38.43798
 Alpha  occ. eigenvalues --  -38.43402 -38.43128  -2.22835  -2.20451  -2.20099
 Alpha  occ. eigenvalues --   -2.19695  -2.19615  -2.19236  -2.18946  -1.16520
 Alpha  occ. eigenvalues --   -1.16497  -1.16454  -1.14158  -1.14111  -1.14090
 Alpha  occ. eigenvalues --   -1.13766  -1.13747  -1.13709  -1.13373  -1.13362
 Alpha  occ. eigenvalues --   -1.13286  -1.13284  -1.13259  -1.13251  -1.12996
 Alpha  occ. eigenvalues --   -1.12865  -1.12863  -1.12605  -1.12596  -1.12567
 Alpha  occ. eigenvalues --   -0.17113  -0.13290  -0.12555  -0.10134
 Alpha virt. eigenvalues --   -0.07504  -0.05708  -0.04756  -0.03051  -0.02756
 Alpha virt. eigenvalues --   -0.02394  -0.02060  -0.01898  -0.01559  -0.00992
 Alpha virt. eigenvalues --   -0.00719  -0.00133   0.00019   0.00345   0.00611

  Beta  occ. eigenvalues --  -38.47058 -38.44602 -38.44191 -38.43801 -38.43785
  Beta  occ. eigenvalues --  -38.43357 -38.43132  -2.22841  -2.20448  -2.19977
  Beta  occ. eigenvalues --   -2.19620  -2.19560  -2.19150  -2.18959  -1.16509
  Beta  occ. eigenvalues --   -1.16486  -1.16463  -1.14156  -1.14103  -1.14087
  Beta  occ. eigenvalues --   -1.13680  -1.13657  -1.13631  -1.13290  -1.13277
  Beta  occ. eigenvalues --   -1.13268  -1.13262  -1.13254  -1.13189  -1.12950
  Beta  occ. eigenvalues --   -1.12806  -1.12803  -1.12619  -1.12607  -1.12531
  Beta  occ. eigenvalues --   -0.16631  -0.12801  -0.12372
  Beta virt. eigenvalues --   -0.07265  -0.06615  -0.05471  -0.04288  -0.03015
  Beta virt. eigenvalues --   -0.02393  -0.02305  -0.01722  -0.01624  -0.01322
  Beta virt. eigenvalues --   -0.00577  -0.00482   0.00016   0.00225   0.00463

 Mulliken charges and spin densities:
               1          2
     1  Na   0.635962   0.488632
     2  Na  -0.347394   0.069014
     3  Na   0.045060   0.182384
     4  Na  -0.496113  -0.040429
     5  Na  -0.360754   0.288129
     6  Na   0.281672   0.065495
     7  Na   0.241569  -0.053224
 Sum of Mulliken charges =  -0.00000   1.00000

 Dipole moment (field-independent basis, Debye):
    X=             -2.9149    Y=              0.0497    Z=              0.8092  Tot=              3.0256
 Quadrupole moment (field-independent basis, Debye-Ang):
   XX=            -77.5277   YY=            -65.8327   ZZ=            -62.7623
   XY=              2.8848   XZ=             -8.6523   YZ=              1.7043

 Normal termination of Gaussian 16 at Sun Dec  3 14:35:20 2023.
