 Gaussian 16, Revision B.01,
 Gaussian 16:  ES64L-G16RevB.01 20-Dec-2017

 -------------------------
 #P B3LYP/6-311+g(d) force
 -------------------------

 -----
 DPGEN
 -----
 Symbolic Z-matrix:
 Charge =  0 Multiplicity = 2

                         Standard orientation:
 ---------------------------------------------------------------------
 Center     Atomic      Atomic             Coordinates (Angstroms)
 Number     Number       Type             X           Y           Z
 ---------------------------------------------------------------------
      1         11           0        0.048771    0.063943   -1.782543
      2         11           0        0.069558   -0.060838    1.814359
      3         11           0       -3.054951   -0.351856   -0.030110
      4         11           0       -1.112842    2.728831    0.085449
      5         11           0        2.129638    1.884518   -0.065522
      6         11           0       -0.519586   -2.822827   -0.052772
      7         11           0        2.439412   -1.441771    0.031139
 ---------------------------------------------------------------------

 SCF Done:  E(UB3LYP) =  -1136.14107116     A.U. after   19 cycles

 The electronic state is 2-A.
 Alpha  occ. eigenvalues --  -38.43665 -38.43572 -38.43454 -38.43350 -38.43304
 Alpha  occ. eigenvalues --  -38.43195 -38.43156  -2.19492  -2.19434  -2.19344
 Alpha  occ. eigenvalues --   -2.19264  -2.19229  -2.19178  -2.19148  -1.13166
 Alpha  occ. eigenvalues --   -1.13162  -1.13141  -1.13121  -1.13106  -1.13067
 Alpha  occ. eigenvalues --   -1.13058  -1.13016  -1.12997  -1.12984  -1.12944
 Alpha  occ. eigenvalues --   -1.12914  -1.12903  -1.12888  -1.12842  -1.12831
 Alpha  occ. eigenvalues --   -1.12808  -1.12789  -1.12780  -1.12761  -1.12755
 Alpha  occ. eigenvalues --   -0.19232  -0.12960  -0.12830  -0.10828
 Alpha virt. eigenvalues --   -0.05273  -0.04956  -0.04904  -0.03082  -0.02992
 Alpha virt. eigenvalues --   -0.02474  -0.01214  -0.01174  -0.00219  -0.00116
 Alpha virt. eigenvalues --    0.00013   0.00375   0.00903   0.00911   0.00945

  Beta  occ. eigenvalues --  -38.43664 -38.43567 -38.43448 -38.43343 -38.43296
  Beta  occ. eigenvalues --  -38.43112 -38.43075  -2.19492  -2.19429  -2.19337
  Beta  occ. eigenvalues --   -2.19254  -2.19219  -2.19026  -2.19001  -1.13164
  Beta  occ. eigenvalues --   -1.13146  -1.13143  -1.13119  -1.13076  -1.13069
  Beta  occ. eigenvalues --   -1.13051  -1.12986  -1.12983  -1.12977  -1.12914
  Beta  occ. eigenvalues --   -1.12892  -1.12885  -1.12850  -1.12829  -1.12753
  Beta  occ. eigenvalues --   -1.12713  -1.12684  -1.12677  -1.12659  -1.12651
  Beta  occ. eigenvalues --   -0.18475  -0.12688  -0.12572
  Beta virt. eigenvalues --   -0.06874  -0.05285  -0.04930  -0.04898  -0.02241
  Beta virt. eigenvalues --   -0.02185  -0.01412  -0.01140  -0.01100  -0.00277
  Beta virt. eigenvalues --   -0.00183   0.00136   0.00389   0.00903   0.00930

 Mulliken charges and spin densities:
               1          2
     1  Na  -0.417907   0.705178
     2  Na  -0.439533   0.728878
     3  Na  -0.023015  -0.137396
     4  Na   0.059085  -0.120061
     5  Na   0.315522  -0.050068
     6  Na   0.142237  -0.096599
     7  Na   0.363610  -0.029932
 Sum of Mulliken charges =  -0.00000   1.00000

 Dipole moment (field-independent basis, Debye):
    X=             -0.2126    Y=              0.0517    Z=              0.0170  Tot=              0.2195
 Quadrupole moment (field-independent basis, Debye-Ang):
   XX=            -59.3960   YY=            -59.9868   ZZ=            -74.0446
   XY=             -0.0735   XZ=             -0.0528   YZ=              0.3018

 Normal termination of Gaussian 16 at Wed Dec  6 01:09:44 2023.
