 Gaussian 16, Revision B.01,
 Gaussian 16:  ES64L-G16RevB.01 20-Dec-2017

 -------------------------
 #P B3LYP/6-311+g(d) force
 -------------------------

 -----
 DPGEN
 -----
 Symbolic Z-matrix:
 Charge =  0 Multiplicity = 2

                         Standard orientation:
 ---------------------------------------------------------------------
 Center     Atomic      Atomic             Coordinates (Angstroms)
 Number     Number       Type             X           Y           Z
 ---------------------------------------------------------------------
      1         11           0       -0.302871   -1.497769   -1.225998
      2         11           0       -3.585874   -1.660216    0.469280
      3         11           0        3.599912   -2.081707   -0.589215
      4         11           0       -0.266105   -0.280252    2.286680
      5         11           0       -2.746865    1.314774   -1.089899
      6         11           0        2.982703    1.232191    0.375311
      7         11           0        0.319100    2.972978   -0.226159
 ---------------------------------------------------------------------

 SCF Done:  E(UB3LYP) =  -1136.12019350     A.U. after   22 cycles

 The electronic state is 2-A.
 Alpha  occ. eigenvalues --  -38.45184 -38.45130 -38.44704 -38.44451 -38.44251
 Alpha  occ. eigenvalues --  -38.43730 -38.42761  -2.20964  -2.20896  -2.20501
 Alpha  occ. eigenvalues --   -2.20256  -2.20071  -2.19499  -2.18573  -1.14643
 Alpha  occ. eigenvalues --   -1.14621  -1.14609  -1.14596  -1.14586  -1.14484
 Alpha  occ. eigenvalues --   -1.14161  -1.14138  -1.14099  -1.13948  -1.13925
 Alpha  occ. eigenvalues --   -1.13887  -1.13751  -1.13723  -1.13686  -1.13166
 Alpha  occ. eigenvalues --   -1.13161  -1.13132  -1.12257  -1.12230  -1.12226
 Alpha  occ. eigenvalues --   -0.17335  -0.13602  -0.11705  -0.10785
 Alpha virt. eigenvalues --   -0.06853  -0.06066  -0.04598  -0.03310  -0.02757
 Alpha virt. eigenvalues --   -0.02499  -0.02441  -0.01649  -0.00908  -0.00434
 Alpha virt. eigenvalues --   -0.00270   0.00120   0.00334   0.00447   0.00571

  Beta  occ. eigenvalues --  -38.45181 -38.45117 -38.44593 -38.44453 -38.44207
  Beta  occ. eigenvalues --  -38.43716 -38.42764  -2.20960  -2.20874  -2.20295
  Beta  occ. eigenvalues --   -2.20261  -2.19990  -2.19474  -2.18580  -1.14643
  Beta  occ. eigenvalues --   -1.14603  -1.14595  -1.14582  -1.14561  -1.14471
  Beta  occ. eigenvalues --   -1.14022  -1.14001  -1.13953  -1.13950  -1.13920
  Beta  occ. eigenvalues --   -1.13890  -1.13690  -1.13670  -1.13630  -1.13147
  Beta  occ. eigenvalues --   -1.13144  -1.13116  -1.12264  -1.12236  -1.12216
  Beta  occ. eigenvalues --   -0.16701  -0.13441  -0.11442
  Beta virt. eigenvalues --   -0.07129  -0.06707  -0.05709  -0.04274  -0.02925
  Beta virt. eigenvalues --   -0.02414  -0.02107  -0.01796  -0.01390  -0.00828
  Beta virt. eigenvalues --   -0.00254  -0.00167   0.00199   0.00469   0.00623

 Mulliken charges and spin densities:
               1          2
     1  Na  -0.505625   0.173354
     2  Na   0.548588   0.033282
     3  Na   0.126617   0.063254
     4  Na  -0.171183   0.557859
     5  Na   0.088778   0.193968
     6  Na   0.059910  -0.000197
     7  Na  -0.147085  -0.021520
 Sum of Mulliken charges =  -0.00000   1.00000

 Dipole moment (field-independent basis, Debye):
    X=             -1.1565    Y=             -0.7663    Z=              0.3032  Tot=              1.4201
 Quadrupole moment (field-independent basis, Debye-Ang):
   XX=            -52.5070   YY=            -71.2125   ZZ=            -73.3961
   XY=              4.0682   XZ=              0.1619   YZ=             -0.1994

 Normal termination of Gaussian 16 at Fri Dec  8 03:28:02 2023.
