 Gaussian 16, Revision B.01,
 Gaussian 16:  ES64L-G16RevB.01 20-Dec-2017

 -------------------------
 #P B3LYP/6-311+g(d) force
 -------------------------

 -----
 DPGEN
 -----
 Symbolic Z-matrix:
 Charge =  0 Multiplicity = 2

                         Standard orientation:
 ---------------------------------------------------------------------
 Center     Atomic      Atomic             Coordinates (Angstroms)
 Number     Number       Type             X           Y           Z
 ---------------------------------------------------------------------
      1         11           0        1.462521    2.127317    0.180398
      2         11           0       -0.786051    0.020619    1.145421
      3         11           0       -1.271856   -2.852576   -0.152549
      4         11           0        1.937943   -1.251426   -0.838940
      5         11           0        4.584440   -0.250886    0.225201
      6         11           0       -3.894240   -0.719028    0.054522
      7         11           0       -2.032757    2.925980   -0.614053
 ---------------------------------------------------------------------

 SCF Done:  E(UB3LYP) =  -1136.12583764     A.U. after   20 cycles

 The electronic state is 2-A.
 Alpha  occ. eigenvalues --  -38.44293 -38.44032 -38.43868 -38.43783 -38.43732
 Alpha  occ. eigenvalues --  -38.43684 -38.43479  -2.20057  -2.19876  -2.19827
 Alpha  occ. eigenvalues --   -2.19672  -2.19576  -2.19539  -2.19340  -1.13745
 Alpha  occ. eigenvalues --   -1.13718  -1.13694  -1.13629  -1.13568  -1.13521
 Alpha  occ. eigenvalues --   -1.13494  -1.13461  -1.13433  -1.13423  -1.13333
 Alpha  occ. eigenvalues --   -1.13329  -1.13238  -1.13217  -1.13194  -1.13167
 Alpha  occ. eigenvalues --   -1.13166  -1.13121  -1.13011  -1.13000  -1.12965
 Alpha  occ. eigenvalues --   -0.17679  -0.14115  -0.12440  -0.10259
 Alpha virt. eigenvalues --   -0.06372  -0.05357  -0.04812  -0.03331  -0.02883
 Alpha virt. eigenvalues --   -0.02304  -0.01810  -0.01024  -0.00754  -0.00624
 Alpha virt. eigenvalues --   -0.00381  -0.00078   0.00542   0.00607   0.00712

  Beta  occ. eigenvalues --  -38.44300 -38.44019 -38.43841 -38.43768 -38.43663
  Beta  occ. eigenvalues --  -38.43605 -38.43466  -2.20071  -2.19854  -2.19783
  Beta  occ. eigenvalues --   -2.19654  -2.19446  -2.19392  -2.19319  -1.13757
  Beta  occ. eigenvalues --   -1.13727  -1.13689  -1.13597  -1.13554  -1.13496
  Beta  occ. eigenvalues --   -1.13453  -1.13431  -1.13404  -1.13383  -1.13325
  Beta  occ. eigenvalues --   -1.13288  -1.13149  -1.13136  -1.13105  -1.13069
  Beta  occ. eigenvalues --   -1.13064  -1.13035  -1.12999  -1.12986  -1.12925
  Beta  occ. eigenvalues --   -0.17115  -0.13434  -0.12194
  Beta virt. eigenvalues --   -0.06818  -0.06193  -0.05211  -0.04397  -0.02738
  Beta virt. eigenvalues --   -0.02584  -0.02196  -0.01386  -0.00872  -0.00634
  Beta virt. eigenvalues --   -0.00396  -0.00039   0.00214   0.00681   0.00734

 Mulliken charges and spin densities:
               1          2
     1  Na   0.020213  -0.026714
     2  Na   0.175236   0.028602
     3  Na   0.107220   0.005246
     4  Na  -0.566665   0.118319
     5  Na   0.401862   0.385348
     6  Na   0.021290   0.490198
     7  Na  -0.159154  -0.000999
 Sum of Mulliken charges =  -0.00000   1.00000

 Dipole moment (field-independent basis, Debye):
    X=             -0.2636    Y=              0.3431    Z=             -0.2497  Tot=              0.4995
 Quadrupole moment (field-independent basis, Debye-Ang):
   XX=            -70.5552   YY=            -63.9576   ZZ=            -67.3417
   XY=              1.0404   XZ=              3.3595   YZ=             -0.2295

 Normal termination of Gaussian 16 at Wed Nov 29 02:43:31 2023.
