 Gaussian 16, Revision B.01,
 Gaussian 16:  ES64L-G16RevB.01 20-Dec-2017

 -------------------------
 #P B3LYP/6-311+g(d) force
 -------------------------

 -----
 DPGEN
 -----
 Symbolic Z-matrix:
 Charge =  0 Multiplicity = 2

                         Standard orientation:
 ---------------------------------------------------------------------
 Center     Atomic      Atomic             Coordinates (Angstroms)
 Number     Number       Type             X           Y           Z
 ---------------------------------------------------------------------
      1         11           0       -2.642379    1.960493   -0.399470
      2         11           0        0.052527   -0.183463    1.483170
      3         11           0       -3.519070   -1.490883    1.061517
      4         11           0        2.495550   -2.141713   -0.825011
      5         11           0       -0.830746   -1.249629   -1.553206
      6         11           0        3.846861    0.737168    0.994419
      7         11           0        0.597257    2.368027   -0.761419
 ---------------------------------------------------------------------

 SCF Done:  E(UB3LYP) =  -1136.12507566     A.U. after   22 cycles

 The electronic state is 2-A.
 Alpha  occ. eigenvalues --  -38.45155 -38.44513 -38.44182 -38.44093 -38.43864
 Alpha  occ. eigenvalues --  -38.43711 -38.42890  -2.20988  -2.20293  -2.19999
 Alpha  occ. eigenvalues --   -2.19887  -2.19661  -2.19574  -2.18729  -1.14721
 Alpha  occ. eigenvalues --   -1.14645  -1.14588  -1.13960  -1.13937  -1.13914
 Alpha  occ. eigenvalues --   -1.13682  -1.13660  -1.13629  -1.13562  -1.13548
 Alpha  occ. eigenvalues --   -1.13520  -1.13324  -1.13313  -1.13284  -1.13277
 Alpha  occ. eigenvalues --   -1.13208  -1.13183  -1.12422  -1.12395  -1.12352
 Alpha  occ. eigenvalues --   -0.17753  -0.13616  -0.11611  -0.10736
 Alpha virt. eigenvalues --   -0.06690  -0.05554  -0.04600  -0.03228  -0.02743
 Alpha virt. eigenvalues --   -0.02607  -0.01981  -0.01500  -0.00902  -0.00412
 Alpha virt. eigenvalues --    0.00015   0.00072   0.00336   0.00471   0.00614

  Beta  occ. eigenvalues --  -38.45142 -38.44467 -38.44178 -38.44071 -38.43818
  Beta  occ. eigenvalues --  -38.43660 -38.42884  -2.20964  -2.20207  -2.19993
  Beta  occ. eigenvalues --   -2.19849  -2.19575  -2.19481  -2.18721  -1.14688
  Beta  occ. eigenvalues --   -1.14636  -1.14570  -1.13899  -1.13879  -1.13859
  Beta  occ. eigenvalues --   -1.13675  -1.13653  -1.13619  -1.13537  -1.13517
  Beta  occ. eigenvalues --   -1.13478  -1.13263  -1.13252  -1.13230  -1.13219
  Beta  occ. eigenvalues --   -1.13139  -1.13104  -1.12419  -1.12384  -1.12336
  Beta  occ. eigenvalues --   -0.17231  -0.13171  -0.11227
  Beta virt. eigenvalues --   -0.07299  -0.06475  -0.05401  -0.04105  -0.02995
  Beta virt. eigenvalues --   -0.02411  -0.02131  -0.01428  -0.01342  -0.00618
  Beta virt. eigenvalues --   -0.00294   0.00077   0.00167   0.00461   0.00622

 Mulliken charges and spin densities:
               1          2
     1  Na   0.162010   0.019106
     2  Na  -0.717476   0.165226
     3  Na   0.388386   0.246488
     4  Na  -0.146646   0.071905
     5  Na   0.008445   0.270915
     6  Na   0.580184   0.259938
     7  Na  -0.274904  -0.033578
 Sum of Mulliken charges =  -0.00000   1.00000

 Dipole moment (field-independent basis, Debye):
    X=              0.0986    Y=              0.0029    Z=             -0.0642  Tot=              0.1177
 Quadrupole moment (field-independent basis, Debye-Ang):
   XX=            -52.1223   YY=            -73.8139   ZZ=            -70.0187
   XY=             -1.8576   XZ=              0.5062   YZ=              0.1330

 Normal termination of Gaussian 16 at Sun Dec  3 22:18:50 2023.
