 Gaussian 16, Revision B.01,
 Gaussian 16:  ES64L-G16RevB.01 20-Dec-2017

 -------------------------
 #P B3LYP/6-311+g(d) force
 -------------------------

 -----
 DPGEN
 -----
 Symbolic Z-matrix:
 Charge =  0 Multiplicity = 2

                         Standard orientation:
 ---------------------------------------------------------------------
 Center     Atomic      Atomic             Coordinates (Angstroms)
 Number     Number       Type             X           Y           Z
 ---------------------------------------------------------------------
      1         11           0       -1.395090   -1.924029    0.642333
      2         11           0        3.776936   -0.572486   -1.748916
      3         11           0       -1.949492    2.132882   -0.612634
      4         11           0        1.457568    2.542054    1.345734
      5         11           0        0.931172   -0.400812   -1.458140
      6         11           0        1.893890   -1.222190    2.169763
      7         11           0       -4.714986   -0.555418   -0.338139
 ---------------------------------------------------------------------

 SCF Done:  E(UB3LYP) =  -1136.10720627     A.U. after   27 cycles

 The electronic state is 2-A.
 Alpha  occ. eigenvalues --  -38.45179 -38.45178 -38.45173 -38.44642 -38.44062
 Alpha  occ. eigenvalues --  -38.43688 -38.43317  -2.21023  -2.20967  -2.20912
 Alpha  occ. eigenvalues --   -2.20531  -2.19858  -2.19438  -2.19079  -1.14806
 Alpha  occ. eigenvalues --   -1.14631  -1.14628  -1.14621  -1.14598  -1.14594
 Alpha  occ. eigenvalues --   -1.14587  -1.14575  -1.14544  -1.14220  -1.14162
 Alpha  occ. eigenvalues --   -1.14129  -1.13564  -1.13534  -1.13449  -1.13147
 Alpha  occ. eigenvalues --   -1.13120  -1.13041  -1.12756  -1.12735  -1.12705
 Alpha  occ. eigenvalues --   -0.17183  -0.13447  -0.11955  -0.10970
 Alpha virt. eigenvalues --   -0.07297  -0.05405  -0.04349  -0.03178  -0.02955
 Alpha virt. eigenvalues --   -0.02866  -0.02607  -0.01451  -0.01224  -0.00504
 Alpha virt. eigenvalues --   -0.00235   0.00077   0.00129   0.00510   0.00706

  Beta  occ. eigenvalues --  -38.45189 -38.45103 -38.45092 -38.44612 -38.44033
  Beta  occ. eigenvalues --  -38.43695 -38.43292  -2.20931  -2.20886  -2.20818
  Beta  occ. eigenvalues --   -2.20482  -2.19807  -2.19451  -2.19032  -1.14707
  Beta  occ. eigenvalues --   -1.14607  -1.14588  -1.14557  -1.14538  -1.14528
  Beta  occ. eigenvalues --   -1.14520  -1.14496  -1.14480  -1.14152  -1.14125
  Beta  occ. eigenvalues --   -1.14101  -1.13533  -1.13499  -1.13399  -1.13155
  Beta  occ. eigenvalues --   -1.13129  -1.13053  -1.12718  -1.12704  -1.12677
  Beta  occ. eigenvalues --   -0.16484  -0.13115  -0.10769
  Beta virt. eigenvalues --   -0.08093  -0.07051  -0.05122  -0.03994  -0.02908
  Beta virt. eigenvalues --   -0.02690  -0.02288  -0.02111  -0.01158  -0.01032
  Beta virt. eigenvalues --   -0.00383  -0.00123   0.00177   0.00252   0.00635

 Mulliken charges and spin densities:
               1          2
     1  Na  -0.055245   0.279357
     2  Na   0.432850   0.186123
     3  Na   0.067374  -0.083159
     4  Na  -0.248830   0.183245
     5  Na  -0.558318   0.239311
     6  Na   0.187244   0.220334
     7  Na   0.174925  -0.025211
 Sum of Mulliken charges =  -0.00000   1.00000

 Dipole moment (field-independent basis, Debye):
    X=              0.2623    Y=             -0.6691    Z=              0.1512  Tot=              0.7345
 Quadrupole moment (field-independent basis, Debye-Ang):
   XX=            -45.1341   YY=            -79.3783   ZZ=            -68.7598
   XY=             -0.5150   XZ=              3.5643   YZ=             -2.1663

 Normal termination of Gaussian 16 at Sun Dec  3 12:27:45 2023.
