 Gaussian 16, Revision B.01,
 Gaussian 16:  ES64L-G16RevB.01 20-Dec-2017

 -------------------------
 #P B3LYP/6-311+g(d) force
 -------------------------

 -----
 DPGEN
 -----
 Symbolic Z-matrix:
 Charge =  0 Multiplicity = 2

                         Standard orientation:
 ---------------------------------------------------------------------
 Center     Atomic      Atomic             Coordinates (Angstroms)
 Number     Number       Type             X           Y           Z
 ---------------------------------------------------------------------
      1         11           0        0.069399   -2.787209    1.102755
      2         11           0       -3.451309   -0.598808   -0.824016
      3         11           0        2.802154   -1.288238   -1.343930
      4         11           0        2.265133    2.201023   -0.107013
      5         11           0        0.245076    0.298576    2.261924
      6         11           0       -1.411183    2.458702    0.036289
      7         11           0       -0.519270   -0.284046   -1.126009
 ---------------------------------------------------------------------

 SCF Done:  E(UB3LYP) =  -1136.12864586     A.U. after   21 cycles

 The electronic state is 2-A.
 Alpha  occ. eigenvalues --  -38.44272 -38.44114 -38.44042 -38.43679 -38.43576
 Alpha  occ. eigenvalues --  -38.43549 -38.42929  -2.20161  -2.19914  -2.19871
 Alpha  occ. eigenvalues --   -2.19478  -2.19410  -2.19407  -2.18965  -1.13833
 Alpha  occ. eigenvalues --   -1.13799  -1.13768  -1.13605  -1.13593  -1.13550
 Alpha  occ. eigenvalues --   -1.13532  -1.13505  -1.13484  -1.13165  -1.13152
 Alpha  occ. eigenvalues --   -1.13136  -1.13110  -1.13098  -1.13091  -1.13057
 Alpha  occ. eigenvalues --   -1.13027  -1.12991  -1.12656  -1.12610  -1.12590
 Alpha  occ. eigenvalues --   -0.18210  -0.12780  -0.12152  -0.11491
 Alpha virt. eigenvalues --   -0.05490  -0.05017  -0.04574  -0.03272  -0.03126
 Alpha virt. eigenvalues --   -0.02793  -0.01607  -0.01080  -0.00519  -0.00040
 Alpha virt. eigenvalues --    0.00081   0.00297   0.00752   0.00778   0.00855

  Beta  occ. eigenvalues --  -38.44176 -38.44067 -38.44027 -38.43679 -38.43547
  Beta  occ. eigenvalues --  -38.43547 -38.42904  -2.19985  -2.19845  -2.19827
  Beta  occ. eigenvalues --   -2.19480  -2.19408  -2.19357  -2.18922  -1.13717
  Beta  occ. eigenvalues --   -1.13683  -1.13628  -1.13581  -1.13528  -1.13494
  Beta  occ. eigenvalues --   -1.13487  -1.13474  -1.13468  -1.13163  -1.13152
  Beta  occ. eigenvalues --   -1.13136  -1.13100  -1.13078  -1.13055  -1.13013
  Beta  occ. eigenvalues --   -1.12993  -1.12987  -1.12609  -1.12581  -1.12562
  Beta  occ. eigenvalues --   -0.17546  -0.12348  -0.11930
  Beta virt. eigenvalues --   -0.07695  -0.05355  -0.04752  -0.04400  -0.02699
  Beta virt. eigenvalues --   -0.02594  -0.01939  -0.01463  -0.01020  -0.00264
  Beta virt. eigenvalues --    0.00010   0.00139   0.00349   0.00815   0.00881

 Mulliken charges and spin densities:
               1          2
     1  Na  -0.099001   0.233773
     2  Na   0.502009   0.080218
     3  Na   0.499583   0.103918
     4  Na  -0.034623   0.063190
     5  Na  -0.011144   0.362429
     6  Na  -0.115319   0.061307
     7  Na  -0.741505   0.095165
 Sum of Mulliken charges =  -0.00000   1.00000

 Dipole moment (field-independent basis, Debye):
    X=             -0.0516    Y=              0.0298    Z=              0.3250  Tot=              0.3304
 Quadrupole moment (field-independent basis, Debye-Ang):
   XX=            -58.2737   YY=            -64.5841   ZZ=            -70.1759
   XY=              0.5857   XZ=             -1.7062   YZ=             -0.0403

 Normal termination of Gaussian 16 at Mon Dec  4 04:21:04 2023.
