 Gaussian 16, Revision B.01,
 Gaussian 16:  ES64L-G16RevB.01 20-Dec-2017

 -------------------------
 #P B3LYP/6-311+g(d) force
 -------------------------

 -----
 DPGEN
 -----
 Symbolic Z-matrix:
 Charge =  0 Multiplicity = 2

                         Standard orientation:
 ---------------------------------------------------------------------
 Center     Atomic      Atomic             Coordinates (Angstroms)
 Number     Number       Type             X           Y           Z
 ---------------------------------------------------------------------
      1         11           0       -2.215485    1.962017   -0.118368
      2         11           0       -0.274011   -0.051802   -1.595174
      3         11           0        0.593220   -2.309164    0.163659
      4         11           0       -2.770895   -1.558547   -0.174878
      5         11           0       -0.181698    0.276425    2.098577
      6         11           0        1.530848    2.318580   -0.190604
      7         11           0        3.318020   -0.637509   -0.183211
 ---------------------------------------------------------------------

 SCF Done:  E(UB3LYP) =  -1136.13375083     A.U. after   19 cycles

 The electronic state is 2-A.
 Alpha  occ. eigenvalues --  -38.44291 -38.43895 -38.43662 -38.43628 -38.43326
 Alpha  occ. eigenvalues --  -38.43324 -38.42863  -2.20116  -2.19751  -2.19543
 Alpha  occ. eigenvalues --   -2.19533  -2.19370  -2.19187  -2.18815  -1.13793
 Alpha  occ. eigenvalues --   -1.13774  -1.13760  -1.13444  -1.13403  -1.13395
 Alpha  occ. eigenvalues --   -1.13259  -1.13226  -1.13210  -1.13161  -1.13149
 Alpha  occ. eigenvalues --   -1.13140  -1.13094  -1.13017  -1.12975  -1.12860
 Alpha  occ. eigenvalues --   -1.12854  -1.12801  -1.12515  -1.12475  -1.12413
 Alpha  occ. eigenvalues --   -0.19070  -0.13320  -0.12216  -0.10959
 Alpha virt. eigenvalues --   -0.05886  -0.05289  -0.03946  -0.03239  -0.02832
 Alpha virt. eigenvalues --   -0.02642  -0.01812  -0.01144  -0.00185  -0.00065
 Alpha virt. eigenvalues --    0.00079   0.00318   0.00749   0.00882   0.00957

  Beta  occ. eigenvalues --  -38.44291 -38.43891 -38.43654 -38.43524 -38.43320
  Beta  occ. eigenvalues --  -38.43263 -38.42850  -2.20119  -2.19746  -2.19524
  Beta  occ. eigenvalues --   -2.19352  -2.19259  -2.19178  -2.18797  -1.13797
  Beta  occ. eigenvalues --   -1.13765  -1.13760  -1.13433  -1.13396  -1.13382
  Beta  occ. eigenvalues --   -1.13242  -1.13177  -1.13144  -1.13091  -1.13024
  Beta  occ. eigenvalues --   -1.13023  -1.13016  -1.12952  -1.12902  -1.12839
  Beta  occ. eigenvalues --   -1.12823  -1.12798  -1.12502  -1.12422  -1.12408
  Beta  occ. eigenvalues --   -0.18321  -0.13090  -0.11957
  Beta virt. eigenvalues --   -0.06971  -0.05820  -0.05297  -0.03948  -0.02478
  Beta virt. eigenvalues --   -0.01991  -0.01732  -0.01544  -0.01107  -0.00235
  Beta virt. eigenvalues --    0.00033   0.00108   0.00344   0.00807   0.00872

 Mulliken charges and spin densities:
               1          2
     1  Na   0.341763  -0.061101
     2  Na  -0.798032   0.412923
     3  Na   0.537202   0.087929
     4  Na   0.388200  -0.012971
     5  Na  -0.679549   0.674271
     6  Na   0.306613  -0.040101
     7  Na  -0.096197  -0.060950
 Sum of Mulliken charges =  -0.00000   1.00000

 Dipole moment (field-independent basis, Debye):
    X=             -0.0536    Y=              0.1408    Z=              0.1769  Tot=              0.2324
 Quadrupole moment (field-independent basis, Debye-Ang):
   XX=            -52.0092   YY=            -67.5262   ZZ=            -73.3797
   XY=              0.3676   XZ=             -0.3619   YZ=             -0.4479

 Normal termination of Gaussian 16 at Fri Dec  8 07:36:47 2023.
