 Gaussian 16, Revision B.01,
 Gaussian 16:  ES64L-G16RevB.01 20-Dec-2017

 -------------------------
 #P B3LYP/6-311+g(d) force
 -------------------------

 -----
 DPGEN
 -----
 Symbolic Z-matrix:
 Charge =  0 Multiplicity = 2

                         Standard orientation:
 ---------------------------------------------------------------------
 Center     Atomic      Atomic             Coordinates (Angstroms)
 Number     Number       Type             X           Y           Z
 ---------------------------------------------------------------------
      1         11           0        0.004568   -1.410214   -1.523440
      2         11           0        4.038555   -0.328749   -0.129569
      3         11           0       -1.722980    0.993297    2.265635
      4         11           0        1.240423    1.931117   -0.086629
      5         11           0       -1.729262    1.827074   -1.655193
      6         11           0        0.862699   -1.210705    1.327388
      7         11           0       -2.694001   -1.801820   -0.198192
 ---------------------------------------------------------------------

 SCF Done:  E(UB3LYP) =  -1136.12566199     A.U. after   21 cycles

 The electronic state is 2-A.
 Alpha  occ. eigenvalues --  -38.44696 -38.44444 -38.43929 -38.43735 -38.43681
 Alpha  occ. eigenvalues --  -38.43584 -38.42981  -2.20465  -2.20262  -2.19847
 Alpha  occ. eigenvalues --   -2.19620  -2.19573  -2.19411  -2.18839  -1.14141
 Alpha  occ. eigenvalues --   -1.14129  -1.14090  -1.13937  -1.13899  -1.13863
 Alpha  occ. eigenvalues --   -1.13648  -1.13513  -1.13426  -1.13376  -1.13278
 Alpha  occ. eigenvalues --   -1.13244  -1.13215  -1.13205  -1.13140  -1.13092
 Alpha  occ. eigenvalues --   -1.13047  -1.13036  -1.12547  -1.12528  -1.12434
 Alpha  occ. eigenvalues --   -0.18332  -0.13096  -0.11886  -0.11384
 Alpha virt. eigenvalues --   -0.06382  -0.04647  -0.04217  -0.03329  -0.03182
 Alpha virt. eigenvalues --   -0.02866  -0.02211  -0.00882  -0.00737   0.00123
 Alpha virt. eigenvalues --    0.00182   0.00305   0.00338   0.00863   0.00877

  Beta  occ. eigenvalues --  -38.44699 -38.44360 -38.43894 -38.43731 -38.43646
  Beta  occ. eigenvalues --  -38.43540 -38.42975  -2.20472  -2.20108  -2.19787
  Beta  occ. eigenvalues --   -2.19573  -2.19553  -2.19331  -2.18832  -1.14143
  Beta  occ. eigenvalues --   -1.14134  -1.14094  -1.13821  -1.13796  -1.13758
  Beta  occ. eigenvalues --   -1.13606  -1.13461  -1.13381  -1.13350  -1.13239
  Beta  occ. eigenvalues --   -1.13216  -1.13197  -1.13172  -1.13113  -1.13029
  Beta  occ. eigenvalues --   -1.12993  -1.12980  -1.12545  -1.12497  -1.12435
  Beta  occ. eigenvalues --   -0.17568  -0.12915  -0.11203
  Beta virt. eigenvalues --   -0.07784  -0.06266  -0.04554  -0.03618  -0.03097
  Beta virt. eigenvalues --   -0.02533  -0.02163  -0.01977  -0.00814  -0.00352
  Beta virt. eigenvalues --    0.00162   0.00217   0.00316   0.00501   0.00891

 Mulliken charges and spin densities:
               1          2
     1  Na   0.276689   0.546720
     2  Na   0.285697  -0.074544
     3  Na   0.062485   0.339672
     4  Na  -0.309340   0.040857
     5  Na  -0.171981   0.050861
     6  Na  -0.184387   0.299456
     7  Na   0.040837  -0.203020
 Sum of Mulliken charges =  -0.00000   1.00000

 Dipole moment (field-independent basis, Debye):
    X=              0.3415    Y=             -0.0896    Z=              0.1072  Tot=              0.3689
 Quadrupole moment (field-independent basis, Debye-Ang):
   XX=            -50.0197   YY=            -76.9700   ZZ=            -66.3207
   XY=             -0.6401   XZ=             -1.8998   YZ=             -0.5251

 Normal termination of Gaussian 16 at Mon Dec  4 03:28:36 2023.
