 Gaussian 16, Revision B.01,
 Gaussian 16:  ES64L-G16RevB.01 20-Dec-2017

 -------------------------
 #P B3LYP/6-311+g(d) force
 -------------------------

 -----
 DPGEN
 -----
 Symbolic Z-matrix:
 Charge =  0 Multiplicity = 2

                         Standard orientation:
 ---------------------------------------------------------------------
 Center     Atomic      Atomic             Coordinates (Angstroms)
 Number     Number       Type             X           Y           Z
 ---------------------------------------------------------------------
      1         11           0        0.461106   -2.567064    1.669431
      2         11           0       -3.718501    0.270069   -1.089659
      3         11           0       -0.416338    0.612622    2.846952
      4         11           0       -1.169158   -1.764385   -1.359699
      5         11           0        2.387984   -1.359866   -1.326574
      6         11           0       -0.551740    3.043611   -0.047218
      7         11           0        3.006648    1.765013   -0.693233
 ---------------------------------------------------------------------

 SCF Done:  E(UB3LYP) =  -1136.11640902     A.U. after   23 cycles

 The electronic state is 2-A.
 Alpha  occ. eigenvalues --  -38.45756 -38.44649 -38.44353 -38.44097 -38.43831
 Alpha  occ. eigenvalues --  -38.43810 -38.43722  -2.21539  -2.20460  -2.20130
 Alpha  occ. eigenvalues --   -2.19833  -2.19660  -2.19588  -2.19542  -1.15193
 Alpha  occ. eigenvalues --   -1.15179  -1.15146  -1.14134  -1.14117  -1.14074
 Alpha  occ. eigenvalues --   -1.13808  -1.13785  -1.13754  -1.13516  -1.13508
 Alpha  occ. eigenvalues --   -1.13465  -1.13345  -1.13327  -1.13304  -1.13282
 Alpha  occ. eigenvalues --   -1.13260  -1.13224  -1.13218  -1.13188  -1.13140
 Alpha  occ. eigenvalues --   -0.16873  -0.12508  -0.12481  -0.12131
 Alpha virt. eigenvalues --   -0.06063  -0.05382  -0.04880  -0.03577  -0.03291
 Alpha virt. eigenvalues --   -0.03205  -0.01412  -0.00971  -0.00737  -0.00486
 Alpha virt. eigenvalues --   -0.00244   0.00171   0.00279   0.00455   0.00630

  Beta  occ. eigenvalues --  -38.45652 -38.44603 -38.44320 -38.44102 -38.43809
  Beta  occ. eigenvalues --  -38.43806 -38.43706  -2.21348  -2.20377  -2.20069
  Beta  occ. eigenvalues --   -2.19843  -2.19621  -2.19582  -2.19512  -1.15062
  Beta  occ. eigenvalues --   -1.15054  -1.15001  -1.14071  -1.14065  -1.14004
  Beta  occ. eigenvalues --   -1.13759  -1.13745  -1.13714  -1.13516  -1.13514
  Beta  occ. eigenvalues --   -1.13476  -1.13317  -1.13304  -1.13292  -1.13255
  Beta  occ. eigenvalues --   -1.13247  -1.13218  -1.13197  -1.13172  -1.13123
  Beta  occ. eigenvalues --   -0.16146  -0.12115  -0.12001
  Beta virt. eigenvalues --   -0.08585  -0.05668  -0.04933  -0.04648  -0.03324
  Beta virt. eigenvalues --   -0.02829  -0.02535  -0.01274  -0.00911  -0.00497
  Beta virt. eigenvalues --   -0.00302  -0.00173   0.00337   0.00485   0.00557

 Mulliken charges and spin densities:
               1          2
     1  Na   0.139741   0.101085
     2  Na   0.177795   0.064343
     3  Na   0.096078   0.493568
     4  Na  -0.221160   0.238642
     5  Na   0.108985   0.089305
     6  Na  -0.328131   0.040846
     7  Na   0.026692  -0.027788
 Sum of Mulliken charges =  -0.00000   1.00000

 Dipole moment (field-independent basis, Debye):
    X=             -0.3032    Y=             -0.1849    Z=              0.8049  Tot=              0.8797
 Quadrupole moment (field-independent basis, Debye-Ang):
   XX=            -65.8741   YY=            -68.0429   ZZ=            -65.5175
   XY=             -2.4548   XZ=              0.4781   YZ=             -1.4238

 Normal termination of Gaussian 16 at Sun Dec  3 22:59:32 2023.
