 Gaussian 16, Revision B.01,
 Gaussian 16:  ES64L-G16RevB.01 20-Dec-2017

 -------------------------
 #P B3LYP/6-311+g(d) force
 -------------------------

 -----
 DPGEN
 -----
 Symbolic Z-matrix:
 Charge =  0 Multiplicity = 2

                         Standard orientation:
 ---------------------------------------------------------------------
 Center     Atomic      Atomic             Coordinates (Angstroms)
 Number     Number       Type             X           Y           Z
 ---------------------------------------------------------------------
      1         11           0        2.305028    2.166002   -0.202098
      2         11           0       -0.379740   -0.123251    1.737143
      3         11           0        2.628358   -1.632097    0.308736
      4         11           0       -0.798744   -2.873542   -0.154842
      5         11           0       -3.053831    0.044684   -0.278552
      6         11           0        0.349417   -0.263042   -1.530026
      7         11           0       -1.050489    2.681246    0.119638
 ---------------------------------------------------------------------

 SCF Done:  E(UB3LYP) =  -1136.13806188     A.U. after   20 cycles

 The electronic state is 2-A.
 Alpha  occ. eigenvalues --  -38.44010 -38.43755 -38.43734 -38.43703 -38.43459
 Alpha  occ. eigenvalues --  -38.42957 -38.42823  -2.19845  -2.19630  -2.19564
 Alpha  occ. eigenvalues --   -2.19558  -2.19340  -2.18935  -2.18841  -1.13535
 Alpha  occ. eigenvalues --   -1.13509  -1.13471  -1.13335  -1.13301  -1.13249
 Alpha  occ. eigenvalues --   -1.13244  -1.13240  -1.13230  -1.13220  -1.13201
 Alpha  occ. eigenvalues --   -1.13198  -1.13029  -1.13000  -1.12964  -1.12643
 Alpha  occ. eigenvalues --   -1.12561  -1.12544  -1.12517  -1.12469  -1.12460
 Alpha  occ. eigenvalues --   -0.18907  -0.12997  -0.12811  -0.10277
 Alpha virt. eigenvalues --   -0.05585  -0.05172  -0.05024  -0.02981  -0.02790
 Alpha virt. eigenvalues --   -0.02002  -0.01457  -0.01356  -0.00463  -0.00373
 Alpha virt. eigenvalues --    0.00045   0.00356   0.00822   0.00880   0.00887

  Beta  occ. eigenvalues --  -38.44002 -38.43745 -38.43731 -38.43696 -38.43453
  Beta  occ. eigenvalues --  -38.42878 -38.42761  -2.19834  -2.19616  -2.19556
  Beta  occ. eigenvalues --   -2.19554  -2.19332  -2.18789  -2.18728  -1.13526
  Beta  occ. eigenvalues --   -1.13483  -1.13465  -1.13325  -1.13268  -1.13242
  Beta  occ. eigenvalues --   -1.13236  -1.13233  -1.13209  -1.13208  -1.13197
  Beta  occ. eigenvalues --   -1.13183  -1.13019  -1.12978  -1.12958  -1.12548
  Beta  occ. eigenvalues --   -1.12458  -1.12441  -1.12428  -1.12390  -1.12373
  Beta  occ. eigenvalues --   -0.18201  -0.12746  -0.12558
  Beta virt. eigenvalues --   -0.06407  -0.05571  -0.05125  -0.04996  -0.02198
  Beta virt. eigenvalues --   -0.02054  -0.01368  -0.01289  -0.01002  -0.00507
  Beta virt. eigenvalues --   -0.00418   0.00178   0.00393   0.00834   0.00885

 Mulliken charges and spin densities:
               1          2
     1  Na   0.042378  -0.074281
     2  Na  -0.268200   0.663519
     3  Na   0.058319  -0.050577
     4  Na   0.264143  -0.035900
     5  Na   0.119611  -0.024933
     6  Na  -0.363600   0.557887
     7  Na   0.147349  -0.035714
 Sum of Mulliken charges =  -0.00000   1.00000

 Dipole moment (field-independent basis, Debye):
    X=              0.1408    Y=             -0.2011    Z=              0.0696  Tot=              0.2552
 Quadrupole moment (field-independent basis, Debye-Ang):
   XX=            -56.3677   YY=            -58.4411   ZZ=            -76.6998
   XY=              0.0591   XZ=              1.7100   YZ=             -0.3551

 Normal termination of Gaussian 16 at Thu Dec  7 23:35:55 2023.
