 Gaussian 16, Revision B.01,
 Gaussian 16:  ES64L-G16RevB.01 20-Dec-2017

 -------------------------
 #P B3LYP/6-311+g(d) force
 -------------------------

 -----
 DPGEN
 -----
 Symbolic Z-matrix:
 Charge =  0 Multiplicity = 2

                         Standard orientation:
 ---------------------------------------------------------------------
 Center     Atomic      Atomic             Coordinates (Angstroms)
 Number     Number       Type             X           Y           Z
 ---------------------------------------------------------------------
      1         11           0        0.092002    0.146749    1.766151
      2         11           0       -2.137964   -0.429199   -1.733734
      3         11           0        1.832496    1.829495   -0.786420
      4         11           0        3.542448   -1.324710    0.359182
      5         11           0       -2.979665   -1.289107    1.121288
      6         11           0       -0.710899    3.559759    0.090150
      7         11           0        0.361583   -2.492987   -0.816617
 ---------------------------------------------------------------------

 SCF Done:  E(UB3LYP) =  -1136.12881267     A.U. after   19 cycles

 The electronic state is 2-A.
 Alpha  occ. eigenvalues --  -38.44185 -38.44099 -38.43913 -38.43907 -38.43866
 Alpha  occ. eigenvalues --  -38.43835 -38.43675  -2.20005  -2.19947  -2.19774
 Alpha  occ. eigenvalues --   -2.19739  -2.19729  -2.19615  -2.19470  -1.13706
 Alpha  occ. eigenvalues --   -1.13684  -1.13657  -1.13613  -1.13607  -1.13580
 Alpha  occ. eigenvalues --   -1.13467  -1.13436  -1.13414  -1.13396  -1.13392
 Alpha  occ. eigenvalues --   -1.13391  -1.13372  -1.13356  -1.13339  -1.13286
 Alpha  occ. eigenvalues --   -1.13279  -1.13249  -1.13131  -1.13121  -1.13107
 Alpha  occ. eigenvalues --   -0.17652  -0.13181  -0.12255  -0.10697
 Alpha virt. eigenvalues --   -0.05938  -0.05312  -0.04812  -0.03661  -0.02773
 Alpha virt. eigenvalues --   -0.02517  -0.01795  -0.01393  -0.00669  -0.00220
 Alpha virt. eigenvalues --   -0.00018   0.00311   0.00443   0.00685   0.00790

  Beta  occ. eigenvalues --  -38.44159 -38.44072 -38.43898 -38.43842 -38.43837
  Beta  occ. eigenvalues --  -38.43817 -38.43675  -2.19960  -2.19901  -2.19724
  Beta  occ. eigenvalues --   -2.19646  -2.19637  -2.19619  -2.19472  -1.13674
  Beta  occ. eigenvalues --   -1.13636  -1.13624  -1.13580  -1.13559  -1.13542
  Beta  occ. eigenvalues --   -1.13429  -1.13395  -1.13372  -1.13363  -1.13322
  Beta  occ. eigenvalues --   -1.13311  -1.13295  -1.13294  -1.13286  -1.13279
  Beta  occ. eigenvalues --   -1.13276  -1.13251  -1.13124  -1.13123  -1.13109
  Beta  occ. eigenvalues --   -0.16987  -0.12972  -0.12131
  Beta virt. eigenvalues --   -0.06821  -0.05823  -0.05264  -0.04517  -0.03111
  Beta virt. eigenvalues --   -0.02276  -0.01754  -0.01571  -0.01338  -0.00468
  Beta virt. eigenvalues --   -0.00110   0.00079   0.00369   0.00617   0.00727

 Mulliken charges and spin densities:
               1          2
     1  Na   0.086621   0.546566
     2  Na   0.168008   0.456766
     3  Na  -0.209125   0.071429
     4  Na   0.332988  -0.030377
     5  Na  -0.009948  -0.065140
     6  Na  -0.022677  -0.069810
     7  Na  -0.345868   0.090567
 Sum of Mulliken charges =  -0.00000   1.00000

 Dipole moment (field-independent basis, Debye):
    X=             -0.1028    Y=             -0.0484    Z=              0.0146  Tot=              0.1146
 Quadrupole moment (field-independent basis, Debye-Ang):
   XX=            -57.2249   YY=            -65.5766   ZZ=            -72.5363
   XY=             -1.8912   XZ=             -1.0114   YZ=             -1.0881

 Normal termination of Gaussian 16 at Sun Dec  3 11:41:49 2023.
