 Gaussian 16, Revision B.01,
 Gaussian 16:  ES64L-G16RevB.01 20-Dec-2017

 -------------------------
 #P B3LYP/6-311+g(d) force
 -------------------------

 -----
 DPGEN
 -----
 Symbolic Z-matrix:
 Charge =  0 Multiplicity = 2

                         Standard orientation:
 ---------------------------------------------------------------------
 Center     Atomic      Atomic             Coordinates (Angstroms)
 Number     Number       Type             X           Y           Z
 ---------------------------------------------------------------------
      1         11           0       -2.535360   -0.930968   -1.572169
      2         11           0        3.673021    1.381287   -0.890986
      3         11           0        1.058506   -1.668058   -1.219906
      4         11           0       -1.314305   -1.681617    1.500570
      5         11           0       -3.502199    2.003921    0.398471
      6         11           0        0.206221    1.368680    0.163606
      7         11           0        2.414115   -0.473244    1.620414
 ---------------------------------------------------------------------

 SCF Done:  E(UB3LYP) =  -1136.12586960     A.U. after   22 cycles

 The electronic state is 2-A.
 Alpha  occ. eigenvalues --  -38.44314 -38.44312 -38.44276 -38.44085 -38.43885
 Alpha  occ. eigenvalues --  -38.43458 -38.43335  -2.20214  -2.20144  -2.20090
 Alpha  occ. eigenvalues --   -2.19963  -2.19721  -2.19335  -2.19106  -1.13929
 Alpha  occ. eigenvalues --   -1.13883  -1.13835  -1.13824  -1.13806  -1.13754
 Alpha  occ. eigenvalues --   -1.13742  -1.13742  -1.13706  -1.13681  -1.13650
 Alpha  occ. eigenvalues --   -1.13546  -1.13398  -1.13379  -1.13343  -1.13040
 Alpha  occ. eigenvalues --   -1.12997  -1.12929  -1.12777  -1.12773  -1.12742
 Alpha  occ. eigenvalues --   -0.18259  -0.13963  -0.11078  -0.10867
 Alpha virt. eigenvalues --   -0.06311  -0.05610  -0.05118  -0.03079  -0.02491
 Alpha virt. eigenvalues --   -0.02352  -0.02108  -0.01336  -0.00883  -0.00276
 Alpha virt. eigenvalues --    0.00108   0.00126   0.00302   0.00399   0.00573

  Beta  occ. eigenvalues --  -38.44275 -38.44275 -38.44256 -38.44067 -38.43861
  Beta  occ. eigenvalues --  -38.43424 -38.43334  -2.20145  -2.20074  -2.20052
  Beta  occ. eigenvalues --   -2.19935  -2.19680  -2.19275  -2.19106  -1.13881
  Beta  occ. eigenvalues --   -1.13833  -1.13786  -1.13773  -1.13762  -1.13724
  Beta  occ. eigenvalues --   -1.13709  -1.13686  -1.13675  -1.13645  -1.13615
  Beta  occ. eigenvalues --   -1.13531  -1.13369  -1.13329  -1.13317  -1.13001
  Beta  occ. eigenvalues --   -1.12935  -1.12886  -1.12776  -1.12771  -1.12742
  Beta  occ. eigenvalues --   -0.17578  -0.13764  -0.10867
  Beta virt. eigenvalues --   -0.07130  -0.06120  -0.05515  -0.04456  -0.02820
  Beta virt. eigenvalues --   -0.02315  -0.01941  -0.01539  -0.01091  -0.00429
  Beta virt. eigenvalues --   -0.00183   0.00171   0.00224   0.00374   0.00481

 Mulliken charges and spin densities:
               1          2
     1  Na   0.282174   0.114547
     2  Na   0.696891   0.103347
     3  Na  -0.286048   0.304892
     4  Na   0.097311   0.194823
     5  Na   0.077041  -0.033379
     6  Na  -1.493362   0.205966
     7  Na   0.625993   0.109805
 Sum of Mulliken charges =  -0.00000   1.00000

 Dipole moment (field-independent basis, Debye):
    X=              0.7580    Y=             -0.6608    Z=              0.1224  Tot=              1.0130
 Quadrupole moment (field-independent basis, Debye-Ang):
   XX=            -52.8684   YY=            -74.2048   ZZ=            -67.6545
   XY=              2.8462   XZ=             -0.4612   YZ=             -1.2627

 Normal termination of Gaussian 16 at Tue Dec  5 16:03:20 2023.
