 Gaussian 16, Revision B.01,
 Gaussian 16:  ES64L-G16RevB.01 20-Dec-2017

 -------------------------
 #P B3LYP/6-311+g(d) force
 -------------------------

 -----
 DPGEN
 -----
 Symbolic Z-matrix:
 Charge =  0 Multiplicity = 2

                         Standard orientation:
 ---------------------------------------------------------------------
 Center     Atomic      Atomic             Coordinates (Angstroms)
 Number     Number       Type             X           Y           Z
 ---------------------------------------------------------------------
      1         11           0        1.712387    2.029649   -0.481200
      2         11           0       -2.931053   -1.221821   -0.266011
      3         11           0        0.114893    0.217340    1.656493
      4         11           0       -1.594176    2.779989    0.333024
      5         11           0        2.963131   -0.985305    0.048384
      6         11           0       -0.093544   -2.744801    0.255967
      7         11           0       -0.171638   -0.075050   -1.546658
 ---------------------------------------------------------------------

 SCF Done:  E(UB3LYP) =  -1136.13470843     A.U. after   21 cycles

 The electronic state is 2-A.
 Alpha  occ. eigenvalues --  -38.43878 -38.43715 -38.43504 -38.43442 -38.43424
 Alpha  occ. eigenvalues --  -38.43001 -38.42987  -2.19725  -2.19544  -2.19396
 Alpha  occ. eigenvalues --   -2.19370  -2.19343  -2.19044  -2.19019  -1.13415
 Alpha  occ. eigenvalues --   -1.13387  -1.13359  -1.13225  -1.13203  -1.13188
 Alpha  occ. eigenvalues --   -1.13162  -1.13085  -1.13067  -1.13044  -1.13032
 Alpha  occ. eigenvalues --   -1.13021  -1.13016  -1.12957  -1.12943  -1.12782
 Alpha  occ. eigenvalues --   -1.12669  -1.12666  -1.12644  -1.12635  -1.12611
 Alpha  occ. eigenvalues --   -0.19199  -0.13144  -0.12724  -0.10512
 Alpha virt. eigenvalues --   -0.05359  -0.05236  -0.04747  -0.03018  -0.02792
 Alpha virt. eigenvalues --   -0.02078  -0.01527  -0.01329  -0.00264  -0.00103
 Alpha virt. eigenvalues --    0.00060   0.00336   0.00822   0.00870   0.00934

  Beta  occ. eigenvalues --  -38.43872 -38.43707 -38.43501 -38.43422 -38.43413
  Beta  occ. eigenvalues --  -38.42926 -38.42918  -2.19716  -2.19531  -2.19368
  Beta  occ. eigenvalues --   -2.19364  -2.19328  -2.18919  -2.18883  -1.13403
  Beta  occ. eigenvalues --   -1.13377  -1.13348  -1.13207  -1.13188  -1.13177
  Beta  occ. eigenvalues --   -1.13138  -1.13064  -1.13060  -1.13021  -1.13005
  Beta  occ. eigenvalues --   -1.13002  -1.12980  -1.12942  -1.12930  -1.12697
  Beta  occ. eigenvalues --   -1.12577  -1.12576  -1.12553  -1.12545  -1.12508
  Beta  occ. eigenvalues --   -0.18495  -0.12855  -0.12450
  Beta virt. eigenvalues --   -0.06611  -0.05315  -0.05197  -0.04731  -0.02232
  Beta virt. eigenvalues --   -0.02079  -0.01440  -0.01237  -0.01082  -0.00282
  Beta virt. eigenvalues --   -0.00115   0.00170   0.00371   0.00853   0.00870

 Mulliken charges and spin densities:
               1          2
     1  Na   0.397108   0.076577
     2  Na   0.066311  -0.074101
     3  Na  -0.345504   0.673515
     4  Na  -0.025421  -0.053179
     5  Na   0.032693  -0.050888
     6  Na   0.139222  -0.004033
     7  Na  -0.264409   0.432109
 Sum of Mulliken charges =  -0.00000   1.00000

 Dipole moment (field-independent basis, Debye):
    X=             -0.2857    Y=              0.0145    Z=              0.0869  Tot=              0.2990
 Quadrupole moment (field-independent basis, Debye-Ang):
   XX=            -55.9772   YY=            -59.8458   ZZ=            -75.7846
   XY=             -1.3483   XZ=             -0.4548   YZ=             -0.5861

 Normal termination of Gaussian 16 at Fri Dec  8 02:28:58 2023.
