 Gaussian 16, Revision B.01,
 Gaussian 16:  ES64L-G16RevB.01 20-Dec-2017

 -------------------------
 #P B3LYP/6-311+g(d) force
 -------------------------

 -----
 DPGEN
 -----
 Symbolic Z-matrix:
 Charge =  0 Multiplicity = 2

                         Standard orientation:
 ---------------------------------------------------------------------
 Center     Atomic      Atomic             Coordinates (Angstroms)
 Number     Number       Type             X           Y           Z
 ---------------------------------------------------------------------
      1         11           0        2.387015   -2.144306   -1.093228
      2         11           0       -0.735876   -0.652566   -0.745965
      3         11           0       -3.040039    1.532138   -0.298509
      4         11           0       -3.567349   -1.764404    0.264916
      5         11           0        0.163772    2.658899   -0.065654
      6         11           0        3.405451    1.017037   -0.287219
      7         11           0        1.387026   -0.646798    2.225658
 ---------------------------------------------------------------------

 SCF Done:  E(UB3LYP) =  -1136.11979646     A.U. after   25 cycles

 The electronic state is 2-A.
 Alpha  occ. eigenvalues --  -38.45452 -38.44792 -38.44371 -38.43975 -38.43763
 Alpha  occ. eigenvalues --  -38.43602 -38.42626  -2.21251  -2.20599  -2.20230
 Alpha  occ. eigenvalues --   -2.19909  -2.19596  -2.19445  -2.18451  -1.14927
 Alpha  occ. eigenvalues --   -1.14899  -1.14895  -1.14278  -1.14259  -1.14249
 Alpha  occ. eigenvalues --   -1.13936  -1.13899  -1.13838  -1.13611  -1.13564
 Alpha  occ. eigenvalues --   -1.13547  -1.13267  -1.13240  -1.13225  -1.13100
 Alpha  occ. eigenvalues --   -1.13069  -1.13057  -1.12145  -1.12119  -1.12085
 Alpha  occ. eigenvalues --   -0.17824  -0.14353  -0.11534  -0.10214
 Alpha virt. eigenvalues --   -0.07209  -0.05968  -0.04114  -0.03419  -0.02722
 Alpha virt. eigenvalues --   -0.02202  -0.02101  -0.01739  -0.00936  -0.00303
 Alpha virt. eigenvalues --   -0.00274   0.00090   0.00379   0.00544   0.00613

  Beta  occ. eigenvalues --  -38.45433 -38.44802 -38.44371 -38.43964 -38.43720
  Beta  occ. eigenvalues --  -38.43493 -38.42626  -2.21220  -2.20619  -2.20230
  Beta  occ. eigenvalues --   -2.19892  -2.19519  -2.19243  -2.18453  -1.14894
  Beta  occ. eigenvalues --   -1.14879  -1.14858  -1.14292  -1.14273  -1.14259
  Beta  occ. eigenvalues --   -1.13934  -1.13896  -1.13845  -1.13572  -1.13555
  Beta  occ. eigenvalues --   -1.13540  -1.13214  -1.13184  -1.13162  -1.12961
  Beta  occ. eigenvalues --   -1.12928  -1.12920  -1.12148  -1.12112  -1.12083
  Beta  occ. eigenvalues --   -0.17319  -0.14089  -0.11408
  Beta virt. eigenvalues --   -0.07061  -0.06314  -0.05759  -0.04012  -0.03009
  Beta virt. eigenvalues --   -0.02592  -0.01727  -0.01549  -0.01194  -0.00843
  Beta virt. eigenvalues --   -0.00192   0.00031   0.00170   0.00533   0.00605

 Mulliken charges and spin densities:
               1          2
     1  Na   0.661539   0.387941
     2  Na  -1.854672   0.125495
     3  Na   0.602403  -0.121530
     4  Na   0.552492  -0.090927
     5  Na   0.051800   0.028107
     6  Na   0.355092   0.182146
     7  Na  -0.368655   0.488767
 Sum of Mulliken charges =  -0.00000   1.00000

 Dipole moment (field-independent basis, Debye):
    X=             -0.6879    Y=             -0.1314    Z=              0.2165  Tot=              0.7331
 Quadrupole moment (field-independent basis, Debye-Ang):
   XX=            -47.1801   YY=            -69.7886   ZZ=            -76.6145
   XY=              3.3653   XZ=             -1.2512   YZ=             -0.0433

 Normal termination of Gaussian 16 at Tue Dec  5 12:51:39 2023.
