 Gaussian 16, Revision B.01,
 Gaussian 16:  ES64L-G16RevB.01 20-Dec-2017

 -------------------------
 #P B3LYP/6-311+g(d) force
 -------------------------

 -----
 DPGEN
 -----
 Symbolic Z-matrix:
 Charge =  0 Multiplicity = 2

                         Standard orientation:
 ---------------------------------------------------------------------
 Center     Atomic      Atomic             Coordinates (Angstroms)
 Number     Number       Type             X           Y           Z
 ---------------------------------------------------------------------
      1         11           0        2.985894    0.932871   -0.405819
      2         11           0       -0.304895    3.017294    0.112907
      3         11           0       -3.163507    0.492438    0.088715
      4         11           0        0.659109    0.296275    1.545621
      5         11           0       -1.546386   -2.506544    0.227370
      6         11           0       -0.609595   -0.015300   -1.531461
      7         11           0        1.979380   -2.217035   -0.037333
 ---------------------------------------------------------------------

 SCF Done:  E(UB3LYP) =  -1136.13299480     A.U. after   21 cycles

 The electronic state is 2-A.
 Alpha  occ. eigenvalues --  -38.44419 -38.44220 -38.43602 -38.43594 -38.43518
 Alpha  occ. eigenvalues --  -38.42919 -38.42762  -2.20270  -2.20083  -2.19469
 Alpha  occ. eigenvalues --   -2.19445  -2.19388  -2.18930  -2.18778  -1.13983
 Alpha  occ. eigenvalues --   -1.13923  -1.13891  -1.13786  -1.13734  -1.13711
 Alpha  occ. eigenvalues --   -1.13163  -1.13142  -1.13127  -1.13115  -1.13112
 Alpha  occ. eigenvalues --   -1.13086  -1.13067  -1.13045  -1.13012  -1.12635
 Alpha  occ. eigenvalues --   -1.12561  -1.12546  -1.12455  -1.12409  -1.12392
 Alpha  occ. eigenvalues --   -0.18894  -0.13458  -0.12618  -0.09954
 Alpha virt. eigenvalues --   -0.05959  -0.05244  -0.04924  -0.03156  -0.02599
 Alpha virt. eigenvalues --   -0.01728  -0.01664  -0.01226  -0.00602  -0.00443
 Alpha virt. eigenvalues --    0.00052   0.00353   0.00806   0.00826   0.00879

  Beta  occ. eigenvalues --  -38.44416 -38.44208 -38.43595 -38.43587 -38.43511
  Beta  occ. eigenvalues --  -38.42858 -38.42696  -2.20267  -2.20062  -2.19460
  Beta  occ. eigenvalues --   -2.19435  -2.19377  -2.18819  -2.18658  -1.13974
  Beta  occ. eigenvalues --   -1.13909  -1.13889  -1.13771  -1.13702  -1.13697
  Beta  occ. eigenvalues --   -1.13155  -1.13133  -1.13116  -1.13089  -1.13081
  Beta  occ. eigenvalues --   -1.13076  -1.13065  -1.13025  -1.12999  -1.12552
  Beta  occ. eigenvalues --   -1.12478  -1.12470  -1.12368  -1.12324  -1.12302
  Beta  occ. eigenvalues --   -0.18217  -0.13217  -0.12355
  Beta virt. eigenvalues --   -0.06171  -0.05874  -0.05239  -0.04869  -0.02379
  Beta virt. eigenvalues --   -0.01870  -0.01602  -0.01155  -0.00811  -0.00615
  Beta virt. eigenvalues --   -0.00487   0.00201   0.00405   0.00827   0.00846

 Mulliken charges and spin densities:
               1          2
     1  Na   0.152407   0.046710
     2  Na   0.071800  -0.128628
     3  Na   0.256732  -0.070146
     4  Na  -0.338291   0.592919
     5  Na   0.041669  -0.038897
     6  Na  -0.340519   0.574136
     7  Na   0.156202   0.023906
 Sum of Mulliken charges =  -0.00000   1.00000

 Dipole moment (field-independent basis, Debye):
    X=             -0.1474    Y=              0.1780    Z=              0.0081  Tot=              0.2312
 Quadrupole moment (field-independent basis, Debye-Ang):
   XX=            -53.4083   YY=            -59.8579   ZZ=            -77.8476
   XY=             -0.2161   XZ=             -2.6934   YZ=             -0.7723

 Normal termination of Gaussian 16 at Tue Nov 28 21:41:19 2023.
