 Gaussian 16, Revision B.01,
 Gaussian 16:  ES64L-G16RevB.01 20-Dec-2017

 -------------------------
 #P B3LYP/6-311+g(d) force
 -------------------------

 -----
 DPGEN
 -----
 Symbolic Z-matrix:
 Charge =  0 Multiplicity = 2

                         Standard orientation:
 ---------------------------------------------------------------------
 Center     Atomic      Atomic             Coordinates (Angstroms)
 Number     Number       Type             X           Y           Z
 ---------------------------------------------------------------------
      1         11           0        1.566794    2.386489   -0.242398
      2         11           0        3.269115   -0.724535   -0.014957
      3         11           0        0.366039   -2.759273    0.159233
      4         11           0       -0.182852   -0.065709   -1.573397
      5         11           0       -2.963928   -1.360089   -0.127320
      6         11           0       -0.071394    0.314543    1.711910
      7         11           0       -1.983774    2.208574    0.086929
 ---------------------------------------------------------------------

 SCF Done:  E(UB3LYP) =  -1136.13725341     A.U. after   20 cycles

 The electronic state is 2-A.
 Alpha  occ. eigenvalues --  -38.44199 -38.44086 -38.43632 -38.43446 -38.43342
 Alpha  occ. eigenvalues --  -38.42938 -38.42876  -2.20000  -2.19908  -2.19518
 Alpha  occ. eigenvalues --   -2.19330  -2.19208  -2.18932  -2.18894  -1.13670
 Alpha  occ. eigenvalues --   -1.13659  -1.13647  -1.13585  -1.13560  -1.13551
 Alpha  occ. eigenvalues --   -1.13230  -1.13188  -1.13135  -1.13031  -1.13007
 Alpha  occ. eigenvalues --   -1.12942  -1.12921  -1.12883  -1.12818  -1.12656
 Alpha  occ. eigenvalues --   -1.12559  -1.12547  -1.12539  -1.12522  -1.12499
 Alpha  occ. eigenvalues --   -0.18934  -0.13046  -0.12658  -0.10278
 Alpha virt. eigenvalues --   -0.05808  -0.05339  -0.04622  -0.02905  -0.02756
 Alpha virt. eigenvalues --   -0.02016  -0.01775  -0.01278  -0.00391  -0.00326
 Alpha virt. eigenvalues --    0.00030   0.00330   0.00777   0.00857   0.00884

  Beta  occ. eigenvalues --  -38.44200 -38.44082 -38.43622 -38.43435 -38.43334
  Beta  occ. eigenvalues --  -38.42857 -38.42807  -2.20004  -2.19903  -2.19506
  Beta  occ. eigenvalues --   -2.19316  -2.19198  -2.18784  -2.18771  -1.13667
  Beta  occ. eigenvalues --   -1.13653  -1.13650  -1.13570  -1.13552  -1.13548
  Beta  occ. eigenvalues --   -1.13219  -1.13147  -1.13132  -1.13023  -1.12965
  Beta  occ. eigenvalues --   -1.12935  -1.12913  -1.12850  -1.12815  -1.12563
  Beta  occ. eigenvalues --   -1.12464  -1.12441  -1.12435  -1.12433  -1.12407
  Beta  occ. eigenvalues --   -0.18220  -0.12810  -0.12385
  Beta virt. eigenvalues --   -0.06383  -0.05779  -0.05329  -0.04607  -0.02170
  Beta virt. eigenvalues --   -0.01956  -0.01697  -0.01231  -0.00994  -0.00435
  Beta virt. eigenvalues --   -0.00364   0.00165   0.00366   0.00819   0.00859

 Mulliken charges and spin densities:
               1          2
     1  Na   0.212549  -0.065546
     2  Na  -0.031388  -0.077768
     3  Na   0.043930  -0.108216
     4  Na  -0.381089   0.669333
     5  Na   0.141607  -0.085973
     6  Na  -0.338634   0.744586
     7  Na   0.353025  -0.076415
 Sum of Mulliken charges =  -0.00000   1.00000

 Dipole moment (field-independent basis, Debye):
    X=             -0.0420    Y=             -0.0636    Z=              0.0349  Tot=              0.0838
 Quadrupole moment (field-independent basis, Debye-Ang):
   XX=            -52.1405   YY=            -61.7846   ZZ=            -76.9538
   XY=              0.0011   XZ=             -0.1761   YZ=             -0.8280

 Normal termination of Gaussian 16 at Tue Nov 28 21:41:40 2023.
