 Gaussian 16, Revision B.01,
 Gaussian 16:  ES64L-G16RevB.01 20-Dec-2017

 -------------------------
 #P B3LYP/6-311+g(d) force
 -------------------------

 -----
 DPGEN
 -----
 Symbolic Z-matrix:
 Charge =  0 Multiplicity = 2

                         Standard orientation:
 ---------------------------------------------------------------------
 Center     Atomic      Atomic             Coordinates (Angstroms)
 Number     Number       Type             X           Y           Z
 ---------------------------------------------------------------------
      1         11           0        3.859349   -2.553465    0.318706
      2         11           0        3.777172    1.504360   -0.313436
      3         11           0        0.240758   -1.926234   -0.257727
      4         11           0        0.937449    2.965326   -0.664350
      5         11           0       -3.481251   -1.799206   -0.661703
      6         11           0       -4.612015    0.797267    0.135193
      7         11           0       -0.721461    1.011953    1.443318
 ---------------------------------------------------------------------

 SCF Done:  E(UB3LYP) =  -1136.10982788     A.U. after   23 cycles

 The electronic state is 2-A.
 Alpha  occ. eigenvalues --  -38.45005 -38.44853 -38.44789 -38.44622 -38.44049
 Alpha  occ. eigenvalues --  -38.43721 -38.43505  -2.20833  -2.20690  -2.20605
 Alpha  occ. eigenvalues --   -2.20412  -2.19785  -2.19517  -2.19327  -1.14631
 Alpha  occ. eigenvalues --   -1.14494  -1.14457  -1.14324  -1.14304  -1.14281
 Alpha  occ. eigenvalues --   -1.14276  -1.14267  -1.14210  -1.14087  -1.14061
 Alpha  occ. eigenvalues --   -1.14027  -1.13466  -1.13441  -1.13430  -1.13206
 Alpha  occ. eigenvalues --   -1.13186  -1.13119  -1.12997  -1.12986  -1.12983
 Alpha  occ. eigenvalues --   -0.16653  -0.14137  -0.11763  -0.10868
 Alpha virt. eigenvalues --   -0.07311  -0.05295  -0.04247  -0.03716  -0.03467
 Alpha virt. eigenvalues --   -0.02511  -0.02126  -0.01169  -0.01091  -0.00692
 Alpha virt. eigenvalues --   -0.00417  -0.00199   0.00197   0.00440   0.00611

  Beta  occ. eigenvalues --  -38.44991 -38.44796 -38.44733 -38.44563 -38.44051
  Beta  occ. eigenvalues --  -38.43679 -38.43508  -2.20813  -2.20586  -2.20502
  Beta  occ. eigenvalues --   -2.20301  -2.19790  -2.19441  -2.19335  -1.14588
  Beta  occ. eigenvalues --   -1.14486  -1.14424  -1.14255  -1.14226  -1.14219
  Beta  occ. eigenvalues --   -1.14204  -1.14191  -1.14145  -1.14012  -1.13988
  Beta  occ. eigenvalues --   -1.13948  -1.13470  -1.13437  -1.13434  -1.13150
  Beta  occ. eigenvalues --   -1.13134  -1.13067  -1.13000  -1.12993  -1.12972
  Beta  occ. eigenvalues --   -0.15951  -0.13412  -0.11710
  Beta virt. eigenvalues --   -0.07515  -0.07046  -0.04874  -0.03988  -0.03296
  Beta virt. eigenvalues --   -0.03066  -0.02249  -0.01918  -0.01012  -0.00755
  Beta virt. eigenvalues --   -0.00593  -0.00213  -0.00057   0.00370   0.00562

 Mulliken charges and spin densities:
               1          2
     1  Na   0.870157   0.037415
     2  Na  -0.092383   0.352103
     3  Na  -1.395874  -0.107899
     4  Na   0.305182  -0.065159
     5  Na   0.673181   0.212074
     6  Na  -0.160403   0.264432
     7  Na  -0.199861   0.307033
 Sum of Mulliken charges =  -0.00000   1.00000

 Dipole moment (field-independent basis, Debye):
    X=             -1.1306    Y=              0.4106    Z=              0.2094  Tot=              1.2209
 Quadrupole moment (field-independent basis, Debye-Ang):
   XX=            -65.1408   YY=            -67.8903   ZZ=            -68.8509
   XY=             -2.3907   XZ=              0.3850   YZ=              0.7271

 Normal termination of Gaussian 16 at Sun Dec  3 19:53:33 2023.
