 Gaussian 16, Revision B.01,
 Gaussian 16:  ES64L-G16RevB.01 20-Dec-2017

 -------------------------
 #P B3LYP/6-311+g(d) force
 -------------------------

 -----
 DPGEN
 -----
 Symbolic Z-matrix:
 Charge =  0 Multiplicity = 2

                         Standard orientation:
 ---------------------------------------------------------------------
 Center     Atomic      Atomic             Coordinates (Angstroms)
 Number     Number       Type             X           Y           Z
 ---------------------------------------------------------------------
      1         11           0       -2.488167    1.427657   -0.678373
      2         11           0        0.342932    0.005715   -1.816687
      3         11           0        0.442366    2.842345    0.669939
      4         11           0       -2.463685   -1.683036    0.124603
      5         11           0        3.227835    0.292004   -0.301797
      6         11           0        1.039744   -2.706510    0.107079
      7         11           0       -0.101024   -0.178175    1.895236
 ---------------------------------------------------------------------

 SCF Done:  E(UB3LYP) =  -1136.13816339     A.U. after   18 cycles

 The electronic state is 2-A.
 Alpha  occ. eigenvalues --  -38.44128 -38.43553 -38.43537 -38.43534 -38.43451
 Alpha  occ. eigenvalues --  -38.43445 -38.43346  -2.19939  -2.19495  -2.19481
 Alpha  occ. eigenvalues --   -2.19406  -2.19328  -2.19303  -2.19187  -1.13637
 Alpha  occ. eigenvalues --   -1.13589  -1.13570  -1.13195  -1.13160  -1.13150
 Alpha  occ. eigenvalues --   -1.13137  -1.13132  -1.13125  -1.13098  -1.13061
 Alpha  occ. eigenvalues --   -1.13037  -1.12994  -1.12979  -1.12970  -1.12964
 Alpha  occ. eigenvalues --   -1.12947  -1.12910  -1.12869  -1.12831  -1.12812
 Alpha  occ. eigenvalues --   -0.18741  -0.12953  -0.12431  -0.11135
 Alpha virt. eigenvalues --   -0.05585  -0.04827  -0.04613  -0.03299  -0.03122
 Alpha virt. eigenvalues --   -0.02741  -0.01490  -0.01030  -0.00255  -0.00123
 Alpha virt. eigenvalues --    0.00052   0.00363   0.00834   0.00901   0.00932

  Beta  occ. eigenvalues --  -38.44123 -38.43534 -38.43483 -38.43449 -38.43441
  Beta  occ. eigenvalues --  -38.43434 -38.43327  -2.19933  -2.19404  -2.19366
  Beta  occ. eigenvalues --   -2.19328  -2.19300  -2.19298  -2.19156  -1.13620
  Beta  occ. eigenvalues --   -1.13583  -1.13565  -1.13140  -1.13098  -1.13078
  Beta  occ. eigenvalues --   -1.13059  -1.13054  -1.13043  -1.13031  -1.13027
  Beta  occ. eigenvalues --   -1.12980  -1.12964  -1.12951  -1.12944  -1.12940
  Beta  occ. eigenvalues --   -1.12927  -1.12901  -1.12831  -1.12801  -1.12795
  Beta  occ. eigenvalues --   -0.18014  -0.12679  -0.12155
  Beta virt. eigenvalues --   -0.07241  -0.05541  -0.04783  -0.04546  -0.02554
  Beta virt. eigenvalues --   -0.02361  -0.01715  -0.01393  -0.00949  -0.00193
  Beta virt. eigenvalues --   -0.00167   0.00122   0.00392   0.00855   0.00920

 Mulliken charges and spin densities:
               1          2
     1  Na   0.147007   0.075633
     2  Na  -0.142932   0.547771
     3  Na  -0.015581   0.037322
     4  Na   0.075615  -0.039499
     5  Na   0.038064  -0.085531
     6  Na   0.011730  -0.115438
     7  Na  -0.113904   0.579742
 Sum of Mulliken charges =  -0.00000   1.00000

 Dipole moment (field-independent basis, Debye):
    X=              0.3431    Y=             -0.1013    Z=             -0.0256  Tot=              0.3586
 Quadrupole moment (field-independent basis, Debye-Ang):
   XX=            -58.0416   YY=            -63.5823   ZZ=            -72.4723
   XY=              0.3985   XZ=              0.9342   YZ=              0.2223

 Normal termination of Gaussian 16 at Fri Dec  8 01:16:23 2023.
