 Gaussian 16, Revision B.01,
 Gaussian 16:  ES64L-G16RevB.01 20-Dec-2017

 -------------------------
 #P B3LYP/6-311+g(d) force
 -------------------------

 -----
 DPGEN
 -----
 Symbolic Z-matrix:
 Charge =  0 Multiplicity = 2

                         Standard orientation:
 ---------------------------------------------------------------------
 Center     Atomic      Atomic             Coordinates (Angstroms)
 Number     Number       Type             X           Y           Z
 ---------------------------------------------------------------------
      1         11           0        0.271159    2.960103   -0.478280
      2         11           0       -3.474772   -1.659748    0.646408
      3         11           0       -0.764242    0.927563    1.789480
      4         11           0        3.811705    0.988396    0.234268
      5         11           0        3.508976   -2.195431   -0.328727
      6         11           0       -0.456365   -2.000629   -0.570714
      7         11           0       -2.896462    0.979746   -1.292436
 ---------------------------------------------------------------------

 SCF Done:  E(UB3LYP) =  -1136.11645942     A.U. after   23 cycles

 The electronic state is 2-A.
 Alpha  occ. eigenvalues --  -38.45204 -38.44908 -38.44845 -38.43991 -38.43717
 Alpha  occ. eigenvalues --  -38.43610 -38.43444  -2.20963  -2.20699  -2.20677
 Alpha  occ. eigenvalues --   -2.19772  -2.19575  -2.19469  -2.19244  -1.14643
 Alpha  occ. eigenvalues --   -1.14624  -1.14596  -1.14400  -1.14378  -1.14370
 Alpha  occ. eigenvalues --   -1.14344  -1.14327  -1.14266  -1.13440  -1.13431
 Alpha  occ. eigenvalues --   -1.13420  -1.13252  -1.13231  -1.13197  -1.13146
 Alpha  occ. eigenvalues --   -1.13105  -1.13076  -1.12915  -1.12909  -1.12880
 Alpha  occ. eigenvalues --   -0.17340  -0.13784  -0.12146  -0.09995
 Alpha virt. eigenvalues --   -0.07105  -0.06130  -0.04572  -0.03272  -0.02754
 Alpha virt. eigenvalues --   -0.02511  -0.02128  -0.01609  -0.01229  -0.00622
 Alpha virt. eigenvalues --   -0.00344   0.00068   0.00399   0.00438   0.00550

  Beta  occ. eigenvalues --  -38.45193 -38.44897 -38.44835 -38.43988 -38.43652
  Beta  occ. eigenvalues --  -38.43525 -38.43445  -2.20945  -2.20683  -2.20664
  Beta  occ. eigenvalues --   -2.19769  -2.19454  -2.19311  -2.19248  -1.14631
  Beta  occ. eigenvalues --   -1.14613  -1.14576  -1.14388  -1.14371  -1.14344
  Beta  occ. eigenvalues --   -1.14335  -1.14288  -1.14255  -1.13438  -1.13427
  Beta  occ. eigenvalues --   -1.13414  -1.13174  -1.13145  -1.13111  -1.13039
  Beta  occ. eigenvalues --   -1.13000  -1.12960  -1.12918  -1.12899  -1.12875
  Beta  occ. eigenvalues --   -0.16705  -0.13467  -0.11981
  Beta virt. eigenvalues --   -0.06999  -0.06240  -0.05964  -0.04487  -0.02837
  Beta virt. eigenvalues --   -0.02434  -0.02198  -0.01721  -0.01259  -0.00889
  Beta virt. eigenvalues --   -0.00564  -0.00089   0.00261   0.00473   0.00578

 Mulliken charges and spin densities:
               1          2
     1  Na   0.035376  -0.039579
     2  Na   1.027468   0.200595
     3  Na  -0.066828   0.327896
     4  Na  -0.272082   0.055254
     5  Na   0.231567  -0.005139
     6  Na  -0.891356  -0.040170
     7  Na  -0.064145   0.501142
 Sum of Mulliken charges =  -0.00000   1.00000

 Dipole moment (field-independent basis, Debye):
    X=              0.1935    Y=             -0.5448    Z=              0.6469  Tot=              0.8676
 Quadrupole moment (field-independent basis, Debye-Ang):
   XX=            -61.1953   YY=            -66.9290   ZZ=            -72.1555
   XY=              6.7891   XZ=             -4.9606   YZ=              0.1448

 Normal termination of Gaussian 16 at Sun Dec  3 12:44:30 2023.
