 Gaussian 16, Revision B.01,
 Gaussian 16:  ES64L-G16RevB.01 20-Dec-2017

 -------------------------
 #P B3LYP/6-311+g(d) force
 -------------------------

 -----
 DPGEN
 -----
 Symbolic Z-matrix:
 Charge =  0 Multiplicity = 2

                         Standard orientation:
 ---------------------------------------------------------------------
 Center     Atomic      Atomic             Coordinates (Angstroms)
 Number     Number       Type             X           Y           Z
 ---------------------------------------------------------------------
      1         11           0       -3.164027    1.116568    0.168590
      2         11           0        3.034773    0.434353   -0.185240
      3         11           0        1.615641   -2.574865   -0.051055
      4         11           0       -0.005536   -0.210429    1.974476
      5         11           0       -0.333714    0.353954   -1.668764
      6         11           0        0.836752    2.920741    0.056702
      7         11           0       -1.983888   -2.040321   -0.294709
 ---------------------------------------------------------------------

 SCF Done:  E(UB3LYP) =  -1136.13760126     A.U. after   19 cycles

 The electronic state is 2-A.
 Alpha  occ. eigenvalues --  -38.44425 -38.44007 -38.43659 -38.43452 -38.43411
 Alpha  occ. eigenvalues --  -38.43235 -38.43226  -2.20232  -2.19858  -2.19538
 Alpha  occ. eigenvalues --   -2.19346  -2.19251  -2.19189  -2.19069  -1.13901
 Alpha  occ. eigenvalues --   -1.13889  -1.13879  -1.13530  -1.13521  -1.13508
 Alpha  occ. eigenvalues --   -1.13253  -1.13206  -1.13153  -1.13021  -1.12975
 Alpha  occ. eigenvalues --   -1.12964  -1.12954  -1.12908  -1.12888  -1.12864
 Alpha  occ. eigenvalues --   -1.12813  -1.12802  -1.12736  -1.12730  -1.12714
 Alpha  occ. eigenvalues --   -0.18586  -0.13260  -0.12280  -0.10577
 Alpha virt. eigenvalues --   -0.05932  -0.05165  -0.04647  -0.03271  -0.02771
 Alpha virt. eigenvalues --   -0.02427  -0.01722  -0.01113  -0.00475  -0.00333
 Alpha virt. eigenvalues --   -0.00008   0.00352   0.00775   0.00840   0.00884

  Beta  occ. eigenvalues --  -38.44423 -38.44003 -38.43648 -38.43408 -38.43361
  Beta  occ. eigenvalues --  -38.43223 -38.43171  -2.20230  -2.19853  -2.19522
  Beta  occ. eigenvalues --   -2.19249  -2.19178  -2.19074  -2.19066  -1.13892
  Beta  occ. eigenvalues --   -1.13887  -1.13871  -1.13525  -1.13514  -1.13496
  Beta  occ. eigenvalues --   -1.13236  -1.13166  -1.13147  -1.12945  -1.12910
  Beta  occ. eigenvalues --   -1.12898  -1.12883  -1.12851  -1.12844  -1.12787
  Beta  occ. eigenvalues --   -1.12739  -1.12732  -1.12719  -1.12714  -1.12703
  Beta  occ. eigenvalues --   -0.17856  -0.13039  -0.12064
  Beta virt. eigenvalues --   -0.06677  -0.05888  -0.05147  -0.04613  -0.02483
  Beta virt. eigenvalues --   -0.02028  -0.01628  -0.01381  -0.01035  -0.00525
  Beta virt. eigenvalues --   -0.00374   0.00138   0.00378   0.00821   0.00853

 Mulliken charges and spin densities:
               1          2
     1  Na   0.104060  -0.079311
     2  Na   0.092808  -0.026048
     3  Na   0.079164  -0.043139
     4  Na  -0.444510   0.784512
     5  Na  -0.151746   0.477643
     6  Na   0.087787  -0.103430
     7  Na   0.232436  -0.010228
 Sum of Mulliken charges =  -0.00000   1.00000

 Dipole moment (field-independent basis, Debye):
    X=             -0.3593    Y=              0.2197    Z=              0.1026  Tot=              0.4334
 Quadrupole moment (field-independent basis, Debye-Ang):
   XX=            -54.9811   YY=            -62.9169   ZZ=            -75.2287
   XY=             -1.1067   XZ=             -0.9033   YZ=              1.4102

 Normal termination of Gaussian 16 at Tue Dec  5 18:51:17 2023.
