 Gaussian 16, Revision B.01,
 Gaussian 16:  ES64L-G16RevB.01 20-Dec-2017

 -------------------------
 #P B3LYP/6-311+g(d) force
 -------------------------

 -----
 DPGEN
 -----
 Symbolic Z-matrix:
 Charge =  0 Multiplicity = 2

                         Standard orientation:
 ---------------------------------------------------------------------
 Center     Atomic      Atomic             Coordinates (Angstroms)
 Number     Number       Type             X           Y           Z
 ---------------------------------------------------------------------
      1         11           0       -1.152789   -1.572078   -1.541876
      2         11           0       -1.506094    2.501327   -0.926435
      3         11           0       -3.795954   -0.698965    0.748908
      4         11           0        1.628101   -2.686787   -0.626915
      5         11           0        1.365505    2.762844   -0.231178
      6         11           0       -0.058034   -0.274367    2.254348
      7         11           0        3.519265   -0.031973    0.323149
 ---------------------------------------------------------------------

 SCF Done:  E(UB3LYP) =  -1136.11930059     A.U. after   19 cycles

 The electronic state is 2-A.
 Alpha  occ. eigenvalues --  -38.45304 -38.45027 -38.44754 -38.43923 -38.43867
 Alpha  occ. eigenvalues --  -38.43636 -38.43259  -2.21068  -2.20779  -2.20537
 Alpha  occ. eigenvalues --   -2.19756  -2.19692  -2.19475  -2.19096  -1.14727
 Alpha  occ. eigenvalues --   -1.14725  -1.14672  -1.14445  -1.14438  -1.14412
 Alpha  occ. eigenvalues --   -1.14212  -1.14189  -1.14186  -1.13463  -1.13423
 Alpha  occ. eigenvalues --   -1.13411  -1.13382  -1.13345  -1.13307  -1.13141
 Alpha  occ. eigenvalues --   -1.13127  -1.13103  -1.12772  -1.12751  -1.12729
 Alpha  occ. eigenvalues --   -0.17178  -0.13027  -0.12582  -0.10927
 Alpha virt. eigenvalues --   -0.06861  -0.05395  -0.04647  -0.03477  -0.02974
 Alpha virt. eigenvalues --   -0.02701  -0.02244  -0.01103  -0.00724  -0.00435
 Alpha virt. eigenvalues --   -0.00299   0.00224   0.00258   0.00580   0.00679

  Beta  occ. eigenvalues --  -38.45219 -38.45012 -38.44753 -38.43878 -38.43839
  Beta  occ. eigenvalues --  -38.43615 -38.43258  -2.20911  -2.20753  -2.20535
  Beta  occ. eigenvalues --   -2.19675  -2.19642  -2.19439  -2.19097  -1.14621
  Beta  occ. eigenvalues --   -1.14620  -1.14554  -1.14429  -1.14411  -1.14396
  Beta  occ. eigenvalues --   -1.14206  -1.14194  -1.14180  -1.13408  -1.13391
  Beta  occ. eigenvalues --   -1.13355  -1.13317  -1.13306  -1.13273  -1.13109
  Beta  occ. eigenvalues --   -1.13105  -1.13065  -1.12769  -1.12752  -1.12718
  Beta  occ. eigenvalues --   -0.16583  -0.12918  -0.12136
  Beta virt. eigenvalues --   -0.07377  -0.06477  -0.05343  -0.04261  -0.03061
  Beta virt. eigenvalues --   -0.02419  -0.02135  -0.01808  -0.01038  -0.00679
  Beta virt. eigenvalues --   -0.00360  -0.00124   0.00294   0.00416   0.00753

 Mulliken charges and spin densities:
               1          2
     1  Na  -0.279587   0.302658
     2  Na   0.035205   0.113827
     3  Na   0.330515   0.025574
     4  Na   0.223569  -0.014162
     5  Na  -0.029772  -0.052898
     6  Na  -0.264329   0.556630
     7  Na  -0.015601   0.068373
 Sum of Mulliken charges =  -0.00000   1.00000

 Dipole moment (field-independent basis, Debye):
    X=             -0.3264    Y=             -0.3402    Z=              0.4947  Tot=              0.6834
 Quadrupole moment (field-independent basis, Debye-Ang):
   XX=            -51.8400   YY=            -73.3721   ZZ=            -72.4527
   XY=              0.0081   XZ=             -0.0492   YZ=             -0.3573

 Normal termination of Gaussian 16 at Sun Dec  3 12:45:45 2023.
