 Gaussian 16, Revision B.01,
 Gaussian 16:  ES64L-G16RevB.01 20-Dec-2017

 -------------------------
 #P B3LYP/6-311+g(d) force
 -------------------------

 -----
 DPGEN
 -----
 Symbolic Z-matrix:
 Charge =  0 Multiplicity = 2

                         Standard orientation:
 ---------------------------------------------------------------------
 Center     Atomic      Atomic             Coordinates (Angstroms)
 Number     Number       Type             X           Y           Z
 ---------------------------------------------------------------------
      1         11           0        0.015546    0.959889    0.974424
      2         11           0        6.381263   -0.077347    1.058179
      3         11           0        3.963500    0.043078   -1.011340
      4         11           0        0.727132   -2.226156   -0.743865
      5         11           0       -3.202129   -0.812750   -0.071962
      6         11           0       -1.617461    2.702969   -0.803460
      7         11           0       -6.267850   -0.589682    0.598024
 ---------------------------------------------------------------------

 SCF Done:  E(UB3LYP) =  -1136.10732038     A.U. after   21 cycles

 The electronic state is 2-A.
 Alpha  occ. eigenvalues --  -38.45619 -38.45368 -38.44731 -38.44465 -38.44264
 Alpha  occ. eigenvalues --  -38.43110 -38.42928  -2.21414  -2.21206  -2.20577
 Alpha  occ. eigenvalues --   -2.20254  -2.20046  -2.18937  -2.18711  -1.15064
 Alpha  occ. eigenvalues --   -1.15031  -1.15027  -1.14908  -1.14834  -1.14816
 Alpha  occ. eigenvalues --   -1.14259  -1.14225  -1.14212  -1.13922  -1.13902
 Alpha  occ. eigenvalues --   -1.13900  -1.13724  -1.13710  -1.13672  -1.12630
 Alpha  occ. eigenvalues --   -1.12620  -1.12581  -1.12370  -1.12368  -1.12342
 Alpha  occ. eigenvalues --   -0.16725  -0.13760  -0.11963  -0.11451
 Alpha virt. eigenvalues --   -0.06491  -0.05991  -0.04562  -0.03538  -0.03055
 Alpha virt. eigenvalues --   -0.02593  -0.01899  -0.01870  -0.01334  -0.00893
 Alpha virt. eigenvalues --   -0.00523  -0.00408  -0.00013   0.00253   0.00512

  Beta  occ. eigenvalues --  -38.45508 -38.45295 -38.44729 -38.44425 -38.44272
  Beta  occ. eigenvalues --  -38.43103 -38.42940  -2.21207  -2.21071  -2.20578
  Beta  occ. eigenvalues --   -2.20180  -2.20064  -2.18923  -2.18734  -1.14923
  Beta  occ. eigenvalues --   -1.14892  -1.14888  -1.14818  -1.14743  -1.14722
  Beta  occ. eigenvalues --   -1.14244  -1.14234  -1.14184  -1.13879  -1.13852
  Beta  occ. eigenvalues --   -1.13850  -1.13738  -1.13723  -1.13659  -1.12620
  Beta  occ. eigenvalues --   -1.12601  -1.12580  -1.12386  -1.12384  -1.12354
  Beta  occ. eigenvalues --   -0.15999  -0.13316  -0.11260
  Beta virt. eigenvalues --   -0.08343  -0.06161  -0.05611  -0.04088  -0.03320
  Beta virt. eigenvalues --   -0.02571  -0.02382  -0.01645  -0.01445  -0.01228
  Beta virt. eigenvalues --   -0.00745  -0.00381  -0.00042   0.00132   0.00345

 Mulliken charges and spin densities:
               1          2
     1  Na  -0.435386   0.036402
     2  Na   0.141846   0.183312
     3  Na  -0.269762  -0.058224
     4  Na   0.596454   0.484107
     5  Na  -0.632859   0.031552
     6  Na   0.556383   0.294342
     7  Na   0.043324   0.028508
 Sum of Mulliken charges =  -0.00000   1.00000

 Dipole moment (field-independent basis, Debye):
    X=              1.6715    Y=              0.8495    Z=             -0.2337  Tot=              1.8895
 Quadrupole moment (field-independent basis, Debye-Ang):
   XX=            -74.6692   YY=            -67.5080   ZZ=            -65.4462
   XY=             -6.9206   XZ=              5.4655   YZ=             -1.7018

 Normal termination of Gaussian 16 at Tue Nov 28 22:50:33 2023.
