 Gaussian 16, Revision B.01,
 Gaussian 16:  ES64L-G16RevB.01 20-Dec-2017

 -------------------------
 #P B3LYP/6-311+g(d) force
 -------------------------

 -----
 DPGEN
 -----
 Symbolic Z-matrix:
 Charge =  0 Multiplicity = 2

                         Standard orientation:
 ---------------------------------------------------------------------
 Center     Atomic      Atomic             Coordinates (Angstroms)
 Number     Number       Type             X           Y           Z
 ---------------------------------------------------------------------
      1         11           0       -1.084329    3.071597    0.352832
      2         11           0        1.342351    1.303016   -1.284161
      3         11           0        0.239670   -0.175546    2.006959
      4         11           0       -1.630465    0.082945   -1.406175
      5         11           0        3.511382   -0.452931    0.718425
      6         11           0        0.662661   -2.239790   -1.179736
      7         11           0       -3.041271   -1.589292    0.791855
 ---------------------------------------------------------------------

 SCF Done:  E(UB3LYP) =  -1136.13173948     A.U. after   19 cycles

 The electronic state is 2-A.
 Alpha  occ. eigenvalues --  -38.44396 -38.44104 -38.44050 -38.43977 -38.43284
 Alpha  occ. eigenvalues --  -38.43190 -38.43008  -2.20244  -2.19944  -2.19859
 Alpha  occ. eigenvalues --   -2.19790  -2.19203  -2.19163  -2.18822  -1.13918
 Alpha  occ. eigenvalues --   -1.13882  -1.13864  -1.13656  -1.13596  -1.13541
 Alpha  occ. eigenvalues --   -1.13531  -1.13520  -1.13496  -1.13485  -1.13438
 Alpha  occ. eigenvalues --   -1.13414  -1.12971  -1.12865  -1.12844  -1.12816
 Alpha  occ. eigenvalues --   -1.12803  -1.12745  -1.12487  -1.12480  -1.12463
 Alpha  occ. eigenvalues --   -0.18428  -0.12920  -0.11795  -0.11601
 Alpha virt. eigenvalues --   -0.05932  -0.04809  -0.04391  -0.03368  -0.03051
 Alpha virt. eigenvalues --   -0.02859  -0.01741  -0.00990  -0.00693   0.00154
 Alpha virt. eigenvalues --    0.00262   0.00326   0.00405   0.00787   0.00843

  Beta  occ. eigenvalues --  -38.44320 -38.44062 -38.44042 -38.43967 -38.43254
  Beta  occ. eigenvalues --  -38.43155 -38.43007  -2.20104  -2.19870  -2.19845
  Beta  occ. eigenvalues --   -2.19772  -2.19152  -2.19104  -2.18822  -1.13825
  Beta  occ. eigenvalues --   -1.13784  -1.13757  -1.13595  -1.13532  -1.13522
  Beta  occ. eigenvalues --   -1.13500  -1.13498  -1.13487  -1.13475  -1.13415
  Beta  occ. eigenvalues --   -1.13403  -1.12921  -1.12818  -1.12794  -1.12771
  Beta  occ. eigenvalues --   -1.12754  -1.12710  -1.12484  -1.12475  -1.12462
  Beta  occ. eigenvalues --   -0.17602  -0.12746  -0.11631
  Beta virt. eigenvalues --   -0.07609  -0.05746  -0.04663  -0.04062  -0.02978
  Beta virt. eigenvalues --   -0.02405  -0.02013  -0.01589  -0.00919  -0.00346
  Beta virt. eigenvalues --    0.00156   0.00321   0.00362   0.00529   0.00831

 Mulliken charges and spin densities:
               1          2
     1  Na  -0.069476  -0.090590
     2  Na  -0.119070   0.251361
     3  Na  -0.413520   0.670182
     4  Na   0.582903   0.155136
     5  Na   0.375709  -0.089654
     6  Na  -0.243515   0.110959
     7  Na  -0.113030  -0.007394
 Sum of Mulliken charges =  -0.00000   1.00000

 Dipole moment (field-independent basis, Debye):
    X=              0.3424    Y=             -0.4175    Z=              0.4726  Tot=              0.7175
 Quadrupole moment (field-independent basis, Debye-Ang):
   XX=            -57.4721   YY=            -68.5093   ZZ=            -68.0982
   XY=             -0.5353   XZ=             -1.6014   YZ=              1.3899

 Normal termination of Gaussian 16 at Tue Dec  5 16:59:23 2023.
