 Gaussian 16, Revision B.01,
 Gaussian 16:  ES64L-G16RevB.01 20-Dec-2017

 -------------------------
 #P B3LYP/6-311+g(d) force
 -------------------------

 -----
 DPGEN
 -----
 Symbolic Z-matrix:
 Charge =  0 Multiplicity = 2

                         Standard orientation:
 ---------------------------------------------------------------------
 Center     Atomic      Atomic             Coordinates (Angstroms)
 Number     Number       Type             X           Y           Z
 ---------------------------------------------------------------------
      1         11           0        0.726794   -0.266650    1.978706
      2         11           0       -0.566734   -0.150639   -1.471394
      3         11           0        2.115085   -2.028120   -0.154139
      4         11           0       -1.987678   -2.345466    0.098749
      5         11           0        3.137970    1.084093   -0.671404
      6         11           0       -0.370771    2.853007    0.382872
      7         11           0       -3.054665    0.853776   -0.163390
 ---------------------------------------------------------------------

 SCF Done:  E(UB3LYP) =  -1136.13021975     A.U. after   20 cycles

 The electronic state is 2-A.
 Alpha  occ. eigenvalues --  -38.44394 -38.44187 -38.43812 -38.43637 -38.43491
 Alpha  occ. eigenvalues --  -38.43446 -38.43055  -2.20201  -2.20076  -2.19693
 Alpha  occ. eigenvalues --   -2.19504  -2.19490  -2.19354  -2.18885  -1.13865
 Alpha  occ. eigenvalues --   -1.13861  -1.13835  -1.13828  -1.13727  -1.13691
 Alpha  occ. eigenvalues --   -1.13422  -1.13361  -1.13309  -1.13292  -1.13171
 Alpha  occ. eigenvalues --   -1.13146  -1.13137  -1.13107  -1.13059  -1.13010
 Alpha  occ. eigenvalues --   -1.12987  -1.12955  -1.12560  -1.12550  -1.12523
 Alpha  occ. eigenvalues --   -0.18584  -0.13664  -0.12094  -0.10542
 Alpha virt. eigenvalues --   -0.05915  -0.05468  -0.04439  -0.03467  -0.02691
 Alpha virt. eigenvalues --   -0.02283  -0.01754  -0.01169  -0.00406  -0.00361
 Alpha virt. eigenvalues --   -0.00017   0.00319   0.00743   0.00821   0.00877

  Beta  occ. eigenvalues --  -38.44367 -38.44185 -38.43802 -38.43636 -38.43450
  Beta  occ. eigenvalues --  -38.43355 -38.43047  -2.20153  -2.20074  -2.19681
  Beta  occ. eigenvalues --   -2.19498  -2.19423  -2.19185  -2.18873  -1.13833
  Beta  occ. eigenvalues --   -1.13820  -1.13818  -1.13801  -1.13719  -1.13688
  Beta  occ. eigenvalues --   -1.13401  -1.13337  -1.13291  -1.13273  -1.13153
  Beta  occ. eigenvalues --   -1.13111  -1.13098  -1.13077  -1.13021  -1.12901
  Beta  occ. eigenvalues --   -1.12870  -1.12834  -1.12553  -1.12523  -1.12517
  Beta  occ. eigenvalues --   -0.17934  -0.13361  -0.11880
  Beta virt. eigenvalues --   -0.06753  -0.05746  -0.05426  -0.04377  -0.02758
  Beta virt. eigenvalues --   -0.01991  -0.01640  -0.01310  -0.01108  -0.00450
  Beta virt. eigenvalues --   -0.00323   0.00141   0.00386   0.00829   0.00843

 Mulliken charges and spin densities:
               1          2
     1  Na  -0.354853   0.652060
     2  Na  -0.100034   0.249374
     3  Na   0.342732   0.071509
     4  Na   0.075209  -0.076247
     5  Na  -0.110386   0.144934
     6  Na  -0.083013  -0.022563
     7  Na   0.230345  -0.019067
 Sum of Mulliken charges =  -0.00000   1.00000

 Dipole moment (field-independent basis, Debye):
    X=              0.0065    Y=             -0.0932    Z=              0.0940  Tot=              0.1325
 Quadrupole moment (field-independent basis, Debye-Ang):
   XX=            -54.7113   YY=            -64.6459   ZZ=            -74.5629
   XY=              0.9216   XZ=             -2.2739   YZ=             -0.2701

 Normal termination of Gaussian 16 at Sun Dec  3 17:14:05 2023.
