 Gaussian 16, Revision B.01,
 Gaussian 16:  ES64L-G16RevB.01 20-Dec-2017

 -------------------------
 #P B3LYP/6-311+g(d) force
 -------------------------

 -----
 DPGEN
 -----
 Symbolic Z-matrix:
 Charge =  0 Multiplicity = 2

                         Standard orientation:
 ---------------------------------------------------------------------
 Center     Atomic      Atomic             Coordinates (Angstroms)
 Number     Number       Type             X           Y           Z
 ---------------------------------------------------------------------
      1         11           0        0.909584   -2.357910   -0.756821
      2         11           0        1.491573   -1.618458    1.904976
      3         11           0        3.220405    0.060362   -0.477453
      4         11           0        1.325454    3.480196   -0.256539
      5         11           0       -0.233814    0.914115   -0.054157
      6         11           0       -2.606920   -1.333096   -1.178062
      7         11           0       -4.106283    0.854790    0.818057
 ---------------------------------------------------------------------

 SCF Done:  E(UB3LYP) =  -1136.11666147     A.U. after   21 cycles

 The electronic state is 2-A.
 Alpha  occ. eigenvalues --  -38.45522 -38.44414 -38.43988 -38.43619 -38.43567
 Alpha  occ. eigenvalues --  -38.43360 -38.43265  -2.21352  -2.20335  -2.19791
 Alpha  occ. eigenvalues --   -2.19529  -2.19459  -2.19209  -2.19176  -1.15056
 Alpha  occ. eigenvalues --   -1.15026  -1.14949  -1.14094  -1.13967  -1.13933
 Alpha  occ. eigenvalues --   -1.13448  -1.13440  -1.13413  -1.13215  -1.13185
 Alpha  occ. eigenvalues --   -1.13147  -1.13131  -1.13113  -1.13080  -1.13007
 Alpha  occ. eigenvalues --   -1.12918  -1.12857  -1.12824  -1.12804  -1.12732
 Alpha  occ. eigenvalues --   -0.18114  -0.13665  -0.12337  -0.10092
 Alpha virt. eigenvalues --   -0.06935  -0.05164  -0.04838  -0.03358  -0.02388
 Alpha virt. eigenvalues --   -0.02379  -0.01960  -0.01253  -0.00844  -0.00342
 Alpha virt. eigenvalues --   -0.00279   0.00121   0.00235   0.00570   0.00757

  Beta  occ. eigenvalues --  -38.45519 -38.44361 -38.43929 -38.43594 -38.43535
  Beta  occ. eigenvalues --  -38.43363 -38.43258  -2.21350  -2.20236  -2.19681
  Beta  occ. eigenvalues --   -2.19475  -2.19420  -2.19200  -2.19180  -1.15048
  Beta  occ. eigenvalues --   -1.15020  -1.14943  -1.14031  -1.13898  -1.13861
  Beta  occ. eigenvalues --   -1.13374  -1.13363  -1.13342  -1.13177  -1.13152
  Beta  occ. eigenvalues --   -1.13119  -1.13105  -1.13049  -1.13011  -1.13007
  Beta  occ. eigenvalues --   -1.12890  -1.12848  -1.12824  -1.12807  -1.12733
  Beta  occ. eigenvalues --   -0.17606  -0.13203  -0.12142
  Beta virt. eigenvalues --   -0.06721  -0.06513  -0.04984  -0.04458  -0.02994
  Beta virt. eigenvalues --   -0.02267  -0.02032  -0.01439  -0.01018  -0.00704
  Beta virt. eigenvalues --   -0.00153  -0.00008   0.00254   0.00409   0.00634

 Mulliken charges and spin densities:
               1          2
     1  Na   0.456439   0.248368
     2  Na   0.307588   0.241093
     3  Na   0.376808   0.094909
     4  Na   0.339230  -0.083206
     5  Na  -2.713906   0.142351
     6  Na   0.619854   0.035981
     7  Na   0.613988   0.320503
 Sum of Mulliken charges =  -0.00000   1.00000

 Dipole moment (field-independent basis, Debye):
    X=              1.1676    Y=             -0.2554    Z=             -0.0755  Tot=              1.1976
 Quadrupole moment (field-independent basis, Debye-Ang):
   XX=            -58.3212   YY=            -67.5337   ZZ=            -70.0100
   XY=              0.4763   XZ=             -3.5810   YZ=              1.8684

 Normal termination of Gaussian 16 at Tue Dec  5 16:23:46 2023.
