 Gaussian 16, Revision B.01,
 Gaussian 16:  ES64L-G16RevB.01 20-Dec-2017

 -------------------------
 #P B3LYP/6-311+g(d) force
 -------------------------

 -----
 DPGEN
 -----
 Symbolic Z-matrix:
 Charge =  0 Multiplicity = 2

                         Standard orientation:
 ---------------------------------------------------------------------
 Center     Atomic      Atomic             Coordinates (Angstroms)
 Number     Number       Type             X           Y           Z
 ---------------------------------------------------------------------
      1         11           0       -0.362048   -0.290844   -1.620368
      2         11           0       -0.234816    2.954571   -0.327682
      3         11           0        2.127265   -1.980187   -0.242928
      4         11           0       -3.043365    0.613186    0.093496
      5         11           0        0.352565    0.167262    2.210792
      6         11           0       -1.504432   -2.520667    0.081495
      7         11           0        2.664831    1.056679   -0.194805
 ---------------------------------------------------------------------

 SCF Done:  E(UB3LYP) =  -1136.13736880     A.U. after   19 cycles

 The electronic state is 2-A.
 Alpha  occ. eigenvalues --  -38.44015 -38.43884 -38.43557 -38.43556 -38.43458
 Alpha  occ. eigenvalues --  -38.43335 -38.43204  -2.19845  -2.19749  -2.19453
 Alpha  occ. eigenvalues --   -2.19427  -2.19347  -2.19212  -2.19167  -1.13533
 Alpha  occ. eigenvalues --   -1.13509  -1.13477  -1.13408  -1.13379  -1.13369
 Alpha  occ. eigenvalues --   -1.13198  -1.13192  -1.13110  -1.13106  -1.13079
 Alpha  occ. eigenvalues --   -1.13048  -1.13020  -1.12987  -1.12956  -1.12882
 Alpha  occ. eigenvalues --   -1.12858  -1.12828  -1.12826  -1.12810  -1.12799
 Alpha  occ. eigenvalues --   -0.18796  -0.13104  -0.12467  -0.10972
 Alpha virt. eigenvalues --   -0.05504  -0.05007  -0.04728  -0.03336  -0.02968
 Alpha virt. eigenvalues --   -0.02737  -0.01336  -0.01038  -0.00266  -0.00224
 Alpha virt. eigenvalues --   -0.00038   0.00372   0.00835   0.00907   0.00934

  Beta  occ. eigenvalues --  -38.44013 -38.43782 -38.43552 -38.43550 -38.43451
  Beta  occ. eigenvalues --  -38.43329 -38.43147  -2.19844  -2.19560  -2.19445
  Beta  occ. eigenvalues --   -2.19423  -2.19337  -2.19159  -2.19108  -1.13529
  Beta  occ. eigenvalues --   -1.13494  -1.13481  -1.13286  -1.13246  -1.13237
  Beta  occ. eigenvalues --   -1.13193  -1.13177  -1.13103  -1.13071  -1.13057
  Beta  occ. eigenvalues --   -1.13047  -1.13005  -1.12961  -1.12953  -1.12845
  Beta  occ. eigenvalues --   -1.12809  -1.12805  -1.12802  -1.12756  -1.12744
  Beta  occ. eigenvalues --   -0.18058  -0.12888  -0.12238
  Beta virt. eigenvalues --   -0.07007  -0.05483  -0.04991  -0.04662  -0.02526
  Beta virt. eigenvalues --   -0.02184  -0.01665  -0.01254  -0.00972  -0.00310
  Beta virt. eigenvalues --   -0.00281   0.00126   0.00400   0.00878   0.00921

 Mulliken charges and spin densities:
               1          2
     1  Na  -0.243103   0.293620
     2  Na   0.078255  -0.048730
     3  Na   0.297396  -0.000790
     4  Na   0.087743  -0.023441
     5  Na  -0.714233   0.732439
     6  Na   0.230417   0.007840
     7  Na   0.263525   0.039063
 Sum of Mulliken charges =  -0.00000   1.00000

 Dipole moment (field-independent basis, Debye):
    X=             -0.2808    Y=             -0.0068    Z=              0.2557  Tot=              0.3799
 Quadrupole moment (field-independent basis, Debye-Ang):
   XX=            -58.8492   YY=            -62.7721   ZZ=            -72.9676
   XY=             -0.3174   XZ=             -1.5174   YZ=             -0.9183

 Normal termination of Gaussian 16 at Thu Dec  7 15:33:26 2023.
