 Gaussian 16, Revision B.01,
 Gaussian 16:  ES64L-G16RevB.01 20-Dec-2017

 -------------------------
 #P B3LYP/6-311+g(d) force
 -------------------------

 -----
 DPGEN
 -----
 Symbolic Z-matrix:
 Charge =  0 Multiplicity = 2

                         Standard orientation:
 ---------------------------------------------------------------------
 Center     Atomic      Atomic             Coordinates (Angstroms)
 Number     Number       Type             X           Y           Z
 ---------------------------------------------------------------------
      1         11           0       -2.911247   -0.726711   -0.144912
      2         11           0       -0.367033   -2.528052    0.253483
      3         11           0       -0.065408   -0.106541   -1.748929
      4         11           0        2.404434    1.947267   -0.043818
      5         11           0       -1.711604    2.467818   -0.087415
      6         11           0        2.700470   -1.294836   -0.145306
      7         11           0       -0.049612    0.241055    1.916897
 ---------------------------------------------------------------------

 SCF Done:  E(UB3LYP) =  -1136.13682692     A.U. after   19 cycles

 The electronic state is 2-A.
 Alpha  occ. eigenvalues --  -38.43931 -38.43875 -38.43735 -38.43485 -38.43407
 Alpha  occ. eigenvalues --  -38.43319 -38.42745  -2.19831  -2.19705  -2.19617
 Alpha  occ. eigenvalues --   -2.19352  -2.19327  -2.19311  -2.18711  -1.13525
 Alpha  occ. eigenvalues --   -1.13493  -1.13470  -1.13405  -1.13376  -1.13348
 Alpha  occ. eigenvalues --   -1.13292  -1.13273  -1.13240  -1.13051  -1.13024
 Alpha  occ. eigenvalues --   -1.13009  -1.13000  -1.12972  -1.12959  -1.12949
 Alpha  occ. eigenvalues --   -1.12933  -1.12921  -1.12397  -1.12360  -1.12342
 Alpha  occ. eigenvalues --   -0.19156  -0.13379  -0.12317  -0.10928
 Alpha virt. eigenvalues --   -0.05615  -0.05309  -0.04233  -0.03331  -0.02861
 Alpha virt. eigenvalues --   -0.02563  -0.01529  -0.01053  -0.00278  -0.00060
 Alpha virt. eigenvalues --    0.00034   0.00367   0.00796   0.00899   0.00955

  Beta  occ. eigenvalues --  -38.43924 -38.43873 -38.43731 -38.43482 -38.43317
  Beta  occ. eigenvalues --  -38.43246 -38.42732  -2.19823  -2.19704  -2.19612
  Beta  occ. eigenvalues --   -2.19324  -2.19189  -2.19177  -2.18693  -1.13521
  Beta  occ. eigenvalues --   -1.13474  -1.13452  -1.13407  -1.13355  -1.13349
  Beta  occ. eigenvalues --   -1.13288  -1.13246  -1.13241  -1.13012  -1.12979
  Beta  occ. eigenvalues --   -1.12960  -1.12940  -1.12905  -1.12855  -1.12846
  Beta  occ. eigenvalues --   -1.12841  -1.12825  -1.12388  -1.12337  -1.12303
  Beta  occ. eigenvalues --   -0.18394  -0.13126  -0.12059
  Beta virt. eigenvalues --   -0.06969  -0.05594  -0.05293  -0.04234  -0.02511
  Beta virt. eigenvalues --   -0.02052  -0.01510  -0.01426  -0.00989  -0.00338
  Beta virt. eigenvalues --   -0.00062   0.00128   0.00387   0.00854   0.00893

 Mulliken charges and spin densities:
               1          2
     1  Na   0.292030  -0.006376
     2  Na   0.374540   0.059775
     3  Na  -0.407403   0.573993
     4  Na   0.033352  -0.135740
     5  Na   0.027798  -0.149322
     6  Na   0.164932  -0.019692
     7  Na  -0.485249   0.677363
 Sum of Mulliken charges =  -0.00000   1.00000

 Dipole moment (field-independent basis, Debye):
    X=              0.0685    Y=              0.3123    Z=              0.0100  Tot=              0.3199
 Quadrupole moment (field-independent basis, Debye-Ang):
   XX=            -55.6706   YY=            -64.6060   ZZ=            -73.5085
   XY=              0.1041   XZ=              0.0249   YZ=             -0.6193

 Normal termination of Gaussian 16 at Thu Dec  7 18:46:40 2023.
