 Gaussian 16, Revision B.01,
 Gaussian 16:  ES64L-G16RevB.01 20-Dec-2017

 -------------------------
 #P B3LYP/6-311+g(d) force
 -------------------------

 -----
 DPGEN
 -----
 Symbolic Z-matrix:
 Charge =  0 Multiplicity = 2

                         Standard orientation:
 ---------------------------------------------------------------------
 Center     Atomic      Atomic             Coordinates (Angstroms)
 Number     Number       Type             X           Y           Z
 ---------------------------------------------------------------------
      1         11           0       -1.846015   -1.973044    0.705222
      2         11           0       -3.779283    0.213197   -1.104711
      3         11           0       -1.285972    2.134872    0.840407
      4         11           0        3.594107   -0.667315   -1.414176
      5         11           0        1.375453   -1.167114    2.091779
      6         11           0        1.904347    2.066451    0.243668
      7         11           0        0.037363   -0.607047   -1.362189
 ---------------------------------------------------------------------

 SCF Done:  E(UB3LYP) =  -1136.12620557     A.U. after   23 cycles

 The electronic state is 2-A.
 Alpha  occ. eigenvalues --  -38.44843 -38.44618 -38.44462 -38.44403 -38.43427
 Alpha  occ. eigenvalues --  -38.43003 -38.42727  -2.20642  -2.20422  -2.20287
 Alpha  occ. eigenvalues --   -2.20277  -2.19293  -2.18859  -2.18558  -1.14316
 Alpha  occ. eigenvalues --   -1.14281  -1.14270  -1.14085  -1.14065  -1.14041
 Alpha  occ. eigenvalues --   -1.14015  -1.13952  -1.13939  -1.13907  -1.13905
 Alpha  occ. eigenvalues --   -1.13891  -1.13001  -1.12955  -1.12903  -1.12554
 Alpha  occ. eigenvalues --   -1.12534  -1.12489  -1.12239  -1.12227  -1.12182
 Alpha  occ. eigenvalues --   -0.17988  -0.13839  -0.11427  -0.11162
 Alpha virt. eigenvalues --   -0.06513  -0.04985  -0.04902  -0.03211  -0.02779
 Alpha virt. eigenvalues --   -0.02493  -0.02358  -0.01223  -0.00799  -0.00178
 Alpha virt. eigenvalues --    0.00104   0.00283   0.00331   0.00559   0.00768

  Beta  occ. eigenvalues --  -38.44817 -38.44558 -38.44390 -38.44387 -38.43416
  Beta  occ. eigenvalues --  -38.42996 -38.42722  -2.20592  -2.20312  -2.20265
  Beta  occ. eigenvalues --   -2.20141  -2.19278  -2.18849  -2.18551  -1.14281
  Beta  occ. eigenvalues --   -1.14249  -1.14237  -1.14005  -1.13988  -1.13980
  Beta  occ. eigenvalues --   -1.13973  -1.13943  -1.13878  -1.13839  -1.13813
  Beta  occ. eigenvalues --   -1.13807  -1.12997  -1.12941  -1.12868  -1.12549
  Beta  occ. eigenvalues --   -1.12515  -1.12475  -1.12235  -1.12217  -1.12170
  Beta  occ. eigenvalues --   -0.17394  -0.13411  -0.10923
  Beta virt. eigenvalues --   -0.07750  -0.06213  -0.04874  -0.04399  -0.03022
  Beta virt. eigenvalues --   -0.02304  -0.02108  -0.01682  -0.00813  -0.00728
  Beta virt. eigenvalues --   -0.00078   0.00168   0.00336   0.00434   0.00680

 Mulliken charges and spin densities:
               1          2
     1  Na   0.300465   0.162017
     2  Na   0.642712   0.083999
     3  Na  -0.433037   0.009441
     4  Na   0.451383   0.246124
     5  Na  -0.122931   0.349808
     6  Na   0.092233   0.099628
     7  Na  -0.930824   0.048983
 Sum of Mulliken charges =  -0.00000   1.00000

 Dipole moment (field-independent basis, Debye):
    X=             -0.0707    Y=             -0.5175    Z=             -0.1812  Tot=              0.5529
 Quadrupole moment (field-independent basis, Debye-Ang):
   XX=            -48.6305   YY=            -78.8314   ZZ=            -66.4998
   XY=             -0.6915   XZ=              2.2829   YZ=             -1.2928

 Normal termination of Gaussian 16 at Thu Dec  7 11:51:08 2023.
