 Gaussian 16, Revision B.01,
 Gaussian 16:  ES64L-G16RevB.01 20-Dec-2017

 -------------------------
 #P B3LYP/6-311+g(d) force
 -------------------------

 -----
 DPGEN
 -----
 Symbolic Z-matrix:
 Charge =  0 Multiplicity = 2

                         Standard orientation:
 ---------------------------------------------------------------------
 Center     Atomic      Atomic             Coordinates (Angstroms)
 Number     Number       Type             X           Y           Z
 ---------------------------------------------------------------------
      1         11           0        0.706939    3.019901   -0.051888
      2         11           0        3.003925   -0.084694   -0.336583
      3         11           0        0.575080    0.250478    1.933295
      4         11           0       -0.073021   -0.083516   -1.688448
      5         11           0       -2.579911   -1.560628    0.163660
      6         11           0        0.946732   -2.845243    0.051950
      7         11           0       -2.579743    1.303701   -0.071986
 ---------------------------------------------------------------------

 SCF Done:  E(UB3LYP) =  -1136.13621394     A.U. after   19 cycles

 The electronic state is 2-A.
 Alpha  occ. eigenvalues --  -38.44105 -38.43739 -38.43720 -38.43547 -38.43522
 Alpha  occ. eigenvalues --  -38.43384 -38.43139  -2.19965  -2.19652  -2.19600
 Alpha  occ. eigenvalues --   -2.19388  -2.19348  -2.19296  -2.19119  -1.13648
 Alpha  occ. eigenvalues --   -1.13644  -1.13584  -1.13535  -1.13319  -1.13281
 Alpha  occ. eigenvalues --   -1.13240  -1.13223  -1.13149  -1.13069  -1.13056
 Alpha  occ. eigenvalues --   -1.13036  -1.13024  -1.13015  -1.12988  -1.12958
 Alpha  occ. eigenvalues --   -1.12929  -1.12900  -1.12796  -1.12753  -1.12735
 Alpha  occ. eigenvalues --   -0.18814  -0.13271  -0.12470  -0.10660
 Alpha virt. eigenvalues --   -0.05646  -0.04980  -0.04908  -0.03302  -0.02854
 Alpha virt. eigenvalues --   -0.02427  -0.01400  -0.01218  -0.00327  -0.00290
 Alpha virt. eigenvalues --    0.00002   0.00375   0.00832   0.00898   0.00905

  Beta  occ. eigenvalues --  -38.44094 -38.43734 -38.43717 -38.43543 -38.43519
  Beta  occ. eigenvalues --  -38.43300 -38.43067  -2.19950  -2.19647  -2.19597
  Beta  occ. eigenvalues --   -2.19384  -2.19345  -2.19142  -2.18989  -1.13641
  Beta  occ. eigenvalues --   -1.13602  -1.13579  -1.13536  -1.13304  -1.13265
  Beta  occ. eigenvalues --   -1.13231  -1.13206  -1.13150  -1.13064  -1.13031
  Beta  occ. eigenvalues --   -1.13022  -1.13022  -1.12994  -1.12989  -1.12861
  Beta  occ. eigenvalues --   -1.12820  -1.12793  -1.12708  -1.12657  -1.12643
  Beta  occ. eigenvalues --   -0.18086  -0.13027  -0.12241
  Beta virt. eigenvalues --   -0.06759  -0.05623  -0.04919  -0.04903  -0.02492
  Beta virt. eigenvalues --   -0.02095  -0.01395  -0.01302  -0.01149  -0.00382
  Beta virt. eigenvalues --   -0.00334   0.00144   0.00397   0.00847   0.00898

 Mulliken charges and spin densities:
               1          2
     1  Na   0.150091  -0.113030
     2  Na   0.267355  -0.097450
     3  Na  -0.499948   0.771819
     4  Na  -0.220577   0.536561
     5  Na  -0.005516  -0.025197
     6  Na   0.100856  -0.041090
     7  Na   0.207739  -0.031612
 Sum of Mulliken charges =  -0.00000   1.00000

 Dipole moment (field-independent basis, Debye):
    X=              0.3271    Y=             -0.0004    Z=              0.0587  Tot=              0.3324
 Quadrupole moment (field-independent basis, Debye-Ang):
   XX=            -58.5979   YY=            -60.5102   ZZ=            -74.7388
   XY=              0.2638   XZ=             -1.3599   YZ=             -0.9411

 Normal termination of Gaussian 16 at Thu Dec  7 07:15:14 2023.
