 Gaussian 16, Revision B.01,
 Gaussian 16:  ES64L-G16RevB.01 20-Dec-2017

 -------------------------
 #P B3LYP/6-311+g(d) force
 -------------------------

 -----
 DPGEN
 -----
 Symbolic Z-matrix:
 Charge =  0 Multiplicity = 2

                         Standard orientation:
 ---------------------------------------------------------------------
 Center     Atomic      Atomic             Coordinates (Angstroms)
 Number     Number       Type             X           Y           Z
 ---------------------------------------------------------------------
      1         11           0        2.479271    1.480771    1.397554
      2         11           0        3.245557   -0.373028   -1.218518
      3         11           0        1.702488   -2.768645   -0.620764
      4         11           0       -1.193930   -2.117779    1.705043
      5         11           0       -3.829882   -0.888315   -0.017259
      6         11           0       -2.130329    1.293744   -1.710094
      7         11           0       -0.273174    3.373252    0.464039
 ---------------------------------------------------------------------

 SCF Done:  E(UB3LYP) =  -1136.11107881     A.U. after   21 cycles

 The electronic state is 2-A.
 Alpha  occ. eigenvalues --  -38.44709 -38.44591 -38.44489 -38.44413 -38.44244
 Alpha  occ. eigenvalues --  -38.44082 -38.43994  -2.20506  -2.20418  -2.20295
 Alpha  occ. eigenvalues --   -2.20281  -2.20009  -2.19899  -2.19794  -1.14236
 Alpha  occ. eigenvalues --   -1.14188  -1.14173  -1.14159  -1.14066  -1.14052
 Alpha  occ. eigenvalues --   -1.13997  -1.13951  -1.13931  -1.13908  -1.13876
 Alpha  occ. eigenvalues --   -1.13864  -1.13687  -1.13682  -1.13653  -1.13549
 Alpha  occ. eigenvalues --   -1.13540  -1.13526  -1.13442  -1.13433  -1.13425
 Alpha  occ. eigenvalues --   -0.16461  -0.13916  -0.12714  -0.10629
 Alpha virt. eigenvalues --   -0.07048  -0.04992  -0.04554  -0.03945  -0.03517
 Alpha virt. eigenvalues --   -0.02342  -0.01712  -0.01160  -0.00918  -0.00716
 Alpha virt. eigenvalues --   -0.00322  -0.00054   0.00047   0.00420   0.00610

  Beta  occ. eigenvalues --  -38.44712 -38.44571 -38.44451 -38.44382 -38.44250
  Beta  occ. eigenvalues --  -38.44025 -38.43925  -2.20516  -2.20387  -2.20227
  Beta  occ. eigenvalues --   -2.20224  -2.20024  -2.19791  -2.19664  -1.14194
  Beta  occ. eigenvalues --   -1.14189  -1.14184  -1.14140  -1.14049  -1.14020
  Beta  occ. eigenvalues --   -1.13950  -1.13903  -1.13887  -1.13870  -1.13838
  Beta  occ. eigenvalues --   -1.13814  -1.13698  -1.13694  -1.13643  -1.13476
  Beta  occ. eigenvalues --   -1.13470  -1.13458  -1.13353  -1.13346  -1.13340
  Beta  occ. eigenvalues --   -0.15968  -0.13402  -0.12194
  Beta virt. eigenvalues --   -0.07396  -0.07096  -0.04470  -0.04071  -0.03679
  Beta virt. eigenvalues --   -0.03105  -0.01964  -0.01506  -0.01122  -0.00723
  Beta virt. eigenvalues --   -0.00476  -0.00279   0.00180   0.00251   0.00547

 Mulliken charges and spin densities:
               1          2
     1  Na  -0.184002   0.242477
     2  Na   0.279857   0.172031
     3  Na  -0.095773   0.005972
     4  Na  -0.229502   0.417620
     5  Na   0.446168  -0.102092
     6  Na  -0.359201   0.375053
     7  Na   0.142452  -0.111060
 Sum of Mulliken charges =  -0.00000   1.00000

 Dipole moment (field-independent basis, Debye):
    X=              0.0331    Y=             -0.0496    Z=             -0.0993  Tot=              0.1158
 Quadrupole moment (field-independent basis, Debye-Ang):
   XX=            -61.8816   YY=            -69.6138   ZZ=            -69.9914
   XY=              1.3523   XZ=             -0.0764   YZ=              0.4796

 Normal termination of Gaussian 16 at Sun Dec  3 16:13:51 2023.
