 Gaussian 16, Revision B.01,
 Gaussian 16:  ES64L-G16RevB.01 20-Dec-2017

 -------------------------
 #P B3LYP/6-311+g(d) force
 -------------------------

 -----
 DPGEN
 -----
 Symbolic Z-matrix:
 Charge =  0 Multiplicity = 2

                         Standard orientation:
 ---------------------------------------------------------------------
 Center     Atomic      Atomic             Coordinates (Angstroms)
 Number     Number       Type             X           Y           Z
 ---------------------------------------------------------------------
      1         11           0        0.418034   -0.439530    2.032869
      2         11           0        2.340653   -2.763841    0.245692
      3         11           0        0.830719    3.475773    0.027250
      4         11           0        3.642684    0.671386   -0.820295
      5         11           0       -2.149296    1.876189   -0.343608
      6         11           0       -1.202804   -2.087680   -1.355363
      7         11           0       -3.879991   -0.732297    0.213454
 ---------------------------------------------------------------------

 SCF Done:  E(UB3LYP) =  -1136.11709512     A.U. after   21 cycles

 The electronic state is 2-A.
 Alpha  occ. eigenvalues --  -38.45223 -38.44457 -38.44364 -38.44275 -38.44274
 Alpha  occ. eigenvalues --  -38.44140 -38.43709  -2.20990  -2.20283  -2.20130
 Alpha  occ. eigenvalues --   -2.20074  -2.20048  -2.19963  -2.19469  -1.14682
 Alpha  occ. eigenvalues --   -1.14659  -1.14602  -1.13978  -1.13934  -1.13921
 Alpha  occ. eigenvalues --   -1.13795  -1.13762  -1.13753  -1.13739  -1.13731
 Alpha  occ. eigenvalues --   -1.13719  -1.13707  -1.13699  -1.13666  -1.13654
 Alpha  occ. eigenvalues --   -1.13630  -1.13584  -1.13152  -1.13128  -1.13119
 Alpha  occ. eigenvalues --   -0.16834  -0.13581  -0.12307  -0.10153
 Alpha virt. eigenvalues --   -0.06900  -0.06143  -0.04738  -0.03390  -0.02794
 Alpha virt. eigenvalues --   -0.02543  -0.01997  -0.01563  -0.01346  -0.00966
 Alpha virt. eigenvalues --   -0.00090   0.00167   0.00348   0.00478   0.00644

  Beta  occ. eigenvalues --  -38.45209 -38.44453 -38.44280 -38.44276 -38.44185
  Beta  occ. eigenvalues --  -38.44138 -38.43720  -2.20964  -2.20277  -2.20055
  Beta  occ. eigenvalues --   -2.19974  -2.19960  -2.19909  -2.19490  -1.14665
  Beta  occ. eigenvalues --   -1.14639  -1.14579  -1.13976  -1.13926  -1.13911
  Beta  occ. eigenvalues --   -1.13728  -1.13717  -1.13690  -1.13688  -1.13656
  Beta  occ. eigenvalues --   -1.13654  -1.13641  -1.13626  -1.13618  -1.13608
  Beta  occ. eigenvalues --   -1.13580  -1.13558  -1.13168  -1.13140  -1.13123
  Beta  occ. eigenvalues --   -0.16371  -0.13107  -0.12189
  Beta virt. eigenvalues --   -0.06651  -0.06572  -0.05890  -0.04663  -0.02938
  Beta virt. eigenvalues --   -0.02329  -0.02040  -0.01715  -0.01411  -0.01175
  Beta virt. eigenvalues --   -0.00816   0.00114   0.00304   0.00491   0.00567

 Mulliken charges and spin densities:
               1          2
     1  Na  -0.275195   0.386101
     2  Na   0.230805   0.140718
     3  Na   0.119525  -0.017562
     4  Na  -0.155513   0.427071
     5  Na  -0.394076  -0.079933
     6  Na  -0.150234   0.075237
     7  Na   0.624689   0.068368
 Sum of Mulliken charges =  -0.00000   1.00000

 Dipole moment (field-independent basis, Debye):
    X=             -1.0428    Y=             -0.9825    Z=              0.1152  Tot=              1.4374
 Quadrupole moment (field-independent basis, Debye-Ang):
   XX=            -63.4478   YY=            -65.4844   ZZ=            -72.0775
   XY=             -2.2997   XZ=             -1.0034   YZ=              1.2160

 Normal termination of Gaussian 16 at Mon Dec  4 05:01:02 2023.
