 Gaussian 16, Revision B.01,
 Gaussian 16:  ES64L-G16RevB.01 20-Dec-2017

 -------------------------
 #P B3LYP/6-311+g(d) force
 -------------------------

 -----
 DPGEN
 -----
 Symbolic Z-matrix:
 Charge =  0 Multiplicity = 2

                         Standard orientation:
 ---------------------------------------------------------------------
 Center     Atomic      Atomic             Coordinates (Angstroms)
 Number     Number       Type             X           Y           Z
 ---------------------------------------------------------------------
      1         11           0       -3.577659   -0.675214   -0.045888
      2         11           0       -0.212134   -1.035949   -1.838660
      3         11           0       -0.225844   -2.673762    0.466405
      4         11           0       -2.006259    2.601886    0.019309
      5         11           0        3.482134   -0.740154    0.300891
      6         11           0        2.277582    1.933382   -0.866200
      7         11           0        0.262179    0.589813    1.964142
 ---------------------------------------------------------------------

 SCF Done:  E(UB3LYP) =  -1136.12167237     A.U. after   21 cycles

 The electronic state is 2-A.
 Alpha  occ. eigenvalues --  -38.45373 -38.45041 -38.44007 -38.43883 -38.43713
 Alpha  occ. eigenvalues --  -38.43501 -38.43165  -2.21123  -2.20833  -2.19887
 Alpha  occ. eigenvalues --   -2.19708  -2.19558  -2.19273  -2.19047  -1.14810
 Alpha  occ. eigenvalues --   -1.14771  -1.14755  -1.14522  -1.14494  -1.14466
 Alpha  occ. eigenvalues --   -1.13674  -1.13524  -1.13473  -1.13371  -1.13366
 Alpha  occ. eigenvalues --   -1.13346  -1.13232  -1.13198  -1.13173  -1.12947
 Alpha  occ. eigenvalues --   -1.12937  -1.12918  -1.12752  -1.12690  -1.12636
 Alpha  occ. eigenvalues --   -0.17729  -0.13289  -0.11793  -0.10566
 Alpha virt. eigenvalues --   -0.06771  -0.05349  -0.04243  -0.03451  -0.02952
 Alpha virt. eigenvalues --   -0.02512  -0.02291  -0.01227  -0.00529  -0.00368
 Alpha virt. eigenvalues --   -0.00173   0.00280   0.00444   0.00660   0.00804

  Beta  occ. eigenvalues --  -38.45373 -38.45040 -38.43960 -38.43856 -38.43630
  Beta  occ. eigenvalues --  -38.43502 -38.43152  -2.21123  -2.20835  -2.19800
  Beta  occ. eigenvalues --   -2.19659  -2.19408  -2.19277  -2.19026  -1.14800
  Beta  occ. eigenvalues --   -1.14772  -1.14758  -1.14521  -1.14483  -1.14464
  Beta  occ. eigenvalues --   -1.13614  -1.13464  -1.13409  -1.13342  -1.13327
  Beta  occ. eigenvalues --   -1.13302  -1.13133  -1.13089  -1.13064  -1.12940
  Beta  occ. eigenvalues --   -1.12936  -1.12923  -1.12735  -1.12658  -1.12617
  Beta  occ. eigenvalues --   -0.17028  -0.13112  -0.11624
  Beta virt. eigenvalues --   -0.06793  -0.06638  -0.05294  -0.04014  -0.02862
  Beta virt. eigenvalues --   -0.02333  -0.02239  -0.01515  -0.01145  -0.00517
  Beta virt. eigenvalues --   -0.00346   0.00013   0.00320   0.00599   0.00735

 Mulliken charges and spin densities:
               1          2
     1  Na   0.060933  -0.085200
     2  Na  -0.058426   0.486170
     3  Na   0.069587  -0.062815
     4  Na  -0.077907  -0.075349
     5  Na   0.287310  -0.036213
     6  Na  -0.180108   0.150225
     7  Na  -0.101388   0.623182
 Sum of Mulliken charges =  -0.00000   1.00000

 Dipole moment (field-independent basis, Debye):
    X=             -0.0807    Y=             -0.3748    Z=              0.0443  Tot=              0.3859
 Quadrupole moment (field-independent basis, Debye-Ang):
   XX=            -50.9178   YY=            -69.4234   ZZ=            -73.9226
   XY=             -0.0706   XZ=              0.4603   YZ=             -3.6084

 Normal termination of Gaussian 16 at Sun Dec  3 19:04:45 2023.
