 Gaussian 16, Revision B.01,
 Gaussian 16:  ES64L-G16RevB.01 20-Dec-2017

 -------------------------
 #P B3LYP/6-311+g(d) force
 -------------------------

 -----
 DPGEN
 -----
 Symbolic Z-matrix:
 Charge =  0 Multiplicity = 2

                         Standard orientation:
 ---------------------------------------------------------------------
 Center     Atomic      Atomic             Coordinates (Angstroms)
 Number     Number       Type             X           Y           Z
 ---------------------------------------------------------------------
      1         11           0        3.457888   -0.512662   -0.139455
      2         11           0       -0.400815   -0.218682    2.125397
      3         11           0        1.589278    2.638337   -0.115318
      4         11           0        0.376170   -0.521302   -1.496544
      5         11           0       -2.009333    2.606041   -0.015168
      6         11           0        0.245439   -2.877525    0.251223
      7         11           0       -3.258627   -1.114207   -0.610135
 ---------------------------------------------------------------------

 SCF Done:  E(UB3LYP) =  -1136.12945093     A.U. after   21 cycles

 The electronic state is 2-A.
 Alpha  occ. eigenvalues --  -38.44471 -38.44391 -38.43899 -38.43780 -38.43686
 Alpha  occ. eigenvalues --  -38.43627 -38.43589  -2.20236  -2.20182  -2.19668
 Alpha  occ. eigenvalues --   -2.19661  -2.19532  -2.19488  -2.19480  -1.13911
 Alpha  occ. eigenvalues --   -1.13882  -1.13870  -1.13861  -1.13838  -1.13821
 Alpha  occ. eigenvalues --   -1.13496  -1.13348  -1.13340  -1.13329  -1.13311
 Alpha  occ. eigenvalues --   -1.13252  -1.13204  -1.13169  -1.13155  -1.13144
 Alpha  occ. eigenvalues --   -1.13140  -1.13119  -1.13108  -1.13103  -1.13099
 Alpha  occ. eigenvalues --   -0.17952  -0.12753  -0.12436  -0.10477
 Alpha virt. eigenvalues --   -0.06102  -0.05434  -0.04859  -0.02993  -0.02873
 Alpha virt. eigenvalues --   -0.02391  -0.01987  -0.01224  -0.00744  -0.00632
 Alpha virt. eigenvalues --   -0.00061   0.00274   0.00693   0.00759   0.00809

  Beta  occ. eigenvalues --  -38.44445 -38.44391 -38.43900 -38.43767 -38.43685
  Beta  occ. eigenvalues --  -38.43549 -38.43525  -2.20191  -2.20182  -2.19672
  Beta  occ. eigenvalues --   -2.19643  -2.19482  -2.19461  -2.19299  -1.13866
  Beta  occ. eigenvalues --   -1.13852  -1.13851  -1.13841  -1.13839  -1.13821
  Beta  occ. eigenvalues --   -1.13475  -1.13342  -1.13331  -1.13313  -1.13289
  Beta  occ. eigenvalues --   -1.13244  -1.13168  -1.13152  -1.13139  -1.13106
  Beta  occ. eigenvalues --   -1.13103  -1.13065  -1.13020  -1.12982  -1.12960
  Beta  occ. eigenvalues --   -0.17293  -0.12487  -0.12259
  Beta virt. eigenvalues --   -0.06655  -0.05946  -0.05432  -0.04741  -0.02376
  Beta virt. eigenvalues --   -0.02158  -0.01858  -0.01404  -0.01172  -0.00743
  Beta virt. eigenvalues --   -0.00643   0.00107   0.00346   0.00757   0.00799

 Mulliken charges and spin densities:
               1          2
     1  Na   0.249095  -0.034893
     2  Na  -0.266892   0.626440
     3  Na  -0.112085  -0.066921
     4  Na  -0.092140   0.415316
     5  Na  -0.105978  -0.038451
     6  Na   0.349389   0.003830
     7  Na  -0.021389   0.094679
 Sum of Mulliken charges =  -0.00000   1.00000

 Dipole moment (field-independent basis, Debye):
    X=              0.1386    Y=             -0.2061    Z=              0.1120  Tot=              0.2725
 Quadrupole moment (field-independent basis, Debye-Ang):
   XX=            -54.6735   YY=            -63.0863   ZZ=            -75.6796
   XY=             -0.5124   XZ=              1.5235   YZ=             -0.3145

 Normal termination of Gaussian 16 at Fri Dec  8 03:15:31 2023.
