 Gaussian 16, Revision B.01,
 Gaussian 16:  ES64L-G16RevB.01 20-Dec-2017

 -------------------------
 #P B3LYP/6-311+g(d) force
 -------------------------

 -----
 DPGEN
 -----
 Symbolic Z-matrix:
 Charge =  0 Multiplicity = 2

                         Standard orientation:
 ---------------------------------------------------------------------
 Center     Atomic      Atomic             Coordinates (Angstroms)
 Number     Number       Type             X           Y           Z
 ---------------------------------------------------------------------
      1         11           0       -2.406254    1.235961   -0.631475
      2         11           0        1.222526    0.456006    0.410300
      3         11           0        2.258211   -2.763760   -0.320043
      4         11           0       -1.118861   -2.085404   -0.310478
      5         11           0       -4.540447   -0.808890    0.665994
      6         11           0        4.290586    0.371521    0.331182
      7         11           0        0.294240    3.594566   -0.145480
 ---------------------------------------------------------------------

 SCF Done:  E(UB3LYP) =  -1136.12882632     A.U. after   19 cycles

 The electronic state is 2-A.
 Alpha  occ. eigenvalues --  -38.44259 -38.44198 -38.43969 -38.43948 -38.43737
 Alpha  occ. eigenvalues --  -38.43399 -38.43313  -2.20106  -2.20012  -2.19800
 Alpha  occ. eigenvalues --   -2.19796  -2.19583  -2.19252  -2.19199  -1.13791
 Alpha  occ. eigenvalues --   -1.13737  -1.13703  -1.13691  -1.13680  -1.13645
 Alpha  occ. eigenvalues --   -1.13525  -1.13492  -1.13471  -1.13441  -1.13422
 Alpha  occ. eigenvalues --   -1.13354  -1.13285  -1.13272  -1.13168  -1.12969
 Alpha  occ. eigenvalues --   -1.12949  -1.12905  -1.12863  -1.12842  -1.12801
 Alpha  occ. eigenvalues --   -0.17198  -0.14194  -0.12457  -0.10741
 Alpha virt. eigenvalues --   -0.05840  -0.05301  -0.04636  -0.03755  -0.02561
 Alpha virt. eigenvalues --   -0.02117  -0.01789  -0.01458  -0.01079  -0.00711
 Alpha virt. eigenvalues --   -0.00208   0.00039   0.00539   0.00632   0.00741

  Beta  occ. eigenvalues --  -38.44188 -38.44166 -38.43941 -38.43902 -38.43706
  Beta  occ. eigenvalues --  -38.43397 -38.43303  -2.20000  -2.19932  -2.19787
  Beta  occ. eigenvalues --   -2.19674  -2.19531  -2.19240  -2.19198  -1.13687
  Beta  occ. eigenvalues --   -1.13680  -1.13667  -1.13618  -1.13612  -1.13580
  Beta  occ. eigenvalues --   -1.13499  -1.13488  -1.13424  -1.13355  -1.13344
  Beta  occ. eigenvalues --   -1.13298  -1.13248  -1.13240  -1.13111  -1.12950
  Beta  occ. eigenvalues --   -1.12915  -1.12899  -1.12863  -1.12837  -1.12800
  Beta  occ. eigenvalues --   -0.16685  -0.13441  -0.12057
  Beta virt. eigenvalues --   -0.07341  -0.05713  -0.05065  -0.04301  -0.03256
  Beta virt. eigenvalues --   -0.02226  -0.01803  -0.01488  -0.01268  -0.00895
  Beta virt. eigenvalues --   -0.00402   0.00096   0.00249   0.00628   0.00710

 Mulliken charges and spin densities:
               1          2
     1  Na  -0.055074   0.190910
     2  Na  -2.027806   0.078825
     3  Na   0.230952  -0.042371
     4  Na  -0.287255   0.064153
     5  Na   0.779057   0.368310
     6  Na   0.745925   0.347459
     7  Na   0.614203  -0.007286
 Sum of Mulliken charges =  -0.00000   1.00000

 Dipole moment (field-independent basis, Debye):
    X=              0.2174    Y=             -0.4340    Z=             -0.1301  Tot=              0.5025
 Quadrupole moment (field-independent basis, Debye-Ang):
   XX=            -61.3464   YY=            -61.5399   ZZ=            -71.0417
   XY=             -1.5492   XZ=             -2.0037   YZ=             -0.5000

 Normal termination of Gaussian 16 at Wed Nov 29 00:58:07 2023.
