 Gaussian 16, Revision B.01,
 Gaussian 16:  ES64L-G16RevB.01 20-Dec-2017

 -------------------------
 #P B3LYP/6-311+g(d) force
 -------------------------

 -----
 DPGEN
 -----
 Symbolic Z-matrix:
 Charge =  0 Multiplicity = 2

                         Standard orientation:
 ---------------------------------------------------------------------
 Center     Atomic      Atomic             Coordinates (Angstroms)
 Number     Number       Type             X           Y           Z
 ---------------------------------------------------------------------
      1         11           0       -0.189648    2.833583    0.430526
      2         11           0       -2.923458   -2.068612   -0.245116
      3         11           0        3.229081   -1.924991   -0.163360
      4         11           0        2.743832    1.396454   -0.322062
      5         11           0       -2.653491    1.138151    0.090274
      6         11           0       -0.390940   -0.257239   -1.697583
      7         11           0        0.184624   -1.117345    1.907320
 ---------------------------------------------------------------------

 SCF Done:  E(UB3LYP) =  -1136.12606695     A.U. after   21 cycles

 The electronic state is 2-A.
 Alpha  occ. eigenvalues --  -38.44428 -38.44340 -38.44207 -38.44127 -38.44124
 Alpha  occ. eigenvalues --  -38.43854 -38.42675  -2.20206  -2.20166  -2.20136
 Alpha  occ. eigenvalues --   -2.20016  -2.19954  -2.19672  -2.18555  -1.13896
 Alpha  occ. eigenvalues --   -1.13872  -1.13866  -1.13857  -1.13840  -1.13832
 Alpha  occ. eigenvalues --   -1.13825  -1.13780  -1.13778  -1.13696  -1.13658
 Alpha  occ. eigenvalues --   -1.13641  -1.13612  -1.13595  -1.13576  -1.13341
 Alpha  occ. eigenvalues --   -1.13312  -1.13279  -1.12256  -1.12202  -1.12185
 Alpha  occ. eigenvalues --   -0.18200  -0.13710  -0.12055  -0.10418
 Alpha virt. eigenvalues --   -0.06265  -0.06102  -0.04150  -0.03490  -0.02845
 Alpha virt. eigenvalues --   -0.02219  -0.02058  -0.01466  -0.00856  -0.00141
 Alpha virt. eigenvalues --   -0.00044   0.00259   0.00575   0.00703   0.00711

  Beta  occ. eigenvalues --  -38.44434 -38.44331 -38.44196 -38.44120 -38.44069
  Beta  occ. eigenvalues --  -38.43766 -38.42667  -2.20219  -2.20151  -2.20121
  Beta  occ. eigenvalues --   -2.19950  -2.19911  -2.19507  -2.18542  -1.13904
  Beta  occ. eigenvalues --   -1.13872  -1.13859  -1.13853  -1.13824  -1.13813
  Beta  occ. eigenvalues --   -1.13807  -1.13776  -1.13747  -1.13632  -1.13615
  Beta  occ. eigenvalues --   -1.13602  -1.13580  -1.13575  -1.13528  -1.13229
  Beta  occ. eigenvalues --   -1.13195  -1.13164  -1.12248  -1.12196  -1.12159
  Beta  occ. eigenvalues --   -0.17525  -0.13509  -0.11828
  Beta virt. eigenvalues --   -0.06649  -0.06156  -0.05993  -0.04063  -0.02790
  Beta virt. eigenvalues --   -0.02095  -0.01942  -0.01601  -0.01128  -0.00913
  Beta virt. eigenvalues --   -0.00110   0.00133   0.00321   0.00685   0.00717

 Mulliken charges and spin densities:
               1          2
     1  Na  -0.184927   0.000949
     2  Na   0.490281   0.071005
     3  Na   0.177551  -0.035398
     4  Na   0.131909   0.113896
     5  Na   0.236701   0.180381
     6  Na  -0.322833   0.170823
     7  Na  -0.528681   0.498343
 Sum of Mulliken charges =  -0.00000   1.00000

 Dipole moment (field-independent basis, Debye):
    X=              0.1274    Y=             -0.7057    Z=             -0.1266  Tot=              0.7282
 Quadrupole moment (field-independent basis, Debye-Ang):
   XX=            -53.3730   YY=            -65.8233   ZZ=            -75.5667
   XY=              0.8319   XZ=             -1.3786   YZ=              1.3306

 Normal termination of Gaussian 16 at Thu Dec  7 12:40:28 2023.
