 Gaussian 16, Revision B.01,
 Gaussian 16:  ES64L-G16RevB.01 20-Dec-2017

 -------------------------
 #P B3LYP/6-311+g(d) force
 -------------------------

 -----
 DPGEN
 -----
 Symbolic Z-matrix:
 Charge =  0 Multiplicity = 2

                         Standard orientation:
 ---------------------------------------------------------------------
 Center     Atomic      Atomic             Coordinates (Angstroms)
 Number     Number       Type             X           Y           Z
 ---------------------------------------------------------------------
      1         11           0       -0.484594   -2.527107    0.101288
      2         11           0       -3.148384    2.430549   -0.326527
      3         11           0       -0.109078   -0.127814   -1.623963
      4         11           0        0.425300    0.644217    1.679133
      5         11           0       -3.589206   -0.960975    0.352653
      6         11           0        3.721076    1.803795   -0.042831
      7         11           0        3.184886   -1.262665   -0.139754
 ---------------------------------------------------------------------

 SCF Done:  E(UB3LYP) =  -1136.11165796     A.U. after   32 cycles

 The electronic state is 2-A.
 Alpha  occ. eigenvalues --  -38.45749 -38.45462 -38.44619 -38.44380 -38.43676
 Alpha  occ. eigenvalues --  -38.43192 -38.42692  -2.21608  -2.21244  -2.20461
 Alpha  occ. eigenvalues --   -2.20190  -2.19435  -2.19063  -2.18590  -1.15324
 Alpha  occ. eigenvalues --   -1.15280  -1.15201  -1.14926  -1.14891  -1.14877
 Alpha  occ. eigenvalues --   -1.14158  -1.14132  -1.14094  -1.13851  -1.13836
 Alpha  occ. eigenvalues --   -1.13814  -1.13114  -1.13096  -1.13084  -1.12745
 Alpha  occ. eigenvalues --   -1.12685  -1.12660  -1.12312  -1.12232  -1.12220
 Alpha  occ. eigenvalues --   -0.17950  -0.14043  -0.11377  -0.09937
 Alpha virt. eigenvalues --   -0.07431  -0.06156  -0.04024  -0.03340  -0.03106
 Alpha virt. eigenvalues --   -0.02455  -0.01936  -0.01659  -0.01102  -0.00428
 Alpha virt. eigenvalues --   -0.00311   0.00001   0.00424   0.00488   0.00538

  Beta  occ. eigenvalues --  -38.45725 -38.45453 -38.44596 -38.44356 -38.43684
  Beta  occ. eigenvalues --  -38.43081 -38.42690  -2.21566  -2.21227  -2.20423
  Beta  occ. eigenvalues --   -2.20149  -2.19451  -2.18859  -2.18592  -1.15288
  Beta  occ. eigenvalues --   -1.15238  -1.15172  -1.14903  -1.14880  -1.14871
  Beta  occ. eigenvalues --   -1.14133  -1.14093  -1.14054  -1.13825  -1.13801
  Beta  occ. eigenvalues --   -1.13777  -1.13126  -1.13099  -1.13095  -1.12607
  Beta  occ. eigenvalues --   -1.12542  -1.12522  -1.12311  -1.12233  -1.12200
  Beta  occ. eigenvalues --   -0.17304  -0.13672  -0.11205
  Beta virt. eigenvalues --   -0.07299  -0.06244  -0.06044  -0.04021  -0.02972
  Beta virt. eigenvalues --   -0.02637  -0.01933  -0.01700  -0.01186  -0.00937
  Beta virt. eigenvalues --   -0.00268  -0.00140   0.00111   0.00553   0.00574

 Mulliken charges and spin densities:
               1          2
     1  Na   0.211856  -0.058444
     2  Na   0.167964  -0.036942
     3  Na  -0.449171   0.136685
     4  Na  -0.632185   0.469566
     5  Na   0.165207   0.119066
     6  Na   0.270490   0.077824
     7  Na   0.265837   0.292246
 Sum of Mulliken charges =  -0.00000   1.00000

 Dipole moment (field-independent basis, Debye):
    X=              0.0314    Y=             -0.4039    Z=              0.1414  Tot=              0.4291
 Quadrupole moment (field-independent basis, Debye-Ang):
   XX=            -61.1132   YY=            -65.1802   ZZ=            -73.7979
   XY=              4.0908   XZ=             -1.4980   YZ=             -5.1997

 Normal termination of Gaussian 16 at Tue Dec  5 21:17:45 2023.
