 Gaussian 16, Revision B.01,
 Gaussian 16:  ES64L-G16RevB.01 20-Dec-2017

 -------------------------
 #P B3LYP/6-311+g(d) force
 -------------------------

 -----
 DPGEN
 -----
 Symbolic Z-matrix:
 Charge =  0 Multiplicity = 2

                         Standard orientation:
 ---------------------------------------------------------------------
 Center     Atomic      Atomic             Coordinates (Angstroms)
 Number     Number       Type             X           Y           Z
 ---------------------------------------------------------------------
      1         11           0        2.211497   -1.525679    0.819740
      2         11           0       -0.732052    2.043010   -0.738199
      3         11           0       -0.875171   -1.913030   -0.788918
      4         11           0       -3.399917    0.023379   -0.160657
      5         11           0        1.875746    1.782768    0.792414
      6         11           0       -0.998069   -0.246255    1.790553
      7         11           0        1.917966   -0.164194   -1.714933
 ---------------------------------------------------------------------

 SCF Done:  E(UB3LYP) =  -1136.12746014     A.U. after   21 cycles

 The electronic state is 2-A.
 Alpha  occ. eigenvalues --  -38.44543 -38.43935 -38.43862 -38.43589 -38.43176
 Alpha  occ. eigenvalues --  -38.43123 -38.42781  -2.20431  -2.19913  -2.19847
 Alpha  occ. eigenvalues --   -2.19529  -2.19125  -2.19062  -2.18708  -1.14125
 Alpha  occ. eigenvalues --   -1.14094  -1.14062  -1.13687  -1.13567  -1.13555
 Alpha  occ. eigenvalues --   -1.13520  -1.13472  -1.13463  -1.13182  -1.13173
 Alpha  occ. eigenvalues --   -1.13142  -1.12839  -1.12771  -1.12766  -1.12764
 Alpha  occ. eigenvalues --   -1.12726  -1.12666  -1.12392  -1.12362  -1.12326
 Alpha  occ. eigenvalues --   -0.19484  -0.14050  -0.11772  -0.11478
 Alpha virt. eigenvalues --   -0.06048  -0.04654  -0.04441  -0.03457  -0.02867
 Alpha virt. eigenvalues --   -0.02667  -0.01711  -0.00497  -0.00385   0.00166
 Alpha virt. eigenvalues --    0.00371   0.00450   0.00579   0.00925   0.00958

  Beta  occ. eigenvalues --  -38.44541 -38.43882 -38.43799 -38.43572 -38.43159
  Beta  occ. eigenvalues --  -38.43102 -38.42765  -2.20428  -2.19815  -2.19731
  Beta  occ. eigenvalues --   -2.19501  -2.19098  -2.19028  -2.18682  -1.14119
  Beta  occ. eigenvalues --   -1.14082  -1.14062  -1.13631  -1.13492  -1.13482
  Beta  occ. eigenvalues --   -1.13450  -1.13385  -1.13376  -1.13163  -1.13135
  Beta  occ. eigenvalues --   -1.13107  -1.12824  -1.12759  -1.12744  -1.12712
  Beta  occ. eigenvalues --   -1.12671  -1.12645  -1.12378  -1.12322  -1.12307
  Beta  occ. eigenvalues --   -0.18703  -0.13879  -0.11549
  Beta virt. eigenvalues --   -0.07442  -0.05891  -0.04637  -0.03806  -0.03307
  Beta virt. eigenvalues --   -0.02150  -0.01683  -0.01608  -0.00469  -0.00057
  Beta virt. eigenvalues --    0.00200   0.00415   0.00439   0.00794   0.00966

 Mulliken charges and spin densities:
               1          2
     1  Na   0.311491   0.067558
     2  Na  -0.538569   0.136427
     3  Na  -0.491175   0.234855
     4  Na   0.804681   0.011039
     5  Na   0.191114   0.171383
     6  Na  -0.349677   0.186057
     7  Na   0.072135   0.192681
 Sum of Mulliken charges =  -0.00000   1.00000

 Dipole moment (field-independent basis, Debye):
    X=             -0.6461    Y=             -0.1086    Z=              0.0104  Tot=              0.6552
 Quadrupole moment (field-independent basis, Debye-Ang):
   XX=            -53.0205   YY=            -74.8316   ZZ=            -67.3536
   XY=             -0.4672   XZ=              1.8479   YZ=             -0.0930

 Normal termination of Gaussian 16 at Fri Dec  8 01:23:35 2023.
