 Gaussian 16, Revision B.01,
 Gaussian 16:  ES64L-G16RevB.01 20-Dec-2017

 -------------------------
 #P B3LYP/6-311+g(d) force
 -------------------------

 -----
 DPGEN
 -----
 Symbolic Z-matrix:
 Charge =  0 Multiplicity = 2

                         Standard orientation:
 ---------------------------------------------------------------------
 Center     Atomic      Atomic             Coordinates (Angstroms)
 Number     Number       Type             X           Y           Z
 ---------------------------------------------------------------------
      1         11           0        4.261040   -0.423261   -0.407577
      2         11           0        2.260427   -3.058955   -0.057536
      3         11           0       -1.707279   -3.481223    0.690790
      4         11           0       -3.541074   -1.507129   -0.465631
      5         11           0        2.735548    2.705340    0.120801
      6         11           0       -3.237027    2.236616   -0.470019
      7         11           0       -0.771634    3.528612    0.589172
 ---------------------------------------------------------------------

 SCF Done:  E(UB3LYP) =  -1136.10629365     A.U. after   20 cycles

 The electronic state is 2-A.
 Alpha  occ. eigenvalues --  -38.44887 -38.44758 -38.44680 -38.44669 -38.44517
 Alpha  occ. eigenvalues --  -38.44153 -38.44127  -2.20707  -2.20542  -2.20478
 Alpha  occ. eigenvalues --   -2.20457  -2.20337  -2.19964  -2.19952  -1.14465
 Alpha  occ. eigenvalues --   -1.14356  -1.14340  -1.14210  -1.14210  -1.14199
 Alpha  occ. eigenvalues --   -1.14179  -1.14140  -1.14135  -1.14129  -1.14122
 Alpha  occ. eigenvalues --   -1.14089  -1.13982  -1.13978  -1.13963  -1.13615
 Alpha  occ. eigenvalues --   -1.13603  -1.13598  -1.13592  -1.13586  -1.13573
 Alpha  occ. eigenvalues --   -0.15665  -0.14030  -0.13787  -0.10923
 Alpha virt. eigenvalues --   -0.07778  -0.04640  -0.04340  -0.03729  -0.03557
 Alpha virt. eigenvalues --   -0.02352  -0.02278  -0.01877  -0.01497  -0.00768
 Alpha virt. eigenvalues --   -0.00532   0.00044   0.00162   0.00312   0.00526

  Beta  occ. eigenvalues --  -38.44866 -38.44692 -38.44685 -38.44667 -38.44496
  Beta  occ. eigenvalues --  -38.44078 -38.44072  -2.20674  -2.20482  -2.20472
  Beta  occ. eigenvalues --   -2.20422  -2.20302  -2.19874  -2.19800  -1.14425
  Beta  occ. eigenvalues --   -1.14337  -1.14312  -1.14187  -1.14162  -1.14153
  Beta  occ. eigenvalues --   -1.14149  -1.14118  -1.14115  -1.14114  -1.14098
  Beta  occ. eigenvalues --   -1.14039  -1.13958  -1.13955  -1.13927  -1.13557
  Beta  occ. eigenvalues --   -1.13536  -1.13526  -1.13499  -1.13490  -1.13476
  Beta  occ. eigenvalues --   -0.15141  -0.13306  -0.13055
  Beta virt. eigenvalues --   -0.07854  -0.07760  -0.04211  -0.03787  -0.03560
  Beta virt. eigenvalues --   -0.03224  -0.02121  -0.02040  -0.01764  -0.01379
  Beta virt. eigenvalues --   -0.00439  -0.00223   0.00200   0.00256   0.00336

 Mulliken charges and spin densities:
               1          2
     1  Na   0.403564  -0.007854
     2  Na  -0.251549   0.297346
     3  Na   0.031186   0.021504
     4  Na  -0.190999   0.147100
     5  Na  -0.070479   0.389901
     6  Na   0.278975   0.177872
     7  Na  -0.200699  -0.025868
 Sum of Mulliken charges =  -0.00000   1.00000

 Dipole moment (field-independent basis, Debye):
    X=             -0.2614    Y=             -0.5287    Z=             -0.0201  Tot=              0.5901
 Quadrupole moment (field-independent basis, Debye-Ang):
   XX=            -63.0447   YY=            -67.0745   ZZ=            -71.8099
   XY=              0.0546   XZ=              1.3276   YZ=             -0.7332

 Normal termination of Gaussian 16 at Sun Dec  3 23:05:24 2023.
