 Gaussian 16, Revision B.01,
 Gaussian 16:  ES64L-G16RevB.01 20-Dec-2017

 -------------------------
 #P B3LYP/6-311+g(d) force
 -------------------------

 -----
 DPGEN
 -----
 Symbolic Z-matrix:
 Charge =  0 Multiplicity = 2

                         Standard orientation:
 ---------------------------------------------------------------------
 Center     Atomic      Atomic             Coordinates (Angstroms)
 Number     Number       Type             X           Y           Z
 ---------------------------------------------------------------------
      1         11           0       -0.257859   -2.657712    0.046476
      2         11           0        0.415972   -0.002070    1.888522
      3         11           0        3.534411   -0.877476   -0.035952
      4         11           0       -3.064535   -1.026712   -0.194990
      5         11           0        1.234854    2.485873   -0.318187
      6         11           0       -1.900193    2.000882    0.412580
      7         11           0        0.037351    0.077215   -1.798450
 ---------------------------------------------------------------------

 SCF Done:  E(UB3LYP) =  -1136.13265896     A.U. after   20 cycles

 The electronic state is 2-A.
 Alpha  occ. eigenvalues --  -38.44828 -38.43938 -38.43492 -38.43456 -38.43369
 Alpha  occ. eigenvalues --  -38.43351 -38.43216  -2.20571  -2.19788  -2.19422
 Alpha  occ. eigenvalues --   -2.19417  -2.19255  -2.19246  -2.19122  -1.14251
 Alpha  occ. eigenvalues --   -1.14231  -1.14204  -1.13463  -1.13447  -1.13442
 Alpha  occ. eigenvalues --   -1.13165  -1.13122  -1.13086  -1.13078  -1.13030
 Alpha  occ. eigenvalues --   -1.13021  -1.12929  -1.12919  -1.12915  -1.12898
 Alpha  occ. eigenvalues --   -1.12874  -1.12850  -1.12789  -1.12774  -1.12744
 Alpha  occ. eigenvalues --   -0.18803  -0.12947  -0.12412  -0.10837
 Alpha virt. eigenvalues --   -0.06269  -0.04877  -0.04296  -0.03157  -0.02959
 Alpha virt. eigenvalues --   -0.02576  -0.02028  -0.01022  -0.00252  -0.00096
 Alpha virt. eigenvalues --   -0.00015   0.00301   0.00771   0.00817   0.00892

  Beta  occ. eigenvalues --  -38.44832 -38.43936 -38.43409 -38.43376 -38.43361
  Beta  occ. eigenvalues --  -38.43339 -38.43203  -2.20580  -2.19787  -2.19276
  Beta  occ. eigenvalues --   -2.19267  -2.19237  -2.19235  -2.19103  -1.14248
  Beta  occ. eigenvalues --   -1.14236  -1.14212  -1.13466  -1.13448  -1.13422
  Beta  occ. eigenvalues --   -1.13089  -1.13035  -1.12986  -1.12983  -1.12931
  Beta  occ. eigenvalues --   -1.12916  -1.12908  -1.12885  -1.12877  -1.12861
  Beta  occ. eigenvalues --   -1.12846  -1.12837  -1.12775  -1.12740  -1.12726
  Beta  occ. eigenvalues --   -0.18046  -0.12739  -0.12151
  Beta virt. eigenvalues --   -0.06891  -0.06241  -0.04848  -0.04282  -0.02438
  Beta virt. eigenvalues --   -0.02130  -0.01980  -0.01483  -0.00954  -0.00271
  Beta virt. eigenvalues --   -0.00118   0.00091   0.00315   0.00806   0.00887

 Mulliken charges and spin densities:
               1          2
     1  Na   0.134191  -0.120279
     2  Na  -0.338631   0.648737
     3  Na  -0.028992  -0.154247
     4  Na   0.034944  -0.013559
     5  Na   0.219275  -0.055742
     6  Na   0.273357   0.086199
     7  Na  -0.294145   0.608890
 Sum of Mulliken charges =  -0.00000   1.00000

 Dipole moment (field-independent basis, Debye):
    X=              0.4940    Y=             -0.1894    Z=             -0.0019  Tot=              0.5290
 Quadrupole moment (field-independent basis, Debye-Ang):
   XX=            -52.4863   YY=            -66.2399   ZZ=            -74.0677
   XY=             -0.2958   XZ=             -0.6864   YZ=              0.3442

 Normal termination of Gaussian 16 at Tue Dec  5 22:13:49 2023.
