 Gaussian 16, Revision B.01,
 Gaussian 16:  ES64L-G16RevB.01 20-Dec-2017

 -------------------------
 #P B3LYP/6-311+g(d) force
 -------------------------

 -----
 DPGEN
 -----
 Symbolic Z-matrix:
 Charge =  0 Multiplicity = 2

                         Standard orientation:
 ---------------------------------------------------------------------
 Center     Atomic      Atomic             Coordinates (Angstroms)
 Number     Number       Type             X           Y           Z
 ---------------------------------------------------------------------
      1         11           0       -2.542962    2.344747    0.074382
      2         11           0        5.892909   -1.752605    0.676299
      3         11           0       -4.182149   -1.799182   -1.423967
      4         11           0       -1.003596   -1.011343   -0.217613
      5         11           0        4.131072    0.389872   -0.528401
      6         11           0       -4.124464   -0.469599    1.743998
      7         11           0        1.829190    2.298110   -0.324698
 ---------------------------------------------------------------------

 SCF Done:  E(UB3LYP) =  -1136.10336861     A.U. after   25 cycles

 The electronic state is 2-A.
 Alpha  occ. eigenvalues --  -38.45834 -38.45290 -38.44716 -38.44697 -38.44023
 Alpha  occ. eigenvalues --  -38.43610 -38.43190  -2.21621  -2.21103  -2.20528
 Alpha  occ. eigenvalues --   -2.20473  -2.19834  -2.19433  -2.19064  -1.15331
 Alpha  occ. eigenvalues --   -1.15286  -1.15209  -1.14790  -1.14747  -1.14730
 Alpha  occ. eigenvalues --   -1.14190  -1.14182  -1.14157  -1.14152  -1.14135
 Alpha  occ. eigenvalues --   -1.14085  -1.13549  -1.13488  -1.13443  -1.13135
 Alpha  occ. eigenvalues --   -1.13066  -1.13064  -1.12735  -1.12708  -1.12701
 Alpha  occ. eigenvalues --   -0.16859  -0.14290  -0.11503  -0.10868
 Alpha virt. eigenvalues --   -0.07164  -0.06503  -0.04067  -0.03196  -0.02914
 Alpha virt. eigenvalues --   -0.02834  -0.02022  -0.01882  -0.01335  -0.00831
 Alpha virt. eigenvalues --   -0.00612  -0.00465   0.00114   0.00151   0.00325

  Beta  occ. eigenvalues --  -38.45805 -38.45262 -38.44683 -38.44666 -38.43991
  Beta  occ. eigenvalues --  -38.43556 -38.43193  -2.21567  -2.21054  -2.20467
  Beta  occ. eigenvalues --   -2.20417  -2.19773  -2.19330  -2.19076  -1.15291
  Beta  occ. eigenvalues --   -1.15246  -1.15165  -1.14761  -1.14715  -1.14677
  Beta  occ. eigenvalues --   -1.14152  -1.14127  -1.14118  -1.14115  -1.14100
  Beta  occ. eigenvalues --   -1.14036  -1.13511  -1.13445  -1.13408  -1.13072
  Beta  occ. eigenvalues --   -1.12996  -1.12994  -1.12732  -1.12720  -1.12681
  Beta  occ. eigenvalues --   -0.16354  -0.13910  -0.11076
  Beta virt. eigenvalues --   -0.07404  -0.06770  -0.06256  -0.03855  -0.03000
  Beta virt. eigenvalues --   -0.02721  -0.02447  -0.01588  -0.01541  -0.01142
  Beta virt. eigenvalues --   -0.00575  -0.00419  -0.00214   0.00185   0.00309

 Mulliken charges and spin densities:
               1          2
     1  Na   0.085245   0.237643
     2  Na   0.355601   0.266455
     3  Na   0.504521   0.033376
     4  Na  -0.647303   0.304841
     5  Na  -0.838947  -0.001224
     6  Na   0.274179   0.128216
     7  Na   0.266705   0.030694
 Sum of Mulliken charges =  -0.00000   1.00000

 Dipole moment (field-independent basis, Debye):
    X=             -3.1275    Y=             -0.5332    Z=              0.2802  Tot=              3.1849
 Quadrupole moment (field-independent basis, Debye-Ang):
   XX=            -67.4311   YY=            -68.6698   ZZ=            -67.7746
   XY=              0.1976   XZ=              2.3833   YZ=             -4.6057

 Normal termination of Gaussian 16 at Fri Dec  8 17:37:37 2023.
