 Gaussian 16, Revision B.01,
 Gaussian 16:  ES64L-G16RevB.01 20-Dec-2017

 -------------------------
 #P B3LYP/6-311+g(d) force
 -------------------------

 -----
 DPGEN
 -----
 Symbolic Z-matrix:
 Charge =  0 Multiplicity = 2

                         Standard orientation:
 ---------------------------------------------------------------------
 Center     Atomic      Atomic             Coordinates (Angstroms)
 Number     Number       Type             X           Y           Z
 ---------------------------------------------------------------------
      1         11           0        1.603557    0.102439    1.485157
      2         11           0        0.614763    2.118741   -0.181543
      3         11           0        2.469057   -0.195064   -1.170243
      4         11           0        0.437652   -2.110558    0.234057
      5         11           0       -0.587943   -0.093956   -1.447243
      6         11           0       -1.198342    0.223746    1.528357
      7         11           0       -3.338743   -0.045348   -0.448543
 ---------------------------------------------------------------------

 SCF Done:  E(UB3LYP) =  -1136.08279287     A.U. after   24 cycles

 The electronic state is 2-A.
 Alpha  occ. eigenvalues --  -38.44961 -38.44463 -38.44407 -38.44005 -38.43966
 Alpha  occ. eigenvalues --  -38.42509 -38.42467  -2.20866  -2.20720  -2.20475
 Alpha  occ. eigenvalues --   -2.20268  -2.20140  -2.18612  -2.18570  -1.14632
 Alpha  occ. eigenvalues --   -1.14595  -1.14555  -1.14537  -1.14444  -1.14340
 Alpha  occ. eigenvalues --   -1.14206  -1.14054  -1.14035  -1.14026  -1.13934
 Alpha  occ. eigenvalues --   -1.13863  -1.13802  -1.13724  -1.13685  -1.12341
 Alpha  occ. eigenvalues --   -1.12293  -1.12275  -1.12229  -1.12167  -1.12134
 Alpha  occ. eigenvalues --   -0.21217  -0.14118  -0.12724  -0.11682
 Alpha virt. eigenvalues --   -0.06219  -0.04324  -0.03633  -0.03435  -0.02733
 Alpha virt. eigenvalues --   -0.02664  -0.01828  -0.00565  -0.00180   0.00264
 Alpha virt. eigenvalues --    0.00506   0.00613   0.00960   0.01016   0.01028

  Beta  occ. eigenvalues --  -38.44953 -38.44396 -38.44371 -38.43941 -38.43900
  Beta  occ. eigenvalues --  -38.42493 -38.42454  -2.20851  -2.20605  -2.20411
  Beta  occ. eigenvalues --   -2.20153  -2.20025  -2.18590  -2.18553  -1.14609
  Beta  occ. eigenvalues --   -1.14558  -1.14491  -1.14449  -1.14437  -1.14259
  Beta  occ. eigenvalues --   -1.14131  -1.13993  -1.13991  -1.13958  -1.13856
  Beta  occ. eigenvalues --   -1.13779  -1.13707  -1.13626  -1.13605  -1.12331
  Beta  occ. eigenvalues --   -1.12288  -1.12219  -1.12179  -1.12148  -1.12110
  Beta  occ. eigenvalues --   -0.20359  -0.13943  -0.11348
  Beta virt. eigenvalues --   -0.08288  -0.06131  -0.03698  -0.03395  -0.03170
  Beta virt. eigenvalues --   -0.01976  -0.01846  -0.01701  -0.00244  -0.00154
  Beta virt. eigenvalues --    0.00284   0.00576   0.00754   0.00941   0.01061

 Mulliken charges and spin densities:
               1          2
     1  Na  -0.035783   0.194404
     2  Na   0.202250   0.192251
     3  Na   0.495813  -0.033473
     4  Na   0.161343   0.135710
     5  Na  -0.597262   0.385166
     6  Na  -0.389747   0.050648
     7  Na   0.163385   0.075294
 Sum of Mulliken charges =  -0.00000   1.00000

 Dipole moment (field-independent basis, Debye):
    X=             -0.5874    Y=             -0.0215    Z=             -0.3190  Tot=              0.6687
 Quadrupole moment (field-independent basis, Debye-Ang):
   XX=            -52.2647   YY=            -77.1855   ZZ=            -65.1102
   XY=              0.0254   XZ=             -0.6165   YZ=             -0.3322

 Normal termination of Gaussian 16 at Fri Dec  8 17:40:09 2023.
