 Gaussian 16, Revision B.01,
 Gaussian 16:  ES64L-G16RevB.01 20-Dec-2017

 -------------------------
 #P B3LYP/6-311+g(d) force
 -------------------------

 -----
 DPGEN
 -----
 Symbolic Z-matrix:
 Charge =  0 Multiplicity = 2

                         Standard orientation:
 ---------------------------------------------------------------------
 Center     Atomic      Atomic             Coordinates (Angstroms)
 Number     Number       Type             X           Y           Z
 ---------------------------------------------------------------------
      1         11           0       -0.496481    1.650860   -0.364017
      2         11           0        1.196886    4.348083    0.535416
      3         11           0        2.913695    0.550053   -0.603441
      4         11           0        3.679957   -2.845635    0.093657
      5         11           0        0.899415   -1.819955    0.066314
      6         11           0       -2.775192   -1.544913    0.759167
      7         11           0       -5.418280   -0.338494   -0.487096
 ---------------------------------------------------------------------

 SCF Done:  E(UB3LYP) =  -1136.11865626     A.U. after   26 cycles

 The electronic state is 2-A.
 Alpha  occ. eigenvalues --  -38.45530 -38.44576 -38.44402 -38.44103 -38.43575
 Alpha  occ. eigenvalues --  -38.43494 -38.43106  -2.21349  -2.20351  -2.20261
 Alpha  occ. eigenvalues --   -2.19930  -2.19519  -2.19314  -2.18920  -1.15079
 Alpha  occ. eigenvalues --   -1.15047  -1.14916  -1.14025  -1.14014  -1.13981
 Alpha  occ. eigenvalues --   -1.13974  -1.13899  -1.13875  -1.13634  -1.13616
 Alpha  occ. eigenvalues --   -1.13516  -1.13213  -1.13180  -1.13123  -1.12972
 Alpha  occ. eigenvalues --   -1.12947  -1.12943  -1.12601  -1.12589  -1.12565
 Alpha  occ. eigenvalues --   -0.17128  -0.13591  -0.13021  -0.10250
 Alpha virt. eigenvalues --   -0.06891  -0.05214  -0.04307  -0.03994  -0.02836
 Alpha virt. eigenvalues --   -0.02317  -0.01909  -0.01652  -0.01140  -0.01024
 Alpha virt. eigenvalues --   -0.00268   0.00190   0.00322   0.00362   0.00520

  Beta  occ. eigenvalues --  -38.45523 -38.44559 -38.44375 -38.44087 -38.43534
  Beta  occ. eigenvalues --  -38.43409 -38.43105  -2.21337  -2.20320  -2.20210
  Beta  occ. eigenvalues --   -2.19904  -2.19450  -2.19155  -2.18927  -1.15058
  Beta  occ. eigenvalues --   -1.15041  -1.14903  -1.14004  -1.13992  -1.13954
  Beta  occ. eigenvalues --   -1.13949  -1.13863  -1.13835  -1.13617  -1.13592
  Beta  occ. eigenvalues --   -1.13488  -1.13169  -1.13138  -1.13040  -1.12873
  Beta  occ. eigenvalues --   -1.12839  -1.12836  -1.12614  -1.12596  -1.12510
  Beta  occ. eigenvalues --   -0.16589  -0.13172  -0.12534
  Beta virt. eigenvalues --   -0.06952  -0.06557  -0.04990  -0.03986  -0.03569
  Beta virt. eigenvalues --   -0.02719  -0.02066  -0.01780  -0.01394  -0.00814
  Beta virt. eigenvalues --   -0.00615  -0.00077   0.00413   0.00460   0.00542

 Mulliken charges and spin densities:
               1          2
     1  Na  -1.215800  -0.105185
     2  Na   0.739657   0.180980
     3  Na   0.387703   0.180147
     4  Na   2.370362   0.267373
     5  Na  -2.482848   0.108015
     6  Na   0.086647  -0.025618
     7  Na   0.114279   0.394289
 Sum of Mulliken charges =  -0.00000   1.00000

 Dipole moment (field-independent basis, Debye):
    X=              2.4620    Y=              0.5870    Z=              0.0481  Tot=              2.5315
 Quadrupole moment (field-independent basis, Debye-Ang):
   XX=            -70.2679   YY=            -57.2090   ZZ=            -70.8302
   XY=             -4.4688   XZ=              1.6191   YZ=             -0.3685

 Normal termination of Gaussian 16 at Tue Nov 28 20:44:31 2023.
