 Gaussian 16, Revision B.01,
 Gaussian 16:  ES64L-G16RevB.01 20-Dec-2017

 -------------------------
 #P B3LYP/6-311+g(d) force
 -------------------------

 -----
 DPGEN
 -----
 Symbolic Z-matrix:
 Charge =  0 Multiplicity = 2

                         Standard orientation:
 ---------------------------------------------------------------------
 Center     Atomic      Atomic             Coordinates (Angstroms)
 Number     Number       Type             X           Y           Z
 ---------------------------------------------------------------------
      1         11           0       -0.301526    1.820857    0.225704
      2         11           0        2.762779    3.595024   -0.366663
      3         11           0        2.546516    0.131489    0.796501
      4         11           0        3.150950   -2.881259   -1.020886
      5         11           0        0.367859   -2.352991    1.136143
      6         11           0       -2.876776   -0.556379   -0.902728
      7         11           0       -5.649803    0.243259    0.131928
 ---------------------------------------------------------------------

 SCF Done:  E(UB3LYP) =  -1136.11969074     A.U. after   19 cycles

 The electronic state is 2-A.
 Alpha  occ. eigenvalues --  -38.44391 -38.44293 -38.44290 -38.44286 -38.43972
 Alpha  occ. eigenvalues --  -38.43948 -38.43511  -2.20204  -2.20148  -2.20106
 Alpha  occ. eigenvalues --   -2.20092  -2.19792  -2.19733  -2.19331  -1.13930
 Alpha  occ. eigenvalues --   -1.13882  -1.13858  -1.13855  -1.13817  -1.13802
 Alpha  occ. eigenvalues --   -1.13784  -1.13755  -1.13749  -1.13719  -1.13692
 Alpha  occ. eigenvalues --   -1.13681  -1.13470  -1.13425  -1.13422  -1.13399
 Alpha  occ. eigenvalues --   -1.13397  -1.13346  -1.13009  -1.12996  -1.12972
 Alpha  occ. eigenvalues --   -0.16760  -0.13548  -0.12672  -0.10329
 Alpha virt. eigenvalues --   -0.06363  -0.05760  -0.04662  -0.03313  -0.02940
 Alpha virt. eigenvalues --   -0.02607  -0.01698  -0.01393  -0.01265  -0.00665
 Alpha virt. eigenvalues --   -0.00592  -0.00113   0.00322   0.00410   0.00455

  Beta  occ. eigenvalues --  -38.44369 -38.44280 -38.44269 -38.44241 -38.43927
  Beta  occ. eigenvalues --  -38.43901 -38.43515  -2.20165  -2.20140  -2.20068
  Beta  occ. eigenvalues --   -2.19995  -2.19693  -2.19660  -2.19346  -1.13903
  Beta  occ. eigenvalues --   -1.13862  -1.13844  -1.13826  -1.13778  -1.13772
  Beta  occ. eigenvalues --   -1.13755  -1.13716  -1.13684  -1.13674  -1.13656
  Beta  occ. eigenvalues --   -1.13632  -1.13388  -1.13372  -1.13367  -1.13334
  Beta  occ. eigenvalues --   -1.13331  -1.13322  -1.13023  -1.13010  -1.12935
  Beta  occ. eigenvalues --   -0.16207  -0.12954  -0.12456
  Beta virt. eigenvalues --   -0.07134  -0.05873  -0.05368  -0.04422  -0.03017
  Beta virt. eigenvalues --   -0.02739  -0.02381  -0.01520  -0.01188  -0.00913
  Beta virt. eigenvalues --   -0.00427  -0.00214   0.00131   0.00458   0.00488

 Mulliken charges and spin densities:
               1          2
     1  Na  -0.798466  -0.117088
     2  Na   0.759770   0.180757
     3  Na  -0.121275   0.258298
     4  Na   0.234372   0.311681
     5  Na  -0.084630   0.021292
     6  Na  -0.243947   0.010358
     7  Na   0.254177   0.334703
 Sum of Mulliken charges =  -0.00000   1.00000

 Dipole moment (field-independent basis, Debye):
    X=              0.7965    Y=             -0.1380    Z=              0.0755  Tot=              0.8118
 Quadrupole moment (field-independent basis, Debye-Ang):
   XX=            -69.4936   YY=            -62.3843   ZZ=            -67.6189
   XY=              0.7375   XZ=             -4.9071   YZ=              0.1796

 Normal termination of Gaussian 16 at Wed Nov 29 01:29:21 2023.
