 Gaussian 16, Revision B.01,
 Gaussian 16:  ES64L-G16RevB.01 20-Dec-2017

 -------------------------
 #P B3LYP/6-311+g(d) force
 -------------------------

 -----
 DPGEN
 -----
 Symbolic Z-matrix:
 Charge =  0 Multiplicity = 2

                         Standard orientation:
 ---------------------------------------------------------------------
 Center     Atomic      Atomic             Coordinates (Angstroms)
 Number     Number       Type             X           Y           Z
 ---------------------------------------------------------------------
      1         11           0        2.191268   -1.848350    0.035915
      2         11           0        2.605815    1.476143   -0.072993
      3         11           0       -0.569479    2.779584    0.337876
      4         11           0       -0.175565   -0.404667    1.659984
      5         11           0       -2.988418    0.467465   -0.237027
      6         11           0        0.130475    0.122982   -1.639257
      7         11           0       -1.194095   -2.593157   -0.084499
 ---------------------------------------------------------------------

 SCF Done:  E(UB3LYP) =  -1136.13774695     A.U. after   18 cycles

 The electronic state is 2-A.
 Alpha  occ. eigenvalues --  -38.43737 -38.43586 -38.43527 -38.43490 -38.43377
 Alpha  occ. eigenvalues --  -38.42966 -38.42868  -2.19602  -2.19464  -2.19440
 Alpha  occ. eigenvalues --   -2.19410  -2.19257  -2.19008  -2.18907  -1.13280
 Alpha  occ. eigenvalues --   -1.13268  -1.13248  -1.13189  -1.13172  -1.13142
 Alpha  occ. eigenvalues --   -1.13118  -1.13113  -1.13109  -1.13066  -1.13047
 Alpha  occ. eigenvalues --   -1.13003  -1.12939  -1.12923  -1.12884  -1.12697
 Alpha  occ. eigenvalues --   -1.12623  -1.12610  -1.12579  -1.12527  -1.12521
 Alpha  occ. eigenvalues --   -0.19367  -0.13122  -0.12910  -0.10552
 Alpha virt. eigenvalues --   -0.05313  -0.05133  -0.04849  -0.02996  -0.02926
 Alpha virt. eigenvalues --   -0.02106  -0.01383  -0.01149  -0.00212  -0.00170
 Alpha virt. eigenvalues --    0.00054   0.00366   0.00876   0.00919   0.00939

  Beta  occ. eigenvalues --  -38.43731 -38.43582 -38.43519 -38.43482 -38.43367
  Beta  occ. eigenvalues --  -38.42891 -38.42794  -2.19594  -2.19460  -2.19430
  Beta  occ. eigenvalues --   -2.19399  -2.19243  -2.18870  -2.18772  -1.13275
  Beta  occ. eigenvalues --   -1.13248  -1.13235  -1.13180  -1.13162  -1.13134
  Beta  occ. eigenvalues --   -1.13109  -1.13094  -1.13071  -1.13046  -1.13029
  Beta  occ. eigenvalues --   -1.12999  -1.12931  -1.12886  -1.12879  -1.12607
  Beta  occ. eigenvalues --   -1.12527  -1.12511  -1.12485  -1.12431  -1.12421
  Beta  occ. eigenvalues --   -0.18642  -0.12849  -0.12634
  Beta virt. eigenvalues --   -0.06624  -0.05300  -0.05126  -0.04822  -0.02196
  Beta virt. eigenvalues --   -0.02117  -0.01304  -0.01104  -0.01070  -0.00246
  Beta virt. eigenvalues --   -0.00228   0.00172   0.00396   0.00914   0.00918

 Mulliken charges and spin densities:
               1          2
     1  Na   0.261327  -0.091331
     2  Na   0.123877  -0.056339
     3  Na   0.048344  -0.037692
     4  Na  -0.411928   0.669117
     5  Na   0.092087  -0.046111
     6  Na  -0.416175   0.648439
     7  Na   0.302468  -0.086083
 Sum of Mulliken charges =  -0.00000   1.00000

 Dipole moment (field-independent basis, Debye):
    X=             -0.0602    Y=              0.0176    Z=             -0.0200  Tot=              0.0658
 Quadrupole moment (field-independent basis, Debye-Ang):
   XX=            -56.6349   YY=            -60.2528   ZZ=            -75.4708
   XY=              0.1132   XZ=              0.7746   YZ=              1.1939

 Normal termination of Gaussian 16 at Tue Nov 28 19:56:01 2023.
