 Gaussian 16, Revision B.01,
 Gaussian 16:  ES64L-G16RevB.01 20-Dec-2017

 -------------------------
 #P B3LYP/6-311+g(d) force
 -------------------------

 -----
 DPGEN
 -----
 Symbolic Z-matrix:
 Charge =  0 Multiplicity = 2

                         Standard orientation:
 ---------------------------------------------------------------------
 Center     Atomic      Atomic             Coordinates (Angstroms)
 Number     Number       Type             X           Y           Z
 ---------------------------------------------------------------------
      1         11           0        2.334445   -2.255349    0.028950
      2         11           0       -3.026945    0.827532   -0.540117
      3         11           0       -0.357211    0.006729    2.150104
      4         11           0       -2.100396   -2.176464    0.096193
      5         11           0        3.019438    0.876668   -0.284651
      6         11           0        0.184650    2.936251    0.204436
      7         11           0       -0.053981   -0.215367   -1.654916
 ---------------------------------------------------------------------

 SCF Done:  E(UB3LYP) =  -1136.13504819     A.U. after   20 cycles

 The electronic state is 2-A.
 Alpha  occ. eigenvalues --  -38.44314 -38.44084 -38.43825 -38.43718 -38.43677
 Alpha  occ. eigenvalues --  -38.43591 -38.42828  -2.20169  -2.19924  -2.19691
 Alpha  occ. eigenvalues --   -2.19585  -2.19528  -2.19492  -2.18654  -1.13853
 Alpha  occ. eigenvalues --   -1.13832  -1.13797  -1.13603  -1.13599  -1.13561
 Alpha  occ. eigenvalues --   -1.13357  -1.13324  -1.13312  -1.13282  -1.13238
 Alpha  occ. eigenvalues --   -1.13222  -1.13207  -1.13176  -1.13159  -1.13152
 Alpha  occ. eigenvalues --   -1.13139  -1.13125  -1.12328  -1.12319  -1.12297
 Alpha  occ. eigenvalues --   -0.18421  -0.13471  -0.11906  -0.10910
 Alpha virt. eigenvalues --   -0.05814  -0.05421  -0.04388  -0.03430  -0.02769
 Alpha virt. eigenvalues --   -0.02727  -0.01730  -0.01092  -0.00465  -0.00334
 Alpha virt. eigenvalues --   -0.00035   0.00343   0.00717   0.00842   0.00890

  Beta  occ. eigenvalues --  -38.44297 -38.44081 -38.43721 -38.43710 -38.43679
  Beta  occ. eigenvalues --  -38.43537 -38.42826  -2.20140  -2.19921  -2.19576
  Beta  occ. eigenvalues --   -2.19502  -2.19496  -2.19429  -2.18652  -1.13831
  Beta  occ. eigenvalues --   -1.13804  -1.13772  -1.13600  -1.13588  -1.13558
  Beta  occ. eigenvalues --   -1.13280  -1.13236  -1.13220  -1.13203  -1.13182
  Beta  occ. eigenvalues --   -1.13164  -1.13160  -1.13159  -1.13139  -1.13129
  Beta  occ. eigenvalues --   -1.13090  -1.13068  -1.12325  -1.12301  -1.12298
  Beta  occ. eigenvalues --   -0.17696  -0.13243  -0.11705
  Beta virt. eigenvalues --   -0.06964  -0.05721  -0.05408  -0.04347  -0.02689
  Beta virt. eigenvalues --   -0.02007  -0.01728  -0.01577  -0.01018  -0.00521
  Beta virt. eigenvalues --   -0.00338   0.00113   0.00387   0.00809   0.00843

 Mulliken charges and spin densities:
               1          2
     1  Na   0.046659  -0.048043
     2  Na   0.261726   0.057647
     3  Na  -0.432907   0.743421
     4  Na   0.177016   0.017756
     5  Na   0.063603  -0.035071
     6  Na  -0.038804  -0.049192
     7  Na  -0.077292   0.313483
 Sum of Mulliken charges =  -0.00000   1.00000

 Dipole moment (field-independent basis, Debye):
    X=             -0.1943    Y=             -0.1672    Z=              0.0265  Tot=              0.2577
 Quadrupole moment (field-independent basis, Debye-Ang):
   XX=            -55.6862   YY=            -65.2876   ZZ=            -73.6637
   XY=             -0.1543   XZ=              0.7403   YZ=             -1.0587

 Normal termination of Gaussian 16 at Thu Dec  7 09:27:58 2023.
