 Gaussian 16, Revision B.01,
 Gaussian 16:  ES64L-G16RevB.01 20-Dec-2017

 -------------------------
 #P B3LYP/6-311+g(d) force
 -------------------------

 -----
 DPGEN
 -----
 Symbolic Z-matrix:
 Charge =  0 Multiplicity = 2

                         Standard orientation:
 ---------------------------------------------------------------------
 Center     Atomic      Atomic             Coordinates (Angstroms)
 Number     Number       Type             X           Y           Z
 ---------------------------------------------------------------------
      1         11           0       -3.234786    2.171277   -0.305270
      2         11           0       -4.303664   -1.014124   -0.884971
      3         11           0       -1.540231   -1.257678    1.181161
      4         11           0        1.119343   -2.930910   -0.196423
      5         11           0        0.288230    1.447098    1.013239
      6         11           0        3.199595    2.750757   -0.442471
      7         11           0        4.471514   -1.166420   -0.365266
 ---------------------------------------------------------------------

 SCF Done:  E(UB3LYP) =  -1136.11072034     A.U. after   23 cycles

 The electronic state is 2-A.
 Alpha  occ. eigenvalues --  -38.45445 -38.45021 -38.45006 -38.44410 -38.43864
 Alpha  occ. eigenvalues --  -38.43708 -38.43520  -2.21210  -2.20834  -2.20755
 Alpha  occ. eigenvalues --   -2.20145  -2.19734  -2.19541  -2.19277  -1.14895
 Alpha  occ. eigenvalues --   -1.14862  -1.14854  -1.14489  -1.14477  -1.14452
 Alpha  occ. eigenvalues --   -1.14422  -1.14388  -1.14373  -1.13828  -1.13812
 Alpha  occ. eigenvalues --   -1.13793  -1.13453  -1.13401  -1.13334  -1.13211
 Alpha  occ. eigenvalues --   -1.13183  -1.13160  -1.12962  -1.12946  -1.12924
 Alpha  occ. eigenvalues --   -0.16719  -0.13806  -0.11578  -0.11153
 Alpha virt. eigenvalues --   -0.07327  -0.05610  -0.04235  -0.03762  -0.03286
 Alpha virt. eigenvalues --   -0.02405  -0.01859  -0.01609  -0.01322  -0.00516
 Alpha virt. eigenvalues --   -0.00415  -0.00248   0.00243   0.00444   0.00495

  Beta  occ. eigenvalues --  -38.45435 -38.44959 -38.44934 -38.44429 -38.43821
  Beta  occ. eigenvalues --  -38.43652 -38.43530  -2.21194  -2.20719  -2.20620
  Beta  occ. eigenvalues --   -2.20180  -2.19660  -2.19438  -2.19299  -1.14887
  Beta  occ. eigenvalues --   -1.14851  -1.14818  -1.14410  -1.14398  -1.14372
  Beta  occ. eigenvalues --   -1.14330  -1.14300  -1.14281  -1.13853  -1.13836
  Beta  occ. eigenvalues --   -1.13807  -1.13374  -1.13352  -1.13288  -1.13144
  Beta  occ. eigenvalues --   -1.13106  -1.13094  -1.12980  -1.12959  -1.12922
  Beta  occ. eigenvalues --   -0.15992  -0.13127  -0.11572
  Beta virt. eigenvalues --   -0.07726  -0.07114  -0.05128  -0.03864  -0.03488
  Beta virt. eigenvalues --   -0.02752  -0.02131  -0.01730  -0.01305  -0.01088
  Beta virt. eigenvalues --   -0.00494  -0.00224   0.00037   0.00403   0.00512

 Mulliken charges and spin densities:
               1          2
     1  Na   0.244331   0.068954
     2  Na   0.067039   0.338965
     3  Na   0.031186   0.171096
     4  Na   0.142746  -0.132086
     5  Na  -0.711306   0.114486
     6  Na   0.365454   0.010600
     7  Na  -0.139450   0.427985
 Sum of Mulliken charges =  -0.00000   1.00000

 Dipole moment (field-independent basis, Debye):
    X=             -1.0915    Y=              0.4624    Z=             -0.6153  Tot=              1.3356
 Quadrupole moment (field-independent basis, Debye-Ang):
   XX=            -57.8391   YY=            -66.3583   ZZ=            -71.6248
   XY=              0.9127   XZ=             -0.3353   YZ=             -0.2630

 Normal termination of Gaussian 16 at Mon Dec  4 00:45:23 2023.
