 Gaussian 16, Revision B.01,
 Gaussian 16:  ES64L-G16RevB.01 20-Dec-2017

 -------------------------
 #P B3LYP/6-311+g(d) force
 -------------------------

 -----
 DPGEN
 -----
 Symbolic Z-matrix:
 Charge =  0 Multiplicity = 2

                         Standard orientation:
 ---------------------------------------------------------------------
 Center     Atomic      Atomic             Coordinates (Angstroms)
 Number     Number       Type             X           Y           Z
 ---------------------------------------------------------------------
      1         11           0       -4.376846   -1.396366   -0.096671
      2         11           0       -3.300315    1.883319   -0.060393
      3         11           0       -0.320524    3.936154    0.321507
      4         11           0       -1.064242   -3.311453   -0.058195
      5         11           0        2.312907    2.027835   -0.280587
      6         11           0        4.611889   -0.056324   -0.123215
      7         11           0        2.137130   -3.083166    0.297555
 ---------------------------------------------------------------------

 SCF Done:  E(UB3LYP) =  -1136.11264405     A.U. after   21 cycles

 The electronic state is 2-A.
 Alpha  occ. eigenvalues --  -38.45300 -38.44781 -38.44656 -38.44504 -38.44330
 Alpha  occ. eigenvalues --  -38.44252 -38.43712  -2.21049  -2.20567  -2.20472
 Alpha  occ. eigenvalues --   -2.20287  -2.20118  -2.20080  -2.19526  -1.14741
 Alpha  occ. eigenvalues --   -1.14725  -1.14679  -1.14253  -1.14235  -1.14192
 Alpha  occ. eigenvalues --   -1.14166  -1.14147  -1.14134  -1.13959  -1.13955
 Alpha  occ. eigenvalues --   -1.13908  -1.13776  -1.13763  -1.13751  -1.13733
 Alpha  occ. eigenvalues --   -1.13719  -1.13694  -1.13183  -1.13174  -1.13157
 Alpha  occ. eigenvalues --   -0.15673  -0.13991  -0.13643  -0.11185
 Alpha virt. eigenvalues --   -0.07353  -0.04521  -0.04482  -0.03680  -0.03466
 Alpha virt. eigenvalues --   -0.02446  -0.02178  -0.02003  -0.01618  -0.00603
 Alpha virt. eigenvalues --   -0.00453  -0.00057   0.00087   0.00499   0.00670

  Beta  occ. eigenvalues --  -38.45291 -38.44745 -38.44642 -38.44475 -38.44282
  Beta  occ. eigenvalues --  -38.44192 -38.43664  -2.21039  -2.20505  -2.20452
  Beta  occ. eigenvalues --   -2.20240  -2.20030  -2.19970  -2.19437  -1.14739
  Beta  occ. eigenvalues --   -1.14724  -1.14636  -1.14203  -1.14198  -1.14141
  Beta  occ. eigenvalues --   -1.14133  -1.14129  -1.14100  -1.13930  -1.13925
  Beta  occ. eigenvalues --   -1.13850  -1.13717  -1.13703  -1.13690  -1.13654
  Beta  occ. eigenvalues --   -1.13644  -1.13624  -1.13124  -1.13113  -1.13099
  Beta  occ. eigenvalues --   -0.15100  -0.13202  -0.12783
  Beta virt. eigenvalues --   -0.08070  -0.07558  -0.04168  -0.03951  -0.03490
  Beta virt. eigenvalues --   -0.03021  -0.02227  -0.01982  -0.01813  -0.01417
  Beta virt. eigenvalues --   -0.00297  -0.00046   0.00156   0.00281   0.00501

 Mulliken charges and spin densities:
               1          2
     1  Na   0.434242   0.213092
     2  Na  -0.398741   0.090975
     3  Na   0.368497   0.229792
     4  Na  -0.314378   0.061830
     5  Na  -1.141926   0.198473
     6  Na   0.828376   0.170312
     7  Na   0.223930   0.035526
 Sum of Mulliken charges =  -0.00000   1.00000

 Dipole moment (field-independent basis, Debye):
    X=              0.0446    Y=             -0.2971    Z=              0.0413  Tot=              0.3032
 Quadrupole moment (field-independent basis, Debye-Ang):
   XX=            -57.8846   YY=            -65.7241   ZZ=            -74.2392
   XY=             -2.3989   XZ=              0.6277   YZ=              0.2036

 Normal termination of Gaussian 16 at Sun Dec  3 18:06:14 2023.
