 Gaussian 16, Revision B.01,
 Gaussian 16:  ES64L-G16RevB.01 20-Dec-2017

 -------------------------
 #P B3LYP/6-311+g(d) force
 -------------------------

 -----
 DPGEN
 -----
 Symbolic Z-matrix:
 Charge =  0 Multiplicity = 2

                         Standard orientation:
 ---------------------------------------------------------------------
 Center     Atomic      Atomic             Coordinates (Angstroms)
 Number     Number       Type             X           Y           Z
 ---------------------------------------------------------------------
      1         11           0        1.384566   -0.702722    1.382234
      2         11           0       -1.177508   -2.310097    0.023822
      3         11           0       -1.710604    1.262493    1.407208
      4         11           0        2.711088    1.778941   -0.886360
      5         11           0        0.174418    3.451667   -0.376036
      6         11           0       -4.210912   -0.686531   -1.047940
      7         11           0        2.828952   -2.793751   -0.502928
 ---------------------------------------------------------------------

 SCF Done:  E(UB3LYP) =  -1136.12146951     A.U. after   21 cycles

 The electronic state is 2-A.
 Alpha  occ. eigenvalues --  -38.44801 -38.44488 -38.44078 -38.44042 -38.43923
 Alpha  occ. eigenvalues --  -38.43838 -38.43794  -2.20589  -2.20283  -2.19903
 Alpha  occ. eigenvalues --   -2.19869  -2.19826  -2.19626  -2.19618  -1.14271
 Alpha  occ. eigenvalues --   -1.14243  -1.14227  -1.13992  -1.13981  -1.13883
 Alpha  occ. eigenvalues --   -1.13663  -1.13565  -1.13559  -1.13526  -1.13515
 Alpha  occ. eigenvalues --   -1.13510  -1.13474  -1.13446  -1.13442  -1.13287
 Alpha  occ. eigenvalues --   -1.13285  -1.13279  -1.13273  -1.13239  -1.13226
 Alpha  occ. eigenvalues --   -0.17168  -0.13176  -0.13056  -0.10335
 Alpha virt. eigenvalues --   -0.06423  -0.06004  -0.04297  -0.03773  -0.02993
 Alpha virt. eigenvalues --   -0.01946  -0.01858  -0.01404  -0.01156  -0.00858
 Alpha virt. eigenvalues --   -0.00167   0.00078   0.00468   0.00517   0.00595

  Beta  occ. eigenvalues --  -38.44799 -38.44488 -38.44077 -38.44001 -38.43889
  Beta  occ. eigenvalues --  -38.43766 -38.43748  -2.20585  -2.20288  -2.19904
  Beta  occ. eigenvalues --   -2.19793  -2.19767  -2.19538  -2.19491  -1.14268
  Beta  occ. eigenvalues --   -1.14240  -1.14222  -1.13992  -1.13967  -1.13882
  Beta  occ. eigenvalues --   -1.13640  -1.13567  -1.13542  -1.13478  -1.13476
  Beta  occ. eigenvalues --   -1.13464  -1.13426  -1.13402  -1.13389  -1.13235
  Beta  occ. eigenvalues --   -1.13218  -1.13187  -1.13180  -1.13172  -1.13149
  Beta  occ. eigenvalues --   -0.16644  -0.12942  -0.12501
  Beta virt. eigenvalues --   -0.06922  -0.06205  -0.05803  -0.03953  -0.03417
  Beta virt. eigenvalues --   -0.02593  -0.01748  -0.01529  -0.01012  -0.00918
  Beta virt. eigenvalues --   -0.00767   0.00068   0.00230   0.00503   0.00632

 Mulliken charges and spin densities:
               1          2
     1  Na   0.653279   0.222047
     2  Na  -0.665695  -0.029576
     3  Na  -0.136559   0.196172
     4  Na  -0.342183   0.263039
     5  Na   0.102715  -0.035181
     6  Na   0.204995   0.391557
     7  Na   0.183448  -0.008058
 Sum of Mulliken charges =  -0.00000   1.00000

 Dipole moment (field-independent basis, Debye):
    X=              0.7288    Y=             -0.4766    Z=             -0.1824  Tot=              0.8897
 Quadrupole moment (field-independent basis, Debye-Ang):
   XX=            -64.9333   YY=            -61.9905   ZZ=            -71.5808
   XY=             -9.6079   XZ=             -1.1155   YZ=              1.7701

 Normal termination of Gaussian 16 at Tue Nov 28 23:08:43 2023.
