 Gaussian 16, Revision B.01,
 Gaussian 16:  ES64L-G16RevB.01 20-Dec-2017

 -------------------------
 #P B3LYP/6-311+g(d) force
 -------------------------

 -----
 DPGEN
 -----
 Symbolic Z-matrix:
 Charge =  0 Multiplicity = 2

                         Standard orientation:
 ---------------------------------------------------------------------
 Center     Atomic      Atomic             Coordinates (Angstroms)
 Number     Number       Type             X           Y           Z
 ---------------------------------------------------------------------
      1         11           0       -0.562038    2.847762   -0.053900
      2         11           0       -3.456443    0.183765    0.055604
      3         11           0        0.262164    0.175376    2.083315
      4         11           0        2.792509    1.236710   -0.349766
      5         11           0        2.792748   -1.969495    0.066867
      6         11           0       -1.720526   -2.461552   -0.130470
      7         11           0       -0.108415   -0.012566   -1.671651
 ---------------------------------------------------------------------

 SCF Done:  E(UB3LYP) =  -1136.13216831     A.U. after   20 cycles

 The electronic state is 2-A.
 Alpha  occ. eigenvalues --  -38.44927 -38.44162 -38.43963 -38.43714 -38.43569
 Alpha  occ. eigenvalues --  -38.43502 -38.42775  -2.20731  -2.20022  -2.19764
 Alpha  occ. eigenvalues --   -2.19573  -2.19435  -2.19412  -2.18619  -1.14407
 Alpha  occ. eigenvalues --   -1.14396  -1.14365  -1.13711  -1.13692  -1.13657
 Alpha  occ. eigenvalues --   -1.13425  -1.13422  -1.13406  -1.13241  -1.13203
 Alpha  occ. eigenvalues --   -1.13187  -1.13151  -1.13111  -1.13071  -1.13060
 Alpha  occ. eigenvalues --   -1.13045  -1.13036  -1.12302  -1.12284  -1.12251
 Alpha  occ. eigenvalues --   -0.18290  -0.13501  -0.11835  -0.10610
 Alpha virt. eigenvalues --   -0.06303  -0.05365  -0.04305  -0.03412  -0.02609
 Alpha virt. eigenvalues --   -0.02569  -0.02035  -0.01206  -0.00539  -0.00365
 Alpha virt. eigenvalues --   -0.00061   0.00315   0.00690   0.00783   0.00836

  Beta  occ. eigenvalues --  -38.44928 -38.44152 -38.43963 -38.43617 -38.43565
  Beta  occ. eigenvalues --  -38.43438 -38.42771  -2.20734  -2.20007  -2.19766
  Beta  occ. eigenvalues --   -2.19408  -2.19394  -2.19319  -2.18615  -1.14412
  Beta  occ. eigenvalues --   -1.14384  -1.14369  -1.13702  -1.13658  -1.13650
  Beta  occ. eigenvalues --   -1.13428  -1.13409  -1.13407  -1.13127  -1.13112
  Beta  occ. eigenvalues --   -1.13078  -1.13062  -1.13057  -1.13040  -1.13033
  Beta  occ. eigenvalues --   -1.12983  -1.12962  -1.12299  -1.12260  -1.12248
  Beta  occ. eigenvalues --   -0.17566  -0.13322  -0.11619
  Beta virt. eigenvalues --   -0.06699  -0.06210  -0.05370  -0.04279  -0.02665
  Beta virt. eigenvalues --   -0.01938  -0.01869  -0.01508  -0.01129  -0.00574
  Beta virt. eigenvalues --   -0.00406   0.00105   0.00345   0.00766   0.00835

 Mulliken charges and spin densities:
               1          2
     1  Na   0.020001  -0.083680
     2  Na   0.086886  -0.031760
     3  Na  -0.478614   0.798192
     4  Na   0.349450   0.018381
     5  Na  -0.017430  -0.069241
     6  Na   0.084916  -0.088476
     7  Na  -0.045208   0.456585
 Sum of Mulliken charges =  -0.00000   1.00000

 Dipole moment (field-independent basis, Debye):
    X=             -0.2975    Y=             -0.0414    Z=              0.0894  Tot=              0.3133
 Quadrupole moment (field-independent basis, Debye-Ang):
   XX=            -52.5047   YY=            -65.7078   ZZ=            -75.3905
   XY=             -1.2872   XZ=             -0.9656   YZ=             -0.5357

 Normal termination of Gaussian 16 at Fri Dec  8 01:11:35 2023.
