 Gaussian 16, Revision B.01,
 Gaussian 16:  ES64L-G16RevB.01 20-Dec-2017

 -------------------------
 #P B3LYP/6-311+g(d) force
 -------------------------

 -----
 DPGEN
 -----
 Symbolic Z-matrix:
 Charge =  0 Multiplicity = 2

                         Standard orientation:
 ---------------------------------------------------------------------
 Center     Atomic      Atomic             Coordinates (Angstroms)
 Number     Number       Type             X           Y           Z
 ---------------------------------------------------------------------
      1         11           0        0.525795    2.873598   -0.185007
      2         11           0       -1.724855   -2.363677    0.313369
      3         11           0        0.110524   -0.049429   -1.771818
      4         11           0        3.014766    0.452551    0.419478
      5         11           0       -3.105732    1.076286   -0.269581
      6         11           0       -0.381220    0.257140    1.853447
      7         11           0        1.560722   -2.246469   -0.359887
 ---------------------------------------------------------------------

 SCF Done:  E(UB3LYP) =  -1136.13626874     A.U. after   19 cycles

 The electronic state is 2-A.
 Alpha  occ. eigenvalues --  -38.44347 -38.43861 -38.43513 -38.43510 -38.43389
 Alpha  occ. eigenvalues --  -38.43323 -38.43134  -2.20137  -2.19722  -2.19374
 Alpha  occ. eigenvalues --   -2.19354  -2.19318  -2.19304  -2.19068  -1.13815
 Alpha  occ. eigenvalues --   -1.13790  -1.13776  -1.13413  -1.13379  -1.13363
 Alpha  occ. eigenvalues --   -1.13094  -1.13071  -1.13061  -1.13037  -1.13027
 Alpha  occ. eigenvalues --   -1.13009  -1.12980  -1.12973  -1.12940  -1.12937
 Alpha  occ. eigenvalues --   -1.12925  -1.12902  -1.12719  -1.12707  -1.12683
 Alpha  occ. eigenvalues --   -0.18839  -0.12998  -0.12521  -0.10809
 Alpha virt. eigenvalues --   -0.05832  -0.04988  -0.04503  -0.03261  -0.02973
 Alpha virt. eigenvalues --   -0.02495  -0.01622  -0.01080  -0.00285  -0.00173
 Alpha virt. eigenvalues --    0.00037   0.00362   0.00802   0.00899   0.00919

  Beta  occ. eigenvalues --  -38.44344 -38.43853 -38.43505 -38.43504 -38.43313
  Beta  occ. eigenvalues --  -38.43245 -38.43124  -2.20133  -2.19709  -2.19363
  Beta  occ. eigenvalues --   -2.19347  -2.19179  -2.19161  -2.19053  -1.13798
  Beta  occ. eigenvalues --   -1.13790  -1.13772  -1.13408  -1.13358  -1.13346
  Beta  occ. eigenvalues --   -1.13070  -1.13048  -1.13015  -1.13007  -1.13004
  Beta  occ. eigenvalues --   -1.12971  -1.12963  -1.12899  -1.12846  -1.12842
  Beta  occ. eigenvalues --   -1.12827  -1.12806  -1.12697  -1.12680  -1.12656
  Beta  occ. eigenvalues --   -0.18106  -0.12764  -0.12254
  Beta virt. eigenvalues --   -0.06914  -0.05805  -0.04937  -0.04484  -0.02491
  Beta virt. eigenvalues --   -0.02183  -0.01552  -0.01441  -0.01003  -0.00325
  Beta virt. eigenvalues --   -0.00179   0.00134   0.00382   0.00821   0.00916

 Mulliken charges and spin densities:
               1          2
     1  Na   0.023841  -0.088296
     2  Na   0.084148  -0.052307
     3  Na  -0.179000   0.571996
     4  Na   0.033270   0.025711
     5  Na  -0.042868  -0.114557
     6  Na  -0.270527   0.599178
     7  Na   0.351136   0.058275
 Sum of Mulliken charges =  -0.00000   1.00000

 Dipole moment (field-independent basis, Debye):
    X=             -0.3977    Y=              0.3237    Z=              0.0940  Tot=              0.5213
 Quadrupole moment (field-independent basis, Debye-Ang):
   XX=            -56.0023   YY=            -63.2535   ZZ=            -73.9416
   XY=              0.0166   XZ=              1.4907   YZ=             -0.7877

 Normal termination of Gaussian 16 at Thu Dec  7 22:17:17 2023.
