 Gaussian 16, Revision B.01,
 Gaussian 16:  ES64L-G16RevB.01 20-Dec-2017

 -------------------------
 #P B3LYP/6-311+g(d) force
 -------------------------

 -----
 DPGEN
 -----
 Symbolic Z-matrix:
 Charge =  0 Multiplicity = 2

                         Standard orientation:
 ---------------------------------------------------------------------
 Center     Atomic      Atomic             Coordinates (Angstroms)
 Number     Number       Type             X           Y           Z
 ---------------------------------------------------------------------
      1         11           0        1.528903   -2.140499   -1.041481
      2         11           0        1.752859    2.337015   -0.351275
      3         11           0       -0.070145   -1.147442    2.295466
      4         11           0       -4.042547   -0.278616    0.252824
      5         11           0       -1.542493   -1.234260   -1.303860
      6         11           0        4.071673    0.043270    0.282816
      7         11           0       -1.698249    2.420531   -0.134491
 ---------------------------------------------------------------------

 SCF Done:  E(UB3LYP) =  -1136.11419242     A.U. after   34 cycles

 The electronic state is 2-A.
 Alpha  occ. eigenvalues --  -38.45720 -38.45452 -38.43978 -38.43841 -38.43811
 Alpha  occ. eigenvalues --  -38.43651 -38.43602  -2.21526  -2.21230  -2.19764
 Alpha  occ. eigenvalues --   -2.19687  -2.19647  -2.19465  -2.19391  -1.15217
 Alpha  occ. eigenvalues --   -1.15172  -1.15154  -1.14894  -1.14890  -1.14868
 Alpha  occ. eigenvalues --   -1.13463  -1.13436  -1.13404  -1.13389  -1.13341
 Alpha  occ. eigenvalues --   -1.13323  -1.13282  -1.13278  -1.13260  -1.13155
 Alpha  occ. eigenvalues --   -1.13114  -1.13092  -1.13074  -1.13060  -1.13031
 Alpha  occ. eigenvalues --   -0.17303  -0.13939  -0.11830  -0.10387
 Alpha virt. eigenvalues --   -0.07780  -0.05633  -0.04035  -0.03502  -0.03158
 Alpha virt. eigenvalues --   -0.02595  -0.02292  -0.01634  -0.00793  -0.00541
 Alpha virt. eigenvalues --   -0.00191  -0.00058   0.00332   0.00578   0.00691

  Beta  occ. eigenvalues --  -38.45709 -38.45441 -38.43975 -38.43793 -38.43713
  Beta  occ. eigenvalues --  -38.43647 -38.43602  -2.21507  -2.21211  -2.19761
  Beta  occ. eigenvalues --   -2.19653  -2.19458  -2.19410  -2.19392  -1.15202
  Beta  occ. eigenvalues --   -1.15147  -1.15143  -1.14879  -1.14873  -1.14856
  Beta  occ. eigenvalues --   -1.13462  -1.13426  -1.13386  -1.13382  -1.13307
  Beta  occ. eigenvalues --   -1.13301  -1.13149  -1.13121  -1.13117  -1.13107
  Beta  occ. eigenvalues --   -1.13090  -1.13083  -1.13076  -1.13058  -1.13026
  Beta  occ. eigenvalues --   -0.16797  -0.13682  -0.11664
  Beta virt. eigenvalues --   -0.07654  -0.06403  -0.05552  -0.03919  -0.03262
  Beta virt. eigenvalues --   -0.02676  -0.02081  -0.01604  -0.01291  -0.00722
  Beta virt. eigenvalues --   -0.00445  -0.00038   0.00081   0.00435   0.00683

 Mulliken charges and spin densities:
               1          2
     1  Na  -0.142652   0.103724
     2  Na  -0.255986  -0.044625
     3  Na  -0.357388   0.656460
     4  Na   0.907542   0.110425
     5  Na  -0.369668   0.067366
     6  Na   0.516959   0.110909
     7  Na  -0.298807  -0.004260
 Sum of Mulliken charges =  -0.00000   1.00000

 Dipole moment (field-independent basis, Debye):
    X=             -0.3840    Y=             -0.1804    Z=              0.4425  Tot=              0.6131
 Quadrupole moment (field-independent basis, Debye-Ang):
   XX=            -45.4350   YY=            -76.1936   ZZ=            -74.5218
   XY=             -1.6773   XZ=             -0.9699   YZ=             -0.5404

 Normal termination of Gaussian 16 at Mon Dec  4 00:42:06 2023.
