 Gaussian 16, Revision B.01,
 Gaussian 16:  ES64L-G16RevB.01 20-Dec-2017

 -------------------------
 #P B3LYP/6-311+g(d) force
 -------------------------

 -----
 DPGEN
 -----
 Symbolic Z-matrix:
 Charge =  0 Multiplicity = 2

                         Standard orientation:
 ---------------------------------------------------------------------
 Center     Atomic      Atomic             Coordinates (Angstroms)
 Number     Number       Type             X           Y           Z
 ---------------------------------------------------------------------
      1         11           0       -0.907743   -0.719918   -1.656093
      2         11           0        0.866006    1.758756   -0.177344
      3         11           0        5.072285    0.354504    0.066635
      4         11           0       -3.980036   -1.141290   -0.290611
      5         11           0       -1.090646   -0.801772    2.050649
      6         11           0        2.671233   -1.498433   -0.111278
      7         11           0       -2.631101    2.048153    0.118043
 ---------------------------------------------------------------------

 SCF Done:  E(UB3LYP) =  -1136.10832323     A.U. after   30 cycles

 The electronic state is 2-A.
 Alpha  occ. eigenvalues --  -38.46622 -38.46300 -38.43944 -38.43673 -38.43608
 Alpha  occ. eigenvalues --  -38.42864 -38.42381  -2.22401  -2.22145  -2.19776
 Alpha  occ. eigenvalues --   -2.19509  -2.19469  -2.18713  -2.18238  -1.16070
 Alpha  occ. eigenvalues --   -1.16045  -1.16026  -1.15820  -1.15805  -1.15777
 Alpha  occ. eigenvalues --   -1.13482  -1.13410  -1.13400  -1.13192  -1.13161
 Alpha  occ. eigenvalues --   -1.13160  -1.13141  -1.13122  -1.13066  -1.12394
 Alpha  occ. eigenvalues --   -1.12369  -1.12342  -1.11951  -1.11918  -1.11834
 Alpha  occ. eigenvalues --   -0.18017  -0.14222  -0.10829  -0.10657
 Alpha virt. eigenvalues --   -0.08258  -0.05168  -0.04245  -0.03397  -0.03045
 Alpha virt. eigenvalues --   -0.02329  -0.02026  -0.01942  -0.01050  -0.01048
 Alpha virt. eigenvalues --   -0.00367   0.00112   0.00154   0.00577   0.00663

  Beta  occ. eigenvalues --  -38.46584 -38.46284 -38.43875 -38.43675 -38.43560
  Beta  occ. eigenvalues --  -38.42840 -38.42383  -2.22331  -2.22118  -2.19647
  Beta  occ. eigenvalues --   -2.19519  -2.19381  -2.18671  -2.18243  -1.16006
  Beta  occ. eigenvalues --   -1.16000  -1.15977  -1.15793  -1.15768  -1.15763
  Beta  occ. eigenvalues --   -1.13409  -1.13322  -1.13313  -1.13204  -1.13171
  Beta  occ. eigenvalues --   -1.13101  -1.13090  -1.13065  -1.12995  -1.12367
  Beta  occ. eigenvalues --   -1.12336  -1.12305  -1.11955  -1.11909  -1.11843
  Beta  occ. eigenvalues --   -0.17419  -0.13622  -0.10457
  Beta virt. eigenvalues --   -0.07992  -0.07381  -0.04775  -0.03825  -0.03248
  Beta virt. eigenvalues --   -0.02810  -0.02031  -0.01868  -0.01343  -0.00773
  Beta virt. eigenvalues --   -0.00655  -0.00194   0.00186   0.00226   0.00645

 Mulliken charges and spin densities:
               1          2
     1  Na   0.254444   0.071048
     2  Na  -0.457635  -0.165406
     3  Na   0.288047   0.324680
     4  Na   0.155564   0.177988
     5  Na   0.064640   0.128771
     6  Na  -0.249926   0.059304
     7  Na  -0.055134   0.403615
 Sum of Mulliken charges =  -0.00000   1.00000

 Dipole moment (field-independent basis, Debye):
    X=             -0.4077    Y=             -0.0147    Z=              0.6278  Tot=              0.7487
 Quadrupole moment (field-independent basis, Debye-Ang):
   XX=            -72.5501   YY=            -78.0737   ZZ=            -57.9384
   XY=              0.6519   XZ=             -1.1745   YZ=              2.7543

 Normal termination of Gaussian 16 at Thu Dec  7 15:23:02 2023.
