 Gaussian 16, Revision B.01,
 Gaussian 16:  ES64L-G16RevB.01 20-Dec-2017

 -------------------------
 #P B3LYP/6-311+g(d) force
 -------------------------

 -----
 DPGEN
 -----
 Symbolic Z-matrix:
 Charge =  0 Multiplicity = 2

                         Standard orientation:
 ---------------------------------------------------------------------
 Center     Atomic      Atomic             Coordinates (Angstroms)
 Number     Number       Type             X           Y           Z
 ---------------------------------------------------------------------
      1         11           0        0.782081    3.410180    0.476123
      2         11           0       -3.640836   -0.944376    0.399735
      3         11           0        2.591810   -2.434942    0.396993
      4         11           0       -1.638917    1.192892   -0.888123
      5         11           0       -0.507703   -1.800622   -0.971381
      6         11           0        1.999894    0.635338   -1.347441
      7         11           0        0.413671   -0.058469    1.934094
 ---------------------------------------------------------------------

 SCF Done:  E(UB3LYP) =  -1136.13642353     A.U. after   18 cycles

 The electronic state is 2-A.
 Alpha  occ. eigenvalues --  -38.44026 -38.43812 -38.43701 -38.43656 -38.43418
 Alpha  occ. eigenvalues --  -38.43362 -38.43341  -2.19842  -2.19680  -2.19531
 Alpha  occ. eigenvalues --   -2.19523  -2.19345  -2.19265  -2.19170  -1.13528
 Alpha  occ. eigenvalues --   -1.13492  -1.13484  -1.13370  -1.13316  -1.13292
 Alpha  occ. eigenvalues --   -1.13231  -1.13203  -1.13192  -1.13180  -1.13167
 Alpha  occ. eigenvalues --   -1.13121  -1.13104  -1.13018  -1.12969  -1.12937
 Alpha  occ. eigenvalues --   -1.12912  -1.12861  -1.12834  -1.12828  -1.12798
 Alpha  occ. eigenvalues --   -0.18391  -0.13000  -0.12391  -0.10682
 Alpha virt. eigenvalues --   -0.05843  -0.04972  -0.04702  -0.03170  -0.02948
 Alpha virt. eigenvalues --   -0.02471  -0.01730  -0.01389  -0.00495  -0.00200
 Alpha virt. eigenvalues --    0.00227   0.00338   0.00756   0.00782   0.00833

  Beta  occ. eigenvalues --  -38.44026 -38.43728 -38.43698 -38.43612 -38.43390
  Beta  occ. eigenvalues --  -38.43360 -38.43322  -2.19844  -2.19527  -2.19520
  Beta  occ. eigenvalues --   -2.19452  -2.19299  -2.19234  -2.19167  -1.13530
  Beta  occ. eigenvalues --   -1.13487  -1.13484  -1.13268  -1.13214  -1.13198
  Beta  occ. eigenvalues --   -1.13189  -1.13174  -1.13162  -1.13146  -1.13122
  Beta  occ. eigenvalues --   -1.13077  -1.13069  -1.12964  -1.12936  -1.12894
  Beta  occ. eigenvalues --   -1.12879  -1.12852  -1.12828  -1.12811  -1.12794
  Beta  occ. eigenvalues --   -0.17625  -0.12843  -0.12225
  Beta virt. eigenvalues --   -0.06752  -0.05667  -0.04865  -0.04673  -0.02594
  Beta virt. eigenvalues --   -0.02333  -0.01640  -0.01491  -0.01288  -0.00293
  Beta virt. eigenvalues --   -0.00124   0.00268   0.00418   0.00785   0.00820

 Mulliken charges and spin densities:
               1          2
     1  Na   0.243492  -0.109968
     2  Na   0.341457  -0.118581
     3  Na   0.357890  -0.077618
     4  Na  -0.156879   0.194991
     5  Na  -0.055412   0.215145
     6  Na  -0.168577   0.158706
     7  Na  -0.561972   0.737324
 Sum of Mulliken charges =  -0.00000   1.00000

 Dipole moment (field-independent basis, Debye):
    X=             -0.0808    Y=             -0.2556    Z=              0.2284  Tot=              0.3522
 Quadrupole moment (field-independent basis, Debye-Ang):
   XX=            -56.7347   YY=            -62.1499   ZZ=            -72.8607
   XY=             -0.1526   XZ=             -1.9659   YZ=             -0.2605

 Normal termination of Gaussian 16 at Wed Nov 29 15:58:36 2023.
