 Gaussian 16, Revision B.01,
 Gaussian 16:  ES64L-G16RevB.01 20-Dec-2017

 -------------------------
 #P B3LYP/6-311+g(d) force
 -------------------------

 -----
 DPGEN
 -----
 Symbolic Z-matrix:
 Charge =  0 Multiplicity = 2

                         Standard orientation:
 ---------------------------------------------------------------------
 Center     Atomic      Atomic             Coordinates (Angstroms)
 Number     Number       Type             X           Y           Z
 ---------------------------------------------------------------------
      1         11           0        2.767905    2.073924   -1.284197
      2         11           0        2.265280   -1.659000    1.576888
      3         11           0        4.199393   -1.171754   -0.835246
      4         11           0       -1.155601   -1.395986   -0.584402
      5         11           0       -5.067308   -1.134208   -0.529937
      6         11           0       -3.573111    1.516795    0.194433
      7         11           0        0.563443    1.770230    1.462461
 ---------------------------------------------------------------------

 SCF Done:  E(UB3LYP) =  -1136.10657120     A.U. after   28 cycles

 The electronic state is 2-A.
 Alpha  occ. eigenvalues --  -38.46380 -38.45563 -38.44507 -38.44456 -38.44002
 Alpha  occ. eigenvalues --  -38.43434 -38.42621  -2.22113  -2.21355  -2.20322
 Alpha  occ. eigenvalues --   -2.20252  -2.19820  -2.19261  -2.18408  -1.15815
 Alpha  occ. eigenvalues --   -1.15770  -1.15709  -1.15038  -1.15011  -1.14994
 Alpha  occ. eigenvalues --   -1.13994  -1.13975  -1.13945  -1.13922  -1.13894
 Alpha  occ. eigenvalues --   -1.13864  -1.13505  -1.13481  -1.13458  -1.12926
 Alpha  occ. eigenvalues --   -1.12912  -1.12897  -1.12080  -1.12074  -1.12063
 Alpha  occ. eigenvalues --   -0.16562  -0.14630  -0.11205  -0.10626
 Alpha virt. eigenvalues --   -0.07191  -0.06071  -0.03970  -0.03637  -0.03174
 Alpha virt. eigenvalues --   -0.02914  -0.01983  -0.01831  -0.00974  -0.00844
 Alpha virt. eigenvalues --   -0.00325  -0.00039   0.00239   0.00269   0.00543

  Beta  occ. eigenvalues --  -38.46343 -38.45551 -38.44485 -38.44382 -38.43981
  Beta  occ. eigenvalues --  -38.43407 -38.42618  -2.22047  -2.21335  -2.20283
  Beta  occ. eigenvalues --   -2.20115  -2.19781  -2.19213  -2.18405  -1.15768
  Beta  occ. eigenvalues --   -1.15724  -1.15657  -1.15026  -1.15003  -1.14964
  Beta  occ. eigenvalues --   -1.13961  -1.13948  -1.13923  -1.13830  -1.13804
  Beta  occ. eigenvalues --   -1.13757  -1.13480  -1.13454  -1.13419  -1.12899
  Beta  occ. eigenvalues --   -1.12883  -1.12844  -1.12079  -1.12073  -1.12047
  Beta  occ. eigenvalues --   -0.15949  -0.14133  -0.10587
  Beta virt. eigenvalues --   -0.07570  -0.06833  -0.05829  -0.03545  -0.03209
  Beta virt. eigenvalues --   -0.02896  -0.02741  -0.01647  -0.01451  -0.00858
  Beta virt. eigenvalues --   -0.00405  -0.00200   0.00004   0.00311   0.00394

 Mulliken charges and spin densities:
               1          2
     1  Na   0.252650   0.316812
     2  Na   0.368643   0.132941
     3  Na   0.066510   0.103797
     4  Na  -0.535671   0.102809
     5  Na   0.471492   0.147111
     6  Na   0.037826   0.062559
     7  Na  -0.661450   0.133971
 Sum of Mulliken charges =  -0.00000   1.00000

 Dipole moment (field-independent basis, Debye):
    X=             -2.4272    Y=             -0.3308    Z=             -0.5153  Tot=              2.5033
 Quadrupole moment (field-independent basis, Debye-Ang):
   XX=            -62.4388   YY=            -73.5973   ZZ=            -65.9742
   XY=              1.8695   XZ=             -0.2346   YZ=              0.2620

 Normal termination of Gaussian 16 at Mon Dec  4 02:18:18 2023.
