 Gaussian 16, Revision B.01,
 Gaussian 16:  ES64L-G16RevB.01 20-Dec-2017

 -------------------------
 #P B3LYP/6-311+g(d) force
 -------------------------

 -----
 DPGEN
 -----
 Symbolic Z-matrix:
 Charge =  0 Multiplicity = 2

                         Standard orientation:
 ---------------------------------------------------------------------
 Center     Atomic      Atomic             Coordinates (Angstroms)
 Number     Number       Type             X           Y           Z
 ---------------------------------------------------------------------
      1         11           0       -1.766636    2.260923   -0.118548
      2         11           0        0.080069   -0.806581    1.816447
      3         11           0        1.665498    2.312080    0.348336
      4         11           0       -3.474860   -0.598136    0.250061
      5         11           0       -0.352916   -2.665508   -0.621221
      6         11           0        0.278414    0.308613   -1.730067
      7         11           0        3.570431   -0.811391    0.054991
 ---------------------------------------------------------------------

 SCF Done:  E(UB3LYP) =  -1136.12924638     A.U. after   22 cycles

 The electronic state is 2-A.
 Alpha  occ. eigenvalues --  -38.45204 -38.44761 -38.43807 -38.43422 -38.43287
 Alpha  occ. eigenvalues --  -38.43122 -38.43080  -2.20956  -2.20544  -2.19685
 Alpha  occ. eigenvalues --   -2.19282  -2.19161  -2.19048  -2.18986  -1.14632
 Alpha  occ. eigenvalues --   -1.14613  -1.14589  -1.14217  -1.14212  -1.14173
 Alpha  occ. eigenvalues --   -1.13401  -1.13346  -1.13278  -1.13000  -1.12954
 Alpha  occ. eigenvalues --   -1.12898  -1.12877  -1.12832  -1.12757  -1.12747
 Alpha  occ. eigenvalues --   -1.12691  -1.12665  -1.12645  -1.12627  -1.12607
 Alpha  occ. eigenvalues --   -0.18347  -0.13089  -0.12197  -0.10474
 Alpha virt. eigenvalues --   -0.06748  -0.04997  -0.04257  -0.03144  -0.02871
 Alpha virt. eigenvalues --   -0.02438  -0.02247  -0.01139  -0.00462  -0.00194
 Alpha virt. eigenvalues --   -0.00088   0.00256   0.00646   0.00763   0.00805

  Beta  occ. eigenvalues --  -38.45204 -38.44755 -38.43750 -38.43415 -38.43263
  Beta  occ. eigenvalues --  -38.43117 -38.42998  -2.20957  -2.20535  -2.19581
  Beta  occ. eigenvalues --   -2.19271  -2.19121  -2.18982  -2.18899  -1.14622
  Beta  occ. eigenvalues --   -1.14611  -1.14592  -1.14212  -1.14193  -1.14169
  Beta  occ. eigenvalues --   -1.13327  -1.13275  -1.13200  -1.12985  -1.12934
  Beta  occ. eigenvalues --   -1.12887  -1.12841  -1.12777  -1.12732  -1.12700
  Beta  occ. eigenvalues --   -1.12634  -1.12616  -1.12606  -1.12561  -1.12531
  Beta  occ. eigenvalues --   -0.17648  -0.12877  -0.11958
  Beta virt. eigenvalues --   -0.06786  -0.06502  -0.04987  -0.04179  -0.02506
  Beta virt. eigenvalues --   -0.02285  -0.02117  -0.01280  -0.01120  -0.00426
  Beta virt. eigenvalues --   -0.00205   0.00063   0.00286   0.00762   0.00810

 Mulliken charges and spin densities:
               1          2
     1  Na   0.038510  -0.015042
     2  Na  -0.416989   0.653159
     3  Na  -0.041432   0.031783
     4  Na   0.089235   0.019953
     5  Na   0.099095  -0.095223
     6  Na   0.118583   0.460287
     7  Na   0.112997  -0.054917
 Sum of Mulliken charges =  -0.00000   1.00000

 Dipole moment (field-independent basis, Debye):
    X=              0.3817    Y=             -0.3748    Z=              0.1469  Tot=              0.5547
 Quadrupole moment (field-independent basis, Debye-Ang):
   XX=            -49.2034   YY=            -67.6213   ZZ=            -75.0502
   XY=             -0.2106   XZ=             -0.0797   YZ=              1.8875

 Normal termination of Gaussian 16 at Thu Dec  7 04:02:55 2023.
