 Gaussian 16, Revision B.01,
 Gaussian 16:  ES64L-G16RevB.01 20-Dec-2017

 -------------------------
 #P B3LYP/6-311+g(d) force
 -------------------------

 -----
 DPGEN
 -----
 Symbolic Z-matrix:
 Charge =  0 Multiplicity = 2

                         Standard orientation:
 ---------------------------------------------------------------------
 Center     Atomic      Atomic             Coordinates (Angstroms)
 Number     Number       Type             X           Y           Z
 ---------------------------------------------------------------------
      1         11           0        1.409087   -0.810793    2.114028
      2         11           0        3.361255   -0.481297   -1.152050
      3         11           0       -0.806603    1.382657   -0.002033
      4         11           0        1.932936    2.430424    0.164868
      5         11           0       -4.220096    0.628112   -0.779191
      6         11           0        0.475027   -1.883513   -1.316795
      7         11           0       -2.151606   -1.265591    0.971173
 ---------------------------------------------------------------------

 SCF Done:  E(UB3LYP) =  -1136.12084045     A.U. after   27 cycles

 The electronic state is 2-A.
 Alpha  occ. eigenvalues --  -38.44827 -38.44722 -38.44563 -38.43821 -38.43555
 Alpha  occ. eigenvalues --  -38.43505 -38.42607  -2.20634  -2.20553  -2.20413
 Alpha  occ. eigenvalues --   -2.19720  -2.19444  -2.19404  -2.18482  -1.14298
 Alpha  occ. eigenvalues --   -1.14282  -1.14258  -1.14224  -1.14194  -1.14168
 Alpha  occ. eigenvalues --   -1.14089  -1.14052  -1.14029  -1.13467  -1.13384
 Alpha  occ. eigenvalues --   -1.13323  -1.13134  -1.13119  -1.13103  -1.13086
 Alpha  occ. eigenvalues --   -1.13053  -1.13035  -1.12184  -1.12119  -1.12104
 Alpha  occ. eigenvalues --   -0.18264  -0.14121  -0.11322  -0.11226
 Alpha virt. eigenvalues --   -0.06954  -0.05050  -0.04339  -0.03359  -0.02682
 Alpha virt. eigenvalues --   -0.02531  -0.02279  -0.01297  -0.00886  -0.00157
 Alpha virt. eigenvalues --    0.00030   0.00141   0.00346   0.00668   0.00742

  Beta  occ. eigenvalues --  -38.44795 -38.44655 -38.44504 -38.43805 -38.43536
  Beta  occ. eigenvalues --  -38.43501 -38.42604  -2.20574  -2.20431  -2.20304
  Beta  occ. eigenvalues --   -2.19695  -2.19439  -2.19373  -2.18479  -1.14257
  Beta  occ. eigenvalues --   -1.14240  -1.14220  -1.14128  -1.14111  -1.14081
  Beta  occ. eigenvalues --   -1.14006  -1.13985  -1.13951  -1.13454  -1.13367
  Beta  occ. eigenvalues --   -1.13279  -1.13132  -1.13120  -1.13073  -1.13068
  Beta  occ. eigenvalues --   -1.13031  -1.12994  -1.12183  -1.12106  -1.12101
  Beta  occ. eigenvalues --   -0.17641  -0.13696  -0.11088
  Beta virt. eigenvalues --   -0.07542  -0.06652  -0.04833  -0.03926  -0.03152
  Beta virt. eigenvalues --   -0.02439  -0.01980  -0.01616  -0.00979  -0.00644
  Beta virt. eigenvalues --   -0.00058   0.00089   0.00226   0.00435   0.00718

 Mulliken charges and spin densities:
               1          2
     1  Na   0.041359   0.257230
     2  Na  -0.024018   0.189164
     3  Na  -2.284462   0.128958
     4  Na   0.888385  -0.105909
     5  Na   0.975357   0.176089
     6  Na   0.033306   0.148468
     7  Na   0.370073   0.206000
 Sum of Mulliken charges =  -0.00000   1.00000

 Dipole moment (field-independent basis, Debye):
    X=             -0.5092    Y=             -0.6826    Z=              0.2888  Tot=              0.8992
 Quadrupole moment (field-independent basis, Debye-Ang):
   XX=            -49.1506   YY=            -78.2270   ZZ=            -66.7793
   XY=              0.1698   XZ=              3.9255   YZ=             -2.5898

 Normal termination of Gaussian 16 at Thu Dec  7 17:40:34 2023.
