 Gaussian 16, Revision B.01,
 Gaussian 16:  ES64L-G16RevB.01 20-Dec-2017

 -------------------------
 #P B3LYP/6-311+g(d) force
 -------------------------

 -----
 DPGEN
 -----
 Symbolic Z-matrix:
 Charge =  0 Multiplicity = 2

                         Standard orientation:
 ---------------------------------------------------------------------
 Center     Atomic      Atomic             Coordinates (Angstroms)
 Number     Number       Type             X           Y           Z
 ---------------------------------------------------------------------
      1         11           0       -3.283485    0.797036   -0.273282
      2         11           0        2.775016   -2.074928   -1.002682
      3         11           0       -0.159864    3.296547    0.275928
      4         11           0        3.011600    0.954314    0.723009
      5         11           0       -2.705553   -2.288150    0.128683
      6         11           0        0.159848    0.565282   -1.642836
      7         11           0        0.202438   -1.250101    1.791180
 ---------------------------------------------------------------------

 SCF Done:  E(UB3LYP) =  -1136.12730606     A.U. after   20 cycles

 The electronic state is 2-A.
 Alpha  occ. eigenvalues --  -38.44641 -38.44593 -38.43983 -38.43949 -38.43895
 Alpha  occ. eigenvalues --  -38.43874 -38.43340  -2.20446  -2.20398  -2.19797
 Alpha  occ. eigenvalues --   -2.19757  -2.19747  -2.19691  -2.19127  -1.14123
 Alpha  occ. eigenvalues --   -1.14107  -1.14081  -1.14075  -1.14067  -1.14029
 Alpha  occ. eigenvalues --   -1.13479  -1.13456  -1.13440  -1.13419  -1.13414
 Alpha  occ. eigenvalues --   -1.13410  -1.13405  -1.13382  -1.13357  -1.13356
 Alpha  occ. eigenvalues --   -1.13344  -1.13332  -1.12804  -1.12791  -1.12765
 Alpha  occ. eigenvalues --   -0.17494  -0.13525  -0.11993  -0.10321
 Alpha virt. eigenvalues --   -0.06305  -0.05598  -0.05011  -0.03277  -0.02828
 Alpha virt. eigenvalues --   -0.02163  -0.02045  -0.01381  -0.00889  -0.00659
 Alpha virt. eigenvalues --   -0.00138   0.00290   0.00487   0.00602   0.00730

  Beta  occ. eigenvalues --  -38.44622 -38.44589 -38.43923 -38.43905 -38.43876
  Beta  occ. eigenvalues --  -38.43853 -38.43340  -2.20412  -2.20390  -2.19696
  Beta  occ. eigenvalues --   -2.19687  -2.19677  -2.19669  -2.19129  -1.14088
  Beta  occ. eigenvalues --   -1.14080  -1.14074  -1.14057  -1.14047  -1.14027
  Beta  occ. eigenvalues --   -1.13408  -1.13383  -1.13377  -1.13364  -1.13363
  Beta  occ. eigenvalues --   -1.13356  -1.13350  -1.13344  -1.13340  -1.13329
  Beta  occ. eigenvalues --   -1.13304  -1.13296  -1.12804  -1.12793  -1.12757
  Beta  occ. eigenvalues --   -0.16904  -0.13304  -0.11770
  Beta virt. eigenvalues --   -0.06729  -0.06107  -0.05441  -0.04692  -0.02818
  Beta virt. eigenvalues --   -0.02299  -0.01929  -0.01416  -0.01184  -0.00817
  Beta virt. eigenvalues --   -0.00567   0.00059   0.00365   0.00659   0.00720

 Mulliken charges and spin densities:
               1          2
     1  Na  -0.091120  -0.002611
     2  Na  -0.085463   0.184743
     3  Na  -0.217115  -0.002496
     4  Na   0.142019   0.229973
     5  Na   0.123935  -0.074924
     6  Na   0.274418   0.274898
     7  Na  -0.146674   0.390417
 Sum of Mulliken charges =  -0.00000   1.00000

 Dipole moment (field-independent basis, Debye):
    X=             -0.0560    Y=             -0.0447    Z=              0.1518  Tot=              0.1678
 Quadrupole moment (field-independent basis, Debye-Ang):
   XX=            -55.1797   YY=            -64.9271   ZZ=            -75.1531
   XY=             -0.2201   XZ=              1.2196   YZ=              3.4552

 Normal termination of Gaussian 16 at Mon Dec  4 00:04:33 2023.
