 Gaussian 16, Revision B.01,
 Gaussian 16:  ES64L-G16RevB.01 20-Dec-2017

 -------------------------
 #P B3LYP/6-311+g(d) force
 -------------------------

 -----
 DPGEN
 -----
 Symbolic Z-matrix:
 Charge =  0 Multiplicity = 2

                         Standard orientation:
 ---------------------------------------------------------------------
 Center     Atomic      Atomic             Coordinates (Angstroms)
 Number     Number       Type             X           Y           Z
 ---------------------------------------------------------------------
      1         11           0        0.125622   -0.426843   -1.822387
      2         11           0       -3.661040   -0.806682   -0.941795
      3         11           0        1.012661    3.175147   -0.579138
      4         11           0       -0.676398   -1.560108    1.834329
      5         11           0        3.023223   -2.087326   -0.655740
      6         11           0        2.058208    0.596624    1.183930
      7         11           0       -1.882275    1.109189    0.980801
 ---------------------------------------------------------------------

 SCF Done:  E(UB3LYP) =  -1136.12740660     A.U. after   21 cycles

 The electronic state is 2-A.
 Alpha  occ. eigenvalues --  -38.44574 -38.44539 -38.44533 -38.43778 -38.43674
 Alpha  occ. eigenvalues --  -38.43568 -38.42590  -2.20407  -2.20374  -2.20366
 Alpha  occ. eigenvalues --   -2.19682  -2.19560  -2.19367  -2.18402  -1.14133
 Alpha  occ. eigenvalues --   -1.14058  -1.14053  -1.14028  -1.14027  -1.14010
 Alpha  occ. eigenvalues --   -1.14007  -1.13998  -1.13980  -1.13403  -1.13346
 Alpha  occ. eigenvalues --   -1.13268  -1.13254  -1.13237  -1.13181  -1.13037
 Alpha  occ. eigenvalues --   -1.13028  -1.12996  -1.12076  -1.12064  -1.12038
 Alpha  occ. eigenvalues --   -0.18149  -0.13295  -0.11554  -0.11440
 Alpha virt. eigenvalues --   -0.06153  -0.05134  -0.04455  -0.03405  -0.02957
 Alpha virt. eigenvalues --   -0.02683  -0.01946  -0.01170  -0.00682  -0.00104
 Alpha virt. eigenvalues --    0.00206   0.00262   0.00347   0.00633   0.00764

  Beta  occ. eigenvalues --  -38.44553 -38.44474 -38.44459 -38.43759 -38.43659
  Beta  occ. eigenvalues --  -38.43566 -38.42587  -2.20335  -2.20263  -2.20257
  Beta  occ. eigenvalues --   -2.19653  -2.19535  -2.19364  -2.18398  -1.14031
  Beta  occ. eigenvalues --   -1.14027  -1.13989  -1.13983  -1.13977  -1.13930
  Beta  occ. eigenvalues --   -1.13920  -1.13904  -1.13899  -1.13368  -1.13300
  Beta  occ. eigenvalues --   -1.13257  -1.13233  -1.13200  -1.13172  -1.13034
  Beta  occ. eigenvalues --   -1.13017  -1.12996  -1.12074  -1.12054  -1.12036
  Beta  occ. eigenvalues --   -0.17348  -0.13110  -0.11309
  Beta virt. eigenvalues --   -0.07625  -0.05904  -0.04863  -0.04167  -0.03034
  Beta virt. eigenvalues --   -0.02290  -0.02065  -0.01749  -0.01040  -0.00367
  Beta virt. eigenvalues --   -0.00076   0.00306   0.00337   0.00492   0.00757

 Mulliken charges and spin densities:
               1          2
     1  Na  -0.389009   0.610183
     2  Na   0.079295  -0.042760
     3  Na   0.116784  -0.214297
     4  Na  -0.199789   0.183060
     5  Na  -0.065662  -0.127084
     6  Na   0.312719   0.274382
     7  Na   0.145662   0.316515
 Sum of Mulliken charges =  -0.00000   1.00000

 Dipole moment (field-independent basis, Debye):
    X=             -0.7599    Y=             -0.7594    Z=             -0.2035  Tot=              1.0935
 Quadrupole moment (field-independent basis, Debye-Ang):
   XX=            -57.0134   YY=            -70.2421   ZZ=            -67.8107
   XY=              0.1631   XZ=              2.0202   YZ=             -0.5705

 Normal termination of Gaussian 16 at Thu Dec  7 18:26:40 2023.
