 Gaussian 16, Revision B.01,
 Gaussian 16:  ES64L-G16RevB.01 20-Dec-2017

 -------------------------
 #P B3LYP/6-311+g(d) force
 -------------------------

 -----
 DPGEN
 -----
 Symbolic Z-matrix:
 Charge =  0 Multiplicity = 2

                         Standard orientation:
 ---------------------------------------------------------------------
 Center     Atomic      Atomic             Coordinates (Angstroms)
 Number     Number       Type             X           Y           Z
 ---------------------------------------------------------------------
      1         11           0       -0.886485    0.366495    2.037501
      2         11           0       -0.096628   -1.334699   -0.760621
      3         11           0       -2.265898    1.168640   -1.519090
      4         11           0        0.565895    2.502153   -0.611491
      5         11           0       -3.354899   -1.679657    0.351253
      6         11           0        3.650108   -1.397898   -1.097074
      7         11           0        2.387907    0.374966    1.599522
 ---------------------------------------------------------------------

 SCF Done:  E(UB3LYP) =  -1136.12886316     A.U. after   23 cycles

 The electronic state is 2-A.
 Alpha  occ. eigenvalues --  -38.44289 -38.44081 -38.44071 -38.44062 -38.43802
 Alpha  occ. eigenvalues --  -38.43783 -38.42817  -2.20195  -2.19957  -2.19951
 Alpha  occ. eigenvalues --   -2.19924  -2.19607  -2.19590  -2.18666  -1.13912
 Alpha  occ. eigenvalues --   -1.13831  -1.13791  -1.13683  -1.13670  -1.13618
 Alpha  occ. eigenvalues --   -1.13614  -1.13594  -1.13580  -1.13567  -1.13539
 Alpha  occ. eigenvalues --   -1.13530  -1.13273  -1.13270  -1.13251  -1.13247
 Alpha  occ. eigenvalues --   -1.13239  -1.13215  -1.12348  -1.12322  -1.12310
 Alpha  occ. eigenvalues --   -0.18381  -0.13654  -0.11642  -0.11407
 Alpha virt. eigenvalues --   -0.06155  -0.05143  -0.04825  -0.03338  -0.02888
 Alpha virt. eigenvalues --   -0.02359  -0.02165  -0.01089  -0.00836  -0.00037
 Alpha virt. eigenvalues --    0.00164   0.00255   0.00348   0.00508   0.00708

  Beta  occ. eigenvalues --  -38.44206 -38.44065 -38.44036 -38.44025 -38.43779
  Beta  occ. eigenvalues --  -38.43776 -38.42812  -2.20043  -2.19929  -2.19879
  Beta  occ. eigenvalues --   -2.19867  -2.19601  -2.19542  -2.18659  -1.13813
  Beta  occ. eigenvalues --   -1.13721  -1.13684  -1.13640  -1.13631  -1.13570
  Beta  occ. eigenvalues --   -1.13568  -1.13556  -1.13544  -1.13527  -1.13492
  Beta  occ. eigenvalues --   -1.13488  -1.13270  -1.13253  -1.13237  -1.13216
  Beta  occ. eigenvalues --   -1.13214  -1.13184  -1.12338  -1.12321  -1.12288
  Beta  occ. eigenvalues --   -0.17674  -0.13402  -0.11088
  Beta virt. eigenvalues --   -0.07826  -0.05994  -0.04852  -0.04359  -0.02944
  Beta virt. eigenvalues --   -0.02356  -0.02053  -0.01781  -0.00897  -0.00461
  Beta virt. eigenvalues --    0.00032   0.00201   0.00376   0.00508   0.00588

 Mulliken charges and spin densities:
               1          2
     1  Na  -0.312578   0.353018
     2  Na  -1.048595   0.393900
     3  Na   0.147758   0.063440
     4  Na  -0.162708   0.087871
     5  Na   0.877270  -0.029504
     6  Na  -0.029410   0.062884
     7  Na   0.528264   0.068390
 Sum of Mulliken charges =  -0.00000   1.00000

 Dipole moment (field-independent basis, Debye):
    X=             -0.5424    Y=              0.2137    Z=              0.1225  Tot=              0.5957
 Quadrupole moment (field-independent basis, Debye-Ang):
   XX=            -54.2056   YY=            -74.7045   ZZ=            -66.8260
   XY=              2.5073   XZ=              0.0580   YZ=              0.4079

 Normal termination of Gaussian 16 at Tue Dec  5 15:34:45 2023.
