 Gaussian 16, Revision B.01,
 Gaussian 16:  ES64L-G16RevB.01 20-Dec-2017

 -------------------------
 #P B3LYP/6-311+g(d) force
 -------------------------

 -----
 DPGEN
 -----
 Symbolic Z-matrix:
 Charge =  0 Multiplicity = 2

                         Standard orientation:
 ---------------------------------------------------------------------
 Center     Atomic      Atomic             Coordinates (Angstroms)
 Number     Number       Type             X           Y           Z
 ---------------------------------------------------------------------
      1         11           0       -3.670737   -1.160760    0.560067
      2         11           0        0.248946   -0.664749    1.798503
      3         11           0       -2.292237    1.915612    0.261861
      4         11           0        2.241820   -1.756841   -0.943648
      5         11           0        0.975488    1.780856   -1.115831
      6         11           0        3.465326    0.538227    1.098123
      7         11           0       -0.968606   -0.652346   -1.659075
 ---------------------------------------------------------------------

 SCF Done:  E(UB3LYP) =  -1136.12409623     A.U. after   26 cycles

 The electronic state is 2-A.
 Alpha  occ. eigenvalues --  -38.44692 -38.44636 -38.44391 -38.44105 -38.43990
 Alpha  occ. eigenvalues --  -38.43642 -38.41924  -2.20537  -2.20454  -2.20263
 Alpha  occ. eigenvalues --   -2.19957  -2.19788  -2.19589  -2.17824  -1.14210
 Alpha  occ. eigenvalues --   -1.14189  -1.14171  -1.14160  -1.14132  -1.14044
 Alpha  occ. eigenvalues --   -1.13942  -1.13902  -1.13881  -1.13644  -1.13624
 Alpha  occ. eigenvalues --   -1.13572  -1.13470  -1.13449  -1.13420  -1.13293
 Alpha  occ. eigenvalues --   -1.13213  -1.13208  -1.11526  -1.11494  -1.11441
 Alpha  occ. eigenvalues --   -0.18560  -0.14163  -0.11546  -0.10695
 Alpha virt. eigenvalues --   -0.06823  -0.05516  -0.04443  -0.03129  -0.02714
 Alpha virt. eigenvalues --   -0.02438  -0.02336  -0.01190  -0.00767  -0.00272
 Alpha virt. eigenvalues --    0.00133   0.00210   0.00337   0.00598   0.00710

  Beta  occ. eigenvalues --  -38.44657 -38.44608 -38.44342 -38.44083 -38.44002
  Beta  occ. eigenvalues --  -38.43581 -38.41915  -2.20473  -2.20406  -2.20176
  Beta  occ. eigenvalues --   -2.19915  -2.19811  -2.19480  -2.17811  -1.14163
  Beta  occ. eigenvalues --   -1.14146  -1.14125  -1.14118  -1.14087  -1.14008
  Beta  occ. eigenvalues --   -1.13873  -1.13847  -1.13804  -1.13611  -1.13599
  Beta  occ. eigenvalues --   -1.13549  -1.13481  -1.13460  -1.13433  -1.13225
  Beta  occ. eigenvalues --   -1.13135  -1.13112  -1.11517  -1.11459  -1.11437
  Beta  occ. eigenvalues --   -0.17805  -0.14000  -0.10542
  Beta virt. eigenvalues --   -0.07585  -0.06635  -0.05051  -0.04166  -0.02814
  Beta virt. eigenvalues --   -0.02486  -0.01837  -0.01755  -0.00824  -0.00594
  Beta virt. eigenvalues --   -0.00149   0.00164   0.00305   0.00399   0.00654

 Mulliken charges and spin densities:
               1          2
     1  Na   0.318024  -0.103719
     2  Na  -0.724179   0.392212
     3  Na   0.182445  -0.004698
     4  Na   0.109984   0.031516
     5  Na  -0.585956   0.319350
     6  Na   0.688301   0.030276
     7  Na   0.011382   0.335062
 Sum of Mulliken charges =  -0.00000   1.00000

 Dipole moment (field-independent basis, Debye):
    X=              0.3195    Y=              0.0530    Z=              0.2575  Tot=              0.4138
 Quadrupole moment (field-independent basis, Debye-Ang):
   XX=            -50.7454   YY=            -72.4032   ZZ=            -72.2699
   XY=             -0.3116   XZ=             -0.5308   YZ=              7.3039

 Normal termination of Gaussian 16 at Tue Dec  5 15:23:37 2023.
