 Gaussian 16, Revision B.01,
 Gaussian 16:  ES64L-G16RevB.01 20-Dec-2017

 -------------------------
 #P B3LYP/6-311+g(d) force
 -------------------------

 -----
 DPGEN
 -----
 Symbolic Z-matrix:
 Charge =  0 Multiplicity = 2

                         Standard orientation:
 ---------------------------------------------------------------------
 Center     Atomic      Atomic             Coordinates (Angstroms)
 Number     Number       Type             X           Y           Z
 ---------------------------------------------------------------------
      1         11           0        1.986788    1.915589   -0.657635
      2         11           0       -0.790370    3.293059    0.231489
      3         11           0       -3.269929   -0.127569    0.674219
      4         11           0        5.013570   -0.665448   -0.979223
      5         11           0       -5.791989   -1.490398   -1.245202
      6         11           0        0.002604   -0.498318    1.489390
      7         11           0        2.849326   -2.426916    0.486962
 ---------------------------------------------------------------------

 SCF Done:  E(UB3LYP) =  -1136.11484061     A.U. after   20 cycles

 The electronic state is 2-A.
 Alpha  occ. eigenvalues --  -38.44666 -38.44590 -38.44518 -38.44461 -38.44358
 Alpha  occ. eigenvalues --  -38.44329 -38.43724  -2.20470  -2.20425  -2.20330
 Alpha  occ. eigenvalues --   -2.20263  -2.20150  -2.20103  -2.19503  -1.14165
 Alpha  occ. eigenvalues --   -1.14125  -1.14108  -1.14096  -1.14087  -1.14030
 Alpha  occ. eigenvalues --   -1.13997  -1.13980  -1.13951  -1.13945  -1.13940
 Alpha  occ. eigenvalues --   -1.13915  -1.13818  -1.13787  -1.13764  -1.13752
 Alpha  occ. eigenvalues --   -1.13751  -1.13722  -1.13200  -1.13188  -1.13138
 Alpha  occ. eigenvalues --   -0.16620  -0.13780  -0.12294  -0.11281
 Alpha virt. eigenvalues --   -0.06755  -0.06142  -0.04247  -0.03407  -0.03127
 Alpha virt. eigenvalues --   -0.02353  -0.02287  -0.01640  -0.01174  -0.00948
 Alpha virt. eigenvalues --   -0.00619  -0.00353   0.00139   0.00281   0.00637

  Beta  occ. eigenvalues --  -38.44636 -38.44509 -38.44504 -38.44441 -38.44352
  Beta  occ. eigenvalues --  -38.44267 -38.43740  -2.20414  -2.20307  -2.20276
  Beta  occ. eigenvalues --   -2.20227  -2.20138  -2.19985  -2.19538  -1.14134
  Beta  occ. eigenvalues --   -1.14087  -1.14066  -1.13999  -1.13998  -1.13984
  Beta  occ. eigenvalues --   -1.13960  -1.13928  -1.13922  -1.13910  -1.13897
  Beta  occ. eigenvalues --   -1.13892  -1.13809  -1.13775  -1.13754  -1.13672
  Beta  occ. eigenvalues --   -1.13671  -1.13646  -1.13222  -1.13213  -1.13137
  Beta  occ. eigenvalues --   -0.16027  -0.13588  -0.11722
  Beta virt. eigenvalues --   -0.07992  -0.06266  -0.05667  -0.03983  -0.03088
  Beta virt. eigenvalues --   -0.02817  -0.02238  -0.01951  -0.01452  -0.00997
  Beta virt. eigenvalues --   -0.00603  -0.00341  -0.00083   0.00214   0.00427

 Mulliken charges and spin densities:
               1          2
     1  Na  -0.134985   0.114574
     2  Na   0.523633   0.096474
     3  Na  -0.278690  -0.044421
     4  Na  -0.028445   0.099722
     5  Na   0.184533   0.313037
     6  Na  -0.859461   0.455613
     7  Na   0.593416  -0.034999
 Sum of Mulliken charges =  -0.00000   1.00000

 Dipole moment (field-independent basis, Debye):
    X=              1.1181    Y=              0.2862    Z=             -0.3803  Tot=              1.2152
 Quadrupole moment (field-independent basis, Debye-Ang):
   XX=            -59.9469   YY=            -65.9479   ZZ=            -70.1820
   XY=             -3.8744   XZ=              0.4977   YZ=              2.0830

 Normal termination of Gaussian 16 at Tue Nov 28 23:50:37 2023.
