 Gaussian 16, Revision B.01,
 Gaussian 16:  ES64L-G16RevB.01 20-Dec-2017

 -------------------------
 #P B3LYP/6-311+g(d) force
 -------------------------

 -----
 DPGEN
 -----
 Symbolic Z-matrix:
 Charge =  0 Multiplicity = 2

                         Standard orientation:
 ---------------------------------------------------------------------
 Center     Atomic      Atomic             Coordinates (Angstroms)
 Number     Number       Type             X           Y           Z
 ---------------------------------------------------------------------
      1         11           0        0.110574   -1.767871   -0.157612
      2         11           0       -0.154386   -0.132944    2.001241
      3         11           0       -1.485939    1.718753    0.083282
      4         11           0       -2.671327   -0.973185   -0.207812
      5         11           0        0.136643    0.430245   -1.876212
      6         11           0        2.580145   -0.917711   -0.074665
      7         11           0        1.484289    1.642712    0.231778
 ---------------------------------------------------------------------

 SCF Done:  E(UB3LYP) =  -1136.08314290     A.U. after   20 cycles

 The electronic state is 2-A.
 Alpha  occ. eigenvalues --  -38.44661 -38.44495 -38.44217 -38.43891 -38.43395
 Alpha  occ. eigenvalues --  -38.43249 -38.43087  -2.20796  -2.20686  -2.20292
 Alpha  occ. eigenvalues --   -2.19876  -2.19655  -2.19416  -2.19210  -1.14611
 Alpha  occ. eigenvalues --   -1.14492  -1.14448  -1.14385  -1.14373  -1.14307
 Alpha  occ. eigenvalues --   -1.14217  -1.14014  -1.13855  -1.13635  -1.13574
 Alpha  occ. eigenvalues --   -1.13490  -1.13272  -1.13243  -1.13145  -1.13117
 Alpha  occ. eigenvalues --   -1.13059  -1.13017  -1.12878  -1.12860  -1.12763
 Alpha  occ. eigenvalues --   -0.21504  -0.14037  -0.12625  -0.12266
 Alpha virt. eigenvalues --   -0.05422  -0.04209  -0.03925  -0.03760  -0.03080
 Alpha virt. eigenvalues --   -0.02999  -0.01356  -0.00398  -0.00195   0.00324
 Alpha virt. eigenvalues --    0.00693   0.00817   0.01049   0.01093   0.01192

  Beta  occ. eigenvalues --  -38.44558 -38.44404 -38.44210 -38.43886 -38.43370
  Beta  occ. eigenvalues --  -38.43231 -38.43072  -2.20611  -2.20521  -2.20285
  Beta  occ. eigenvalues --   -2.19871  -2.19621  -2.19392  -2.19192  -1.14501
  Beta  occ. eigenvalues --   -1.14391  -1.14315  -1.14281  -1.14248  -1.14209
  Beta  occ. eigenvalues --   -1.14157  -1.14010  -1.13808  -1.13631  -1.13576
  Beta  occ. eigenvalues --   -1.13457  -1.13229  -1.13166  -1.13135  -1.13106
  Beta  occ. eigenvalues --   -1.13014  -1.12972  -1.12862  -1.12800  -1.12757
  Beta  occ. eigenvalues --   -0.20612  -0.13689  -0.11964
  Beta virt. eigenvalues --   -0.08353  -0.05423  -0.04186  -0.03539  -0.02986
  Beta virt. eigenvalues --   -0.02256  -0.02034  -0.01271  -0.00355  -0.00022
  Beta virt. eigenvalues --    0.00351   0.00709   0.00811   0.01060   0.01140

 Mulliken charges and spin densities:
               1          2
     1  Na  -0.168640   0.057751
     2  Na   0.038443   0.531090
     3  Na   0.034489  -0.018453
     4  Na  -0.175803  -0.063672
     5  Na   0.143152   0.540788
     6  Na   0.061153  -0.056419
     7  Na   0.067205   0.008915
 Sum of Mulliken charges =  -0.00000   1.00000

 Dipole moment (field-independent basis, Debye):
    X=             -0.2396    Y=              0.0372    Z=              0.1054  Tot=              0.2644
 Quadrupole moment (field-independent basis, Debye-Ang):
   XX=            -57.1860   YY=            -74.3195   ZZ=            -65.8016
   XY=              0.2389   XZ=              0.5350   YZ=              1.1271

 Normal termination of Gaussian 16 at Thu Dec  7 19:43:53 2023.
