 Gaussian 16, Revision B.01,
 Gaussian 16:  ES64L-G16RevB.01 20-Dec-2017

 -------------------------
 #P B3LYP/6-311+g(d) force
 -------------------------

 -----
 DPGEN
 -----
 Symbolic Z-matrix:
 Charge =  0 Multiplicity = 2

                         Standard orientation:
 ---------------------------------------------------------------------
 Center     Atomic      Atomic             Coordinates (Angstroms)
 Number     Number       Type             X           Y           Z
 ---------------------------------------------------------------------
      1         11           0       -0.018584    0.051583   -1.784609
      2         11           0        0.663378   -2.642700   -0.151528
      3         11           0        2.755214   -0.310738    0.123410
      4         11           0        1.089967    2.547853   -0.169735
      5         11           0       -0.039980    0.007777    1.970067
      6         11           0       -2.027736    1.703579    0.053554
      7         11           0       -2.422258   -1.357354   -0.041159
 ---------------------------------------------------------------------

 SCF Done:  E(UB3LYP) =  -1136.13586310     A.U. after   17 cycles

 The electronic state is 2-A.
 Alpha  occ. eigenvalues --  -38.43616 -38.43370 -38.43356 -38.43288 -38.43248
 Alpha  occ. eigenvalues --  -38.43203 -38.43192  -2.19602  -2.19414  -2.19296
 Alpha  occ. eigenvalues --   -2.19231  -2.19218  -2.19135  -2.19119  -1.13290
 Alpha  occ. eigenvalues --   -1.13249  -1.13224  -1.13128  -1.13095  -1.13085
 Alpha  occ. eigenvalues --   -1.12991  -1.12976  -1.12956  -1.12943  -1.12899
 Alpha  occ. eigenvalues --   -1.12882  -1.12877  -1.12862  -1.12805  -1.12797
 Alpha  occ. eigenvalues --   -1.12780  -1.12776  -1.12760  -1.12745  -1.12722
 Alpha  occ. eigenvalues --   -0.19821  -0.13133  -0.12892  -0.11411
 Alpha virt. eigenvalues --   -0.04913  -0.04754  -0.04687  -0.03323  -0.03152
 Alpha virt. eigenvalues --   -0.02856  -0.01029  -0.00930  -0.00047   0.00210
 Alpha virt. eigenvalues --    0.00250   0.00379   0.00964   0.01010   0.01019

  Beta  occ. eigenvalues --  -38.43523 -38.43364 -38.43281 -38.43275 -38.43238
  Beta  occ. eigenvalues --  -38.43197 -38.43185  -2.19433  -2.19289  -2.19267
  Beta  occ. eigenvalues --   -2.19222  -2.19207  -2.19127  -2.19111  -1.13188
  Beta  occ. eigenvalues --   -1.13132  -1.13106  -1.13053  -1.13027  -1.13006
  Beta  occ. eigenvalues --   -1.12973  -1.12964  -1.12929  -1.12901  -1.12880
  Beta  occ. eigenvalues --   -1.12869  -1.12831  -1.12813  -1.12800  -1.12783
  Beta  occ. eigenvalues --   -1.12761  -1.12747  -1.12743  -1.12728  -1.12720
  Beta  occ. eigenvalues --   -0.19034  -0.12839  -0.12601
  Beta virt. eigenvalues --   -0.07395  -0.04908  -0.04762  -0.04683  -0.02433
  Beta virt. eigenvalues --   -0.02299  -0.01750  -0.00963  -0.00869   0.00080
  Beta virt. eigenvalues --    0.00156   0.00187   0.00383   0.00992   0.00996

 Mulliken charges and spin densities:
               1          2
     1  Na  -0.695139   0.546273
     2  Na   0.249132  -0.054635
     3  Na   0.226261  -0.033903
     4  Na   0.295745  -0.050460
     5  Na  -0.760042   0.650006
     6  Na   0.419710  -0.004986
     7  Na   0.264333  -0.052295
 Sum of Mulliken charges =  -0.00000   1.00000

 Dipole moment (field-independent basis, Debye):
    X=              0.0684    Y=             -0.0294    Z=              0.1465  Tot=              0.1643
 Quadrupole moment (field-independent basis, Debye-Ang):
   XX=            -61.5436   YY=            -62.8230   ZZ=            -71.0267
   XY=              0.4765   XZ=              0.0902   YZ=              0.1014

 Normal termination of Gaussian 16 at Fri Dec  8 19:20:24 2023.
