 Gaussian 16, Revision B.01,
 Gaussian 16:  ES64L-G16RevB.01 20-Dec-2017

 -------------------------
 #P B3LYP/6-311+g(d) force
 -------------------------

 -----
 DPGEN
 -----
 Symbolic Z-matrix:
 Charge =  0 Multiplicity = 2

                         Standard orientation:
 ---------------------------------------------------------------------
 Center     Atomic      Atomic             Coordinates (Angstroms)
 Number     Number       Type             X           Y           Z
 ---------------------------------------------------------------------
      1         11           0       -0.511726   -0.350220   -1.371670
      2         11           0        0.756693   -1.714124    0.517785
      3         11           0       -3.227563   -0.843644   -0.375814
      4         11           0       -1.146356   -0.026152    1.628557
      5         11           0       -0.794773    2.225700   -0.486373
      6         11           0        1.620276    1.310867    0.662700
      7         11           0        3.303449   -0.602426   -0.575185
 ---------------------------------------------------------------------

 SCF Done:  E(UB3LYP) =  -1136.08619823     A.U. after   21 cycles

 The electronic state is 2-A.
 Alpha  occ. eigenvalues --  -38.44903 -38.44879 -38.44268 -38.43805 -38.43626
 Alpha  occ. eigenvalues --  -38.43171 -38.42808  -2.20826  -2.20789  -2.20515
 Alpha  occ. eigenvalues --   -2.19941  -2.19799  -2.19302  -2.18866  -1.14585
 Alpha  occ. eigenvalues --   -1.14548  -1.14499  -1.14485  -1.14468  -1.14428
 Alpha  occ. eigenvalues --   -1.14376  -1.14240  -1.14026  -1.13835  -1.13539
 Alpha  occ. eigenvalues --   -1.13481  -1.13432  -1.13390  -1.13306  -1.13080
 Alpha  occ. eigenvalues --   -1.12942  -1.12932  -1.12563  -1.12463  -1.12425
 Alpha  occ. eigenvalues --   -0.20724  -0.14456  -0.11850  -0.11520
 Alpha virt. eigenvalues --   -0.06732  -0.04368  -0.03866  -0.03368  -0.02483
 Alpha virt. eigenvalues --   -0.02333  -0.02244  -0.00672  -0.00287   0.00200
 Alpha virt. eigenvalues --    0.00381   0.00545   0.00749   0.00955   0.01029

  Beta  occ. eigenvalues --  -38.44895 -38.44867 -38.44209 -38.43771 -38.43543
  Beta  occ. eigenvalues --  -38.43151 -38.42792  -2.20812  -2.20770  -2.20412
  Beta  occ. eigenvalues --   -2.19887  -2.19653  -2.19274  -2.18842  -1.14578
  Beta  occ. eigenvalues --   -1.14527  -1.14477  -1.14460  -1.14415  -1.14393
  Beta  occ. eigenvalues --   -1.14356  -1.14172  -1.13954  -1.13737  -1.13484
  Beta  occ. eigenvalues --   -1.13440  -1.13343  -1.13272  -1.13213  -1.13066
  Beta  occ. eigenvalues --   -1.12929  -1.12856  -1.12542  -1.12421  -1.12407
  Beta  occ. eigenvalues --   -0.19907  -0.14201  -0.11576
  Beta virt. eigenvalues --   -0.07334  -0.06601  -0.04288  -0.03365  -0.03114
  Beta virt. eigenvalues --   -0.02338  -0.01645  -0.01237  -0.00561  -0.00063
  Beta virt. eigenvalues --    0.00228   0.00394   0.00584   0.00891   0.00970

 Mulliken charges and spin densities:
               1          2
     1  Na  -0.874644   0.355892
     2  Na   0.239028   0.245449
     3  Na   0.119792   0.017048
     4  Na   0.030722   0.184601
     5  Na   0.196978   0.073382
     6  Na  -0.089296   0.219481
     7  Na   0.377420  -0.095854
 Sum of Mulliken charges =  -0.00000   1.00000

 Dipole moment (field-independent basis, Debye):
    X=             -0.1552    Y=             -0.0016    Z=             -0.1026  Tot=              0.1861
 Quadrupole moment (field-independent basis, Debye-Ang):
   XX=            -47.4181   YY=            -74.9550   ZZ=            -70.5663
   XY=              0.3580   XZ=             -1.0052   YZ=              0.3385

 Normal termination of Gaussian 16 at Fri Dec  8 18:47:41 2023.
