 Gaussian 16, Revision B.01,
 Gaussian 16:  ES64L-G16RevB.01 20-Dec-2017

 -------------------------
 #P B3LYP/6-311+g(d) force
 -------------------------

 -----
 DPGEN
 -----
 Symbolic Z-matrix:
 Charge =  0 Multiplicity = 2

                         Standard orientation:
 ---------------------------------------------------------------------
 Center     Atomic      Atomic             Coordinates (Angstroms)
 Number     Number       Type             X           Y           Z
 ---------------------------------------------------------------------
      1         11           0       -0.536117    2.961143   -0.660493
      2         11           0       -5.263922   -0.389445    1.599179
      3         11           0       -3.063477    0.579717   -0.737019
      4         11           0       -0.891510   -2.414208   -1.642009
      5         11           0        0.417546   -0.269238    0.161402
      6         11           0        3.251204   -0.748405    1.237789
      7         11           0        6.086277    0.280435    0.041150
 ---------------------------------------------------------------------

 SCF Done:  E(UB3LYP) =  -1136.10180498     A.U. after   25 cycles

 The electronic state is 2-A.
 Alpha  occ. eigenvalues --  -38.45750 -38.44905 -38.44436 -38.43949 -38.43901
 Alpha  occ. eigenvalues --  -38.43832 -38.43513  -2.21576  -2.20736  -2.20181
 Alpha  occ. eigenvalues --   -2.19748  -2.19737  -2.19735  -2.19345  -1.15209
 Alpha  occ. eigenvalues --   -1.15197  -1.15188  -1.14395  -1.14370  -1.14356
 Alpha  occ. eigenvalues --   -1.13857  -1.13854  -1.13850  -1.13533  -1.13421
 Alpha  occ. eigenvalues --   -1.13413  -1.13386  -1.13382  -1.13379  -1.13372
 Alpha  occ. eigenvalues --   -1.13367  -1.13304  -1.13041  -1.13036  -1.12976
 Alpha  occ. eigenvalues --   -0.17125  -0.13458  -0.12328  -0.11441
 Alpha virt. eigenvalues --   -0.07246  -0.05149  -0.04327  -0.03671  -0.03274
 Alpha virt. eigenvalues --   -0.02282  -0.02127  -0.01540  -0.01192  -0.00828
 Alpha virt. eigenvalues --   -0.00649  -0.00449   0.00284   0.00342   0.00486

  Beta  occ. eigenvalues --  -38.45628 -38.44828 -38.44478 -38.43892 -38.43885
  Beta  occ. eigenvalues --  -38.43842 -38.43519  -2.21349  -2.20592  -2.20261
  Beta  occ. eigenvalues --   -2.19771  -2.19720  -2.19616  -2.19363  -1.15054
  Beta  occ. eigenvalues --   -1.15043  -1.15038  -1.14304  -1.14271  -1.14259
  Beta  occ. eigenvalues --   -1.13912  -1.13909  -1.13901  -1.13545  -1.13434
  Beta  occ. eigenvalues --   -1.13392  -1.13369  -1.13358  -1.13320  -1.13302
  Beta  occ. eigenvalues --   -1.13297  -1.13291  -1.13059  -1.13021  -1.12967
  Beta  occ. eigenvalues --   -0.16373  -0.13449  -0.10906
  Beta virt. eigenvalues --   -0.08391  -0.07217  -0.04410  -0.04153  -0.03285
  Beta virt. eigenvalues --   -0.02936  -0.02059  -0.01679  -0.01529  -0.00977
  Beta virt. eigenvalues --   -0.00680  -0.00362  -0.00190   0.00335   0.00556

 Mulliken charges and spin densities:
               1          2
     1  Na   0.684689   0.483850
     2  Na   0.296175   0.349812
     3  Na   0.514445  -0.046348
     4  Na   0.880139   0.402350
     5  Na  -1.274736   0.118423
     6  Na  -1.202306  -0.066448
     7  Na   0.101594  -0.241639
 Sum of Mulliken charges =  -0.00000   1.00000

 Dipole moment (field-independent basis, Debye):
    X=              0.6996    Y=              0.2798    Z=             -0.9270  Tot=              1.1946
 Quadrupole moment (field-independent basis, Debye-Ang):
   XX=            -72.1840   YY=            -63.5303   ZZ=            -66.4604
   XY=              6.7825   XZ=             -3.5817   YZ=             -1.1433

 Normal termination of Gaussian 16 at Wed Nov 29 00:46:26 2023.
