 Gaussian 16, Revision B.01,
 Gaussian 16:  ES64L-G16RevB.01 20-Dec-2017

 -------------------------
 #P B3LYP/6-311+g(d) force
 -------------------------

 -----
 DPGEN
 -----
 Symbolic Z-matrix:
 Charge =  0 Multiplicity = 2

                         Standard orientation:
 ---------------------------------------------------------------------
 Center     Atomic      Atomic             Coordinates (Angstroms)
 Number     Number       Type             X           Y           Z
 ---------------------------------------------------------------------
      1         11           0       -3.133875   -1.288737   -0.477820
      2         11           0        0.550570   -3.001485   -0.323668
      3         11           0        2.182129    2.407440   -0.213885
      4         11           0        2.909479   -0.996934    0.098916
      5         11           0       -1.751752    2.737074    0.280768
      6         11           0       -0.266420    0.561397   -1.505914
      7         11           0       -0.490131   -0.418756    2.141603
 ---------------------------------------------------------------------

 SCF Done:  E(UB3LYP) =  -1136.13157885     A.U. after   19 cycles

 The electronic state is 2-A.
 Alpha  occ. eigenvalues --  -38.44526 -38.44332 -38.43928 -38.43888 -38.43634
 Alpha  occ. eigenvalues --  -38.43600 -38.43231  -2.20323  -2.20106  -2.19735
 Alpha  occ. eigenvalues --   -2.19716  -2.19472  -2.19441  -2.19164  -1.14021
 Alpha  occ. eigenvalues --   -1.13982  -1.13944  -1.13781  -1.13753  -1.13748
 Alpha  occ. eigenvalues --   -1.13429  -1.13423  -1.13399  -1.13379  -1.13366
 Alpha  occ. eigenvalues --   -1.13352  -1.13134  -1.13108  -1.13102  -1.13097
 Alpha  occ. eigenvalues --   -1.13085  -1.13077  -1.12854  -1.12817  -1.12782
 Alpha  occ. eigenvalues --   -0.17966  -0.12810  -0.12531  -0.10388
 Alpha virt. eigenvalues --   -0.06179  -0.05277  -0.04915  -0.03092  -0.02912
 Alpha virt. eigenvalues --   -0.02357  -0.01679  -0.01488  -0.00710  -0.00557
 Alpha virt. eigenvalues --   -0.00036   0.00326   0.00712   0.00750   0.00850

  Beta  occ. eigenvalues --  -38.44520 -38.44318 -38.43927 -38.43885 -38.43599
  Beta  occ. eigenvalues --  -38.43537 -38.43186  -2.20314  -2.20081  -2.19734
  Beta  occ. eigenvalues --   -2.19712  -2.19442  -2.19292  -2.19083  -1.14012
  Beta  occ. eigenvalues --   -1.13960  -1.13941  -1.13748  -1.13739  -1.13731
  Beta  occ. eigenvalues --   -1.13429  -1.13416  -1.13393  -1.13367  -1.13357
  Beta  occ. eigenvalues --   -1.13350  -1.13104  -1.13094  -1.13071  -1.13012
  Beta  occ. eigenvalues --   -1.12977  -1.12956  -1.12791  -1.12761  -1.12719
  Beta  occ. eigenvalues --   -0.17310  -0.12634  -0.12303
  Beta virt. eigenvalues --   -0.06565  -0.06127  -0.05141  -0.04872  -0.02371
  Beta virt. eigenvalues --   -0.02252  -0.01577  -0.01390  -0.01356  -0.00728
  Beta virt. eigenvalues --   -0.00594   0.00137   0.00384   0.00723   0.00824

 Mulliken charges and spin densities:
               1          2
     1  Na   0.082307  -0.007673
     2  Na   0.117258   0.028301
     3  Na   0.175034   0.004425
     4  Na  -0.023311  -0.016340
     5  Na   0.059438  -0.036590
     6  Na   0.004625   0.315064
     7  Na  -0.415352   0.712812
 Sum of Mulliken charges =  -0.00000   1.00000

 Dipole moment (field-independent basis, Debye):
    X=             -0.4453    Y=              0.3004    Z=              0.0912  Tot=              0.5448
 Quadrupole moment (field-independent basis, Debye-Ang):
   XX=            -58.0858   YY=            -58.9795   ZZ=            -76.2487
   XY=              0.2420   XZ=              0.5025   YZ=              1.9719

 Normal termination of Gaussian 16 at Fri Dec  8 05:14:57 2023.
