 Gaussian 16, Revision B.01,
 Gaussian 16:  ES64L-G16RevB.01 20-Dec-2017

 -------------------------
 #P B3LYP/6-311+g(d) force
 -------------------------

 -----
 DPGEN
 -----
 Symbolic Z-matrix:
 Charge =  0 Multiplicity = 2

                         Standard orientation:
 ---------------------------------------------------------------------
 Center     Atomic      Atomic             Coordinates (Angstroms)
 Number     Number       Type             X           Y           Z
 ---------------------------------------------------------------------
      1         11           0       -3.239623    1.131068   -0.209384
      2         11           0        3.551341    0.552353    0.217723
      3         11           0        2.020911   -2.474437   -0.352449
      4         11           0       -0.190229    0.120004    2.099270
      5         11           0       -2.406141   -2.373588    0.154391
      6         11           0        0.327720    3.088313   -0.231312
      7         11           0       -0.063978   -0.043712   -1.678238
 ---------------------------------------------------------------------

 SCF Done:  E(UB3LYP) =  -1136.12879110     A.U. after   19 cycles

 The electronic state is 2-A.
 Alpha  occ. eigenvalues --  -38.44985 -38.44911 -38.44006 -38.43872 -38.43713
 Alpha  occ. eigenvalues --  -38.43537 -38.43262  -2.20742  -2.20683  -2.19781
 Alpha  occ. eigenvalues --   -2.19696  -2.19512  -2.19419  -2.19051  -1.14419
 Alpha  occ. eigenvalues --   -1.14397  -1.14383  -1.14365  -1.14337  -1.14317
 Alpha  occ. eigenvalues --   -1.13453  -1.13438  -1.13430  -1.13365  -1.13326
 Alpha  occ. eigenvalues --   -1.13307  -1.13201  -1.13173  -1.13148  -1.13110
 Alpha  occ. eigenvalues --   -1.13053  -1.13039  -1.12733  -1.12715  -1.12685
 Alpha  occ. eigenvalues --   -0.17633  -0.13072  -0.11788  -0.10361
 Alpha virt. eigenvalues --   -0.06457  -0.05634  -0.04643  -0.03205  -0.02622
 Alpha virt. eigenvalues --   -0.02470  -0.02115  -0.01419  -0.00888  -0.00654
 Alpha virt. eigenvalues --   -0.00098   0.00293   0.00638   0.00688   0.00756

  Beta  occ. eigenvalues --  -38.44985 -38.44907 -38.44004 -38.43777 -38.43707
  Beta  occ. eigenvalues --  -38.43475 -38.43260  -2.20745  -2.20678  -2.19780
  Beta  occ. eigenvalues --   -2.19520  -2.19503  -2.19306  -2.19049  -1.14412
  Beta  occ. eigenvalues --   -1.14398  -1.14386  -1.14345  -1.14335  -1.14315
  Beta  occ. eigenvalues --   -1.13439  -1.13437  -1.13430  -1.13246  -1.13205
  Beta  occ. eigenvalues --   -1.13185  -1.13180  -1.13157  -1.13145  -1.13031
  Beta  occ. eigenvalues --   -1.12972  -1.12957  -1.12726  -1.12705  -1.12682
  Beta  occ. eigenvalues --   -0.16932  -0.12929  -0.11574
  Beta virt. eigenvalues --   -0.06558  -0.06317  -0.05617  -0.04568  -0.02536
  Beta virt. eigenvalues --   -0.02004  -0.01927  -0.01465  -0.01309  -0.00930
  Beta virt. eigenvalues --   -0.00680   0.00072   0.00330   0.00716   0.00755

 Mulliken charges and spin densities:
               1          2
     1  Na   0.152073  -0.069391
     2  Na   0.017084  -0.017486
     3  Na   0.043506  -0.066985
     4  Na  -0.297098   0.799958
     5  Na  -0.012842  -0.064381
     6  Na  -0.108613  -0.115027
     7  Na   0.205891   0.533310
 Sum of Mulliken charges =  -0.00000   1.00000

 Dipole moment (field-independent basis, Debye):
    X=             -0.0841    Y=              0.0962    Z=              0.0728  Tot=              0.1470
 Quadrupole moment (field-independent basis, Debye-Ang):
   XX=            -50.9806   YY=            -64.4034   ZZ=            -76.9982
   XY=              0.4979   XZ=              0.8294   YZ=             -0.1691

 Normal termination of Gaussian 16 at Thu Dec  7 16:21:42 2023.
