 Gaussian 16, Revision B.01,
 Gaussian 16:  ES64L-G16RevB.01 20-Dec-2017

 -------------------------
 #P B3LYP/6-311+g(d) force
 -------------------------

 -----
 DPGEN
 -----
 Symbolic Z-matrix:
 Charge =  0 Multiplicity = 2

                         Standard orientation:
 ---------------------------------------------------------------------
 Center     Atomic      Atomic             Coordinates (Angstroms)
 Number     Number       Type             X           Y           Z
 ---------------------------------------------------------------------
      1         11           0       -0.085417    0.178908    1.909327
      2         11           0        2.439017   -1.648246   -0.442205
      3         11           0       -0.521106   -2.620288    0.366017
      4         11           0        2.395152    1.601327    0.193980
      5         11           0       -3.087663   -0.406312   -0.103381
      6         11           0       -0.842655    2.859558   -0.140408
      7         11           0       -0.297328    0.035054   -1.783330
 ---------------------------------------------------------------------

 SCF Done:  E(UB3LYP) =  -1136.13945479     A.U. after   18 cycles

 The electronic state is 2-A.
 Alpha  occ. eigenvalues --  -38.43839 -38.43573 -38.43557 -38.43469 -38.43309
 Alpha  occ. eigenvalues --  -38.43308 -38.43243  -2.19684  -2.19430  -2.19425
 Alpha  occ. eigenvalues --   -2.19423  -2.19283  -2.19189  -2.19163  -1.13376
 Alpha  occ. eigenvalues --   -1.13344  -1.13320  -1.13160  -1.13127  -1.13113
 Alpha  occ. eigenvalues --   -1.13105  -1.13095  -1.13079  -1.13038  -1.13031
 Alpha  occ. eigenvalues --   -1.13023  -1.12966  -1.12922  -1.12910  -1.12890
 Alpha  occ. eigenvalues --   -1.12840  -1.12837  -1.12824  -1.12805  -1.12754
 Alpha  occ. eigenvalues --   -0.19055  -0.12902  -0.12734  -0.11021
 Alpha virt. eigenvalues --   -0.05437  -0.04918  -0.04639  -0.03191  -0.03108
 Alpha virt. eigenvalues --   -0.02663  -0.01348  -0.01088  -0.00159  -0.00091
 Alpha virt. eigenvalues --    0.00064   0.00375   0.00890   0.00900   0.00970

  Beta  occ. eigenvalues --  -38.43836 -38.43568 -38.43552 -38.43381 -38.43301
  Beta  occ. eigenvalues --  -38.43233 -38.43231  -2.19681  -2.19424  -2.19419
  Beta  occ. eigenvalues --   -2.19264  -2.19177  -2.19147  -2.19145  -1.13368
  Beta  occ. eigenvalues --   -1.13328  -1.13318  -1.13139  -1.13113  -1.13081
  Beta  occ. eigenvalues --   -1.13078  -1.13068  -1.13028  -1.13009  -1.12941
  Beta  occ. eigenvalues --   -1.12922  -1.12909  -1.12865  -1.12840  -1.12826
  Beta  occ. eigenvalues --   -1.12815  -1.12796  -1.12784  -1.12766  -1.12745
  Beta  occ. eigenvalues --   -0.18305  -0.12645  -0.12469
  Beta virt. eigenvalues --   -0.07081  -0.05437  -0.04866  -0.04624  -0.02377
  Beta virt. eigenvalues --   -0.02309  -0.01600  -0.01273  -0.01020  -0.00184
  Beta virt. eigenvalues --   -0.00096   0.00134   0.00388   0.00885   0.00920

 Mulliken charges and spin densities:
               1          2
     1  Na  -0.267703   0.580805
     2  Na   0.029489  -0.009947
     3  Na   0.259313   0.059252
     4  Na   0.137546  -0.018435
     5  Na   0.109830  -0.128809
     6  Na   0.041264  -0.145116
     7  Na  -0.309739   0.662249
 Sum of Mulliken charges =  -0.00000   1.00000

 Dipole moment (field-independent basis, Debye):
    X=             -0.2744    Y=              0.2474    Z=              0.0203  Tot=              0.3700
 Quadrupole moment (field-independent basis, Debye-Ang):
   XX=            -58.6106   YY=            -62.4170   ZZ=            -72.9659
   XY=             -0.1972   XZ=             -0.5026   YZ=             -0.1543

 Normal termination of Gaussian 16 at Thu Dec  7 18:28:45 2023.
