 Gaussian 16, Revision B.01,
 Gaussian 16:  ES64L-G16RevB.01 20-Dec-2017

 -------------------------
 #P B3LYP/6-311+g(d) force
 -------------------------

 -----
 DPGEN
 -----
 Symbolic Z-matrix:
 Charge =  0 Multiplicity = 2

                         Standard orientation:
 ---------------------------------------------------------------------
 Center     Atomic      Atomic             Coordinates (Angstroms)
 Number     Number       Type             X           Y           Z
 ---------------------------------------------------------------------
      1         11           0        0.294790   -2.969799   -0.082997
      2         11           0        0.257165   -0.264784    2.236814
      3         11           0       -3.054283   -1.170086   -0.512501
      4         11           0        0.008224    0.148276   -1.463546
      5         11           0       -2.119765    2.288824    0.423807
      6         11           0        3.020172   -0.641705   -0.173114
      7         11           0        1.593698    2.609275   -0.428464
 ---------------------------------------------------------------------

 SCF Done:  E(UB3LYP) =  -1136.13709386     A.U. after   19 cycles

 The electronic state is 2-A.
 Alpha  occ. eigenvalues --  -38.43938 -38.43893 -38.43888 -38.43885 -38.43532
 Alpha  occ. eigenvalues --  -38.43506 -38.43047  -2.19744  -2.19732  -2.19728
 Alpha  occ. eigenvalues --   -2.19683  -2.19376  -2.19339  -2.19044  -1.13417
 Alpha  occ. eigenvalues --   -1.13415  -1.13409  -1.13394  -1.13385  -1.13372
 Alpha  occ. eigenvalues --   -1.13370  -1.13363  -1.13356  -1.13349  -1.13342
 Alpha  occ. eigenvalues --   -1.13316  -1.13109  -1.13026  -1.13025  -1.13010
 Alpha  occ. eigenvalues --   -1.12993  -1.12964  -1.12729  -1.12679  -1.12666
 Alpha  occ. eigenvalues --   -0.18316  -0.12773  -0.12446  -0.10782
 Alpha virt. eigenvalues --   -0.05470  -0.05342  -0.04851  -0.03118  -0.02898
 Alpha virt. eigenvalues --   -0.02648  -0.01490  -0.01222  -0.00539  -0.00421
 Alpha virt. eigenvalues --   -0.00030   0.00336   0.00792   0.00846   0.00854

  Beta  occ. eigenvalues --  -38.43929 -38.43881 -38.43880 -38.43788 -38.43524
  Beta  occ. eigenvalues --  -38.43502 -38.43000  -2.19722  -2.19717  -2.19672
  Beta  occ. eigenvalues --   -2.19549  -2.19366  -2.19336  -2.18958  -1.13407
  Beta  occ. eigenvalues --   -1.13395  -1.13383  -1.13377  -1.13362  -1.13349
  Beta  occ. eigenvalues --   -1.13340  -1.13332  -1.13311  -1.13268  -1.13241
  Beta  occ. eigenvalues --   -1.13213  -1.13093  -1.13021  -1.13012  -1.12993
  Beta  occ. eigenvalues --   -1.12983  -1.12958  -1.12666  -1.12620  -1.12600
  Beta  occ. eigenvalues --   -0.17621  -0.12553  -0.12205
  Beta virt. eigenvalues --   -0.06883  -0.05445  -0.05248  -0.04775  -0.02395
  Beta virt. eigenvalues --   -0.02186  -0.01590  -0.01400  -0.01134  -0.00552
  Beta virt. eigenvalues --   -0.00460   0.00129   0.00377   0.00843   0.00850

 Mulliken charges and spin densities:
               1          2
     1  Na   0.134672  -0.010631
     2  Na  -0.509434   0.735837
     3  Na   0.070590  -0.000399
     4  Na  -0.175961   0.172533
     5  Na   0.010544   0.082223
     6  Na   0.234769  -0.002593
     7  Na   0.234821   0.023031
 Sum of Mulliken charges =  -0.00000   1.00000

 Dipole moment (field-independent basis, Debye):
    X=             -0.0010    Y=             -0.0282    Z=              0.2160  Tot=              0.2178
 Quadrupole moment (field-independent basis, Debye-Ang):
   XX=            -57.4452   YY=            -61.3129   ZZ=            -74.4020
   XY=             -0.2922   XZ=             -0.4386   YZ=              1.1545

 Normal termination of Gaussian 16 at Thu Dec  7 14:02:08 2023.
