 Gaussian 16, Revision B.01,
 Gaussian 16:  ES64L-G16RevB.01 20-Dec-2017

 -------------------------
 #P B3LYP/6-311+g(d) force
 -------------------------

 -----
 DPGEN
 -----
 Symbolic Z-matrix:
 Charge =  0 Multiplicity = 2

                         Standard orientation:
 ---------------------------------------------------------------------
 Center     Atomic      Atomic             Coordinates (Angstroms)
 Number     Number       Type             X           Y           Z
 ---------------------------------------------------------------------
      1         11           0       -2.790654   -1.596253    0.266128
      2         11           0       -0.226698   -0.265047    1.942900
      3         11           0        0.710834   -2.086537   -1.277352
      4         11           0       -0.468407    0.367366   -1.815293
      5         11           0       -2.691170    2.119767    0.352824
      6         11           0        3.172722   -0.573954    1.106522
      7         11           0        2.293375    2.034658   -0.575729
 ---------------------------------------------------------------------

 SCF Done:  E(UB3LYP) =  -1136.12184739     A.U. after   24 cycles

 The electronic state is 2-A.
 Alpha  occ. eigenvalues --  -38.44580 -38.44518 -38.44392 -38.44014 -38.43995
 Alpha  occ. eigenvalues --  -38.43512 -38.43031  -2.20446  -2.20338  -2.20229
 Alpha  occ. eigenvalues --   -2.19995  -2.19808  -2.19298  -2.18936  -1.14126
 Alpha  occ. eigenvalues --   -1.14114  -1.14068  -1.14020  -1.13984  -1.13947
 Alpha  occ. eigenvalues --   -1.13895  -1.13890  -1.13859  -1.13782  -1.13623
 Alpha  occ. eigenvalues --   -1.13595  -1.13475  -1.13456  -1.13449  -1.12980
 Alpha  occ. eigenvalues --   -1.12955  -1.12942  -1.12668  -1.12546  -1.12510
 Alpha  occ. eigenvalues --   -0.18410  -0.13545  -0.11825  -0.11172
 Alpha virt. eigenvalues --   -0.05928  -0.05707  -0.04192  -0.03327  -0.03070
 Alpha virt. eigenvalues --   -0.02872  -0.01911  -0.01092  -0.00530  -0.00088
 Alpha virt. eigenvalues --    0.00168   0.00309   0.00558   0.00616   0.00687

  Beta  occ. eigenvalues --  -38.44513 -38.44510 -38.44364 -38.43985 -38.43927
  Beta  occ. eigenvalues --  -38.43519 -38.43001  -2.20325  -2.20323  -2.20180
  Beta  occ. eigenvalues --   -2.19840  -2.19791  -2.19313  -2.18885  -1.14060
  Beta  occ. eigenvalues --   -1.14033  -1.13989  -1.13982  -1.13957  -1.13938
  Beta  occ. eigenvalues --   -1.13863  -1.13844  -1.13829  -1.13672  -1.13517
  Beta  occ. eigenvalues --   -1.13487  -1.13445  -1.13441  -1.13432  -1.12986
  Beta  occ. eigenvalues --   -1.12966  -1.12948  -1.12613  -1.12500  -1.12481
  Beta  occ. eigenvalues --   -0.17639  -0.13319  -0.10949
  Beta virt. eigenvalues --   -0.07877  -0.05780  -0.05495  -0.03706  -0.03024
  Beta virt. eigenvalues --   -0.02272  -0.02167  -0.01749  -0.00977  -0.00386
  Beta virt. eigenvalues --   -0.00006   0.00192   0.00346   0.00659   0.00730

 Mulliken charges and spin densities:
               1          2
     1  Na   0.334862  -0.002094
     2  Na  -0.327160   0.475543
     3  Na  -0.242944   0.000796
     4  Na   0.308272   0.470581
     5  Na  -0.129849  -0.092945
     6  Na   0.233802   0.194015
     7  Na  -0.176983  -0.045896
 Sum of Mulliken charges =  -0.00000   1.00000

 Dipole moment (field-independent basis, Debye):
    X=             -0.1213    Y=             -0.3496    Z=              0.5961  Tot=              0.7016
 Quadrupole moment (field-independent basis, Debye-Ang):
   XX=            -54.6970   YY=            -71.3356   ZZ=            -69.5728
   XY=              0.9949   XZ=              0.3084   YZ=             -2.3327

 Normal termination of Gaussian 16 at Tue Dec  5 19:38:35 2023.
