 Gaussian 16, Revision B.01,
 Gaussian 16:  ES64L-G16RevB.01 20-Dec-2017

 -------------------------
 #P B3LYP/6-311+g(d) force
 -------------------------

 -----
 DPGEN
 -----
 Symbolic Z-matrix:
 Charge =  0 Multiplicity = 2

                         Standard orientation:
 ---------------------------------------------------------------------
 Center     Atomic      Atomic             Coordinates (Angstroms)
 Number     Number       Type             X           Y           Z
 ---------------------------------------------------------------------
      1         11           0       -2.381499    1.099098   -1.591110
      2         11           0        3.391129   -0.130086   -0.547039
      3         11           0       -3.702196   -1.279164    0.636574
      4         11           0       -0.783580   -2.134490    1.281619
      5         11           0       -0.244068    3.626379   -0.581030
      6         11           0        1.800985    1.661935    2.133405
      7         11           0        1.919229   -2.843673   -1.332419
 ---------------------------------------------------------------------

 SCF Done:  E(UB3LYP) =  -1136.11344028     A.U. after   20 cycles

 The electronic state is 2-A.
 Alpha  occ. eigenvalues --  -38.44819 -38.44713 -38.44316 -38.44296 -38.44233
 Alpha  occ. eigenvalues --  -38.44141 -38.43964  -2.20608  -2.20510  -2.20106
 Alpha  occ. eigenvalues --   -2.20082  -2.20052  -2.19891  -2.19779  -1.14291
 Alpha  occ. eigenvalues --   -1.14273  -1.14256  -1.14186  -1.14177  -1.14155
 Alpha  occ. eigenvalues --   -1.13779  -1.13765  -1.13742  -1.13733  -1.13723
 Alpha  occ. eigenvalues --   -1.13714  -1.13702  -1.13698  -1.13679  -1.13572
 Alpha  occ. eigenvalues --   -1.13557  -1.13528  -1.13434  -1.13423  -1.13410
 Alpha  occ. eigenvalues --   -0.16209  -0.13539  -0.12670  -0.10903
 Alpha virt. eigenvalues --   -0.06717  -0.05271  -0.04607  -0.03824  -0.03448
 Alpha virt. eigenvalues --   -0.02414  -0.01775  -0.01229  -0.00731  -0.00639
 Alpha virt. eigenvalues --   -0.00539  -0.00261   0.00076   0.00472   0.00517

  Beta  occ. eigenvalues --  -38.44811 -38.44687 -38.44269 -38.44229 -38.44216
  Beta  occ. eigenvalues --  -38.44143 -38.43919  -2.20599  -2.20464  -2.20046
  Beta  occ. eigenvalues --   -2.20019  -2.19932  -2.19899  -2.19694  -1.14279
  Beta  occ. eigenvalues --   -1.14273  -1.14220  -1.14158  -1.14142  -1.14117
  Beta  occ. eigenvalues --   -1.13725  -1.13712  -1.13704  -1.13701  -1.13694
  Beta  occ. eigenvalues --   -1.13647  -1.13630  -1.13623  -1.13602  -1.13580
  Beta  occ. eigenvalues --   -1.13560  -1.13514  -1.13373  -1.13366  -1.13355
  Beta  occ. eigenvalues --   -0.15706  -0.13041  -0.12129
  Beta virt. eigenvalues --   -0.07632  -0.06738  -0.04833  -0.04038  -0.03564
  Beta virt. eigenvalues --   -0.03088  -0.01999  -0.01674  -0.01074  -0.00610
  Beta virt. eigenvalues --   -0.00479  -0.00331  -0.00007   0.00307   0.00511

 Mulliken charges and spin densities:
               1          2
     1  Na  -0.277815   0.314648
     2  Na  -0.119289   0.062453
     3  Na   0.432969  -0.096703
     4  Na  -0.339648   0.213809
     5  Na   0.066960  -0.095539
     6  Na  -0.030575   0.446787
     7  Na   0.267398   0.154546
 Sum of Mulliken charges =  -0.00000   1.00000

 Dipole moment (field-independent basis, Debye):
    X=             -0.2432    Y=             -0.3343    Z=             -0.0149  Tot=              0.4137
 Quadrupole moment (field-independent basis, Debye-Ang):
   XX=            -62.6039   YY=            -68.6183   ZZ=            -69.3570
   XY=              3.5594   XZ=             -0.8663   YZ=              0.5445

 Normal termination of Gaussian 16 at Sun Dec  3 11:46:46 2023.
