 Gaussian 16, Revision B.01,
 Gaussian 16:  ES64L-G16RevB.01 20-Dec-2017

 -------------------------
 #P B3LYP/6-311+g(d) force
 -------------------------

 -----
 DPGEN
 -----
 Symbolic Z-matrix:
 Charge =  0 Multiplicity = 2

                         Standard orientation:
 ---------------------------------------------------------------------
 Center     Atomic      Atomic             Coordinates (Angstroms)
 Number     Number       Type             X           Y           Z
 ---------------------------------------------------------------------
      1         11           0       -0.262759    0.074340    1.851025
      2         11           0        0.405104    2.659009   -0.082934
      3         11           0        1.657144   -2.297985    0.210316
      4         11           0       -2.768855    1.139037    0.067535
      5         11           0       -1.970948   -2.000826   -0.108492
      6         11           0        3.176807    0.603990   -0.091871
      7         11           0       -0.236493   -0.177565   -1.845580
 ---------------------------------------------------------------------

 SCF Done:  E(UB3LYP) =  -1136.13726176     A.U. after   18 cycles

 The electronic state is 2-A.
 Alpha  occ. eigenvalues --  -38.44156 -38.43847 -38.43446 -38.43406 -38.43371
 Alpha  occ. eigenvalues --  -38.43281 -38.42953  -2.19980  -2.19752  -2.19427
 Alpha  occ. eigenvalues --   -2.19385  -2.19302  -2.19148  -2.18839  -1.13648
 Alpha  occ. eigenvalues --   -1.13644  -1.13629  -1.13452  -1.13418  -1.13391
 Alpha  occ. eigenvalues --   -1.13176  -1.13088  -1.13058  -1.13038  -1.13035
 Alpha  occ. eigenvalues --   -1.13007  -1.12938  -1.12933  -1.12914  -1.12820
 Alpha  occ. eigenvalues --   -1.12813  -1.12777  -1.12525  -1.12510  -1.12458
 Alpha  occ. eigenvalues --   -0.19201  -0.13351  -0.12373  -0.10990
 Alpha virt. eigenvalues --   -0.05754  -0.05074  -0.04276  -0.03327  -0.02876
 Alpha virt. eigenvalues --   -0.02615  -0.01565  -0.00949  -0.00166  -0.00073
 Alpha virt. eigenvalues --   -0.00007   0.00360   0.00823   0.00932   0.00949

  Beta  occ. eigenvalues --  -38.44158 -38.43839 -38.43362 -38.43360 -38.43322
  Beta  occ. eigenvalues --  -38.43276 -38.42946  -2.19984  -2.19742  -2.19291
  Beta  occ. eigenvalues --   -2.19272  -2.19231  -2.19141  -2.18831  -1.13654
  Beta  occ. eigenvalues --   -1.13634  -1.13631  -1.13445  -1.13389  -1.13375
  Beta  occ. eigenvalues --   -1.13105  -1.12989  -1.12968  -1.12942  -1.12937
  Beta  occ. eigenvalues --   -1.12908  -1.12896  -1.12881  -1.12863  -1.12811
  Beta  occ. eigenvalues --   -1.12783  -1.12776  -1.12522  -1.12475  -1.12456
  Beta  occ. eigenvalues --   -0.18439  -0.13113  -0.12097
  Beta virt. eigenvalues --   -0.07023  -0.05706  -0.05079  -0.04273  -0.02518
  Beta virt. eigenvalues --   -0.02050  -0.01556  -0.01472  -0.00896  -0.00206
  Beta virt. eigenvalues --   -0.00123   0.00116   0.00378   0.00875   0.00924

 Mulliken charges and spin densities:
               1          2
     1  Na  -0.432647   0.707158
     2  Na   0.072191  -0.121881
     3  Na   0.115556  -0.096983
     4  Na   0.402434  -0.041650
     5  Na   0.424822  -0.045661
     6  Na  -0.116858  -0.095410
     7  Na  -0.465498   0.694426
 Sum of Mulliken charges =  -0.00000   1.00000

 Dipole moment (field-independent basis, Debye):
    X=              0.0795    Y=              0.0472    Z=              0.0022  Tot=              0.0925
 Quadrupole moment (field-independent basis, Debye-Ang):
   XX=            -55.0396   YY=            -65.8080   ZZ=            -73.1843
   XY=             -0.0782   XZ=             -0.1222   YZ=             -0.6045

 Normal termination of Gaussian 16 at Thu Dec  7 11:21:14 2023.
