 Gaussian 16, Revision B.01,
 Gaussian 16:  ES64L-G16RevB.01 20-Dec-2017

 -------------------------
 #P B3LYP/6-311+g(d) force
 -------------------------

 -----
 DPGEN
 -----
 Symbolic Z-matrix:
 Charge =  0 Multiplicity = 2

                         Standard orientation:
 ---------------------------------------------------------------------
 Center     Atomic      Atomic             Coordinates (Angstroms)
 Number     Number       Type             X           Y           Z
 ---------------------------------------------------------------------
      1         11           0        0.793574    0.943871    2.088508
      2         11           0        3.617459   -1.319412    0.943558
      3         11           0       -3.898523   -2.281350    0.519487
      4         11           0       -1.811035   -0.203310   -0.073424
      5         11           0        1.598937    1.280000   -0.826138
      6         11           0       -1.636842    3.160384   -0.567297
      7         11           0        1.336428   -1.580183   -2.084694
 ---------------------------------------------------------------------

 SCF Done:  E(UB3LYP) =  -1136.11523720     A.U. after   24 cycles

 The electronic state is 2-A.
 Alpha  occ. eigenvalues --  -38.45096 -38.45062 -38.44583 -38.44564 -38.44092
 Alpha  occ. eigenvalues --  -38.42985 -38.42374  -2.20916  -2.20865  -2.20399
 Alpha  occ. eigenvalues --   -2.20363  -2.20032  -2.18791  -2.18288  -1.14635
 Alpha  occ. eigenvalues --   -1.14579  -1.14545  -1.14521  -1.14494  -1.14475
 Alpha  occ. eigenvalues --   -1.14108  -1.14043  -1.14029  -1.14028  -1.13996
 Alpha  occ. eigenvalues --   -1.13973  -1.13748  -1.13723  -1.13587  -1.12505
 Alpha  occ. eigenvalues --   -1.12434  -1.12429  -1.11988  -1.11959  -1.11898
 Alpha  occ. eigenvalues --   -0.17935  -0.13195  -0.11815  -0.11176
 Alpha virt. eigenvalues --   -0.06607  -0.05584  -0.04260  -0.03424  -0.02903
 Alpha virt. eigenvalues --   -0.02349  -0.02183  -0.01325  -0.00610  -0.00265
 Alpha virt. eigenvalues --   -0.00024   0.00102   0.00218   0.00386   0.00559

  Beta  occ. eigenvalues --  -38.45081 -38.44997 -38.44573 -38.44489 -38.44065
  Beta  occ. eigenvalues --  -38.42976 -38.42369  -2.20839  -2.20795  -2.20346
  Beta  occ. eigenvalues --   -2.20261  -2.19990  -2.18775  -2.18282  -1.14559
  Beta  occ. eigenvalues --   -1.14530  -1.14496  -1.14484  -1.14475  -1.14384
  Beta  occ. eigenvalues --   -1.14032  -1.14011  -1.14005  -1.13964  -1.13933
  Beta  occ. eigenvalues --   -1.13907  -1.13711  -1.13654  -1.13565  -1.12495
  Beta  occ. eigenvalues --   -1.12423  -1.12419  -1.11983  -1.11941  -1.11893
  Beta  occ. eigenvalues --   -0.17207  -0.12950  -0.11266
  Beta virt. eigenvalues --   -0.07711  -0.06354  -0.05345  -0.03769  -0.02914
  Beta virt. eigenvalues --   -0.02526  -0.02195  -0.01606  -0.01253  -0.00326
  Beta virt. eigenvalues --   -0.00211   0.00105   0.00263   0.00352   0.00498

 Mulliken charges and spin densities:
               1          2
     1  Na   0.173795   0.408645
     2  Na  -0.080884   0.012485
     3  Na  -0.351371  -0.185370
     4  Na  -1.799920   0.274131
     5  Na   0.869545   0.419811
     6  Na   1.010501  -0.062725
     7  Na   0.178333   0.133023
 Sum of Mulliken charges =  -0.00000   1.00000

 Dipole moment (field-independent basis, Debye):
    X=              1.7694    Y=              0.6633    Z=              0.1808  Tot=              1.8982
 Quadrupole moment (field-independent basis, Debye-Ang):
   XX=            -62.3493   YY=            -63.6161   ZZ=            -67.9768
   XY=             -7.9621   XZ=              1.8582   YZ=             -1.5139

 Normal termination of Gaussian 16 at Sun Dec  3 18:19:38 2023.
