 Gaussian 16, Revision B.01,
 Gaussian 16:  ES64L-G16RevB.01 20-Dec-2017

 -------------------------
 #P B3LYP/6-311+g(d) force
 -------------------------

 -----
 DPGEN
 -----
 Symbolic Z-matrix:
 Charge =  0 Multiplicity = 2

                         Standard orientation:
 ---------------------------------------------------------------------
 Center     Atomic      Atomic             Coordinates (Angstroms)
 Number     Number       Type             X           Y           Z
 ---------------------------------------------------------------------
      1         11           0       -1.429216   -0.617167    2.213511
      2         11           0        1.727259    2.326962    1.103919
      3         11           0       -2.974306   -0.277069   -1.120043
      4         11           0       -2.336873    3.006546   -0.623339
      5         11           0        2.491459   -1.633569    0.713264
      6         11           0        3.794173    0.355307   -1.622140
      7         11           0       -1.272496   -3.161010   -0.665173
 ---------------------------------------------------------------------

 SCF Done:  E(UB3LYP) =  -1136.11315305     A.U. after   21 cycles

 The electronic state is 2-A.
 Alpha  occ. eigenvalues --  -38.45221 -38.45036 -38.44914 -38.44607 -38.43948
 Alpha  occ. eigenvalues --  -38.43699 -38.43647  -2.20940  -2.20807  -2.20674
 Alpha  occ. eigenvalues --   -2.20397  -2.19726  -2.19534  -2.19406  -1.14621
 Alpha  occ. eigenvalues --   -1.14610  -1.14562  -1.14468  -1.14458  -1.14422
 Alpha  occ. eigenvalues --   -1.14370  -1.14345  -1.14310  -1.14052  -1.14047
 Alpha  occ. eigenvalues --   -1.14014  -1.13413  -1.13384  -1.13365  -1.13214
 Alpha  occ. eigenvalues --   -1.13199  -1.13161  -1.13078  -1.13052  -1.13047
 Alpha  occ. eigenvalues --   -0.16353  -0.13688  -0.11681  -0.10650
 Alpha virt. eigenvalues --   -0.06591  -0.06092  -0.04839  -0.03668  -0.02939
 Alpha virt. eigenvalues --   -0.02525  -0.01593  -0.01291  -0.01164  -0.00914
 Alpha virt. eigenvalues --   -0.00590  -0.00167   0.00075   0.00372   0.00575

  Beta  occ. eigenvalues --  -38.45202 -38.44968 -38.44914 -38.44560 -38.43944
  Beta  occ. eigenvalues --  -38.43665 -38.43639  -2.20907  -2.20683  -2.20677
  Beta  occ. eigenvalues --   -2.20309  -2.19719  -2.19470  -2.19393  -1.14594
  Beta  occ. eigenvalues --   -1.14583  -1.14539  -1.14382  -1.14368  -1.14366
  Beta  occ. eigenvalues --   -1.14339  -1.14333  -1.14303  -1.13991  -1.13985
  Beta  occ. eigenvalues --   -1.13959  -1.13403  -1.13380  -1.13356  -1.13170
  Beta  occ. eigenvalues --   -1.13159  -1.13118  -1.13069  -1.13039  -1.13028
  Beta  occ. eigenvalues --   -0.15775  -0.13280  -0.11524
  Beta virt. eigenvalues --   -0.07247  -0.06341  -0.05729  -0.04435  -0.03536
  Beta virt. eigenvalues --   -0.02448  -0.01801  -0.01527  -0.01072  -0.01024
  Beta virt. eigenvalues --   -0.00901  -0.00230   0.00021   0.00213   0.00529

 Mulliken charges and spin densities:
               1          2
     1  Na   0.314075   0.449383
     2  Na  -0.235981   0.089160
     3  Na  -0.243510   0.246451
     4  Na   0.020180  -0.015447
     5  Na   0.017970   0.116348
     6  Na   0.098429   0.161116
     7  Na   0.028836  -0.047012
 Sum of Mulliken charges =  -0.00000   1.00000

 Dipole moment (field-independent basis, Debye):
    X=              1.1005    Y=             -0.2148    Z=              0.0476  Tot=              1.1223
 Quadrupole moment (field-independent basis, Debye-Ang):
   XX=            -66.7383   YY=            -65.4004   ZZ=            -67.8536
   XY=              2.5925   XZ=             -2.7634   YZ=              0.0004

 Normal termination of Gaussian 16 at Mon Dec  4 03:44:13 2023.
