 Gaussian 16, Revision B.01,
 Gaussian 16:  ES64L-G16RevB.01 20-Dec-2017

 -------------------------
 #P B3LYP/6-311+g(d) force
 -------------------------

 -----
 DPGEN
 -----
 Symbolic Z-matrix:
 Charge =  0 Multiplicity = 2

                         Standard orientation:
 ---------------------------------------------------------------------
 Center     Atomic      Atomic             Coordinates (Angstroms)
 Number     Number       Type             X           Y           Z
 ---------------------------------------------------------------------
      1         11           0        0.009311    1.281417   -0.348877
      2         11           0       -2.637664    3.636473    0.344130
      3         11           0       -3.148052    0.254621   -0.135082
      4         11           0       -0.399931   -2.221073    1.123405
      5         11           0        3.106593   -1.209711    0.295215
      6         11           0       -2.500059   -2.844200   -0.884835
      7         11           0        5.569802    1.102473   -0.393957
 ---------------------------------------------------------------------

 SCF Done:  E(UB3LYP) =  -1136.12150577     A.U. after   21 cycles

 The electronic state is 2-A.
 Alpha  occ. eigenvalues --  -38.45056 -38.44524 -38.44136 -38.44069 -38.43801
 Alpha  occ. eigenvalues --  -38.43763 -38.43353  -2.20857  -2.20311  -2.20023
 Alpha  occ. eigenvalues --   -2.19945  -2.19647  -2.19599  -2.19138  -1.14564
 Alpha  occ. eigenvalues --   -1.14556  -1.14427  -1.13985  -1.13978  -1.13934
 Alpha  occ. eigenvalues --   -1.13733  -1.13711  -1.13687  -1.13620  -1.13600
 Alpha  occ. eigenvalues --   -1.13575  -1.13290  -1.13275  -1.13262  -1.13238
 Alpha  occ. eigenvalues --   -1.13237  -1.13213  -1.12831  -1.12812  -1.12780
 Alpha  occ. eigenvalues --   -0.17226  -0.13494  -0.12909  -0.10554
 Alpha virt. eigenvalues --   -0.06370  -0.05334  -0.05046  -0.03470  -0.02557
 Alpha virt. eigenvalues --   -0.02361  -0.02173  -0.01770  -0.01169  -0.00606
 Alpha virt. eigenvalues --   -0.00242  -0.00211   0.00419   0.00511   0.00582

  Beta  occ. eigenvalues --  -38.45035 -38.44525 -38.44109 -38.44041 -38.43736
  Beta  occ. eigenvalues --  -38.43702 -38.43356  -2.20820  -2.20313  -2.19975
  Beta  occ. eigenvalues --   -2.19896  -2.19598  -2.19413  -2.19150  -1.14542
  Beta  occ. eigenvalues --   -1.14527  -1.14397  -1.13985  -1.13979  -1.13934
  Beta  occ. eigenvalues --   -1.13703  -1.13676  -1.13654  -1.13581  -1.13563
  Beta  occ. eigenvalues --   -1.13524  -1.13251  -1.13237  -1.13229  -1.13111
  Beta  occ. eigenvalues --   -1.13110  -1.13094  -1.12847  -1.12828  -1.12732
  Beta  occ. eigenvalues --   -0.16767  -0.13039  -0.12394
  Beta virt. eigenvalues --   -0.07070  -0.06241  -0.05157  -0.04587  -0.03024
  Beta virt. eigenvalues --   -0.02451  -0.02146  -0.01888  -0.01587  -0.00834
  Beta virt. eigenvalues --   -0.00258  -0.00038   0.00088   0.00490   0.00625

 Mulliken charges and spin densities:
               1          2
     1  Na  -0.980325  -0.108116
     2  Na   0.779375   0.002746
     3  Na  -0.043679   0.375177
     4  Na  -0.245852   0.084993
     5  Na  -0.173318   0.071361
     6  Na   0.331131   0.089636
     7  Na   0.332668   0.484202
 Sum of Mulliken charges =  -0.00000   1.00000

 Dipole moment (field-independent basis, Debye):
    X=             -1.9402    Y=              0.7932    Z=              0.1028  Tot=              2.0986
 Quadrupole moment (field-independent basis, Debye-Ang):
   XX=            -74.1604   YY=            -57.1063   ZZ=            -69.6473
   XY=             -3.7776   XZ=             -1.1404   YZ=              0.8251

 Normal termination of Gaussian 16 at Tue Nov 28 19:13:20 2023.
