 Gaussian 16, Revision B.01,
 Gaussian 16:  ES64L-G16RevB.01 20-Dec-2017

 -------------------------
 #P B3LYP/6-311+g(d) force
 -------------------------

 -----
 DPGEN
 -----
 Symbolic Z-matrix:
 Charge =  0 Multiplicity = 2

                         Standard orientation:
 ---------------------------------------------------------------------
 Center     Atomic      Atomic             Coordinates (Angstroms)
 Number     Number       Type             X           Y           Z
 ---------------------------------------------------------------------
      1         11           0       -0.112064   -2.382424   -0.207471
      2         11           0       -1.319577    2.110985    0.031029
      3         11           0       -2.671708   -0.662589   -0.059671
      4         11           0       -0.358721   -0.126930    1.586629
      5         11           0        0.088871    0.172181   -1.579971
      6         11           0        1.758928    1.912633    0.037129
      7         11           0        2.614271   -1.023856    0.192329
 ---------------------------------------------------------------------

 SCF Done:  E(UB3LYP) =  -1136.10820475     A.U. after   22 cycles

 The electronic state is 2-A.
 Alpha  occ. eigenvalues --  -38.43714 -38.43665 -38.43401 -38.43333 -38.43321
 Alpha  occ. eigenvalues --  -38.43273 -38.43212  -2.19747  -2.19630  -2.19560
 Alpha  occ. eigenvalues --   -2.19515  -2.19421  -2.19396  -2.19285  -1.13631
 Alpha  occ. eigenvalues --   -1.13469  -1.13437  -1.13406  -1.13385  -1.13346
 Alpha  occ. eigenvalues --   -1.13314  -1.13282  -1.13264  -1.13196  -1.13180
 Alpha  occ. eigenvalues --   -1.13113  -1.13077  -1.13030  -1.12983  -1.12982
 Alpha  occ. eigenvalues --   -1.12957  -1.12930  -1.12885  -1.12867  -1.12856
 Alpha  occ. eigenvalues --   -0.20875  -0.13753  -0.13092  -0.11260
 Alpha virt. eigenvalues --   -0.05285  -0.04741  -0.04381  -0.03271  -0.02935
 Alpha virt. eigenvalues --   -0.02188  -0.01294  -0.00771   0.00032   0.00325
 Alpha virt. eigenvalues --    0.00405   0.00458   0.00942   0.01053   0.01067

  Beta  occ. eigenvalues --  -38.43703 -38.43659 -38.43392 -38.43307 -38.43253
  Beta  occ. eigenvalues --  -38.43197 -38.43189  -2.19733  -2.19623  -2.19427
  Beta  occ. eigenvalues --   -2.19413  -2.19378  -2.19352  -2.19262  -1.13599
  Beta  occ. eigenvalues --   -1.13432  -1.13405  -1.13364  -1.13354  -1.13340
  Beta  occ. eigenvalues --   -1.13241  -1.13229  -1.13222  -1.13143  -1.13090
  Beta  occ. eigenvalues --   -1.13073  -1.13027  -1.12980  -1.12936  -1.12927
  Beta  occ. eigenvalues --   -1.12912  -1.12883  -1.12848  -1.12840  -1.12790
  Beta  occ. eigenvalues --   -0.20106  -0.13427  -0.12750
  Beta virt. eigenvalues --   -0.07153  -0.05286  -0.04722  -0.04389  -0.02383
  Beta virt. eigenvalues --   -0.02047  -0.01230  -0.01120  -0.00723   0.00156
  Beta virt. eigenvalues --    0.00330   0.00369   0.00426   0.00966   0.01050

 Mulliken charges and spin densities:
               1          2
     1  Na   0.507150   0.023770
     2  Na   0.540756  -0.014138
     3  Na   0.506197  -0.014320
     4  Na  -0.996221   0.566976
     5  Na  -0.936703   0.482300
     6  Na   0.341062  -0.009705
     7  Na   0.037759  -0.034883
 Sum of Mulliken charges =  -0.00000   1.00000

 Dipole moment (field-independent basis, Debye):
    X=              0.1363    Y=             -0.0511    Z=              0.0534  Tot=              0.1550
 Quadrupole moment (field-independent basis, Debye-Ang):
   XX=            -56.7574   YY=            -64.8309   ZZ=            -73.0718
   XY=              0.0166   XZ=              1.0670   YZ=              0.5222

 Normal termination of Gaussian 16 at Thu Dec  7 12:33:49 2023.
