 Gaussian 16, Revision B.01,
 Gaussian 16:  ES64L-G16RevB.01 20-Dec-2017

 -------------------------
 #P B3LYP/6-311+g(d) force
 -------------------------

 -----
 DPGEN
 -----
 Symbolic Z-matrix:
 Charge =  0 Multiplicity = 2

                         Standard orientation:
 ---------------------------------------------------------------------
 Center     Atomic      Atomic             Coordinates (Angstroms)
 Number     Number       Type             X           Y           Z
 ---------------------------------------------------------------------
      1         11           0       -0.594358   -1.001103   -1.604428
      2         11           0       -0.217426    2.596722   -0.533559
      3         11           0        5.155704   -0.633231   -0.014152
      4         11           0        2.265280    0.288001    0.252675
      5         11           0       -3.168329    1.258539   -0.050503
      6         11           0       -0.809564   -0.017762    1.867397
      7         11           0       -2.631307   -2.491165    0.082570
 ---------------------------------------------------------------------

 SCF Done:  E(UB3LYP) =  -1136.11445314     A.U. after   30 cycles

 The electronic state is 2-A.
 Alpha  occ. eigenvalues --  -38.45491 -38.44856 -38.44666 -38.43642 -38.43234
 Alpha  occ. eigenvalues --  -38.43207 -38.43089  -2.21377  -2.20712  -2.20481
 Alpha  occ. eigenvalues --   -2.19571  -2.19100  -2.19077  -2.18977  -1.15056
 Alpha  occ. eigenvalues --   -1.15044  -1.14987  -1.14395  -1.14389  -1.14327
 Alpha  occ. eigenvalues --   -1.14149  -1.14108  -1.14107  -1.13249  -1.13225
 Alpha  occ. eigenvalues --   -1.13197  -1.12768  -1.12752  -1.12751  -1.12743
 Alpha  occ. eigenvalues --   -1.12729  -1.12726  -1.12686  -1.12636  -1.12615
 Alpha  occ. eigenvalues --   -0.18553  -0.13789  -0.11858  -0.10718
 Alpha virt. eigenvalues --   -0.07898  -0.04797  -0.03759  -0.03320  -0.03150
 Alpha virt. eigenvalues --   -0.02568  -0.02184  -0.01398  -0.00816  -0.00713
 Alpha virt. eigenvalues --   -0.00560   0.00167   0.00258   0.00616   0.00760

  Beta  occ. eigenvalues --  -38.45450 -38.44852 -38.44597 -38.43562 -38.43228
  Beta  occ. eigenvalues --  -38.43205 -38.43086  -2.21305  -2.20706  -2.20354
  Beta  occ. eigenvalues --   -2.19423  -2.19092  -2.19075  -2.18981  -1.15000
  Beta  occ. eigenvalues --   -1.14984  -1.14938  -1.14389  -1.14364  -1.14332
  Beta  occ. eigenvalues --   -1.14066  -1.14021  -1.14020  -1.13157  -1.13130
  Beta  occ. eigenvalues --   -1.13085  -1.12767  -1.12755  -1.12746  -1.12735
  Beta  occ. eigenvalues --   -1.12707  -1.12701  -1.12688  -1.12637  -1.12575
  Beta  occ. eigenvalues --   -0.17984  -0.13108  -0.11766
  Beta virt. eigenvalues --   -0.07758  -0.06971  -0.04692  -0.03527  -0.03158
  Beta virt. eigenvalues --   -0.02659  -0.02051  -0.01708  -0.01170  -0.00556
  Beta virt. eigenvalues --   -0.00506  -0.00299   0.00256   0.00444   0.00678

 Mulliken charges and spin densities:
               1          2
     1  Na   0.072379   0.109032
     2  Na   0.577476  -0.047173
     3  Na  -0.652072   0.154574
     4  Na  -0.535507   0.261802
     5  Na  -0.188283   0.235860
     6  Na   0.786279   0.104609
     7  Na  -0.060273   0.181296
 Sum of Mulliken charges =  -0.00000   1.00000

 Dipole moment (field-independent basis, Debye):
    X=             -0.6108    Y=              0.1761    Z=             -0.1556  Tot=              0.6545
 Quadrupole moment (field-independent basis, Debye-Ang):
   XX=            -57.8948   YY=            -70.8226   ZZ=            -68.8884
   XY=             -1.2240   XZ=              1.0764   YZ=             -3.2707

 Normal termination of Gaussian 16 at Fri Dec  8 19:39:52 2023.
