 Gaussian 16, Revision B.01,
 Gaussian 16:  ES64L-G16RevB.01 20-Dec-2017

 -------------------------
 #P B3LYP/6-311+g(d) force
 -------------------------

 -----
 DPGEN
 -----
 Symbolic Z-matrix:
 Charge =  0 Multiplicity = 2

                         Standard orientation:
 ---------------------------------------------------------------------
 Center     Atomic      Atomic             Coordinates (Angstroms)
 Number     Number       Type             X           Y           Z
 ---------------------------------------------------------------------
      1         11           0        3.089952   -1.047641   -0.364763
      2         11           0        0.215210    0.237339    2.069579
      3         11           0       -3.156190   -0.779977    0.249919
      4         11           0        2.259196    1.992350    0.084300
      5         11           0       -0.290161   -0.131351   -1.569280
      6         11           0       -1.834432    2.509362   -0.445876
      7         11           0       -0.283575   -2.780083   -0.023878
 ---------------------------------------------------------------------

 SCF Done:  E(UB3LYP) =  -1136.13449824     A.U. after   19 cycles

 The electronic state is 2-A.
 Alpha  occ. eigenvalues --  -38.44538 -38.44214 -38.43760 -38.43681 -38.43437
 Alpha  occ. eigenvalues --  -38.43230 -38.42995  -2.20357  -2.20042  -2.19613
 Alpha  occ. eigenvalues --   -2.19557  -2.19259  -2.19215  -2.18866  -1.14033
 Alpha  occ. eigenvalues --   -1.14017  -1.13993  -1.13730  -1.13702  -1.13678
 Alpha  occ. eigenvalues --   -1.13312  -1.13276  -1.13245  -1.13217  -1.13177
 Alpha  occ. eigenvalues --   -1.13167  -1.12986  -1.12934  -1.12912  -1.12891
 Alpha  occ. eigenvalues --   -1.12857  -1.12816  -1.12554  -1.12522  -1.12478
 Alpha  occ. eigenvalues --   -0.18518  -0.13362  -0.12078  -0.10667
 Alpha virt. eigenvalues --   -0.06041  -0.05316  -0.04341  -0.03358  -0.02720
 Alpha virt. eigenvalues --   -0.02467  -0.01854  -0.01144  -0.00455  -0.00305
 Alpha virt. eigenvalues --   -0.00029   0.00332   0.00738   0.00849   0.00878

  Beta  occ. eigenvalues --  -38.44535 -38.44207 -38.43755 -38.43584 -38.43427
  Beta  occ. eigenvalues --  -38.43174 -38.42990  -2.20354  -2.20030  -2.19608
  Beta  occ. eigenvalues --   -2.19380  -2.19244  -2.19113  -2.18861  -1.14021
  Beta  occ. eigenvalues --   -1.14009  -1.13990  -1.13725  -1.13678  -1.13671
  Beta  occ. eigenvalues --   -1.13292  -1.13255  -1.13242  -1.13104  -1.13055
  Beta  occ. eigenvalues --   -1.13044  -1.12955  -1.12896  -1.12879  -1.12862
  Beta  occ. eigenvalues --   -1.12795  -1.12744  -1.12542  -1.12500  -1.12472
  Beta  occ. eigenvalues --   -0.17810  -0.13147  -0.11817
  Beta virt. eigenvalues --   -0.06795  -0.05959  -0.05285  -0.04312  -0.02599
  Beta virt. eigenvalues --   -0.01972  -0.01748  -0.01448  -0.01056  -0.00491
  Beta virt. eigenvalues --   -0.00340   0.00121   0.00367   0.00813   0.00848

 Mulliken charges and spin densities:
               1          2
     1  Na   0.055596  -0.014827
     2  Na  -0.438055   0.682683
     3  Na   0.169703   0.011742
     4  Na   0.274216  -0.007545
     5  Na  -0.238594   0.404009
     6  Na   0.065300  -0.053186
     7  Na   0.111836  -0.022875
 Sum of Mulliken charges =  -0.00000   1.00000

 Dipole moment (field-independent basis, Debye):
    X=             -0.1213    Y=             -0.0288    Z=              0.1980  Tot=              0.2340
 Quadrupole moment (field-independent basis, Debye-Ang):
   XX=            -53.0296   YY=            -65.1935   ZZ=            -74.8595
   XY=              0.0466   XZ=             -1.7210   YZ=             -0.8087

 Normal termination of Gaussian 16 at Thu Dec  7 15:59:14 2023.
