 Gaussian 16, Revision B.01,
 Gaussian 16:  ES64L-G16RevB.01 20-Dec-2017

 -------------------------
 #P B3LYP/6-311+g(d) force
 -------------------------

 -----
 DPGEN
 -----
 Symbolic Z-matrix:
 Charge =  0 Multiplicity = 2

                         Standard orientation:
 ---------------------------------------------------------------------
 Center     Atomic      Atomic             Coordinates (Angstroms)
 Number     Number       Type             X           Y           Z
 ---------------------------------------------------------------------
      1         11           0       -1.407823   -2.095472   -0.119917
      2         11           0        0.766209    0.003550    1.514644
      3         11           0        1.078996    3.158549   -0.217158
      4         11           0       -1.941645    1.707283   -0.871564
      5         11           0       -4.392899   -0.351859    0.335945
      6         11           0        3.716138    0.450112    0.057693
      7         11           0        2.181024   -2.872164   -0.699642
 ---------------------------------------------------------------------

 SCF Done:  E(UB3LYP) =  -1136.12493464     A.U. after   23 cycles

 The electronic state is 2-A.
 Alpha  occ. eigenvalues --  -38.45177 -38.44697 -38.44288 -38.43658 -38.43584
 Alpha  occ. eigenvalues --  -38.43394 -38.43311  -2.21022  -2.20457  -2.20107
 Alpha  occ. eigenvalues --   -2.19494  -2.19397  -2.19239  -2.19152  -1.14713
 Alpha  occ. eigenvalues --   -1.14707  -1.14628  -1.14149  -1.14110  -1.14095
 Alpha  occ. eigenvalues --   -1.13807  -1.13777  -1.13733  -1.13200  -1.13183
 Alpha  occ. eigenvalues --   -1.13089  -1.13075  -1.13053  -1.13038  -1.12909
 Alpha  occ. eigenvalues --   -1.12881  -1.12844  -1.12803  -1.12795  -1.12763
 Alpha  occ. eigenvalues --   -0.17301  -0.13866  -0.12625  -0.09864
 Alpha virt. eigenvalues --   -0.06979  -0.05502  -0.04698  -0.03133  -0.02962
 Alpha virt. eigenvalues --   -0.02549  -0.01876  -0.01091  -0.00983  -0.00865
 Alpha virt. eigenvalues --   -0.00184  -0.00098   0.00439   0.00532   0.00735

  Beta  occ. eigenvalues --  -38.45163 -38.44701 -38.44277 -38.43637 -38.43577
  Beta  occ. eigenvalues --  -38.43316 -38.43237  -2.20998  -2.20469  -2.20090
  Beta  occ. eigenvalues --   -2.19461  -2.19387  -2.19094  -2.19013  -1.14695
  Beta  occ. eigenvalues --   -1.14673  -1.14614  -1.14161  -1.14113  -1.14084
  Beta  occ. eigenvalues --   -1.13798  -1.13766  -1.13693  -1.13179  -1.13158
  Beta  occ. eigenvalues --   -1.13070  -1.13047  -1.13041  -1.13019  -1.12811
  Beta  occ. eigenvalues --   -1.12784  -1.12746  -1.12707  -1.12699  -1.12677
  Beta  occ. eigenvalues --   -0.16839  -0.13151  -0.12267
  Beta virt. eigenvalues --   -0.06879  -0.06484  -0.05396  -0.04373  -0.02791
  Beta virt. eigenvalues --   -0.02484  -0.02318  -0.01346  -0.00974  -0.00837
  Beta virt. eigenvalues --   -0.00785   0.00138   0.00201   0.00601   0.00663

 Mulliken charges and spin densities:
               1          2
     1  Na  -0.430674   0.048076
     2  Na   0.497338  -0.009440
     3  Na  -0.042337  -0.026379
     4  Na  -0.264410   0.055641
     5  Na   0.372217   0.451820
     6  Na  -0.079183   0.543945
     7  Na  -0.052951  -0.063662
 Sum of Mulliken charges =  -0.00000   1.00000

 Dipole moment (field-independent basis, Debye):
    X=              0.3984    Y=             -0.2426    Z=             -0.1923  Tot=              0.5046
 Quadrupole moment (field-independent basis, Debye-Ang):
   XX=            -75.7068   YY=            -63.7357   ZZ=            -65.1229
   XY=             -1.9529   XZ=             -2.5369   YZ=              0.6233

 Normal termination of Gaussian 16 at Tue Nov 28 20:13:29 2023.
