 Gaussian 16, Revision B.01,
 Gaussian 16:  ES64L-G16RevB.01 20-Dec-2017

 -------------------------
 #P B3LYP/6-311+g(d) force
 -------------------------

 -----
 DPGEN
 -----
 Symbolic Z-matrix:
 Charge =  0 Multiplicity = 2

                         Standard orientation:
 ---------------------------------------------------------------------
 Center     Atomic      Atomic             Coordinates (Angstroms)
 Number     Number       Type             X           Y           Z
 ---------------------------------------------------------------------
      1         11           0        3.541744    1.158702   -1.001993
      2         11           0        0.437673    3.194831   -0.401434
      3         11           0       -1.132325   -0.044283    1.931964
      4         11           0        1.236365   -2.678103   -1.362432
      5         11           0        2.125925   -1.037226    1.980406
      6         11           0       -2.581188   -2.092573   -0.738660
      7         11           0       -3.628194    1.498653   -0.407850
 ---------------------------------------------------------------------

 SCF Done:  E(UB3LYP) =  -1136.11433399     A.U. after   22 cycles

 The electronic state is 2-A.
 Alpha  occ. eigenvalues --  -38.44832 -38.44564 -38.44489 -38.44428 -38.44419
 Alpha  occ. eigenvalues --  -38.44414 -38.44332  -2.20581  -2.20310  -2.20255
 Alpha  occ. eigenvalues --   -2.20250  -2.20214  -2.20163  -2.20046  -1.14264
 Alpha  occ. eigenvalues --   -1.14230  -1.14219  -1.13987  -1.13953  -1.13945
 Alpha  occ. eigenvalues --   -1.13943  -1.13942  -1.13926  -1.13902  -1.13894
 Alpha  occ. eigenvalues --   -1.13870  -1.13856  -1.13846  -1.13840  -1.13832
 Alpha  occ. eigenvalues --   -1.13808  -1.13792  -1.13739  -1.13722  -1.13673
 Alpha  occ. eigenvalues --   -0.16506  -0.13116  -0.11822  -0.11150
 Alpha virt. eigenvalues --   -0.06450  -0.06239  -0.04866  -0.03478  -0.02911
 Alpha virt. eigenvalues --   -0.02638  -0.01805  -0.01668  -0.01142  -0.00576
 Alpha virt. eigenvalues --   -0.00534   0.00145   0.00277   0.00391   0.00498

  Beta  occ. eigenvalues --  -38.44827 -38.44535 -38.44470 -38.44387 -38.44359
  Beta  occ. eigenvalues --  -38.44358 -38.44342  -2.20571  -2.20255  -2.20220
  Beta  occ. eigenvalues --   -2.20127  -2.20115  -2.20102  -2.20065  -1.14254
  Beta  occ. eigenvalues --   -1.14223  -1.14214  -1.13947  -1.13919  -1.13915
  Beta  occ. eigenvalues --   -1.13906  -1.13902  -1.13859  -1.13843  -1.13826
  Beta  occ. eigenvalues --   -1.13811  -1.13798  -1.13793  -1.13774  -1.13762
  Beta  occ. eigenvalues --   -1.13750  -1.13747  -1.13735  -1.13729  -1.13683
  Beta  occ. eigenvalues --   -0.15868  -0.12913  -0.11554
  Beta virt. eigenvalues --   -0.07416  -0.06312  -0.06059  -0.04316  -0.03288
  Beta virt. eigenvalues --   -0.02493  -0.01890  -0.01744  -0.01451  -0.01027
  Beta virt. eigenvalues --   -0.00533  -0.00184   0.00270   0.00338   0.00462

 Mulliken charges and spin densities:
               1          2
     1  Na  -0.043889   0.186463
     2  Na  -0.231742  -0.054160
     3  Na   0.352624   0.328451
     4  Na   0.033749   0.233919
     5  Na  -0.105379   0.142678
     6  Na  -0.402708   0.148455
     7  Na   0.397346   0.014195
 Sum of Mulliken charges =  -0.00000   1.00000

 Dipole moment (field-independent basis, Debye):
    X=             -0.4822    Y=             -0.0350    Z=             -0.2785  Tot=              0.5579
 Quadrupole moment (field-independent basis, Debye-Ang):
   XX=            -55.5404   YY=            -71.2868   ZZ=            -71.0714
   XY=             -3.8050   XZ=              1.4876   YZ=              0.2127

 Normal termination of Gaussian 16 at Mon Dec  4 00:12:26 2023.
