 Gaussian 16, Revision B.01,
 Gaussian 16:  ES64L-G16RevB.01 20-Dec-2017

 -------------------------
 #P B3LYP/6-311+g(d) force
 -------------------------

 -----
 DPGEN
 -----
 Symbolic Z-matrix:
 Charge =  0 Multiplicity = 2

                         Standard orientation:
 ---------------------------------------------------------------------
 Center     Atomic      Atomic             Coordinates (Angstroms)
 Number     Number       Type             X           Y           Z
 ---------------------------------------------------------------------
      1         11           0       -3.255414   -2.192010    1.219774
      2         11           0        5.931010    0.105241   -0.196513
      3         11           0       -0.055623   -2.786807   -0.005647
      4         11           0        2.387881   -1.651659   -0.989524
      5         11           0       -5.830621    3.388995   -0.154203
      6         11           0       -5.476665    0.336931   -0.492981
      7         11           0        6.299433    2.799310    0.619095
 ---------------------------------------------------------------------

 SCF Done:  E(UB3LYP) =  -1136.10256777     A.U. after   18 cycles

 The electronic state is 2-A.
 Alpha  occ. eigenvalues --  -38.44967 -38.44760 -38.44703 -38.44491 -38.44280
 Alpha  occ. eigenvalues --  -38.44086 -38.43907  -2.20766  -2.20590  -2.20510
 Alpha  occ. eigenvalues --   -2.20339  -2.20107  -2.19877  -2.19746  -1.14410
 Alpha  occ. eigenvalues --   -1.14403  -1.14382  -1.14370  -1.14218  -1.14216
 Alpha  occ. eigenvalues --   -1.14174  -1.14146  -1.14145  -1.14086  -1.13963
 Alpha  occ. eigenvalues --   -1.13957  -1.13751  -1.13748  -1.13739  -1.13549
 Alpha  occ. eigenvalues --   -1.13546  -1.13531  -1.13417  -1.13395  -1.13389
 Alpha  occ. eigenvalues --   -0.15280  -0.14304  -0.13225  -0.11589
 Alpha virt. eigenvalues --   -0.06735  -0.05345  -0.03844  -0.03314  -0.03286
 Alpha virt. eigenvalues --   -0.02795  -0.02424  -0.02019  -0.01627  -0.01170
 Alpha virt. eigenvalues --   -0.00966  -0.00398  -0.00272   0.00436   0.00583

  Beta  occ. eigenvalues --  -38.44868 -38.44735 -38.44645 -38.44425 -38.44284
  Beta  occ. eigenvalues --  -38.44096 -38.43913  -2.20582  -2.20544  -2.20401
  Beta  occ. eigenvalues --   -2.20216  -2.20117  -2.19901  -2.19766  -1.14343
  Beta  occ. eigenvalues --   -1.14284  -1.14279  -1.14263  -1.14186  -1.14184
  Beta  occ. eigenvalues --   -1.14104  -1.14073  -1.14071  -1.14012  -1.13878
  Beta  occ. eigenvalues --   -1.13873  -1.13758  -1.13754  -1.13728  -1.13569
  Beta  occ. eigenvalues --   -1.13566  -1.13510  -1.13419  -1.13416  -1.13360
  Beta  occ. eigenvalues --   -0.14568  -0.13743  -0.12707
  Beta virt. eigenvalues --   -0.08433  -0.06301  -0.04906  -0.03631  -0.03136
  Beta virt. eigenvalues --   -0.02975  -0.02573  -0.02185  -0.01793  -0.01480
  Beta virt. eigenvalues --   -0.00773  -0.00619  -0.00162  -0.00052   0.00517

 Mulliken charges and spin densities:
               1          2
     1  Na   0.086545   0.386727
     2  Na  -0.116047  -0.010007
     3  Na  -0.249305   0.054156
     4  Na   0.172312   0.255461
     5  Na   0.369404   0.251289
     6  Na  -0.513337  -0.026534
     7  Na   0.250428   0.088909
 Sum of Mulliken charges =  -0.00000   1.00000

 Dipole moment (field-independent basis, Debye):
    X=              0.2168    Y=              1.3522    Z=              0.3455  Tot=              1.4123
 Quadrupole moment (field-independent basis, Debye-Ang):
   XX=            -64.9564   YY=            -56.8560   ZZ=            -72.0026
   XY=              1.7153   XZ=             -0.8163   YZ=              2.0071

 Normal termination of Gaussian 16 at Mon Dec  4 01:50:08 2023.
