 Gaussian 16, Revision B.01,
 Gaussian 16:  ES64L-G16RevB.01 20-Dec-2017

 -------------------------
 #P B3LYP/6-311+g(d) force
 -------------------------

 -----
 DPGEN
 -----
 Symbolic Z-matrix:
 Charge =  0 Multiplicity = 2

                         Standard orientation:
 ---------------------------------------------------------------------
 Center     Atomic      Atomic             Coordinates (Angstroms)
 Number     Number       Type             X           Y           Z
 ---------------------------------------------------------------------
      1         11           0        0.170786    0.300361    1.889157
      2         11           0       -1.393648   -2.391512    0.203946
      3         11           0        2.259420   -1.969534   -0.165031
      4         11           0       -0.554370    2.835445   -0.146428
      5         11           0       -3.371369    0.209599   -0.018676
      6         11           0        3.125086    1.066322   -0.067115
      7         11           0       -0.235906   -0.050681   -1.695852
 ---------------------------------------------------------------------

 SCF Done:  E(UB3LYP) =  -1136.13496688     A.U. after   19 cycles

 The electronic state is 2-A.
 Alpha  occ. eigenvalues --  -38.44834 -38.44556 -38.43517 -38.43293 -38.43250
 Alpha  occ. eigenvalues --  -38.43086 -38.43061  -2.20647  -2.20376  -2.19380
 Alpha  occ. eigenvalues --   -2.19215  -2.19209  -2.18949  -2.18930  -1.14317
 Alpha  occ. eigenvalues --   -1.14315  -1.14280  -1.14062  -1.14042  -1.14007
 Alpha  occ. eigenvalues --   -1.13060  -1.13039  -1.13027  -1.12928  -1.12886
 Alpha  occ. eigenvalues --   -1.12870  -1.12848  -1.12827  -1.12823  -1.12628
 Alpha  occ. eigenvalues --   -1.12609  -1.12605  -1.12599  -1.12579  -1.12546
 Alpha  occ. eigenvalues --   -0.18684  -0.13426  -0.12093  -0.10526
 Alpha virt. eigenvalues --   -0.06397  -0.05029  -0.04317  -0.03293  -0.02675
 Alpha virt. eigenvalues --   -0.02336  -0.02087  -0.01062  -0.00445  -0.00236
 Alpha virt. eigenvalues --   -0.00027   0.00334   0.00766   0.00840   0.00855

  Beta  occ. eigenvalues --  -38.44833 -38.44554 -38.43512 -38.43207 -38.43180
  Beta  occ. eigenvalues --  -38.43079 -38.43052  -2.20647  -2.20375  -2.19374
  Beta  occ. eigenvalues --   -2.19087  -2.19051  -2.18937  -2.18923  -1.14319
  Beta  occ. eigenvalues --   -1.14295  -1.14283  -1.14065  -1.14019  -1.14009
  Beta  occ. eigenvalues --   -1.13054  -1.13027  -1.13009  -1.12841  -1.12797
  Beta  occ. eigenvalues --   -1.12773  -1.12737  -1.12733  -1.12711  -1.12616
  Beta  occ. eigenvalues --   -1.12596  -1.12575  -1.12569  -1.12562  -1.12543
  Beta  occ. eigenvalues --   -0.17955  -0.13216  -0.11836
  Beta virt. eigenvalues --   -0.06632  -0.06345  -0.05044  -0.04293  -0.02523
  Beta virt. eigenvalues --   -0.01996  -0.01885  -0.01292  -0.01013  -0.00489
  Beta virt. eigenvalues --   -0.00276   0.00121   0.00358   0.00817   0.00838

 Mulliken charges and spin densities:
               1          2
     1  Na  -0.387900   0.743620
     2  Na   0.144404  -0.010293
     3  Na   0.143380  -0.012268
     4  Na   0.013002  -0.202394
     5  Na   0.183883  -0.075728
     6  Na   0.172973  -0.087001
     7  Na  -0.269742   0.644064
 Sum of Mulliken charges =  -0.00000   1.00000

 Dipole moment (field-independent basis, Debye):
    X=             -0.1271    Y=              0.2501    Z=              0.0482  Tot=              0.2847
 Quadrupole moment (field-independent basis, Debye-Ang):
   XX=            -50.5384   YY=            -66.0763   ZZ=            -75.5878
   XY=              0.2097   XZ=             -0.7660   YZ=             -0.7176

 Normal termination of Gaussian 16 at Tue Dec  5 15:24:18 2023.
