 Gaussian 16, Revision B.01,
 Gaussian 16:  ES64L-G16RevB.01 20-Dec-2017

 -------------------------
 #P B3LYP/6-311+g(d) force
 -------------------------

 -----
 DPGEN
 -----
 Symbolic Z-matrix:
 Charge =  0 Multiplicity = 2

                         Standard orientation:
 ---------------------------------------------------------------------
 Center     Atomic      Atomic             Coordinates (Angstroms)
 Number     Number       Type             X           Y           Z
 ---------------------------------------------------------------------
      1         11           0       -1.462974    1.260626   -1.127413
      2         11           0        1.465141   -1.153270   -1.402066
      3         11           0        3.972099   -0.549645    0.745018
      4         11           0        1.619975    2.096842   -0.499620
      5         11           0        0.128043    0.111460    2.046521
      6         11           0       -1.650132   -2.017062   -0.429281
      7         11           0       -4.072151    0.251050    0.666841
 ---------------------------------------------------------------------

 SCF Done:  E(UB3LYP) =  -1136.11727360     A.U. after   27 cycles

 The electronic state is 2-A.
 Alpha  occ. eigenvalues --  -38.46233 -38.45508 -38.44962 -38.43409 -38.43152
 Alpha  occ. eigenvalues --  -38.42784 -38.42387  -2.22016  -2.21310  -2.20755
 Alpha  occ. eigenvalues --   -2.19313  -2.19026  -2.18711  -2.18275  -1.15707
 Alpha  occ. eigenvalues --   -1.15659  -1.15631  -1.14982  -1.14956  -1.14933
 Alpha  occ. eigenvalues --   -1.14426  -1.14404  -1.14383  -1.13003  -1.12962
 Alpha  occ. eigenvalues --   -1.12945  -1.12727  -1.12697  -1.12643  -1.12407
 Alpha  occ. eigenvalues --   -1.12371  -1.12348  -1.11960  -1.11941  -1.11900
 Alpha  occ. eigenvalues --   -0.18451  -0.14210  -0.11233  -0.10643
 Alpha virt. eigenvalues --   -0.07800  -0.04828  -0.04605  -0.03311  -0.03055
 Alpha virt. eigenvalues --   -0.02295  -0.02197  -0.01495  -0.00917  -0.00195
 Alpha virt. eigenvalues --   -0.00152   0.00175   0.00235   0.00715   0.00740

  Beta  occ. eigenvalues --  -38.46190 -38.45481 -38.44933 -38.43359 -38.43132
  Beta  occ. eigenvalues --  -38.42763 -38.42381  -2.21936  -2.21259  -2.20700
  Beta  occ. eigenvalues --   -2.19226  -2.18993  -2.18678  -2.18269  -1.15648
  Beta  occ. eigenvalues --   -1.15607  -1.15569  -1.14949  -1.14918  -1.14899
  Beta  occ. eigenvalues --   -1.14388  -1.14368  -1.14343  -1.12943  -1.12901
  Beta  occ. eigenvalues --   -1.12864  -1.12702  -1.12672  -1.12599  -1.12381
  Beta  occ. eigenvalues --   -1.12329  -1.12320  -1.11950  -1.11931  -1.11887
  Beta  occ. eigenvalues --   -0.17741  -0.13932  -0.10411
  Beta virt. eigenvalues --   -0.07620  -0.07367  -0.04651  -0.04204  -0.02912
  Beta virt. eigenvalues --   -0.02794  -0.01731  -0.01677  -0.01059  -0.00834
  Beta virt. eigenvalues --   -0.00136  -0.00079   0.00243   0.00355   0.00776

 Mulliken charges and spin densities:
               1          2
     1  Na  -0.393511   0.082609
     2  Na  -0.275742   0.067298
     3  Na   0.328758   0.222000
     4  Na   0.128289   0.046671
     5  Na  -0.425196   0.280454
     6  Na   0.056531   0.092206
     7  Na   0.580872   0.208761
 Sum of Mulliken charges =  -0.00000   1.00000

 Dipole moment (field-independent basis, Debye):
    X=             -0.4997    Y=              0.2309    Z=              1.0729  Tot=              1.2059
 Quadrupole moment (field-independent basis, Debye-Ang):
   XX=            -45.4557   YY=            -81.4311   ZZ=            -67.1622
   XY=              0.0246   XZ=             -1.0841   YZ=              0.5469

 Normal termination of Gaussian 16 at Fri Dec  8 00:41:52 2023.
