 Gaussian 16, Revision B.01,
 Gaussian 16:  ES64L-G16RevB.01 20-Dec-2017

 -------------------------
 #P B3LYP/6-311+g(d) force
 -------------------------

 -----
 DPGEN
 -----
 Symbolic Z-matrix:
 Charge =  0 Multiplicity = 2

                         Standard orientation:
 ---------------------------------------------------------------------
 Center     Atomic      Atomic             Coordinates (Angstroms)
 Number     Number       Type             X           Y           Z
 ---------------------------------------------------------------------
      1         11           0       -3.570558    0.708042    0.115812
      2         11           0       -0.271941   -0.322484    1.715947
      3         11           0       -4.851530   -1.608249   -1.116468
      4         11           0       -0.220762    2.872080   -0.158131
      5         11           0        2.912165    2.083900   -0.323141
      6         11           0        2.030160   -2.076756    1.390444
      7         11           0        3.972465   -1.656535   -1.624463
 ---------------------------------------------------------------------

 SCF Done:  E(UB3LYP) =  -1136.10903415     A.U. after   22 cycles

 The electronic state is 2-A.
 Alpha  occ. eigenvalues --  -38.45005 -38.44900 -38.44789 -38.44568 -38.43976
 Alpha  occ. eigenvalues --  -38.43852 -38.43281  -2.20787  -2.20771  -2.20552
 Alpha  occ. eigenvalues --   -2.20388  -2.19815  -2.19700  -2.19092  -1.14498
 Alpha  occ. eigenvalues --   -1.14468  -1.14442  -1.14406  -1.14405  -1.14366
 Alpha  occ. eigenvalues --   -1.14215  -1.14199  -1.14173  -1.14119  -1.14021
 Alpha  occ. eigenvalues --   -1.14017  -1.13480  -1.13473  -1.13445  -1.13410
 Alpha  occ. eigenvalues --   -1.13345  -1.13298  -1.12766  -1.12755  -1.12739
 Alpha  occ. eigenvalues --   -0.16617  -0.13910  -0.12110  -0.11646
 Alpha virt. eigenvalues --   -0.06992  -0.05021  -0.04178  -0.03670  -0.03437
 Alpha virt. eigenvalues --   -0.02494  -0.02143  -0.01577  -0.00998  -0.00556
 Alpha virt. eigenvalues --   -0.00465  -0.00029   0.00224   0.00314   0.00550

  Beta  occ. eigenvalues --  -38.44968 -38.44809 -38.44740 -38.44540 -38.43977
  Beta  occ. eigenvalues --  -38.43819 -38.43282  -2.20720  -2.20608  -2.20460
  Beta  occ. eigenvalues --   -2.20335  -2.19819  -2.19647  -2.19096  -1.14421
  Beta  occ. eigenvalues --   -1.14398  -1.14378  -1.14354  -1.14298  -1.14249
  Beta  occ. eigenvalues --   -1.14152  -1.14130  -1.14117  -1.14084  -1.13985
  Beta  occ. eigenvalues --   -1.13980  -1.13480  -1.13479  -1.13434  -1.13354
  Beta  occ. eigenvalues --   -1.13315  -1.13244  -1.12768  -1.12760  -1.12735
  Beta  occ. eigenvalues --   -0.15933  -0.13467  -0.11692
  Beta virt. eigenvalues --   -0.08251  -0.06489  -0.04626  -0.04010  -0.03377
  Beta virt. eigenvalues --   -0.03046  -0.02051  -0.01896  -0.01335  -0.00909
  Beta virt. eigenvalues --   -0.00470  -0.00146   0.00132   0.00358   0.00456

 Mulliken charges and spin densities:
               1          2
     1  Na  -0.305622   0.093117
     2  Na  -0.628555   0.325424
     3  Na   0.450024   0.076667
     4  Na   0.396642  -0.048140
     5  Na  -0.214046   0.283731
     6  Na   0.253008   0.030564
     7  Na   0.048549   0.238638
 Sum of Mulliken charges =  -0.00000   1.00000

 Dipole moment (field-independent basis, Debye):
    X=              0.1814    Y=             -0.3792    Z=             -0.6562  Tot=              0.7793
 Quadrupole moment (field-independent basis, Debye-Ang):
   XX=            -62.3967   YY=            -67.6663   ZZ=            -68.1584
   XY=              2.5513   XZ=             -0.8217   YZ=              3.6869

 Normal termination of Gaussian 16 at Sun Dec  3 12:04:15 2023.
