 Gaussian 16, Revision B.01,
 Gaussian 16:  ES64L-G16RevB.01 20-Dec-2017

 -------------------------
 #P B3LYP/6-311+g(d) force
 -------------------------

 -----
 DPGEN
 -----
 Symbolic Z-matrix:
 Charge =  0 Multiplicity = 2

                         Standard orientation:
 ---------------------------------------------------------------------
 Center     Atomic      Atomic             Coordinates (Angstroms)
 Number     Number       Type             X           Y           Z
 ---------------------------------------------------------------------
      1         11           0        0.545511    2.325004   -0.847675
      2         11           0        0.988018   -1.385759   -1.530773
      3         11           0        1.939497   -0.429438    2.232539
      4         11           0       -1.374060   -0.637775    1.704308
      5         11           0        3.913291   -0.051778   -0.708298
      6         11           0       -2.801264    2.043258    0.070243
      7         11           0       -3.210992   -1.863512   -0.920343
 ---------------------------------------------------------------------

 SCF Done:  E(UB3LYP) =  -1136.11934102     A.U. after   25 cycles

 The electronic state is 2-A.
 Alpha  occ. eigenvalues --  -38.45227 -38.45099 -38.44716 -38.44113 -38.43876
 Alpha  occ. eigenvalues --  -38.43522 -38.43053  -2.21030  -2.20902  -2.20553
 Alpha  occ. eigenvalues --   -2.19891  -2.19734  -2.19323  -2.18832  -1.14717
 Alpha  occ. eigenvalues --   -1.14682  -1.14668  -1.14582  -1.14562  -1.14499
 Alpha  occ. eigenvalues --   -1.14228  -1.14189  -1.14155  -1.13558  -1.13541
 Alpha  occ. eigenvalues --   -1.13536  -1.13426  -1.13383  -1.13365  -1.13008
 Alpha  occ. eigenvalues --   -1.12977  -1.12950  -1.12537  -1.12512  -1.12442
 Alpha  occ. eigenvalues --   -0.17616  -0.13809  -0.11823  -0.10841
 Alpha virt. eigenvalues --   -0.06833  -0.05571  -0.04840  -0.03473  -0.02708
 Alpha virt. eigenvalues --   -0.02463  -0.02403  -0.01408  -0.01032  -0.00176
 Alpha virt. eigenvalues --    0.00041   0.00126   0.00235   0.00444   0.00608

  Beta  occ. eigenvalues --  -38.45219 -38.45054 -38.44625 -38.44092 -38.43841
  Beta  occ. eigenvalues --  -38.43519 -38.43057  -2.21016  -2.20818  -2.20386
  Beta  occ. eigenvalues --   -2.19851  -2.19673  -2.19317  -2.18841  -1.14692
  Beta  occ. eigenvalues --   -1.14673  -1.14659  -1.14526  -1.14502  -1.14436
  Beta  occ. eigenvalues --   -1.14105  -1.14076  -1.14038  -1.13532  -1.13513
  Beta  occ. eigenvalues --   -1.13507  -1.13386  -1.13341  -1.13297  -1.13000
  Beta  occ. eigenvalues --   -1.12973  -1.12950  -1.12539  -1.12515  -1.12447
  Beta  occ. eigenvalues --   -0.16908  -0.13664  -0.10707
  Beta virt. eigenvalues --   -0.07814  -0.06613  -0.05196  -0.04479  -0.03015
  Beta virt. eigenvalues --   -0.02403  -0.02091  -0.01946  -0.01088  -0.00772
  Beta virt. eigenvalues --   -0.00082   0.00123   0.00211   0.00318   0.00593

 Mulliken charges and spin densities:
               1          2
     1  Na  -0.490690   0.036605
     2  Na  -0.532139   0.322251
     3  Na  -0.032039   0.243472
     4  Na  -0.176756   0.284110
     5  Na   0.762024   0.098875
     6  Na   0.238087  -0.075659
     7  Na   0.231512   0.090346
 Sum of Mulliken charges =  -0.00000   1.00000

 Dipole moment (field-independent basis, Debye):
    X=              1.3525    Y=             -0.4217    Z=             -0.3056  Tot=              1.4493
 Quadrupole moment (field-independent basis, Debye-Ang):
   XX=            -47.3228   YY=            -80.5363   ZZ=            -68.4658
   XY=              0.8738   XZ=              0.7161   YZ=              3.0039

 Normal termination of Gaussian 16 at Sun Dec  3 22:57:27 2023.
