 Gaussian 16, Revision B.01,
 Gaussian 16:  ES64L-G16RevB.01 20-Dec-2017

 -------------------------
 #P B3LYP/6-311+g(d) force
 -------------------------

 -----
 DPGEN
 -----
 Symbolic Z-matrix:
 Charge =  0 Multiplicity = 2

                         Standard orientation:
 ---------------------------------------------------------------------
 Center     Atomic      Atomic             Coordinates (Angstroms)
 Number     Number       Type             X           Y           Z
 ---------------------------------------------------------------------
      1         11           0        3.096457   -0.972482    0.038799
      2         11           0       -1.925253    2.231805   -0.143266
      3         11           0        1.943354    2.121051   -0.263040
      4         11           0        0.173428    0.444880    1.770287
      5         11           0        0.169367   -0.523879   -1.628154
      6         11           0       -3.025856   -0.683454   -0.069845
      7         11           0       -0.431497   -2.617922    0.295220
 ---------------------------------------------------------------------

 SCF Done:  E(UB3LYP) =  -1136.13294943     A.U. after   20 cycles

 The electronic state is 2-A.
 Alpha  occ. eigenvalues --  -38.44478 -38.44141 -38.43643 -38.43418 -38.43184
 Alpha  occ. eigenvalues --  -38.43072 -38.43068  -2.20317  -2.20024  -2.19527
 Alpha  occ. eigenvalues --   -2.19284  -2.19194  -2.19042  -2.18999  -1.13992
 Alpha  occ. eigenvalues --   -1.13977  -1.13959  -1.13714  -1.13682  -1.13674
 Alpha  occ. eigenvalues --   -1.13232  -1.13195  -1.13148  -1.13010  -1.12968
 Alpha  occ. eigenvalues --   -1.12942  -1.12925  -1.12848  -1.12790  -1.12720
 Alpha  occ. eigenvalues --   -1.12688  -1.12649  -1.12631  -1.12621  -1.12600
 Alpha  occ. eigenvalues --   -0.19126  -0.13610  -0.12317  -0.10528
 Alpha virt. eigenvalues --   -0.06035  -0.05289  -0.04245  -0.03309  -0.02727
 Alpha virt. eigenvalues --   -0.02141  -0.01870  -0.01043  -0.00276  -0.00174
 Alpha virt. eigenvalues --    0.00012   0.00346   0.00773   0.00884   0.00914

  Beta  occ. eigenvalues --  -38.44474 -38.44138 -38.43634 -38.43413 -38.43120
  Beta  occ. eigenvalues --  -38.43060 -38.42987  -2.20313  -2.20021  -2.19514
  Beta  occ. eigenvalues --   -2.19279  -2.19078  -2.18981  -2.18893  -1.13985
  Beta  occ. eigenvalues --   -1.13964  -1.13950  -1.13714  -1.13683  -1.13649
  Beta  occ. eigenvalues --   -1.13222  -1.13158  -1.13143  -1.12965  -1.12946
  Beta  occ. eigenvalues --   -1.12925  -1.12913  -1.12770  -1.12706  -1.12637
  Beta  occ. eigenvalues --   -1.12612  -1.12593  -1.12574  -1.12553  -1.12538
  Beta  occ. eigenvalues --   -0.18395  -0.13357  -0.12078
  Beta virt. eigenvalues --   -0.06614  -0.05985  -0.05286  -0.04220  -0.02502
  Beta virt. eigenvalues --   -0.01965  -0.01782  -0.01122  -0.00989  -0.00314
  Beta virt. eigenvalues --   -0.00209   0.00158   0.00378   0.00820   0.00889

 Mulliken charges and spin densities:
               1          2
     1  Na   0.245369  -0.049861
     2  Na   0.145145  -0.065144
     3  Na   0.120490  -0.078233
     4  Na  -0.451629   0.667792
     5  Na  -0.477700   0.564728
     6  Na   0.105546  -0.006303
     7  Na   0.312778  -0.032978
 Sum of Mulliken charges =  -0.00000   1.00000

 Dipole moment (field-independent basis, Debye):
    X=              0.3575    Y=             -0.0274    Z=              0.0424  Tot=              0.3611
 Quadrupole moment (field-independent basis, Debye-Ang):
   XX=            -52.1307   YY=            -65.2284   ZZ=            -75.3592
   XY=             -0.4368   XZ=              0.1674   YZ=             -2.1119

 Normal termination of Gaussian 16 at Fri Dec  8 04:40:38 2023.
