 Gaussian 16, Revision B.01,
 Gaussian 16:  ES64L-G16RevB.01 20-Dec-2017

 -------------------------
 #P B3LYP/6-311+g(d) force
 -------------------------

 -----
 DPGEN
 -----
 Symbolic Z-matrix:
 Charge =  0 Multiplicity = 2

                         Standard orientation:
 ---------------------------------------------------------------------
 Center     Atomic      Atomic             Coordinates (Angstroms)
 Number     Number       Type             X           Y           Z
 ---------------------------------------------------------------------
      1         11           0       -0.502177   -0.983098   -1.090380
      2         11           0        0.406830   -0.005544    1.829602
      3         11           0        1.653702   -2.282655    0.556956
      4         11           0        2.025293    0.179218   -1.360126
      5         11           0        1.153011    2.304719    0.179155
      6         11           0       -1.489167    1.603805   -0.022176
      7         11           0       -3.247491   -0.816445   -0.093032
 ---------------------------------------------------------------------

 SCF Done:  E(UB3LYP) =  -1136.09671540     A.U. after   19 cycles

 The electronic state is 2-A.
 Alpha  occ. eigenvalues --  -38.44280 -38.44151 -38.43987 -38.43548 -38.43538
 Alpha  occ. eigenvalues --  -38.43487 -38.43366  -2.20366  -2.20103  -2.20057
 Alpha  occ. eigenvalues --   -2.19660  -2.19574  -2.19559  -2.19530  -1.14170
 Alpha  occ. eigenvalues --   -1.14120  -1.13946  -1.13867  -1.13834  -1.13811
 Alpha  occ. eigenvalues --   -1.13744  -1.13716  -1.13668  -1.13551  -1.13403
 Alpha  occ. eigenvalues --   -1.13302  -1.13269  -1.13194  -1.13187  -1.13179
 Alpha  occ. eigenvalues --   -1.13151  -1.13139  -1.13132  -1.13049  -1.13017
 Alpha  occ. eigenvalues --   -0.20615  -0.13724  -0.12773  -0.11810
 Alpha virt. eigenvalues --   -0.05626  -0.04580  -0.03938  -0.03522  -0.03140
 Alpha virt. eigenvalues --   -0.02819  -0.01399  -0.00808  -0.00146   0.00294
 Alpha virt. eigenvalues --    0.00484   0.00652   0.00945   0.00987   0.01028

  Beta  occ. eigenvalues --  -38.44219 -38.44152 -38.43892 -38.43530 -38.43527
  Beta  occ. eigenvalues --  -38.43475 -38.43324  -2.20258  -2.20061  -2.19930
  Beta  occ. eigenvalues --   -2.19644  -2.19546  -2.19509  -2.19492  -1.14094
  Beta  occ. eigenvalues --   -1.14050  -1.13858  -1.13829  -1.13770  -1.13736
  Beta  occ. eigenvalues --   -1.13704  -1.13663  -1.13599  -1.13532  -1.13382
  Beta  occ. eigenvalues --   -1.13267  -1.13220  -1.13167  -1.13133  -1.13129
  Beta  occ. eigenvalues --   -1.13116  -1.13089  -1.13078  -1.13015  -1.13007
  Beta  occ. eigenvalues --   -0.19832  -0.13499  -0.12451
  Beta virt. eigenvalues --   -0.07631  -0.05481  -0.04586  -0.03917  -0.02760
  Beta virt. eigenvalues --   -0.02338  -0.01761  -0.01237  -0.00733   0.00058
  Beta virt. eigenvalues --    0.00345   0.00462   0.00696   0.00949   0.00987

 Mulliken charges and spin densities:
               1          2
     1  Na   0.337633   0.495382
     2  Na  -0.168135   0.263685
     3  Na  -0.434448   0.072948
     4  Na  -0.292798  -0.148915
     5  Na   0.817896   0.386234
     6  Na  -0.547120  -0.035228
     7  Na   0.286972  -0.034106
 Sum of Mulliken charges =  -0.00000   1.00000

 Dipole moment (field-independent basis, Debye):
    X=             -0.2008    Y=             -0.3674    Z=              0.2704  Tot=              0.4984
 Quadrupole moment (field-independent basis, Debye-Ang):
   XX=            -57.9399   YY=            -67.4483   ZZ=            -70.2983
   XY=              0.7035   XZ=             -1.4047   YZ=             -1.3037

 Normal termination of Gaussian 16 at Fri Dec  8 01:40:25 2023.
