 Gaussian 16, Revision B.01,
 Gaussian 16:  ES64L-G16RevB.01 20-Dec-2017

 -------------------------
 #P B3LYP/6-311+g(d) force
 -------------------------

 -----
 DPGEN
 -----
 Symbolic Z-matrix:
 Charge =  0 Multiplicity = 2

                         Standard orientation:
 ---------------------------------------------------------------------
 Center     Atomic      Atomic             Coordinates (Angstroms)
 Number     Number       Type             X           Y           Z
 ---------------------------------------------------------------------
      1         11           0       -1.012718   -1.653856   -0.891629
      2         11           0       -4.003450   -0.370899    1.120542
      3         11           0       -2.300367    1.740140   -1.036177
      4         11           0        3.108135    1.897918    0.791272
      5         11           0        0.311644   -0.066774    1.655851
      6         11           0        2.813858   -1.941263   -0.000078
      7         11           0        1.082899    0.394734   -1.639782
 ---------------------------------------------------------------------

 SCF Done:  E(UB3LYP) =  -1136.11882760     A.U. after   27 cycles

 The electronic state is 2-A.
 Alpha  occ. eigenvalues --  -38.44977 -38.44854 -38.44707 -38.44476 -38.43599
 Alpha  occ. eigenvalues --  -38.42800 -38.42611  -2.20848  -2.20643  -2.20524
 Alpha  occ. eigenvalues --   -2.20292  -2.19586  -2.18725  -2.18424  -1.14568
 Alpha  occ. eigenvalues --   -1.14493  -1.14458  -1.14303  -1.14299  -1.14265
 Alpha  occ. eigenvalues --   -1.14224  -1.14176  -1.14125  -1.13958  -1.13953
 Alpha  occ. eigenvalues --   -1.13921  -1.13320  -1.13214  -1.13196  -1.12456
 Alpha  occ. eigenvalues --   -1.12411  -1.12284  -1.12101  -1.12081  -1.12072
 Alpha  occ. eigenvalues --   -0.18449  -0.14046  -0.11296  -0.10603
 Alpha virt. eigenvalues --   -0.06897  -0.05655  -0.04459  -0.02978  -0.02751
 Alpha virt. eigenvalues --   -0.02369  -0.02139  -0.01424  -0.00936  -0.00254
 Alpha virt. eigenvalues --    0.00071   0.00147   0.00357   0.00492   0.00574

  Beta  occ. eigenvalues --  -38.44946 -38.44813 -38.44697 -38.44440 -38.43538
  Beta  occ. eigenvalues --  -38.42784 -38.42616  -2.20792  -2.20566  -2.20506
  Beta  occ. eigenvalues --   -2.20230  -2.19477  -2.18700  -2.18433  -1.14526
  Beta  occ. eigenvalues --   -1.14449  -1.14415  -1.14249  -1.14244  -1.14215
  Beta  occ. eigenvalues --   -1.14207  -1.14163  -1.14114  -1.13919  -1.13904
  Beta  occ. eigenvalues --   -1.13859  -1.13246  -1.13124  -1.13112  -1.12440
  Beta  occ. eigenvalues --   -1.12351  -1.12277  -1.12106  -1.12087  -1.12075
  Beta  occ. eigenvalues --   -0.17740  -0.13749  -0.10488
  Beta virt. eigenvalues --   -0.07470  -0.06659  -0.05243  -0.04144  -0.02691
  Beta virt. eigenvalues --   -0.02462  -0.01812  -0.01652  -0.01136  -0.00670
  Beta virt. eigenvalues --   -0.00090   0.00113   0.00204   0.00455   0.00548

 Mulliken charges and spin densities:
               1          2
     1  Na   0.051479   0.132424
     2  Na   0.150108   0.230878
     3  Na  -0.089341   0.089528
     4  Na  -0.162873  -0.060134
     5  Na  -0.449248   0.327264
     6  Na   0.325198   0.011870
     7  Na   0.174678   0.268170
 Sum of Mulliken charges =  -0.00000   1.00000

 Dipole moment (field-independent basis, Debye):
    X=             -0.5505    Y=             -0.7569    Z=              0.0950  Tot=              0.9407
 Quadrupole moment (field-independent basis, Debye-Ang):
   XX=            -51.6662   YY=            -73.5671   ZZ=            -69.8014
   XY=             -4.4235   XZ=             -2.2620   YZ=             -4.7580

 Normal termination of Gaussian 16 at Tue Dec  5 21:52:45 2023.
