 Gaussian 16, Revision B.01,
 Gaussian 16:  ES64L-G16RevB.01 20-Dec-2017

 -------------------------
 #P B3LYP/6-311+g(d) force
 -------------------------

 -----
 DPGEN
 -----
 Symbolic Z-matrix:
 Charge =  0 Multiplicity = 2

                         Standard orientation:
 ---------------------------------------------------------------------
 Center     Atomic      Atomic             Coordinates (Angstroms)
 Number     Number       Type             X           Y           Z
 ---------------------------------------------------------------------
      1         11           0        3.271727    0.925934    1.183734
      2         11           0        7.070004   -2.722979   -0.260342
      3         11           0       -2.730458    1.461261   -0.703042
      4         11           0       -5.767837   -1.410522   -0.857304
      5         11           0        0.016303    3.032156   -0.202004
      6         11           0       -8.183900   -1.389490    0.978702
      7         11           0        6.324162    0.103641   -0.139744
 ---------------------------------------------------------------------

 SCF Done:  E(UB3LYP) =  -1136.10347011     A.U. after   18 cycles

 The electronic state is 2-A.
 Alpha  occ. eigenvalues --  -38.44897 -38.44809 -38.44783 -38.44320 -38.44270
 Alpha  occ. eigenvalues --  -38.44181 -38.44084  -2.20690  -2.20617  -2.20604
 Alpha  occ. eigenvalues --   -2.20115  -2.20059  -2.19947  -2.19926  -1.14339
 Alpha  occ. eigenvalues --   -1.14334  -1.14330  -1.14294  -1.14293  -1.14250
 Alpha  occ. eigenvalues --   -1.14248  -1.14240  -1.14235  -1.13774  -1.13769
 Alpha  occ. eigenvalues --   -1.13761  -1.13732  -1.13716  -1.13714  -1.13622
 Alpha  occ. eigenvalues --   -1.13608  -1.13603  -1.13579  -1.13574  -1.13569
 Alpha  occ. eigenvalues --   -0.15096  -0.14220  -0.12993  -0.11233
 Alpha virt. eigenvalues --   -0.06999  -0.05240  -0.04311  -0.03296  -0.03030
 Alpha virt. eigenvalues --   -0.02864  -0.02410  -0.02138  -0.01668  -0.01046
 Alpha virt. eigenvalues --   -0.00884  -0.00365  -0.00238   0.00228   0.00414

  Beta  occ. eigenvalues --  -38.44794 -38.44790 -38.44709 -38.44325 -38.44222
  Beta  occ. eigenvalues --  -38.44200 -38.44087  -2.20570  -2.20498  -2.20481
  Beta  occ. eigenvalues --   -2.20126  -2.19985  -2.19969  -2.19940  -1.14273
  Beta  occ. eigenvalues --   -1.14245  -1.14227  -1.14225  -1.14206  -1.14203
  Beta  occ. eigenvalues --   -1.14171  -1.14147  -1.14141  -1.13783  -1.13777
  Beta  occ. eigenvalues --   -1.13755  -1.13702  -1.13662  -1.13655  -1.13645
  Beta  occ. eigenvalues --   -1.13627  -1.13599  -1.13596  -1.13551  -1.13542
  Beta  occ. eigenvalues --   -0.14290  -0.13846  -0.12642
  Beta virt. eigenvalues --   -0.07957  -0.06537  -0.04764  -0.04118  -0.03069
  Beta virt. eigenvalues --   -0.02895  -0.02666  -0.02224  -0.01917  -0.01372
  Beta virt. eigenvalues --   -0.00880  -0.00463  -0.00185   0.00039   0.00344

 Mulliken charges and spin densities:
               1          2
     1  Na  -0.114929   0.463121
     2  Na   0.152197   0.311195
     3  Na  -0.047233   0.214788
     4  Na  -0.200716  -0.031352
     5  Na  -0.003041  -0.059825
     6  Na   0.235291   0.076583
     7  Na  -0.021570   0.025491
 Sum of Mulliken charges =  -0.00000   1.00000

 Dipole moment (field-independent basis, Debye):
    X=             -0.4542    Y=             -0.9105    Z=              0.4134  Tot=              1.0983
 Quadrupole moment (field-independent basis, Debye-Ang):
   XX=            -52.8048   YY=            -65.1301   ZZ=            -71.0034
   XY=             -0.5083   XZ=             -6.1454   YZ=             -0.1006

 Normal termination of Gaussian 16 at Sun Dec  3 17:35:50 2023.
