 Gaussian 16, Revision B.01,
 Gaussian 16:  ES64L-G16RevB.01 20-Dec-2017

 -------------------------
 #P B3LYP/6-311+g(d) force
 -------------------------

 -----
 DPGEN
 -----
 Symbolic Z-matrix:
 Charge =  0 Multiplicity = 2

                         Standard orientation:
 ---------------------------------------------------------------------
 Center     Atomic      Atomic             Coordinates (Angstroms)
 Number     Number       Type             X           Y           Z
 ---------------------------------------------------------------------
      1         11           0       -0.033352    0.023523   -1.756203
      2         11           0       -2.779647   -1.730812   -0.147924
      3         11           0        0.964123   -2.969687    0.010447
      4         11           0       -2.366495    2.178061   -0.091193
      5         11           0       -0.274824   -0.081332    1.998846
      6         11           0        3.120581   -0.199344   -0.072623
      7         11           0        1.369614    2.779592    0.058650
 ---------------------------------------------------------------------

 SCF Done:  E(UB3LYP) =  -1136.13882962     A.U. after   19 cycles

 The electronic state is 2-A.
 Alpha  occ. eigenvalues --  -38.44202 -38.44083 -38.43762 -38.43717 -38.43655
 Alpha  occ. eigenvalues --  -38.43494 -38.43314  -2.19985  -2.19875  -2.19570
 Alpha  occ. eigenvalues --   -2.19543  -2.19472  -2.19359  -2.19221  -1.13663
 Alpha  occ. eigenvalues --   -1.13644  -1.13623  -1.13553  -1.13537  -1.13509
 Alpha  occ. eigenvalues --   -1.13252  -1.13245  -1.13220  -1.13217  -1.13211
 Alpha  occ. eigenvalues --   -1.13175  -1.13144  -1.13133  -1.13103  -1.13030
 Alpha  occ. eigenvalues --   -1.12982  -1.12979  -1.12905  -1.12848  -1.12845
 Alpha  occ. eigenvalues --   -0.18148  -0.12715  -0.12469  -0.10455
 Alpha virt. eigenvalues --   -0.05778  -0.05312  -0.05034  -0.03014  -0.02895
 Alpha virt. eigenvalues --   -0.02465  -0.01504  -0.01399  -0.00659  -0.00632
 Alpha virt. eigenvalues --   -0.00016   0.00362   0.00777   0.00794   0.00851

  Beta  occ. eigenvalues --  -38.44199 -38.44080 -38.43759 -38.43715 -38.43653
  Beta  occ. eigenvalues --  -38.43404 -38.43245  -2.19982  -2.19872  -2.19568
  Beta  occ. eigenvalues --   -2.19542  -2.19469  -2.19192  -2.19094  -1.13645
  Beta  occ. eigenvalues --   -1.13639  -1.13625  -1.13539  -1.13528  -1.13511
  Beta  occ. eigenvalues --   -1.13252  -1.13223  -1.13220  -1.13216  -1.13191
  Beta  occ. eigenvalues --   -1.13177  -1.13134  -1.13120  -1.13105  -1.12919
  Beta  occ. eigenvalues --   -1.12864  -1.12860  -1.12817  -1.12756  -1.12752
  Beta  occ. eigenvalues --   -0.17424  -0.12509  -0.12263
  Beta virt. eigenvalues --   -0.06578  -0.05807  -0.05263  -0.04960  -0.02258
  Beta virt. eigenvalues --   -0.02139  -0.01436  -0.01397  -0.01317  -0.00723
  Beta virt. eigenvalues --   -0.00695   0.00126   0.00384   0.00777   0.00832

 Mulliken charges and spin densities:
               1          2
     1  Na  -0.090584   0.681522
     2  Na   0.073564  -0.146556
     3  Na   0.095343  -0.104846
     4  Na   0.088285  -0.128222
     5  Na  -0.326407   0.836057
     6  Na   0.082703  -0.057820
     7  Na   0.077096  -0.080135
 Sum of Mulliken charges =  -0.00000   1.00000

 Dipole moment (field-independent basis, Debye):
    X=             -0.3135    Y=             -0.0459    Z=              0.0131  Tot=              0.3171
 Quadrupole moment (field-independent basis, Debye-Ang):
   XX=            -57.2971   YY=            -59.3338   ZZ=            -76.0282
   XY=              0.0267   XZ=              0.5504   YZ=              0.2663

 Normal termination of Gaussian 16 at Thu Dec  7 23:08:38 2023.
