 Gaussian 16, Revision B.01,
 Gaussian 16:  ES64L-G16RevB.01 20-Dec-2017

 -------------------------
 #P B3LYP/6-311+g(d) force
 -------------------------

 -----
 DPGEN
 -----
 Symbolic Z-matrix:
 Charge =  0 Multiplicity = 2

                         Standard orientation:
 ---------------------------------------------------------------------
 Center     Atomic      Atomic             Coordinates (Angstroms)
 Number     Number       Type             X           Y           Z
 ---------------------------------------------------------------------
      1         11           0        0.144896   -0.409343    2.105327
      2         11           0       -0.935288   -2.650111   -0.062025
      3         11           0        2.878599   -1.716470   -0.258328
      4         11           0        2.361902    2.164533   -0.250385
      5         11           0       -0.198570    0.037762   -1.610543
      6         11           0       -0.881740    2.447459    0.364976
      7         11           0       -3.369798    0.126171   -0.289023
 ---------------------------------------------------------------------

 SCF Done:  E(UB3LYP) =  -1136.13507072     A.U. after   20 cycles

 The electronic state is 2-A.
 Alpha  occ. eigenvalues --  -38.44320 -38.44152 -38.43733 -38.43612 -38.43555
 Alpha  occ. eigenvalues --  -38.43347 -38.43028  -2.20088  -2.19969  -2.19547
 Alpha  occ. eigenvalues --   -2.19498  -2.19419  -2.19320  -2.18935  -1.13769
 Alpha  occ. eigenvalues --   -1.13741  -1.13726  -1.13641  -1.13629  -1.13610
 Alpha  occ. eigenvalues --   -1.13223  -1.13213  -1.13197  -1.13188  -1.13149
 Alpha  occ. eigenvalues --   -1.13144  -1.13108  -1.13068  -1.13022  -1.13014
 Alpha  occ. eigenvalues --   -1.12958  -1.12918  -1.12623  -1.12596  -1.12550
 Alpha  occ. eigenvalues --   -0.18506  -0.12807  -0.12430  -0.10757
 Alpha virt. eigenvalues --   -0.05933  -0.05285  -0.04379  -0.03058  -0.02979
 Alpha virt. eigenvalues --   -0.02558  -0.01839  -0.01200  -0.00412  -0.00201
 Alpha virt. eigenvalues --   -0.00035   0.00310   0.00730   0.00819   0.00909

  Beta  occ. eigenvalues --  -38.44318 -38.44148 -38.43732 -38.43546 -38.43511
  Beta  occ. eigenvalues --  -38.43291 -38.43016  -2.20085  -2.19964  -2.19546
  Beta  occ. eigenvalues --   -2.19407  -2.19312  -2.19219  -2.18917  -1.13754
  Beta  occ. eigenvalues --   -1.13739  -1.13725  -1.13631  -1.13616  -1.13608
  Beta  occ. eigenvalues --   -1.13221  -1.13199  -1.13189  -1.13152  -1.13088
  Beta  occ. eigenvalues --   -1.13030  -1.13015  -1.12982  -1.12970  -1.12950
  Beta  occ. eigenvalues --   -1.12896  -1.12841  -1.12612  -1.12550  -1.12544
  Beta  occ. eigenvalues --   -0.17778  -0.12582  -0.12205
  Beta virt. eigenvalues --   -0.06834  -0.05889  -0.05251  -0.04327  -0.02353
  Beta virt. eigenvalues --   -0.02193  -0.01738  -0.01509  -0.01157  -0.00450
  Beta virt. eigenvalues --   -0.00200   0.00102   0.00345   0.00774   0.00844

 Mulliken charges and spin densities:
               1          2
     1  Na  -0.366673   0.640325
     2  Na   0.221906  -0.087977
     3  Na  -0.000296  -0.087765
     4  Na  -0.004305  -0.064887
     5  Na  -0.329785   0.507788
     6  Na   0.241005   0.098630
     7  Na   0.238148  -0.006115
 Sum of Mulliken charges =  -0.00000   1.00000

 Dipole moment (field-independent basis, Debye):
    X=              0.0956    Y=             -0.2781    Z=              0.0434  Tot=              0.2972
 Quadrupole moment (field-independent basis, Debye-Ang):
   XX=            -53.5515   YY=            -64.8730   ZZ=            -74.2848
   XY=             -0.0429   XZ=             -0.5624   YZ=              0.7843

 Normal termination of Gaussian 16 at Thu Dec  7 05:18:26 2023.
