 Gaussian 16, Revision B.01,
 Gaussian 16:  ES64L-G16RevB.01 20-Dec-2017

 -------------------------
 #P B3LYP/6-311+g(d) force
 -------------------------

 -----
 DPGEN
 -----
 Symbolic Z-matrix:
 Charge =  0 Multiplicity = 2

                         Standard orientation:
 ---------------------------------------------------------------------
 Center     Atomic      Atomic             Coordinates (Angstroms)
 Number     Number       Type             X           Y           Z
 ---------------------------------------------------------------------
      1         11           0        3.551334    1.774201   -0.108222
      2         11           0       -1.877964    2.734069   -0.406873
      3         11           0        3.269961   -1.321227   -1.424152
      4         11           0       -3.636131   -0.169996   -1.692567
      5         11           0        0.272231   -2.791379    0.299450
      6         11           0        0.948991    0.783701    1.859677
      7         11           0       -2.528421   -1.009368    1.472687
 ---------------------------------------------------------------------

 SCF Done:  E(UB3LYP) =  -1136.11533930     A.U. after   23 cycles

 The electronic state is 2-A.
 Alpha  occ. eigenvalues --  -38.44821 -38.44751 -38.44532 -38.44459 -38.44286
 Alpha  occ. eigenvalues --  -38.44253 -38.43247  -2.20548  -2.20544  -2.20327
 Alpha  occ. eigenvalues --   -2.20260  -2.20100  -2.20045  -2.19021  -1.14240
 Alpha  occ. eigenvalues --   -1.14217  -1.14210  -1.14194  -1.14188  -1.14148
 Alpha  occ. eigenvalues --   -1.13990  -1.13966  -1.13959  -1.13943  -1.13927
 Alpha  occ. eigenvalues --   -1.13885  -1.13770  -1.13761  -1.13732  -1.13710
 Alpha  occ. eigenvalues --   -1.13691  -1.13677  -1.12703  -1.12694  -1.12659
 Alpha  occ. eigenvalues --   -0.16617  -0.13975  -0.11426  -0.11080
 Alpha virt. eigenvalues --   -0.06858  -0.05574  -0.04628  -0.03665  -0.03177
 Alpha virt. eigenvalues --   -0.02611  -0.01896  -0.01222  -0.00877  -0.00606
 Alpha virt. eigenvalues --   -0.00341  -0.00160   0.00038   0.00318   0.00562

  Beta  occ. eigenvalues --  -38.44836 -38.44690 -38.44469 -38.44448 -38.44253
  Beta  occ. eigenvalues --  -38.44212 -38.43247  -2.20577  -2.20432  -2.20243
  Beta  occ. eigenvalues --   -2.20211  -2.20047  -2.19963  -2.19023  -1.14262
  Beta  occ. eigenvalues --   -1.14236  -1.14193  -1.14132  -1.14113  -1.14082
  Beta  occ. eigenvalues --   -1.13923  -1.13911  -1.13910  -1.13891  -1.13878
  Beta  occ. eigenvalues --   -1.13865  -1.13729  -1.13712  -1.13677  -1.13673
  Beta  occ. eigenvalues --   -1.13644  -1.13606  -1.12706  -1.12694  -1.12649
  Beta  occ. eigenvalues --   -0.15974  -0.13437  -0.11283
  Beta virt. eigenvalues --   -0.07654  -0.06752  -0.04934  -0.04291  -0.03536
  Beta virt. eigenvalues --   -0.02588  -0.02071  -0.01805  -0.01073  -0.00669
  Beta virt. eigenvalues --   -0.00486  -0.00259   0.00122   0.00221   0.00428

 Mulliken charges and spin densities:
               1          2
     1  Na   0.303924   0.040191
     2  Na  -0.272628  -0.105319
     3  Na  -0.129574   0.276016
     4  Na   0.051462   0.333095
     5  Na  -0.374425   0.035713
     6  Na  -0.006974   0.371939
     7  Na   0.428215   0.048364
 Sum of Mulliken charges =  -0.00000   1.00000

 Dipole moment (field-independent basis, Debye):
    X=             -0.3705    Y=              0.4039    Z=             -0.5368  Tot=              0.7672
 Quadrupole moment (field-independent basis, Debye-Ang):
   XX=            -61.5844   YY=            -70.4430   ZZ=            -67.2534
   XY=              3.3477   XZ=             -1.7719   YZ=              1.9044

 Normal termination of Gaussian 16 at Sun Dec  3 16:24:40 2023.
