 Gaussian 16, Revision B.01,
 Gaussian 16:  ES64L-G16RevB.01 20-Dec-2017

 -------------------------
 #P B3LYP/6-311+g(d) force
 -------------------------

 -----
 DPGEN
 -----
 Symbolic Z-matrix:
 Charge =  0 Multiplicity = 2

                         Standard orientation:
 ---------------------------------------------------------------------
 Center     Atomic      Atomic             Coordinates (Angstroms)
 Number     Number       Type             X           Y           Z
 ---------------------------------------------------------------------
      1         11           0        0.677324   -0.568963   -1.507023
      2         11           0       -0.417449   -0.554666    2.086730
      3         11           0       -2.969236    0.873603    0.281552
      4         11           0       -3.085705   -2.315243   -0.489206
      5         11           0        2.654307    1.341414    0.800591
      6         11           0        3.364178   -2.141682   -0.325764
      7         11           0       -0.223418    3.365537   -0.846880
 ---------------------------------------------------------------------

 SCF Done:  E(UB3LYP) =  -1136.12147427     A.U. after   21 cycles

 The electronic state is 2-A.
 Alpha  occ. eigenvalues --  -38.44826 -38.44517 -38.44481 -38.44287 -38.44229
 Alpha  occ. eigenvalues --  -38.44220 -38.42913  -2.20612  -2.20335  -2.20260
 Alpha  occ. eigenvalues --   -2.20120  -2.20050  -2.20015  -2.18682  -1.14293
 Alpha  occ. eigenvalues --   -1.14288  -1.14227  -1.14036  -1.14020  -1.13978
 Alpha  occ. eigenvalues --   -1.13921  -1.13914  -1.13873  -1.13821  -1.13768
 Alpha  occ. eigenvalues --   -1.13764  -1.13712  -1.13697  -1.13677  -1.13673
 Alpha  occ. eigenvalues --   -1.13645  -1.13637  -1.12353  -1.12341  -1.12321
 Alpha  occ. eigenvalues --   -0.17384  -0.13557  -0.11542  -0.10482
 Alpha virt. eigenvalues --   -0.06327  -0.06192  -0.04583  -0.03573  -0.02581
 Alpha virt. eigenvalues --   -0.02376  -0.02135  -0.01648  -0.00961  -0.00574
 Alpha virt. eigenvalues --   -0.00042   0.00222   0.00387   0.00536   0.00609

  Beta  occ. eigenvalues --  -38.44814 -38.44513 -38.44477 -38.44248 -38.44228
  Beta  occ. eigenvalues --  -38.44122 -38.42896  -2.20591  -2.20331  -2.20253
  Beta  occ. eigenvalues --   -2.20048  -2.20014  -2.19870  -2.18652  -1.14277
  Beta  occ. eigenvalues --   -1.14254  -1.14219  -1.14020  -1.14014  -1.13972
  Beta  occ. eigenvalues --   -1.13911  -1.13908  -1.13870  -1.13764  -1.13728
  Beta  occ. eigenvalues --   -1.13714  -1.13677  -1.13658  -1.13627  -1.13591
  Beta  occ. eigenvalues --   -1.13573  -1.13513  -1.12327  -1.12320  -1.12303
  Beta  occ. eigenvalues --   -0.16730  -0.13417  -0.11316
  Beta virt. eigenvalues --   -0.06784  -0.06148  -0.06020  -0.04391  -0.02957
  Beta virt. eigenvalues --   -0.02107  -0.02066  -0.01634  -0.01351  -0.00960
  Beta virt. eigenvalues --   -0.00418   0.00086   0.00281   0.00541   0.00625

 Mulliken charges and spin densities:
               1          2
     1  Na  -0.346826   0.428437
     2  Na  -0.077422   0.426170
     3  Na   0.151963   0.158675
     4  Na   0.057278  -0.045383
     5  Na   0.190853   0.104005
     6  Na   0.118671  -0.041443
     7  Na  -0.094517  -0.030462
 Sum of Mulliken charges =  -0.00000   1.00000

 Dipole moment (field-independent basis, Debye):
    X=              0.2049    Y=             -0.9074    Z=              0.2654  Tot=              0.9674
 Quadrupole moment (field-independent basis, Debye-Ang):
   XX=            -53.7967   YY=            -65.9046   ZZ=            -75.2123
   XY=              0.7882   XZ=              2.7282   YZ=              1.3231

 Normal termination of Gaussian 16 at Sun Dec  3 22:59:53 2023.
