 Gaussian 16, Revision B.01,
 Gaussian 16:  ES64L-G16RevB.01 20-Dec-2017

 -------------------------
 #P B3LYP/6-311+g(d) force
 -------------------------

 -----
 DPGEN
 -----
 Symbolic Z-matrix:
 Charge =  0 Multiplicity = 2

                         Standard orientation:
 ---------------------------------------------------------------------
 Center     Atomic      Atomic             Coordinates (Angstroms)
 Number     Number       Type             X           Y           Z
 ---------------------------------------------------------------------
      1         11           0       -2.627853   -0.000104   -0.598332
      2         11           0       -2.191718    3.905018    0.522264
      3         11           0        2.694760   -0.405384   -1.019604
      4         11           0       -2.936549   -3.060487    1.151627
      5         11           0        5.053370   -0.260545    1.092162
      6         11           0        0.388561    2.486271   -0.330654
      7         11           0       -0.380569   -2.664768   -0.817462
 ---------------------------------------------------------------------

 SCF Done:  E(UB3LYP) =  -1136.11792192     A.U. after   20 cycles

 The electronic state is 2-A.
 Alpha  occ. eigenvalues --  -38.45683 -38.44703 -38.44418 -38.44361 -38.44302
 Alpha  occ. eigenvalues --  -38.43459 -38.42692  -2.21458  -2.20516  -2.20228
 Alpha  occ. eigenvalues --   -2.20188  -2.20141  -2.19278  -2.18519  -1.15168
 Alpha  occ. eigenvalues --   -1.15160  -1.15044  -1.14210  -1.14186  -1.14176
 Alpha  occ. eigenvalues --   -1.13884  -1.13881  -1.13878  -1.13844  -1.13842
 Alpha  occ. eigenvalues --   -1.13824  -1.13821  -1.13799  -1.13722  -1.12926
 Alpha  occ. eigenvalues --   -1.12910  -1.12906  -1.12203  -1.12194  -1.12169
 Alpha  occ. eigenvalues --   -0.16597  -0.13681  -0.13144  -0.10021
 Alpha virt. eigenvalues --   -0.06576  -0.06053  -0.04361  -0.03944  -0.02939
 Alpha virt. eigenvalues --   -0.01904  -0.01793  -0.01712  -0.01599  -0.00985
 Alpha virt. eigenvalues --   -0.00185  -0.00103   0.00136   0.00379   0.00569

  Beta  occ. eigenvalues --  -38.45680 -38.44699 -38.44412 -38.44324 -38.44268
  Beta  occ. eigenvalues --  -38.43369 -38.42687  -2.21455  -2.20510  -2.20217
  Beta  occ. eigenvalues --   -2.20118  -2.20080  -2.19110  -2.18518  -1.15164
  Beta  occ. eigenvalues --   -1.15135  -1.15045  -1.14203  -1.14181  -1.14171
  Beta  occ. eigenvalues --   -1.13877  -1.13870  -1.13838  -1.13832  -1.13793
  Beta  occ. eigenvalues --   -1.13783  -1.13774  -1.13754  -1.13665  -1.12818
  Beta  occ. eigenvalues --   -1.12795  -1.12792  -1.12207  -1.12202  -1.12110
  Beta  occ. eigenvalues --   -0.16161  -0.13533  -0.12477
  Beta virt. eigenvalues --   -0.06721  -0.06423  -0.05590  -0.03880  -0.03794
  Beta virt. eigenvalues --   -0.02835  -0.01823  -0.01641  -0.01394  -0.01055
  Beta virt. eigenvalues --   -0.00723   0.00022   0.00163   0.00373   0.00546

 Mulliken charges and spin densities:
               1          2
     1  Na  -0.379731   0.073924
     2  Na   0.573118   0.077982
     3  Na  -0.143240  -0.292368
     4  Na   0.544698   0.289644
     5  Na   0.108888   0.541906
     6  Na  -0.412851   0.081496
     7  Na  -0.290882   0.227415
 Sum of Mulliken charges =  -0.00000   1.00000

 Dipole moment (field-independent basis, Debye):
    X=             -2.6300    Y=              0.2145    Z=              0.3990  Tot=              2.6687
 Quadrupole moment (field-independent basis, Debye-Ang):
   XX=            -72.6420   YY=            -57.4607   ZZ=            -69.8663
   XY=             -1.4563   XZ=             -0.0427   YZ=             -0.4193

 Normal termination of Gaussian 16 at Wed Nov 29 02:42:11 2023.
