 Gaussian 16, Revision B.01,
 Gaussian 16:  ES64L-G16RevB.01 20-Dec-2017

 -------------------------
 #P B3LYP/6-311+g(d) force
 -------------------------

 -----
 DPGEN
 -----
 Symbolic Z-matrix:
 Charge =  0 Multiplicity = 2

                         Standard orientation:
 ---------------------------------------------------------------------
 Center     Atomic      Atomic             Coordinates (Angstroms)
 Number     Number       Type             X           Y           Z
 ---------------------------------------------------------------------
      1         11           0        2.244032    2.025487   -0.111727
      2         11           0       -0.791650    0.693657    1.487790
      3         11           0       -1.997776   -2.906623   -0.114215
      4         11           0        1.492196   -1.412648   -0.595450
      5         11           0        4.851923   -1.079109    0.128229
      6         11           0       -4.591644   -0.228937   -0.149958
      7         11           0       -1.207081    2.908173   -0.644670
 ---------------------------------------------------------------------

 SCF Done:  E(UB3LYP) =  -1136.12080435     A.U. after   20 cycles

 The electronic state is 2-A.
 Alpha  occ. eigenvalues --  -38.45059 -38.44880 -38.44374 -38.43919 -38.43836
 Alpha  occ. eigenvalues --  -38.43782 -38.43581  -2.20897  -2.20678  -2.20188
 Alpha  occ. eigenvalues --   -2.19699  -2.19631  -2.19546  -2.19412  -1.14612
 Alpha  occ. eigenvalues --   -1.14571  -1.14499  -1.14392  -1.14368  -1.14257
 Alpha  occ. eigenvalues --   -1.13874  -1.13853  -1.13799  -1.13359  -1.13336
 Alpha  occ. eigenvalues --   -1.13315  -1.13289  -1.13286  -1.13244  -1.13233
 Alpha  occ. eigenvalues --   -1.13197  -1.13186  -1.13109  -1.13104  -1.13006
 Alpha  occ. eigenvalues --   -0.17031  -0.13483  -0.12388  -0.10289
 Alpha virt. eigenvalues --   -0.06278  -0.05940  -0.05106  -0.03306  -0.02646
 Alpha virt. eigenvalues --   -0.02401  -0.02091  -0.01504  -0.00911  -0.00857
 Alpha virt. eigenvalues --   -0.00438  -0.00263   0.00412   0.00529   0.00560

  Beta  occ. eigenvalues --  -38.45046 -38.44881 -38.44378 -38.43834 -38.43777
  Beta  occ. eigenvalues --  -38.43773 -38.43561  -2.20875  -2.20680  -2.20195
  Beta  occ. eigenvalues --   -2.19540  -2.19531  -2.19520  -2.19378  -1.14599
  Beta  occ. eigenvalues --   -1.14537  -1.14488  -1.14395  -1.14367  -1.14254
  Beta  occ. eigenvalues --   -1.13880  -1.13859  -1.13794  -1.13250  -1.13227
  Beta  occ. eigenvalues --   -1.13225  -1.13215  -1.13213  -1.13210  -1.13184
  Beta  occ. eigenvalues --   -1.13173  -1.13153  -1.13090  -1.13080  -1.12954
  Beta  occ. eigenvalues --   -0.16640  -0.12880  -0.12074
  Beta virt. eigenvalues --   -0.06902  -0.06189  -0.05722  -0.04583  -0.02909
  Beta virt. eigenvalues --   -0.02441  -0.02122  -0.01794  -0.01299  -0.00752
  Beta virt. eigenvalues --   -0.00602  -0.00151   0.00029   0.00546   0.00594

 Mulliken charges and spin densities:
               1          2
     1  Na   0.055092  -0.000926
     2  Na   0.243099  -0.076131
     3  Na   0.128527   0.014305
     4  Na  -0.749655   0.125171
     5  Na   0.427827   0.328941
     6  Na  -0.075396   0.543170
     7  Na  -0.029494   0.065470
 Sum of Mulliken charges =  -0.00000   1.00000

 Dipole moment (field-independent basis, Debye):
    X=              0.5952    Y=              1.0242    Z=              0.1200  Tot=              1.1906
 Quadrupole moment (field-independent basis, Debye-Ang):
   XX=            -71.1146   YY=            -65.4124   ZZ=            -67.0919
   XY=              1.6186   XZ=              1.8772   YZ=             -1.6733

 Normal termination of Gaussian 16 at Wed Nov 29 00:57:27 2023.
