 Gaussian 16, Revision B.01,
 Gaussian 16:  ES64L-G16RevB.01 20-Dec-2017

 -------------------------
 #P B3LYP/6-311+g(d) force
 -------------------------

 -----
 DPGEN
 -----
 Symbolic Z-matrix:
 Charge =  0 Multiplicity = 2

                         Standard orientation:
 ---------------------------------------------------------------------
 Center     Atomic      Atomic             Coordinates (Angstroms)
 Number     Number       Type             X           Y           Z
 ---------------------------------------------------------------------
      1         11           0        0.309516    0.882129   -1.585576
      2         11           0        2.227362    2.085127    0.493127
      3         11           0        2.703289   -1.662273   -0.337540
      4         11           0       -3.034826   -0.857854    0.296569
      5         11           0       -1.787533    2.343278   -0.389597
      6         11           0       -0.486568   -2.437032   -0.727044
      7         11           0        0.068761   -0.353375    2.250062
 ---------------------------------------------------------------------

 SCF Done:  E(UB3LYP) =  -1136.13006444     A.U. after   18 cycles

 The electronic state is 2-A.
 Alpha  occ. eigenvalues --  -38.44244 -38.44098 -38.43880 -38.43847 -38.43808
 Alpha  occ. eigenvalues --  -38.43441 -38.43172  -2.20087  -2.19931  -2.19718
 Alpha  occ. eigenvalues --   -2.19698  -2.19650  -2.19438  -2.19067  -1.13744
 Alpha  occ. eigenvalues --   -1.13720  -1.13706  -1.13651  -1.13592  -1.13583
 Alpha  occ. eigenvalues --   -1.13545  -1.13377  -1.13362  -1.13355  -1.13346
 Alpha  occ. eigenvalues --   -1.13334  -1.13329  -1.13306  -1.13270  -1.13076
 Alpha  occ. eigenvalues --   -1.13059  -1.13024  -1.12742  -1.12715  -1.12705
 Alpha  occ. eigenvalues --   -0.18535  -0.12929  -0.12475  -0.11199
 Alpha virt. eigenvalues --   -0.05610  -0.05351  -0.04256  -0.03472  -0.03175
 Alpha virt. eigenvalues --   -0.02840  -0.01438  -0.01172  -0.00303  -0.00045
 Alpha virt. eigenvalues --    0.00015   0.00353   0.00750   0.00804   0.00910

  Beta  occ. eigenvalues --  -38.44146 -38.44087 -38.43874 -38.43838 -38.43806
  Beta  occ. eigenvalues --  -38.43393 -38.43155  -2.19914  -2.19905  -2.19705
  Beta  occ. eigenvalues --   -2.19690  -2.19648  -2.19351  -2.19037  -1.13640
  Beta  occ. eigenvalues --   -1.13622  -1.13596  -1.13578  -1.13562  -1.13551
  Beta  occ. eigenvalues --   -1.13534  -1.13367  -1.13348  -1.13346  -1.13338
  Beta  occ. eigenvalues --   -1.13326  -1.13320  -1.13288  -1.13267  -1.13019
  Beta  occ. eigenvalues --   -1.12998  -1.12964  -1.12722  -1.12692  -1.12671
  Beta  occ. eigenvalues --   -0.17819  -0.12736  -0.12223
  Beta virt. eigenvalues --   -0.07264  -0.05569  -0.05255  -0.04155  -0.02728
  Beta virt. eigenvalues --   -0.02439  -0.01822  -0.01343  -0.01091  -0.00288
  Beta virt. eigenvalues --   -0.00010   0.00104   0.00396   0.00821   0.00850

 Mulliken charges and spin densities:
               1          2
     1  Na   0.152141   0.112578
     2  Na  -0.035300   0.046209
     3  Na   0.138384  -0.023278
     4  Na   0.049040   0.066667
     5  Na   0.182867   0.017009
     6  Na  -0.007636   0.132515
     7  Na  -0.479497   0.648301
 Sum of Mulliken charges =  -0.00000   1.00000

 Dipole moment (field-independent basis, Debye):
    X=              0.2527    Y=              0.1405    Z=              0.4381  Tot=              0.5249
 Quadrupole moment (field-independent basis, Debye-Ang):
   XX=            -57.0523   YY=            -66.5003   ZZ=            -71.7440
   XY=              0.0296   XZ=              0.0875   YZ=              1.9983

 Normal termination of Gaussian 16 at Thu Dec  7 21:13:01 2023.
