 Gaussian 16, Revision B.01,
 Gaussian 16:  ES64L-G16RevB.01 20-Dec-2017

 -------------------------
 #P B3LYP/6-311+g(d) force
 -------------------------

 -----
 DPGEN
 -----
 Symbolic Z-matrix:
 Charge =  0 Multiplicity = 2

                         Standard orientation:
 ---------------------------------------------------------------------
 Center     Atomic      Atomic             Coordinates (Angstroms)
 Number     Number       Type             X           Y           Z
 ---------------------------------------------------------------------
      1         11           0       -3.149531   -1.544290   -0.681351
      2         11           0       -1.788867   -0.689137    2.091773
      3         11           0       -2.231817    1.360492   -0.915228
      4         11           0        0.254783    2.951274    0.246877
      5         11           0        2.879272   -2.634464   -0.154058
      6         11           0        0.521853   -0.607802   -0.668508
      7         11           0        3.514308    1.163927    0.080495
 ---------------------------------------------------------------------

 SCF Done:  E(UB3LYP) =  -1136.11985658     A.U. after   24 cycles

 The electronic state is 2-A.
 Alpha  occ. eigenvalues --  -38.45717 -38.44486 -38.44140 -38.43686 -38.43601
 Alpha  occ. eigenvalues --  -38.43453 -38.42911  -2.21473  -2.20368  -2.19937
 Alpha  occ. eigenvalues --   -2.19613  -2.19551  -2.19334  -2.18743  -1.15164
 Alpha  occ. eigenvalues --   -1.15137  -1.15087  -1.14071  -1.14024  -1.14005
 Alpha  occ. eigenvalues --   -1.13645  -1.13593  -1.13561  -1.13326  -1.13292
 Alpha  occ. eigenvalues --   -1.13248  -1.13209  -1.13197  -1.13179  -1.12978
 Alpha  occ. eigenvalues --   -1.12960  -1.12952  -1.12425  -1.12397  -1.12386
 Alpha  occ. eigenvalues --   -0.18016  -0.14040  -0.11950  -0.10137
 Alpha virt. eigenvalues --   -0.06960  -0.05764  -0.04396  -0.03294  -0.02486
 Alpha virt. eigenvalues --   -0.02388  -0.01883  -0.01450  -0.01166  -0.00366
 Alpha virt. eigenvalues --   -0.00178   0.00192   0.00446   0.00606   0.00623

  Beta  occ. eigenvalues --  -38.45720 -38.44466 -38.44138 -38.43674 -38.43558
  Beta  occ. eigenvalues --  -38.43350 -38.42908  -2.21479  -2.20338  -2.19934
  Beta  occ. eigenvalues --   -2.19595  -2.19475  -2.19142  -2.18740  -1.15166
  Beta  occ. eigenvalues --   -1.15140  -1.15091  -1.14052  -1.13991  -1.13957
  Beta  occ. eigenvalues --   -1.13641  -1.13588  -1.13559  -1.13285  -1.13276
  Beta  occ. eigenvalues --   -1.13235  -1.13162  -1.13144  -1.13112  -1.12845
  Beta  occ. eigenvalues --   -1.12833  -1.12819  -1.12421  -1.12386  -1.12384
  Beta  occ. eigenvalues --   -0.17424  -0.13807  -0.11783
  Beta virt. eigenvalues --   -0.06902  -0.06135  -0.05564  -0.04346  -0.02805
  Beta virt. eigenvalues --   -0.02376  -0.01730  -0.01500  -0.01135  -0.00994
  Beta virt. eigenvalues --   -0.00273   0.00142   0.00274   0.00559   0.00663

 Mulliken charges and spin densities:
               1          2
     1  Na   0.826345   0.128404
     2  Na  -0.599642   0.522253
     3  Na   1.422069   0.238839
     4  Na   0.032897   0.005432
     5  Na   0.457642  -0.085651
     6  Na  -2.457031   0.219178
     7  Na   0.317720  -0.028456
 Sum of Mulliken charges =  -0.00000   1.00000

 Dipole moment (field-independent basis, Debye):
    X=              1.2391    Y=             -0.2916    Z=              0.0787  Tot=              1.2753
 Quadrupole moment (field-independent basis, Debye-Ang):
   XX=            -50.7432   YY=            -64.9433   ZZ=            -77.0939
   XY=              3.2089   XZ=              2.9564   YZ=              1.9136

 Normal termination of Gaussian 16 at Tue Dec  5 21:49:13 2023.
