 Gaussian 16, Revision B.01,
 Gaussian 16:  ES64L-G16RevB.01 20-Dec-2017

 -------------------------
 #P B3LYP/6-311+g(d) force
 -------------------------

 -----
 DPGEN
 -----
 Symbolic Z-matrix:
 Charge =  0 Multiplicity = 2

                         Standard orientation:
 ---------------------------------------------------------------------
 Center     Atomic      Atomic             Coordinates (Angstroms)
 Number     Number       Type             X           Y           Z
 ---------------------------------------------------------------------
      1         11           0        0.210429   -0.386469    1.867835
      2         11           0        3.632159   -1.189379   -0.134081
      3         11           0       -2.746791   -0.501788   -1.740442
      4         11           0       -0.787191    1.744344   -0.649937
      5         11           0        2.921860    2.134107   -0.173611
      6         11           0       -3.639541    0.272372    1.242563
      7         11           0        0.409075   -2.073186   -0.412327
 ---------------------------------------------------------------------

 SCF Done:  E(UB3LYP) =  -1136.11069871     A.U. after   26 cycles

 The electronic state is 2-A.
 Alpha  occ. eigenvalues --  -38.45917 -38.45556 -38.44528 -38.44264 -38.44049
 Alpha  occ. eigenvalues --  -38.42949 -38.42798  -2.21719  -2.21352  -2.20430
 Alpha  occ. eigenvalues --   -2.20158  -2.19903  -2.18737  -2.18702  -1.15402
 Alpha  occ. eigenvalues --   -1.15364  -1.15347  -1.15039  -1.15001  -1.14979
 Alpha  occ. eigenvalues --   -1.14196  -1.14071  -1.14002  -1.13856  -1.13799
 Alpha  occ. eigenvalues --   -1.13767  -1.13606  -1.13588  -1.13488  -1.12440
 Alpha  occ. eigenvalues --   -1.12413  -1.12405  -1.12384  -1.12344  -1.12294
 Alpha  occ. eigenvalues --   -0.18266  -0.14281  -0.11026  -0.10905
 Alpha virt. eigenvalues --   -0.07760  -0.05295  -0.04507  -0.03406  -0.02985
 Alpha virt. eigenvalues --   -0.02490  -0.02048  -0.01383  -0.01027  -0.00131
 Alpha virt. eigenvalues --   -0.00043   0.00172   0.00227   0.00543   0.00665

  Beta  occ. eigenvalues --  -38.45892 -38.45553 -38.44464 -38.44196 -38.44029
  Beta  occ. eigenvalues --  -38.42956 -38.42789  -2.21674  -2.21346  -2.20313
  Beta  occ. eigenvalues --   -2.20033  -2.19870  -2.18751  -2.18688  -1.15362
  Beta  occ. eigenvalues --   -1.15332  -1.15308  -1.15032  -1.14997  -1.14979
  Beta  occ. eigenvalues --   -1.14121  -1.13987  -1.13910  -1.13767  -1.13716
  Beta  occ. eigenvalues --   -1.13678  -1.13585  -1.13527  -1.13470  -1.12422
  Beta  occ. eigenvalues --   -1.12420  -1.12415  -1.12393  -1.12326  -1.12282
  Beta  occ. eigenvalues --   -0.17572  -0.14111  -0.10802
  Beta virt. eigenvalues --   -0.07591  -0.07087  -0.05091  -0.03934  -0.03253
  Beta virt. eigenvalues --   -0.02766  -0.01740  -0.01518  -0.01241  -0.00656
  Beta virt. eigenvalues --   -0.00052  -0.00010   0.00202   0.00410   0.00654

 Mulliken charges and spin densities:
               1          2
     1  Na   0.099880   0.512175
     2  Na   0.428662  -0.010201
     3  Na   0.846348   0.305741
     4  Na  -0.696975   0.239326
     5  Na  -0.253775  -0.097656
     6  Na   0.099922  -0.002081
     7  Na  -0.524063   0.052697
 Sum of Mulliken charges =  -0.00000   1.00000

 Dipole moment (field-independent basis, Debye):
    X=             -0.7990    Y=             -0.7068    Z=              0.4906  Tot=              1.1741
 Quadrupole moment (field-independent basis, Debye-Ang):
   XX=            -43.2208   YY=            -79.5475   ZZ=            -71.0775
   XY=             -3.6910   XZ=             -2.4022   YZ=              2.4393

 Normal termination of Gaussian 16 at Tue Dec  5 16:28:40 2023.
