 Gaussian 16, Revision B.01,
 Gaussian 16:  ES64L-G16RevB.01 20-Dec-2017

 -------------------------
 #P B3LYP/6-311+g(d) force
 -------------------------

 -----
 DPGEN
 -----
 Symbolic Z-matrix:
 Charge =  0 Multiplicity = 2

                         Standard orientation:
 ---------------------------------------------------------------------
 Center     Atomic      Atomic             Coordinates (Angstroms)
 Number     Number       Type             X           Y           Z
 ---------------------------------------------------------------------
      1         11           0        1.409725   -1.223624    1.766848
      2         11           0        0.690809    0.606142   -1.385580
      3         11           0        2.391618    2.111281    0.825282
      4         11           0       -1.273205    2.686370   -0.414295
      5         11           0       -4.583109   -1.175905   -0.271222
      6         11           0       -1.981474   -0.814520    0.663529
      7         11           0        3.345635   -2.189744   -1.184563
 ---------------------------------------------------------------------

 SCF Done:  E(UB3LYP) =  -1136.11069520     A.U. after   23 cycles

 The electronic state is 2-A.
 Alpha  occ. eigenvalues --  -38.45481 -38.45129 -38.43925 -38.43842 -38.43797
 Alpha  occ. eigenvalues --  -38.43711 -38.43470  -2.21294  -2.20945  -2.19763
 Alpha  occ. eigenvalues --   -2.19738  -2.19631  -2.19611  -2.19311  -1.14989
 Alpha  occ. eigenvalues --   -1.14946  -1.14896  -1.14718  -1.14577  -1.14565
 Alpha  occ. eigenvalues --   -1.13554  -1.13436  -1.13429  -1.13396  -1.13367
 Alpha  occ. eigenvalues --   -1.13298  -1.13288  -1.13284  -1.13270  -1.13261
 Alpha  occ. eigenvalues --   -1.13242  -1.13225  -1.12996  -1.12961  -1.12927
 Alpha  occ. eigenvalues --   -0.17763  -0.13544  -0.12000  -0.10534
 Alpha virt. eigenvalues --   -0.07349  -0.05496  -0.03914  -0.03423  -0.02849
 Alpha virt. eigenvalues --   -0.02489  -0.02034  -0.01651  -0.00851  -0.00644
 Alpha virt. eigenvalues --   -0.00158   0.00075   0.00257   0.00482   0.00584

  Beta  occ. eigenvalues --  -38.45448 -38.45139 -38.43919 -38.43778 -38.43764
  Beta  occ. eigenvalues --  -38.43700 -38.43427  -2.21234  -2.20965  -2.19752
  Beta  occ. eigenvalues --   -2.19681  -2.19590  -2.19511  -2.19234  -1.14947
  Beta  occ. eigenvalues --   -1.14894  -1.14855  -1.14731  -1.14590  -1.14577
  Beta  occ. eigenvalues --   -1.13531  -1.13413  -1.13397  -1.13363  -1.13348
  Beta  occ. eigenvalues --   -1.13286  -1.13241  -1.13239  -1.13206  -1.13205
  Beta  occ. eigenvalues --   -1.13191  -1.13168  -1.12946  -1.12904  -1.12860
  Beta  occ. eigenvalues --   -0.17213  -0.13381  -0.11701
  Beta virt. eigenvalues --   -0.07079  -0.06824  -0.05250  -0.03503  -0.03274
  Beta virt. eigenvalues --   -0.02636  -0.02189  -0.01406  -0.01288  -0.00738
  Beta virt. eigenvalues --   -0.00322  -0.00082   0.00204   0.00380   0.00544

 Mulliken charges and spin densities:
               1          2
     1  Na   0.595512   0.059460
     2  Na  -0.919869   0.137015
     3  Na   0.126472   0.230377
     4  Na   0.953258   0.045615
     5  Na  -0.071654   0.022238
     6  Na  -0.648752   0.223045
     7  Na  -0.034968   0.282250
 Sum of Mulliken charges =  -0.00000   1.00000

 Dipole moment (field-independent basis, Debye):
    X=             -0.5058    Y=              1.0641    Z=              0.1403  Tot=              1.1865
 Quadrupole moment (field-independent basis, Debye-Ang):
   XX=            -50.9359   YY=            -67.5581   ZZ=            -74.3898
   XY=              2.9172   XZ=              3.9875   YZ=              2.9850

 Normal termination of Gaussian 16 at Fri Dec  8 20:17:43 2023.
