 Gaussian 16, Revision B.01,
 Gaussian 16:  ES64L-G16RevB.01 20-Dec-2017

 -------------------------
 #P B3LYP/6-311+g(d) force
 -------------------------

 -----
 DPGEN
 -----
 Symbolic Z-matrix:
 Charge =  0 Multiplicity = 2

                         Standard orientation:
 ---------------------------------------------------------------------
 Center     Atomic      Atomic             Coordinates (Angstroms)
 Number     Number       Type             X           Y           Z
 ---------------------------------------------------------------------
      1         11           0        1.694457    2.763452   -0.476368
      2         11           0       -0.577776   -0.158322   -1.413777
      3         11           0       -2.029796    2.126955    0.404102
      4         11           0        0.360609   -2.832820    0.304949
      5         11           0       -3.090201   -1.066050   -0.293910
      6         11           0        2.941332   -0.957657   -0.554545
      7         11           0        0.701375    0.124442    2.029550
 ---------------------------------------------------------------------

 SCF Done:  E(UB3LYP) =  -1136.13357719     A.U. after   21 cycles

 The electronic state is 2-A.
 Alpha  occ. eigenvalues --  -38.44099 -38.43935 -38.43920 -38.43750 -38.43437
 Alpha  occ. eigenvalues --  -38.43410 -38.43190  -2.19931  -2.19805  -2.19761
 Alpha  occ. eigenvalues --   -2.19532  -2.19321  -2.19283  -2.19204  -1.13604
 Alpha  occ. eigenvalues --   -1.13594  -1.13585  -1.13569  -1.13469  -1.13441
 Alpha  occ. eigenvalues --   -1.13426  -1.13421  -1.13363  -1.13208  -1.13184
 Alpha  occ. eigenvalues --   -1.13174  -1.13018  -1.12975  -1.12959  -1.12952
 Alpha  occ. eigenvalues --   -1.12921  -1.12902  -1.12873  -1.12829  -1.12815
 Alpha  occ. eigenvalues --   -0.18468  -0.13192  -0.12375  -0.10508
 Alpha virt. eigenvalues --   -0.05597  -0.05346  -0.04838  -0.03267  -0.02902
 Alpha virt. eigenvalues --   -0.02253  -0.01517  -0.01231  -0.00516  -0.00399
 Alpha virt. eigenvalues --   -0.00001   0.00336   0.00774   0.00829   0.00864

  Beta  occ. eigenvalues --  -38.44085 -38.43931 -38.43911 -38.43741 -38.43401
  Beta  occ. eigenvalues --  -38.43348 -38.43146  -2.19908  -2.19799  -2.19748
  Beta  occ. eigenvalues --   -2.19518  -2.19270  -2.19158  -2.19125  -1.13587
  Beta  occ. eigenvalues --   -1.13573  -1.13569  -1.13547  -1.13461  -1.13427
  Beta  occ. eigenvalues --   -1.13419  -1.13398  -1.13358  -1.13190  -1.13177
  Beta  occ. eigenvalues --   -1.13159  -1.12983  -1.12921  -1.12906  -1.12878
  Beta  occ. eigenvalues --   -1.12836  -1.12812  -1.12804  -1.12772  -1.12765
  Beta  occ. eigenvalues --   -0.17793  -0.12959  -0.12148
  Beta virt. eigenvalues --   -0.06681  -0.05536  -0.05244  -0.04764  -0.02551
  Beta virt. eigenvalues --   -0.02204  -0.01449  -0.01260  -0.01172  -0.00472
  Beta virt. eigenvalues --   -0.00416   0.00148   0.00388   0.00834   0.00839

 Mulliken charges and spin densities:
               1          2
     1  Na  -0.137112   0.004248
     2  Na  -0.172286   0.345818
     3  Na   0.010638  -0.004772
     4  Na   0.213965   0.048388
     5  Na   0.408673   0.001610
     6  Na  -0.002683   0.035207
     7  Na  -0.321194   0.569502
 Sum of Mulliken charges =  -0.00000   1.00000

 Dipole moment (field-independent basis, Debye):
    X=             -0.0359    Y=              0.0269    Z=              0.1539  Tot=              0.1604
 Quadrupole moment (field-independent basis, Debye-Ang):
   XX=            -56.4478   YY=            -61.5795   ZZ=            -74.9623
   XY=              0.0648   XZ=             -2.5114   YZ=             -0.3790

 Normal termination of Gaussian 16 at Thu Dec  7 10:26:56 2023.
