 Gaussian 16, Revision B.01,
 Gaussian 16:  ES64L-G16RevB.01 20-Dec-2017

 -------------------------
 #P B3LYP/6-311+g(d) force
 -------------------------

 -----
 DPGEN
 -----
 Symbolic Z-matrix:
 Charge =  0 Multiplicity = 2

                         Standard orientation:
 ---------------------------------------------------------------------
 Center     Atomic      Atomic             Coordinates (Angstroms)
 Number     Number       Type             X           Y           Z
 ---------------------------------------------------------------------
      1         11           0       -3.969901   -0.771953    0.407172
      2         11           0       -0.204013   -0.875146    2.032798
      3         11           0       -2.431976    2.107773    0.120792
      4         11           0        0.904343    1.842709   -0.961743
      5         11           0        3.993432    0.999694    0.540608
      6         11           0        2.571792   -1.929433   -0.236408
      7         11           0       -0.863678   -1.373644   -1.903218
 ---------------------------------------------------------------------

 SCF Done:  E(UB3LYP) =  -1136.11429413     A.U. after   31 cycles

 The electronic state is 2-A.
 Alpha  occ. eigenvalues --  -38.45789 -38.45314 -38.44647 -38.44076 -38.44052
 Alpha  occ. eigenvalues --  -38.43656 -38.42934  -2.21528  -2.21101  -2.20446
 Alpha  occ. eigenvalues --   -2.19876  -2.19865  -2.19469  -2.18752  -1.15217
 Alpha  occ. eigenvalues --   -1.15182  -1.15145  -1.14767  -1.14765  -1.14727
 Alpha  occ. eigenvalues --   -1.14117  -1.14092  -1.14082  -1.13552  -1.13541
 Alpha  occ. eigenvalues --   -1.13529  -1.13522  -1.13498  -1.13482  -1.13151
 Alpha  occ. eigenvalues --   -1.13129  -1.13118  -1.12447  -1.12419  -1.12375
 Alpha  occ. eigenvalues --   -0.17434  -0.14013  -0.10982  -0.10871
 Alpha virt. eigenvalues --   -0.07591  -0.05741  -0.04231  -0.03300  -0.03095
 Alpha virt. eigenvalues --   -0.02597  -0.02479  -0.01497  -0.00970  -0.00623
 Alpha virt. eigenvalues --   -0.00144   0.00104   0.00189   0.00547   0.00598

  Beta  occ. eigenvalues --  -38.45764 -38.45294 -38.44620 -38.44074 -38.43964
  Beta  occ. eigenvalues --  -38.43652 -38.42912  -2.21482  -2.21063  -2.20395
  Beta  occ. eigenvalues --   -2.19877  -2.19704  -2.19463  -2.18714  -1.15185
  Beta  occ. eigenvalues --   -1.15148  -1.15111  -1.14744  -1.14728  -1.14704
  Beta  occ. eigenvalues --   -1.14084  -1.14054  -1.14050  -1.13547  -1.13544
  Beta  occ. eigenvalues --   -1.13506  -1.13412  -1.13387  -1.13370  -1.13151
  Beta  occ. eigenvalues --   -1.13128  -1.13092  -1.12426  -1.12378  -1.12344
  Beta  occ. eigenvalues --   -0.16804  -0.13656  -0.10744
  Beta virt. eigenvalues --   -0.07419  -0.07154  -0.05702  -0.03680  -0.02954
  Beta virt. eigenvalues --   -0.02921  -0.02098  -0.01840  -0.01426  -0.00592
  Beta virt. eigenvalues --   -0.00552  -0.00052   0.00115   0.00341   0.00636

 Mulliken charges and spin densities:
               1          2
     1  Na   0.334288   0.188958
     2  Na  -0.188823   0.133146
     3  Na  -0.085051  -0.006096
     4  Na  -0.418440   0.067057
     5  Na   0.364327   0.164621
     6  Na   0.112104   0.068836
     7  Na  -0.118404   0.383478
 Sum of Mulliken charges =  -0.00000   1.00000

 Dipole moment (field-independent basis, Debye):
    X=             -0.4090    Y=             -0.8213    Z=              0.5653  Tot=              1.0776
 Quadrupole moment (field-independent basis, Debye-Ang):
   XX=            -49.7469   YY=            -77.5246   ZZ=            -69.5508
   XY=              1.5064   XZ=              1.7115   YZ=              3.6313

 Normal termination of Gaussian 16 at Sun Dec  3 21:48:11 2023.
