 Gaussian 16, Revision B.01,
 Gaussian 16:  ES64L-G16RevB.01 20-Dec-2017

 -------------------------
 #P B3LYP/6-311+g(d) force
 -------------------------

 -----
 DPGEN
 -----
 Symbolic Z-matrix:
 Charge =  0 Multiplicity = 2

                         Standard orientation:
 ---------------------------------------------------------------------
 Center     Atomic      Atomic             Coordinates (Angstroms)
 Number     Number       Type             X           Y           Z
 ---------------------------------------------------------------------
      1         11           0       -0.837169   -1.436457    1.383629
      2         11           0        2.119166   -0.316525    1.791467
      3         11           0       -0.507097    2.244612    0.672091
      4         11           0       -3.964116    0.203383    0.058113
      5         11           0        2.758265    1.407029   -1.022910
      6         11           0        1.794415   -1.689217   -1.005573
      7         11           0       -1.363465   -0.412825   -1.876817
 ---------------------------------------------------------------------

 SCF Done:  E(UB3LYP) =  -1136.12424447     A.U. after   25 cycles

 The electronic state is 2-A.
 Alpha  occ. eigenvalues --  -38.45321 -38.44478 -38.44168 -38.43627 -38.43328
 Alpha  occ. eigenvalues --  -38.43263 -38.43149  -2.21106  -2.20345  -2.20099
 Alpha  occ. eigenvalues --   -2.19477  -2.19170  -2.19120  -2.19074  -1.14793
 Alpha  occ. eigenvalues --   -1.14757  -1.14735  -1.14027  -1.13983  -1.13965
 Alpha  occ. eigenvalues --   -1.13793  -1.13778  -1.13694  -1.13164  -1.13138
 Alpha  occ. eigenvalues --   -1.13095  -1.12875  -1.12825  -1.12819  -1.12808
 Alpha  occ. eigenvalues --   -1.12775  -1.12742  -1.12740  -1.12718  -1.12688
 Alpha  occ. eigenvalues --   -0.18561  -0.13953  -0.11775  -0.10839
 Alpha virt. eigenvalues --   -0.06814  -0.04986  -0.04433  -0.03276  -0.02782
 Alpha virt. eigenvalues --   -0.02606  -0.02381  -0.00861  -0.00589  -0.00154
 Alpha virt. eigenvalues --    0.00121   0.00251   0.00335   0.00765   0.00807

  Beta  occ. eigenvalues --  -38.45322 -38.44429 -38.44120 -38.43604 -38.43317
  Beta  occ. eigenvalues --  -38.43217 -38.43121  -2.21110  -2.20254  -2.20014
  Beta  occ. eigenvalues --   -2.19436  -2.19103  -2.19089  -2.19025  -1.14787
  Beta  occ. eigenvalues --   -1.14762  -1.14738  -1.13968  -1.13921  -1.13893
  Beta  occ. eigenvalues --   -1.13736  -1.13703  -1.13634  -1.13135  -1.13103
  Beta  occ. eigenvalues --   -1.13066  -1.12826  -1.12805  -1.12778  -1.12744
  Beta  occ. eigenvalues --   -1.12725  -1.12712  -1.12708  -1.12693  -1.12638
  Beta  occ. eigenvalues --   -0.17784  -0.13795  -0.10660
  Beta virt. eigenvalues --   -0.07744  -0.06620  -0.04457  -0.04254  -0.02953
  Beta virt. eigenvalues --   -0.02369  -0.02112  -0.01849  -0.00556  -0.00399
  Beta virt. eigenvalues --   -0.00060   0.00224   0.00336   0.00347   0.00830

 Mulliken charges and spin densities:
               1          2
     1  Na  -0.327096   0.262225
     2  Na   0.356314   0.234466
     3  Na  -0.522989   0.007175
     4  Na   0.458508  -0.027292
     5  Na  -0.043803   0.019783
     6  Na   0.150471   0.342742
     7  Na  -0.071405   0.160902
 Sum of Mulliken charges =  -0.00000   1.00000

 Dipole moment (field-independent basis, Debye):
    X=             -1.3116    Y=             -0.1341    Z=             -0.0397  Tot=              1.3190
 Quadrupole moment (field-independent basis, Debye-Ang):
   XX=            -48.5270   YY=            -80.0648   ZZ=            -65.6381
   XY=             -0.9339   XZ=             -1.0302   YZ=             -0.0378

 Normal termination of Gaussian 16 at Fri Dec  8 03:54:09 2023.
