 Gaussian 16, Revision B.01,
 Gaussian 16:  ES64L-G16RevB.01 20-Dec-2017

 -------------------------
 #P B3LYP/6-311+g(d) force
 -------------------------

 -----
 DPGEN
 -----
 Symbolic Z-matrix:
 Charge =  0 Multiplicity = 2

                         Standard orientation:
 ---------------------------------------------------------------------
 Center     Atomic      Atomic             Coordinates (Angstroms)
 Number     Number       Type             X           Y           Z
 ---------------------------------------------------------------------
      1         11           0       -0.696874    3.201141    0.791111
      2         11           0       -1.410125   -0.430420    1.550591
      3         11           0       -2.033962    1.058796   -1.476607
      4         11           0        1.460863   -1.869100    1.206340
      5         11           0        4.125589   -0.207973   -0.900539
      6         11           0       -2.584763   -2.514053   -0.811323
      7         11           0        1.139272    0.761608   -0.359573
 ---------------------------------------------------------------------

 SCF Done:  E(UB3LYP) =  -1136.12759412     A.U. after   20 cycles

 The electronic state is 2-A.
 Alpha  occ. eigenvalues --  -38.44014 -38.43973 -38.43970 -38.43707 -38.43591
 Alpha  occ. eigenvalues --  -38.43380 -38.43040  -2.19897  -2.19841  -2.19790
 Alpha  occ. eigenvalues --   -2.19506  -2.19438  -2.19333  -2.19045  -1.13603
 Alpha  occ. eigenvalues --   -1.13589  -1.13567  -1.13492  -1.13481  -1.13467
 Alpha  occ. eigenvalues --   -1.13439  -1.13437  -1.13397  -1.13180  -1.13155
 Alpha  occ. eigenvalues --   -1.13149  -1.13121  -1.13090  -1.13070  -1.13038
 Alpha  occ. eigenvalues --   -1.12980  -1.12928  -1.12752  -1.12732  -1.12636
 Alpha  occ. eigenvalues --   -0.18233  -0.13358  -0.12277  -0.10842
 Alpha virt. eigenvalues --   -0.05891  -0.04880  -0.04755  -0.03347  -0.02946
 Alpha virt. eigenvalues --   -0.02003  -0.01757  -0.01403  -0.00622  -0.00133
 Alpha virt. eigenvalues --    0.00099   0.00243   0.00511   0.00648   0.00818

  Beta  occ. eigenvalues --  -38.43972 -38.43935 -38.43934 -38.43688 -38.43583
  Beta  occ. eigenvalues --  -38.43334 -38.43029  -2.19820  -2.19782  -2.19717
  Beta  occ. eigenvalues --   -2.19471  -2.19424  -2.19253  -2.19029  -1.13552
  Beta  occ. eigenvalues --   -1.13546  -1.13517  -1.13444  -1.13418  -1.13414
  Beta  occ. eigenvalues --   -1.13389  -1.13387  -1.13351  -1.13159  -1.13132
  Beta  occ. eigenvalues --   -1.13112  -1.13111  -1.13071  -1.13060  -1.12985
  Beta  occ. eigenvalues --   -1.12900  -1.12871  -1.12732  -1.12698  -1.12625
  Beta  occ. eigenvalues --   -0.17584  -0.12952  -0.12025
  Beta virt. eigenvalues --   -0.07234  -0.05505  -0.04723  -0.04531  -0.02879
  Beta virt. eigenvalues --   -0.02508  -0.01599  -0.01430  -0.01233  -0.00366
  Beta virt. eigenvalues --    0.00019   0.00249   0.00366   0.00638   0.00760

 Mulliken charges and spin densities:
               1          2
     1  Na   0.933433  -0.154313
     2  Na   0.430421   0.190840
     3  Na   0.310518   0.260805
     4  Na   0.144410  -0.064647
     5  Na  -0.071141   0.184888
     6  Na  -0.075542   0.146786
     7  Na  -1.672099   0.435641
 Sum of Mulliken charges =  -0.00000   1.00000

 Dipole moment (field-independent basis, Debye):
    X=              0.1296    Y=              0.0775    Z=              0.1745  Tot=              0.2307
 Quadrupole moment (field-independent basis, Debye-Ang):
   XX=            -61.4186   YY=            -62.1240   ZZ=            -68.7642
   XY=             -2.1667   XZ=             -0.7657   YZ=              2.0864

 Normal termination of Gaussian 16 at Tue Dec  5 20:55:48 2023.
