 Gaussian 16, Revision B.01,
 Gaussian 16:  ES64L-G16RevB.01 20-Dec-2017

 -------------------------
 #P B3LYP/6-311+g(d) force
 -------------------------

 -----
 DPGEN
 -----
 Symbolic Z-matrix:
 Charge =  0 Multiplicity = 2

                         Standard orientation:
 ---------------------------------------------------------------------
 Center     Atomic      Atomic             Coordinates (Angstroms)
 Number     Number       Type             X           Y           Z
 ---------------------------------------------------------------------
      1         11           0       -9.402118   -1.148800   -0.289850
      2         11           0       -6.257536   -0.716276    0.927034
      3         11           0       -3.280974    1.805083   -0.001968
      4         11           0        0.309606    1.555377   -0.352582
      5         11           0        3.135875   -0.168606   -0.691356
      6         11           0        8.754740   -0.184002    1.286532
      7         11           0        6.740407   -1.142777   -0.877810
 ---------------------------------------------------------------------

 SCF Done:  E(UB3LYP) =  -1136.10461509     A.U. after   20 cycles

 The electronic state is 2-A.
 Alpha  occ. eigenvalues --  -38.45165 -38.44959 -38.44929 -38.44511 -38.44424
 Alpha  occ. eigenvalues --  -38.44407 -38.43990  -2.20960  -2.20728  -2.20705
 Alpha  occ. eigenvalues --   -2.20312  -2.20218  -2.20150  -2.19755  -1.14619
 Alpha  occ. eigenvalues --   -1.14603  -1.14600  -1.14379  -1.14378  -1.14358
 Alpha  occ. eigenvalues --   -1.14353  -1.14348  -1.14309  -1.13964  -1.13964
 Alpha  occ. eigenvalues --   -1.13934  -1.13885  -1.13883  -1.13870  -1.13836
 Alpha  occ. eigenvalues --   -1.13828  -1.13791  -1.13440  -1.13437  -1.13410
 Alpha  occ. eigenvalues --   -0.14931  -0.14144  -0.12995  -0.11552
 Alpha virt. eigenvalues --   -0.07287  -0.05729  -0.03909  -0.03261  -0.03189
 Alpha virt. eigenvalues --   -0.02668  -0.02489  -0.02339  -0.01677  -0.01334
 Alpha virt. eigenvalues --   -0.01069  -0.00445  -0.00354   0.00064   0.00440

  Beta  occ. eigenvalues --  -38.45117 -38.44903 -38.44841 -38.44438 -38.44434
  Beta  occ. eigenvalues --  -38.44426 -38.44010  -2.20871  -2.20621  -2.20540
  Beta  occ. eigenvalues --   -2.20241  -2.20189  -2.20174  -2.19800  -1.14562
  Beta  occ. eigenvalues --   -1.14542  -1.14539  -1.14306  -1.14306  -1.14279
  Beta  occ. eigenvalues --   -1.14245  -1.14240  -1.14205  -1.13904  -1.13900
  Beta  occ. eigenvalues --   -1.13875  -1.13870  -1.13867  -1.13867  -1.13858
  Beta  occ. eigenvalues --   -1.13839  -1.13790  -1.13477  -1.13473  -1.13395
  Beta  occ. eigenvalues --   -0.14332  -0.13512  -0.12462
  Beta virt. eigenvalues --   -0.08525  -0.06796  -0.05297  -0.03627  -0.03100
  Beta virt. eigenvalues --   -0.02984  -0.02496  -0.02274  -0.02052  -0.01474
  Beta virt. eigenvalues --   -0.01025  -0.00682  -0.00211  -0.00115   0.00195

 Mulliken charges and spin densities:
               1          2
     1  Na   0.118654   0.273656
     2  Na  -0.164724  -0.083636
     3  Na   0.425963   0.420070
     4  Na   0.091766  -0.080510
     5  Na  -0.689072   0.291534
     6  Na   0.144432   0.211542
     7  Na   0.072979  -0.032656
 Sum of Mulliken charges =  -0.00000   1.00000

 Dipole moment (field-independent basis, Debye):
    X=              0.6678    Y=             -0.1595    Z=              0.2964  Tot=              0.7479
 Quadrupole moment (field-independent basis, Debye-Ang):
   XX=            -34.9728   YY=            -71.6157   ZZ=            -69.7211
   XY=              2.0818   XZ=              9.7692   YZ=              2.1853

 Normal termination of Gaussian 16 at Sun Dec  3 15:09:05 2023.
