 Gaussian 16, Revision B.01,
 Gaussian 16:  ES64L-G16RevB.01 20-Dec-2017

 -------------------------
 #P B3LYP/6-311+g(d) force
 -------------------------

 -----
 DPGEN
 -----
 Symbolic Z-matrix:
 Charge =  0 Multiplicity = 2

                         Standard orientation:
 ---------------------------------------------------------------------
 Center     Atomic      Atomic             Coordinates (Angstroms)
 Number     Number       Type             X           Y           Z
 ---------------------------------------------------------------------
      1         11           0        0.808899    0.036191   -1.666578
      2         11           0       -1.186265   -2.641472   -0.614958
      3         11           0        2.727335   -1.841040    0.189435
      4         11           0       -1.170111    2.832898   -0.247792
      5         11           0        2.205959    2.099762    0.118267
      6         11           0       -3.145440   -0.146050   -0.029304
      7         11           0       -0.240377   -0.340288    2.250930
 ---------------------------------------------------------------------

 SCF Done:  E(UB3LYP) =  -1136.13419625     A.U. after   19 cycles

 The electronic state is 2-A.
 Alpha  occ. eigenvalues --  -38.44131 -38.44014 -38.43997 -38.43760 -38.43699
 Alpha  occ. eigenvalues --  -38.43570 -38.43438  -2.19930  -2.19846  -2.19840
 Alpha  occ. eigenvalues --   -2.19587  -2.19537  -2.19382  -2.19377  -1.13617
 Alpha  occ. eigenvalues --   -1.13590  -1.13578  -1.13568  -1.13503  -1.13494
 Alpha  occ. eigenvalues --   -1.13475  -1.13464  -1.13455  -1.13302  -1.13250
 Alpha  occ. eigenvalues --   -1.13241  -1.13213  -1.13183  -1.13145  -1.13060
 Alpha  occ. eigenvalues --   -1.13051  -1.13039  -1.13022  -1.13017  -1.12990
 Alpha  occ. eigenvalues --   -0.18149  -0.12941  -0.12399  -0.10825
 Alpha virt. eigenvalues --   -0.05712  -0.05300  -0.04812  -0.03339  -0.02968
 Alpha virt. eigenvalues --   -0.02747  -0.01444  -0.01182  -0.00539  -0.00399
 Alpha virt. eigenvalues --   -0.00054   0.00361   0.00788   0.00822   0.00865

  Beta  occ. eigenvalues --  -38.44128 -38.43994 -38.43912 -38.43758 -38.43683
  Beta  occ. eigenvalues --  -38.43569 -38.43387  -2.19928  -2.19839  -2.19655
  Beta  occ. eigenvalues --   -2.19587  -2.19511  -2.19377  -2.19287  -1.13611
  Beta  occ. eigenvalues --   -1.13574  -1.13573  -1.13564  -1.13484  -1.13453
  Beta  occ. eigenvalues --   -1.13371  -1.13345  -1.13329  -1.13297  -1.13243
  Beta  occ. eigenvalues --   -1.13230  -1.13186  -1.13156  -1.13133  -1.13049
  Beta  occ. eigenvalues --   -1.13036  -1.13016  -1.12987  -1.12956  -1.12925
  Beta  occ. eigenvalues --   -0.17449  -0.12757  -0.12205
  Beta virt. eigenvalues --   -0.06909  -0.05706  -0.05205  -0.04695  -0.02592
  Beta virt. eigenvalues --   -0.02267  -0.01701  -0.01358  -0.01104  -0.00574
  Beta virt. eigenvalues --   -0.00430   0.00116   0.00407   0.00822   0.00873

 Mulliken charges and spin densities:
               1          2
     1  Na   0.144569   0.313668
     2  Na   0.121356  -0.010486
     3  Na   0.095079  -0.039872
     4  Na  -0.070021  -0.056599
     5  Na   0.185987   0.014001
     6  Na   0.034641   0.009169
     7  Na  -0.511609   0.770120
 Sum of Mulliken charges =  -0.00000   1.00000

 Dipole moment (field-independent basis, Debye):
    X=              0.3289    Y=             -0.0850    Z=              0.1739  Tot=              0.3816
 Quadrupole moment (field-independent basis, Debye-Ang):
   XX=            -58.6146   YY=            -62.7245   ZZ=            -73.6681
   XY=             -1.0242   XZ=              1.9362   YZ=              0.6440

 Normal termination of Gaussian 16 at Thu Dec  7 21:46:09 2023.
