 Gaussian 16, Revision B.01,
 Gaussian 16:  ES64L-G16RevB.01 20-Dec-2017

 -------------------------
 #P B3LYP/6-311+g(d) force
 -------------------------

 -----
 DPGEN
 -----
 Symbolic Z-matrix:
 Charge =  0 Multiplicity = 2

                         Standard orientation:
 ---------------------------------------------------------------------
 Center     Atomic      Atomic             Coordinates (Angstroms)
 Number     Number       Type             X           Y           Z
 ---------------------------------------------------------------------
      1         11           0        1.893485   -1.149753   -1.567499
      2         11           0       -1.049540    0.728812   -0.487216
      3         11           0        3.396032    0.092187    1.110475
      4         11           0       -4.422117    0.818002    0.298581
      5         11           0        0.061222   -0.752434    2.073624
      6         11           0       -1.487051   -1.896290   -0.702744
      7         11           0        1.607969    2.159477   -0.725221
 ---------------------------------------------------------------------

 SCF Done:  E(UB3LYP) =  -1136.10438503     A.U. after   28 cycles

 The electronic state is 2-A.
 Alpha  occ. eigenvalues --  -38.45031 -38.45005 -38.44432 -38.44229 -38.43749
 Alpha  occ. eigenvalues --  -38.43499 -38.43275  -2.20860  -2.20786  -2.20309
 Alpha  occ. eigenvalues --   -2.20115  -2.19817  -2.19442  -2.19168  -1.14537
 Alpha  occ. eigenvalues --   -1.14510  -1.14487  -1.14453  -1.14446  -1.14411
 Alpha  occ. eigenvalues --   -1.14033  -1.13925  -1.13913  -1.13807  -1.13791
 Alpha  occ. eigenvalues --   -1.13774  -1.13719  -1.13485  -1.13417  -1.13066
 Alpha  occ. eigenvalues --   -1.13042  -1.12993  -1.12865  -1.12808  -1.12784
 Alpha  occ. eigenvalues --   -0.18888  -0.13954  -0.11569  -0.10857
 Alpha virt. eigenvalues --   -0.07580  -0.04875  -0.04154  -0.03389  -0.03067
 Alpha virt. eigenvalues --   -0.02328  -0.02194  -0.01259  -0.00731  -0.00192
 Alpha virt. eigenvalues --   -0.00091   0.00201   0.00288   0.00714   0.00798

  Beta  occ. eigenvalues --  -38.45015 -38.44969 -38.44361 -38.44187 -38.43733
  Beta  occ. eigenvalues --  -38.43487 -38.43264  -2.20796  -2.20756  -2.20177
  Beta  occ. eigenvalues --   -2.20041  -2.19793  -2.19422  -2.19152  -1.14494
  Beta  occ. eigenvalues --   -1.14466  -1.14432  -1.14428  -1.14426  -1.14392
  Beta  occ. eigenvalues --   -1.13948  -1.13833  -1.13824  -1.13779  -1.13732
  Beta  occ. eigenvalues --   -1.13726  -1.13667  -1.13458  -1.13367  -1.13034
  Beta  occ. eigenvalues --   -1.13033  -1.12974  -1.12854  -1.12779  -1.12773
  Beta  occ. eigenvalues --   -0.18160  -0.13704  -0.10678
  Beta virt. eigenvalues --   -0.07637  -0.07339  -0.04661  -0.03689  -0.02955
  Beta virt. eigenvalues --   -0.02825  -0.01798  -0.01596  -0.00955  -0.00623
  Beta virt. eigenvalues --   -0.00147  -0.00007   0.00274   0.00399   0.00768

 Mulliken charges and spin densities:
               1          2
     1  Na   0.556281   0.018506
     2  Na  -2.422392   0.757092
     3  Na   0.341356   0.356468
     4  Na   0.520786  -0.025944
     5  Na  -0.144120   0.078182
     6  Na   0.276796  -0.021570
     7  Na   0.871293  -0.162733
 Sum of Mulliken charges =  -0.00000   1.00000

 Dipole moment (field-independent basis, Debye):
    X=              0.2385    Y=             -0.9494    Z=              0.4069  Tot=              1.0601
 Quadrupole moment (field-independent basis, Debye-Ang):
   XX=            -48.3795   YY=            -76.4623   ZZ=            -68.6926
   XY=             -0.2225   XZ=             -1.1061   YZ=              2.5508

 Normal termination of Gaussian 16 at Thu Dec  7 09:07:11 2023.
