 Gaussian 16, Revision B.01,
 Gaussian 16:  ES64L-G16RevB.01 20-Dec-2017

 -------------------------
 #P B3LYP/6-311+g(d) force
 -------------------------

 -----
 DPGEN
 -----
 Symbolic Z-matrix:
 Charge =  0 Multiplicity = 2

                         Standard orientation:
 ---------------------------------------------------------------------
 Center     Atomic      Atomic             Coordinates (Angstroms)
 Number     Number       Type             X           Y           Z
 ---------------------------------------------------------------------
      1         11           0       -0.114180   -0.045402    2.016371
      2         11           0       -0.893484    0.189320   -1.623053
      3         11           0       -2.327647   -2.415278   -0.069490
      4         11           0        3.480264   -0.054032    0.105168
      5         11           0        0.987357    2.839017   -0.471327
      6         11           0       -2.387900    2.038738    0.366539
      7         11           0        1.255589   -2.552363   -0.324209
 ---------------------------------------------------------------------

 SCF Done:  E(UB3LYP) =  -1136.13418966     A.U. after   20 cycles

 The electronic state is 2-A.
 Alpha  occ. eigenvalues --  -38.44131 -38.44027 -38.43940 -38.43779 -38.43740
 Alpha  occ. eigenvalues --  -38.43640 -38.43323  -2.19987  -2.19834  -2.19749
 Alpha  occ. eigenvalues --   -2.19569  -2.19560  -2.19506  -2.19267  -1.13697
 Alpha  occ. eigenvalues --   -1.13648  -1.13609  -1.13523  -1.13496  -1.13454
 Alpha  occ. eigenvalues --   -1.13428  -1.13402  -1.13396  -1.13274  -1.13252
 Alpha  occ. eigenvalues --   -1.13236  -1.13225  -1.13204  -1.13174  -1.13164
 Alpha  occ. eigenvalues --   -1.13132  -1.13124  -1.12940  -1.12927  -1.12870
 Alpha  occ. eigenvalues --   -0.18172  -0.12910  -0.12480  -0.10550
 Alpha virt. eigenvalues --   -0.05777  -0.05385  -0.04979  -0.03171  -0.02842
 Alpha virt. eigenvalues --   -0.02464  -0.01537  -0.01408  -0.00686  -0.00435
 Alpha virt. eigenvalues --   -0.00022   0.00333   0.00755   0.00827   0.00862

  Beta  occ. eigenvalues --  -38.44121 -38.44015 -38.43937 -38.43783 -38.43736
  Beta  occ. eigenvalues --  -38.43545 -38.43268  -2.19972  -2.19815  -2.19747
  Beta  occ. eigenvalues --   -2.19568  -2.19563  -2.19331  -2.19166  -1.13686
  Beta  occ. eigenvalues --   -1.13617  -1.13593  -1.13501  -1.13473  -1.13444
  Beta  occ. eigenvalues --   -1.13418  -1.13400  -1.13387  -1.13275  -1.13236
  Beta  occ. eigenvalues --   -1.13230  -1.13220  -1.13210  -1.13164  -1.13058
  Beta  occ. eigenvalues --   -1.13010  -1.12995  -1.12869  -1.12857  -1.12793
  Beta  occ. eigenvalues --   -0.17465  -0.12700  -0.12294
  Beta virt. eigenvalues --   -0.06655  -0.05742  -0.05322  -0.04890  -0.02410
  Beta virt. eigenvalues --   -0.02192  -0.01507  -0.01418  -0.01308  -0.00696
  Beta virt. eigenvalues --   -0.00456   0.00140   0.00386   0.00769   0.00844

 Mulliken charges and spin densities:
               1          2
     1  Na  -0.224503   0.731694
     2  Na   0.218412   0.395238
     3  Na   0.208887  -0.039100
     4  Na  -0.091531  -0.053123
     5  Na  -0.142933   0.008029
     6  Na   0.216551  -0.014423
     7  Na  -0.184883  -0.028315
 Sum of Mulliken charges =  -0.00000   1.00000

 Dipole moment (field-independent basis, Debye):
    X=             -0.3440    Y=              0.1424    Z=              0.1076  Tot=              0.3876
 Quadrupole moment (field-independent basis, Debye-Ang):
   XX=            -58.0935   YY=            -60.2151   ZZ=            -75.4714
   XY=              0.9719   XZ=             -1.3033   YZ=              0.2924

 Normal termination of Gaussian 16 at Thu Dec  7 20:34:43 2023.
