 Gaussian 16, Revision B.01,
 Gaussian 16:  ES64L-G16RevB.01 20-Dec-2017

 -------------------------
 #P B3LYP/6-311+g(d) force
 -------------------------

 -----
 DPGEN
 -----
 Symbolic Z-matrix:
 Charge =  0 Multiplicity = 2

                         Standard orientation:
 ---------------------------------------------------------------------
 Center     Atomic      Atomic             Coordinates (Angstroms)
 Number     Number       Type             X           Y           Z
 ---------------------------------------------------------------------
      1         11           0       -0.283840   -0.282902   -0.468320
      2         11           0        2.996512   -1.005630   -0.098013
      3         11           0        9.430452    1.003612    0.115960
      4         11           0        6.951168   -0.290937    0.424878
      5         11           0       -6.184760    1.666387   -0.301191
      6         11           0       -8.680800   -0.266294    0.981008
      7         11           0       -4.228732   -0.824236   -0.654322
 ---------------------------------------------------------------------

 SCF Done:  E(UB3LYP) =  -1136.10376852     A.U. after   21 cycles

 The electronic state is 2-A.
 Alpha  occ. eigenvalues --  -38.45537 -38.45454 -38.45055 -38.44190 -38.44014
 Alpha  occ. eigenvalues --  -38.43999 -38.43728  -2.21324  -2.21254  -2.20867
 Alpha  occ. eigenvalues --   -2.20028  -2.19784  -2.19759  -2.19557  -1.14976
 Alpha  occ. eigenvalues --   -1.14970  -1.14952  -1.14951  -1.14924  -1.14870
 Alpha  occ. eigenvalues --   -1.14527  -1.14518  -1.14461  -1.13827  -1.13651
 Alpha  occ. eigenvalues --   -1.13651  -1.13452  -1.13451  -1.13447  -1.13438
 Alpha  occ. eigenvalues --   -1.13433  -1.13356  -1.13199  -1.13199  -1.13184
 Alpha  occ. eigenvalues --   -0.15678  -0.14033  -0.12785  -0.11304
 Alpha virt. eigenvalues --   -0.07087  -0.05837  -0.04072  -0.03661  -0.02851
 Alpha virt. eigenvalues --   -0.02711  -0.02333  -0.02176  -0.01763  -0.01150
 Alpha virt. eigenvalues --   -0.00930  -0.00607  -0.00281   0.00283   0.00452

  Beta  occ. eigenvalues --  -38.45464 -38.45447 -38.44983 -38.44167 -38.44038
  Beta  occ. eigenvalues --  -38.43941 -38.43731  -2.21280  -2.21156  -2.20734
  Beta  occ. eigenvalues --   -2.19985  -2.19808  -2.19675  -2.19566  -1.14960
  Beta  occ. eigenvalues --   -1.14948  -1.14905  -1.14854  -1.14850  -1.14805
  Beta  occ. eigenvalues --   -1.14436  -1.14428  -1.14375  -1.13801  -1.13622
  Beta  occ. eigenvalues --   -1.13622  -1.13487  -1.13486  -1.13422  -1.13365
  Beta  occ. eigenvalues --   -1.13363  -1.13312  -1.13208  -1.13207  -1.13167
  Beta  occ. eigenvalues --   -0.14997  -0.13617  -0.12333
  Beta virt. eigenvalues --   -0.08128  -0.06434  -0.05583  -0.03754  -0.03391
  Beta virt. eigenvalues --   -0.02685  -0.02589  -0.02019  -0.01794  -0.01641
  Beta virt. eigenvalues --   -0.00869  -0.00659  -0.00237  -0.00056   0.00375

 Mulliken charges and spin densities:
               1          2
     1  Na   0.359483   0.013097
     2  Na   0.007274   0.312929
     3  Na   0.425487   0.086203
     4  Na  -0.870118  -0.025927
     5  Na   0.085475   0.027834
     6  Na   0.096194   0.467231
     7  Na  -0.103794   0.118634
 Sum of Mulliken charges =  -0.00000   1.00000

 Dipole moment (field-independent basis, Debye):
    X=             -3.4928    Y=              0.4431    Z=              0.1038  Tot=              3.5223
 Quadrupole moment (field-independent basis, Debye-Ang):
   XX=            -40.3761   YY=            -65.5940   ZZ=            -74.8344
   XY=              5.4043   XZ=             -2.7373   YZ=             -2.0806

 Normal termination of Gaussian 16 at Sun Dec  3 22:43:41 2023.
