 Gaussian 16, Revision B.01,
 Gaussian 16:  ES64L-G16RevB.01 20-Dec-2017

 -------------------------
 #P B3LYP/6-311+g(d) force
 -------------------------

 -----
 DPGEN
 -----
 Symbolic Z-matrix:
 Charge =  0 Multiplicity = 2

                         Standard orientation:
 ---------------------------------------------------------------------
 Center     Atomic      Atomic             Coordinates (Angstroms)
 Number     Number       Type             X           Y           Z
 ---------------------------------------------------------------------
      1         11           0       -5.545246    0.477378    0.479167
      2         11           0        0.020132   -2.425113   -0.565657
      3         11           0        1.745724    0.424586   -1.610650
      4         11           0        3.326049   -1.856962    0.814333
      5         11           0        0.404473    0.403793    1.884027
      6         11           0        2.486452    3.091537   -0.087503
      7         11           0       -2.437583   -0.115220   -0.913717
 ---------------------------------------------------------------------

 SCF Done:  E(UB3LYP) =  -1136.11206966     A.U. after   27 cycles

 The electronic state is 2-A.
 Alpha  occ. eigenvalues --  -38.46788 -38.44569 -38.44462 -38.44366 -38.43448
 Alpha  occ. eigenvalues --  -38.43330 -38.43096  -2.22543  -2.20347  -2.20260
 Alpha  occ. eigenvalues --   -2.20250  -2.19316  -2.19147  -2.18905  -1.16228
 Alpha  occ. eigenvalues --   -1.16185  -1.16176  -1.13993  -1.13991  -1.13963
 Alpha  occ. eigenvalues --   -1.13940  -1.13923  -1.13914  -1.13900  -1.13890
 Alpha  occ. eigenvalues --   -1.13876  -1.12996  -1.12994  -1.12938  -1.12834
 Alpha  occ. eigenvalues --   -1.12825  -1.12776  -1.12588  -1.12557  -1.12538
 Alpha  occ. eigenvalues --   -0.17653  -0.13300  -0.11727  -0.10863
 Alpha virt. eigenvalues --   -0.07886  -0.04896  -0.04473  -0.03098  -0.02912
 Alpha virt. eigenvalues --   -0.02601  -0.02473  -0.01702  -0.01351  -0.00755
 Alpha virt. eigenvalues --   -0.00546   0.00015   0.00166   0.00453   0.00629

  Beta  occ. eigenvalues --  -38.46773 -38.44493 -38.44430 -38.44331 -38.43421
  Beta  occ. eigenvalues --  -38.43322 -38.43091  -2.22516  -2.20205  -2.20201
  Beta  occ. eigenvalues --   -2.20187  -2.19270  -2.19139  -2.18898  -1.16201
  Beta  occ. eigenvalues --   -1.16163  -1.16159  -1.13899  -1.13895  -1.13894
  Beta  occ. eigenvalues --   -1.13886  -1.13871  -1.13863  -1.13857  -1.13843
  Beta  occ. eigenvalues --   -1.13830  -1.12971  -1.12955  -1.12893  -1.12838
  Beta  occ. eigenvalues --   -1.12824  -1.12719  -1.12576  -1.12551  -1.12536
  Beta  occ. eigenvalues --   -0.17150  -0.12632  -0.11581
  Beta virt. eigenvalues --   -0.07629  -0.07316  -0.04774  -0.03972  -0.02971
  Beta virt. eigenvalues --   -0.02746  -0.02327  -0.01950  -0.01277  -0.01039
  Beta virt. eigenvalues --   -0.00546  -0.00327   0.00138   0.00340   0.00562

 Mulliken charges and spin densities:
               1          2
     1  Na   0.037897   0.424530
     2  Na   0.296379   0.005778
     3  Na   0.176156   0.140722
     4  Na   0.050963   0.199676
     5  Na  -0.174323   0.244940
     6  Na  -0.062517  -0.017048
     7  Na  -0.324554   0.001402
 Sum of Mulliken charges =  -0.00000   1.00000

 Dipole moment (field-independent basis, Debye):
    X=              0.7192    Y=             -0.3727    Z=              0.7635  Tot=              1.1132
 Quadrupole moment (field-independent basis, Debye-Ang):
   XX=            -61.4235   YY=            -72.1467   ZZ=            -66.7093
   XY=             -1.8824   XZ=             -3.6989   YZ=              2.7447

 Normal termination of Gaussian 16 at Thu Dec  7 07:35:50 2023.
