 Gaussian 16, Revision B.01,
 Gaussian 16:  ES64L-G16RevB.01 20-Dec-2017

 -------------------------
 #P B3LYP/6-311+g(d) force
 -------------------------

 -----
 DPGEN
 -----
 Symbolic Z-matrix:
 Charge =  0 Multiplicity = 2

                         Standard orientation:
 ---------------------------------------------------------------------
 Center     Atomic      Atomic             Coordinates (Angstroms)
 Number     Number       Type             X           Y           Z
 ---------------------------------------------------------------------
      1         11           0       -1.328138   -2.165439    0.173289
      2         11           0        2.775386    1.122534   -0.253861
      3         11           0       -0.347858    0.464324   -1.624512
      4         11           0       -0.268548    2.617679    0.417633
      5         11           0        1.815241   -2.046625   -0.520589
      6         11           0       -3.211034    0.375031   -0.107338
      7         11           0        0.564952   -0.367504    1.915378
 ---------------------------------------------------------------------

 SCF Done:  E(UB3LYP) =  -1136.13400833     A.U. after   19 cycles

 The electronic state is 2-A.
 Alpha  occ. eigenvalues --  -38.44102 -38.43850 -38.43394 -38.43272 -38.43243
 Alpha  occ. eigenvalues --  -38.43221 -38.43029  -2.19959  -2.19732  -2.19377
 Alpha  occ. eigenvalues --   -2.19257  -2.19178  -2.19174  -2.18990  -1.13650
 Alpha  occ. eigenvalues --   -1.13622  -1.13592  -1.13411  -1.13399  -1.13373
 Alpha  occ. eigenvalues --   -1.13089  -1.13067  -1.13019  -1.13006  -1.12932
 Alpha  occ. eigenvalues --   -1.12871  -1.12844  -1.12833  -1.12817  -1.12811
 Alpha  occ. eigenvalues --   -1.12783  -1.12766  -1.12664  -1.12640  -1.12603
 Alpha  occ. eigenvalues --   -0.19413  -0.13331  -0.12570  -0.11027
 Alpha virt. eigenvalues --   -0.05735  -0.04776  -0.04351  -0.03294  -0.03044
 Alpha virt. eigenvalues --   -0.02488  -0.01601  -0.00834  -0.00127   0.00023
 Alpha virt. eigenvalues --    0.00145   0.00361   0.00885   0.00931   0.00975

  Beta  occ. eigenvalues --  -38.44101 -38.43842 -38.43308 -38.43260 -38.43227
  Beta  occ. eigenvalues --  -38.43161 -38.43019  -2.19960  -2.19720  -2.19218
  Beta  occ. eigenvalues --   -2.19166  -2.19150  -2.19141  -2.18976  -1.13650
  Beta  occ. eigenvalues --   -1.13613  -1.13590  -1.13406  -1.13373  -1.13356
  Beta  occ. eigenvalues --   -1.13025  -1.12991  -1.12916  -1.12896  -1.12866
  Beta  occ. eigenvalues --   -1.12823  -1.12804  -1.12795  -1.12783  -1.12762
  Beta  occ. eigenvalues --   -1.12754  -1.12724  -1.12650  -1.12604  -1.12587
  Beta  occ. eigenvalues --   -0.18659  -0.13086  -0.12314
  Beta virt. eigenvalues --   -0.07035  -0.05680  -0.04765  -0.04319  -0.02547
  Beta virt. eigenvalues --   -0.02223  -0.01548  -0.01393  -0.00780  -0.00084
  Beta virt. eigenvalues --    0.00090   0.00141   0.00395   0.00927   0.00939

 Mulliken charges and spin densities:
               1          2
     1  Na   0.397218   0.033101
     2  Na   0.227917  -0.015024
     3  Na  -0.580431   0.454378
     4  Na   0.168530  -0.031756
     5  Na   0.176945   0.065443
     6  Na   0.152089  -0.062358
     7  Na  -0.542270   0.556217
 Sum of Mulliken charges =  -0.00000   1.00000

 Dipole moment (field-independent basis, Debye):
    X=             -0.0413    Y=              0.2454    Z=              0.0794  Tot=              0.2612
 Quadrupole moment (field-independent basis, Debye-Ang):
   XX=            -55.0351   YY=            -66.3729   ZZ=            -72.4834
   XY=             -0.2901   XZ=             -1.6138   YZ=              1.5520

 Normal termination of Gaussian 16 at Thu Dec  7 19:04:48 2023.
