 Gaussian 16, Revision B.01,
 Gaussian 16:  ES64L-G16RevB.01 20-Dec-2017

 -------------------------
 #P B3LYP/6-311+g(d) force
 -------------------------

 -----
 DPGEN
 -----
 Symbolic Z-matrix:
 Charge =  0 Multiplicity = 2

                         Standard orientation:
 ---------------------------------------------------------------------
 Center     Atomic      Atomic             Coordinates (Angstroms)
 Number     Number       Type             X           Y           Z
 ---------------------------------------------------------------------
      1         11           0        2.198945    2.057831   -0.298796
      2         11           0       -1.761126    2.578155   -0.013176
      3         11           0        0.089390    0.314120    1.658911
      4         11           0        0.121569   -2.757126    0.020465
      5         11           0        3.049014   -0.969784    0.037199
      6         11           0       -0.516819   -0.229553   -1.538338
      7         11           0       -3.180973   -0.993642    0.133735
 ---------------------------------------------------------------------

 SCF Done:  E(UB3LYP) =  -1136.13334069     A.U. after   20 cycles

 The electronic state is 2-A.
 Alpha  occ. eigenvalues --  -38.44741 -38.44052 -38.43806 -38.43794 -38.43217
 Alpha  occ. eigenvalues --  -38.42908 -38.42814  -2.20554  -2.19907  -2.19660
 Alpha  occ. eigenvalues --   -2.19619  -2.19112  -2.18921  -2.18791  -1.14241
 Alpha  occ. eigenvalues --   -1.14207  -1.14185  -1.13609  -1.13564  -1.13554
 Alpha  occ. eigenvalues --   -1.13331  -1.13317  -1.13300  -1.13295  -1.13286
 Alpha  occ. eigenvalues --   -1.13246  -1.12885  -1.12771  -1.12723  -1.12624
 Alpha  occ. eigenvalues --   -1.12533  -1.12528  -1.12474  -1.12412  -1.12400
 Alpha  occ. eigenvalues --   -0.18819  -0.13390  -0.12417  -0.10047
 Alpha virt. eigenvalues --   -0.06141  -0.05462  -0.04510  -0.03085  -0.02579
 Alpha virt. eigenvalues --   -0.01947  -0.01833  -0.01301  -0.00554  -0.00356
 Alpha virt. eigenvalues --    0.00030   0.00329   0.00750   0.00810   0.00881

  Beta  occ. eigenvalues --  -38.44737 -38.44049 -38.43798 -38.43790 -38.43208
  Beta  occ. eigenvalues --  -38.42845 -38.42737  -2.20551  -2.19905  -2.19647
  Beta  occ. eigenvalues --   -2.19614  -2.19100  -2.18805  -2.18651  -1.14229
  Beta  occ. eigenvalues --   -1.14195  -1.14186  -1.13610  -1.13556  -1.13538
  Beta  occ. eigenvalues --   -1.13322  -1.13298  -1.13287  -1.13282  -1.13265
  Beta  occ. eigenvalues --   -1.13246  -1.12865  -1.12732  -1.12720  -1.12541
  Beta  occ. eigenvalues --   -1.12454  -1.12444  -1.12378  -1.12310  -1.12298
  Beta  occ. eigenvalues --   -0.18119  -0.13157  -0.12159
  Beta virt. eigenvalues --   -0.06213  -0.06082  -0.05457  -0.04490  -0.02324
  Beta virt. eigenvalues --   -0.01859  -0.01821  -0.01245  -0.00874  -0.00602
  Beta virt. eigenvalues --   -0.00389   0.00178   0.00369   0.00789   0.00810

 Mulliken charges and spin densities:
               1          2
     1  Na   0.158173  -0.018493
     2  Na   0.058459  -0.126867
     3  Na  -0.387625   0.686107
     4  Na   0.276950  -0.071750
     5  Na   0.112857   0.003236
     6  Na  -0.421352   0.638126
     7  Na   0.202538  -0.110359
 Sum of Mulliken charges =  -0.00000   1.00000

 Dipole moment (field-independent basis, Debye):
    X=             -0.4343    Y=              0.0606    Z=              0.1040  Tot=              0.4506
 Quadrupole moment (field-independent basis, Debye-Ang):
   XX=            -50.7558   YY=            -61.8829   ZZ=            -77.9288
   XY=             -0.0778   XZ=             -1.3028   YZ=             -1.4014

 Normal termination of Gaussian 16 at Wed Nov 29 02:47:32 2023.
