 Gaussian 16, Revision B.01,
 Gaussian 16:  ES64L-G16RevB.01 20-Dec-2017

 -------------------------
 #P B3LYP/6-311+g(d) force
 -------------------------

 -----
 DPGEN
 -----
 Symbolic Z-matrix:
 Charge =  0 Multiplicity = 2

                         Standard orientation:
 ---------------------------------------------------------------------
 Center     Atomic      Atomic             Coordinates (Angstroms)
 Number     Number       Type             X           Y           Z
 ---------------------------------------------------------------------
      1         11           0        1.051442   -2.990288   -0.185247
      2         11           0       -3.816375   -0.310283   -0.869482
      3         11           0        1.461958    3.063759    0.053261
      4         11           0        1.488187    0.463375    1.464365
      5         11           0        3.413541   -0.865900   -1.126936
      6         11           0       -2.030235   -1.624111    1.066038
      7         11           0       -1.568518    2.263448   -0.402000
 ---------------------------------------------------------------------

 SCF Done:  E(UB3LYP) =  -1136.12129947     A.U. after   19 cycles

 The electronic state is 2-A.
 Alpha  occ. eigenvalues --  -38.44409 -38.44409 -38.44317 -38.44024 -38.43872
 Alpha  occ. eigenvalues --  -38.43706 -38.43643  -2.20290  -2.20232  -2.20119
 Alpha  occ. eigenvalues --   -2.19900  -2.19734  -2.19571  -2.19483  -1.14029
 Alpha  occ. eigenvalues --   -1.13955  -1.13925  -1.13923  -1.13902  -1.13882
 Alpha  occ. eigenvalues --   -1.13803  -1.13776  -1.13773  -1.13552  -1.13537
 Alpha  occ. eigenvalues --   -1.13519  -1.13518  -1.13371  -1.13360  -1.13224
 Alpha  occ. eigenvalues --   -1.13214  -1.13159  -1.13134  -1.13116  -1.13110
 Alpha  occ. eigenvalues --   -0.17358  -0.13873  -0.13139  -0.10162
 Alpha virt. eigenvalues --   -0.06492  -0.05579  -0.04331  -0.04033  -0.03027
 Alpha virt. eigenvalues --   -0.01812  -0.01542  -0.01286  -0.01195  -0.00747
 Alpha virt. eigenvalues --   -0.00312   0.00284   0.00420   0.00618   0.00683

  Beta  occ. eigenvalues --  -38.44395 -38.44380 -38.44309 -38.44023 -38.43845
  Beta  occ. eigenvalues --  -38.43676 -38.43571  -2.20239  -2.20209  -2.20110
  Beta  occ. eigenvalues --   -2.19900  -2.19684  -2.19518  -2.19349  -1.13994
  Beta  occ. eigenvalues --   -1.13915  -1.13909  -1.13886  -1.13880  -1.13851
  Beta  occ. eigenvalues --   -1.13801  -1.13776  -1.13721  -1.13546  -1.13536
  Beta  occ. eigenvalues --   -1.13513  -1.13485  -1.13337  -1.13319  -1.13190
  Beta  occ. eigenvalues --   -1.13177  -1.13108  -1.13041  -1.13028  -1.13018
  Beta  occ. eigenvalues --   -0.16866  -0.13446  -0.12762
  Beta virt. eigenvalues --   -0.06715  -0.06420  -0.05353  -0.03977  -0.03559
  Beta virt. eigenvalues --   -0.02516  -0.01624  -0.01277  -0.01084  -0.00962
  Beta virt. eigenvalues --   -0.00603   0.00014   0.00481   0.00493   0.00724

 Mulliken charges and spin densities:
               1          2
     1  Na  -0.018418   0.042242
     2  Na   0.336264   0.169795
     3  Na   0.381128  -0.006570
     4  Na   0.147882   0.205754
     5  Na  -0.099545   0.387711
     6  Na  -0.236106   0.082806
     7  Na  -0.511206   0.118262
 Sum of Mulliken charges =  -0.00000   1.00000

 Dipole moment (field-independent basis, Debye):
    X=              0.0807    Y=              0.3566    Z=             -0.1431  Tot=              0.3926
 Quadrupole moment (field-independent basis, Debye-Ang):
   XX=            -66.5099   YY=            -63.1518   ZZ=            -70.7604
   XY=              5.6518   XZ=              1.5195   YZ=             -0.3552

 Normal termination of Gaussian 16 at Mon Dec  4 00:46:24 2023.
