 Gaussian 16, Revision B.01,
 Gaussian 16:  ES64L-G16RevB.01 20-Dec-2017

 -------------------------
 #P B3LYP/6-311+g(d) force
 -------------------------

 -----
 DPGEN
 -----
 Symbolic Z-matrix:
 Charge =  0 Multiplicity = 2

                         Standard orientation:
 ---------------------------------------------------------------------
 Center     Atomic      Atomic             Coordinates (Angstroms)
 Number     Number       Type             X           Y           Z
 ---------------------------------------------------------------------
      1         11           0        2.874079   -1.417173   -0.077528
      2         11           0       -0.182324    0.205256   -1.906488
      3         11           0       -2.412829    2.618363    0.547101
      4         11           0        2.707702    2.310179   -0.420200
      5         11           0       -3.092319   -1.011488   -0.519687
      6         11           0       -0.324192   -2.927989    0.392167
      7         11           0        0.429882    0.222852    1.984635
 ---------------------------------------------------------------------

 SCF Done:  E(UB3LYP) =  -1136.12914924     A.U. after   21 cycles

 The electronic state is 2-A.
 Alpha  occ. eigenvalues --  -38.44345 -38.44277 -38.44233 -38.44149 -38.44131
 Alpha  occ. eigenvalues --  -38.44071 -38.43035  -2.20146  -2.20038  -2.19983
 Alpha  occ. eigenvalues --   -2.19979  -2.19937  -2.19904  -2.18864  -1.13832
 Alpha  occ. eigenvalues --   -1.13816  -1.13774  -1.13710  -1.13695  -1.13677
 Alpha  occ. eigenvalues --   -1.13668  -1.13652  -1.13638  -1.13636  -1.13624
 Alpha  occ. eigenvalues --   -1.13614  -1.13601  -1.13578  -1.13574  -1.13559
 Alpha  occ. eigenvalues --   -1.13540  -1.13518  -1.12546  -1.12529  -1.12505
 Alpha  occ. eigenvalues --   -0.17644  -0.12964  -0.11881  -0.10716
 Alpha virt. eigenvalues --   -0.06118  -0.05697  -0.04724  -0.03243  -0.02887
 Alpha virt. eigenvalues --   -0.02595  -0.01776  -0.01514  -0.00849  -0.00447
 Alpha virt. eigenvalues --   -0.00094   0.00322   0.00628   0.00665   0.00697

  Beta  occ. eigenvalues --  -38.44343 -38.44270 -38.44217 -38.44121 -38.44083
  Beta  occ. eigenvalues --  -38.43992 -38.43032  -2.20146  -2.20027  -2.19951
  Beta  occ. eigenvalues --   -2.19921  -2.19860  -2.19760  -2.18862  -1.13822
  Beta  occ. eigenvalues --   -1.13814  -1.13769  -1.13692  -1.13686  -1.13670
  Beta  occ. eigenvalues --   -1.13626  -1.13615  -1.13611  -1.13601  -1.13590
  Beta  occ. eigenvalues --   -1.13573  -1.13551  -1.13535  -1.13498  -1.13482
  Beta  occ. eigenvalues --   -1.13442  -1.13409  -1.12540  -1.12528  -1.12489
  Beta  occ. eigenvalues --   -0.16962  -0.12745  -0.11625
  Beta virt. eigenvalues --   -0.07039  -0.06020  -0.05481  -0.04592  -0.02656
  Beta virt. eigenvalues --   -0.02239  -0.01714  -0.01622  -0.01347  -0.00889
  Beta virt. eigenvalues --   -0.00455   0.00051   0.00363   0.00690   0.00726

 Mulliken charges and spin densities:
               1          2
     1  Na   0.083014  -0.006196
     2  Na   0.066315   0.418170
     3  Na  -0.167638   0.010485
     4  Na  -0.057408  -0.039515
     5  Na   0.201216   0.055658
     6  Na  -0.171229  -0.019039
     7  Na   0.045730   0.580438
 Sum of Mulliken charges =  -0.00000   1.00000

 Dipole moment (field-independent basis, Debye):
    X=              0.2715    Y=              0.2266    Z=             -0.1006  Tot=              0.3677
 Quadrupole moment (field-independent basis, Debye-Ang):
   XX=            -56.3712   YY=            -63.9721   ZZ=            -74.1043
   XY=              0.3067   XZ=             -0.7381   YZ=              0.3625

 Normal termination of Gaussian 16 at Tue Dec  5 20:43:08 2023.
