 Gaussian 16, Revision B.01,
 Gaussian 16:  ES64L-G16RevB.01 20-Dec-2017

 -------------------------
 #P B3LYP/6-311+g(d) force
 -------------------------

 -----
 DPGEN
 -----
 Symbolic Z-matrix:
 Charge =  0 Multiplicity = 2

                         Standard orientation:
 ---------------------------------------------------------------------
 Center     Atomic      Atomic             Coordinates (Angstroms)
 Number     Number       Type             X           Y           Z
 ---------------------------------------------------------------------
      1         11           0        0.048344   -0.000288   -1.311106
      2         11           0       -1.475205   -0.359824    1.977414
      3         11           0        1.853675    2.332414    0.440617
      4         11           0        0.739747   -2.536856    0.666327
      5         11           0       -3.052027   -1.518051   -1.013291
      6         11           0        3.263470   -1.021443   -0.531947
      7         11           0       -1.378004    3.104048   -0.228013
 ---------------------------------------------------------------------

 SCF Done:  E(UB3LYP) =  -1136.13146265     A.U. after   19 cycles

 The electronic state is 2-A.
 Alpha  occ. eigenvalues --  -38.44180 -38.44136 -38.44015 -38.43778 -38.43584
 Alpha  occ. eigenvalues --  -38.43474 -38.43186  -2.19971  -2.19947  -2.19818
 Alpha  occ. eigenvalues --   -2.19659  -2.19427  -2.19331  -2.19148  -1.13655
 Alpha  occ. eigenvalues --   -1.13644  -1.13623  -1.13617  -1.13614  -1.13548
 Alpha  occ. eigenvalues --   -1.13485  -1.13468  -1.13445  -1.13367  -1.13328
 Alpha  occ. eigenvalues --   -1.13302  -1.13090  -1.13073  -1.13067  -1.13008
 Alpha  occ. eigenvalues --   -1.12961  -1.12946  -1.12852  -1.12795  -1.12768
 Alpha  occ. eigenvalues --   -0.17992  -0.12847  -0.12692  -0.10403
 Alpha virt. eigenvalues --   -0.05902  -0.05366  -0.04862  -0.03262  -0.02813
 Alpha virt. eigenvalues --   -0.02168  -0.01728  -0.01451  -0.00707  -0.00283
 Alpha virt. eigenvalues --   -0.00025   0.00315   0.00634   0.00745   0.00762

  Beta  occ. eigenvalues --  -38.44179 -38.44135 -38.43975 -38.43756 -38.43582
  Beta  occ. eigenvalues --  -38.43403 -38.43145  -2.19972  -2.19946  -2.19746
  Beta  occ. eigenvalues --   -2.19623  -2.19423  -2.19202  -2.19075  -1.13656
  Beta  occ. eigenvalues --   -1.13632  -1.13624  -1.13615  -1.13607  -1.13549
  Beta  occ. eigenvalues --   -1.13424  -1.13419  -1.13397  -1.13346  -1.13287
  Beta  occ. eigenvalues --   -1.13269  -1.13078  -1.13068  -1.13065  -1.12920
  Beta  occ. eigenvalues --   -1.12862  -1.12859  -1.12791  -1.12743  -1.12711
  Beta  occ. eigenvalues --   -0.17397  -0.12591  -0.12501
  Beta virt. eigenvalues --   -0.06577  -0.05854  -0.05228  -0.04666  -0.02713
  Beta virt. eigenvalues --   -0.02263  -0.01589  -0.01456  -0.01224  -0.00545
  Beta virt. eigenvalues --   -0.00251   0.00133   0.00378   0.00749   0.00772

 Mulliken charges and spin densities:
               1          2
     1  Na   0.160396   0.331782
     2  Na   0.035701   0.459096
     3  Na  -0.117756   0.051657
     4  Na  -0.310236   0.117115
     5  Na  -0.133783   0.096063
     6  Na   0.375681  -0.017335
     7  Na  -0.010003  -0.038378
 Sum of Mulliken charges =  -0.00000   1.00000

 Dipole moment (field-independent basis, Debye):
    X=             -0.0119    Y=              0.4281    Z=              0.1537  Tot=              0.4550
 Quadrupole moment (field-independent basis, Debye-Ang):
   XX=            -56.2424   YY=            -62.2743   ZZ=            -74.6140
   XY=             -0.9673   XZ=              1.2362   YZ=              0.9989

 Normal termination of Gaussian 16 at Mon Dec  4 00:13:07 2023.
