 Gaussian 16, Revision B.01,
 Gaussian 16:  ES64L-G16RevB.01 20-Dec-2017

 -------------------------
 #P B3LYP/6-311+g(d) force
 -------------------------

 -----
 DPGEN
 -----
 Symbolic Z-matrix:
 Charge =  0 Multiplicity = 2

                         Standard orientation:
 ---------------------------------------------------------------------
 Center     Atomic      Atomic             Coordinates (Angstroms)
 Number     Number       Type             X           Y           Z
 ---------------------------------------------------------------------
      1         11           0       -0.555492   -2.126392    0.541517
      2         11           0       -3.844309   -2.634406   -0.052770
      3         11           0       -3.039935    0.270224   -0.406356
      4         11           0       -1.754792    3.778725    0.372071
      5         11           0        0.125970    1.137859   -0.926576
      6         11           0        2.808817    0.386258    0.962939
      7         11           0        6.259742   -0.812268   -0.490826
 ---------------------------------------------------------------------

 SCF Done:  E(UB3LYP) =  -1136.11747637     A.U. after   20 cycles

 The electronic state is 2-A.
 Alpha  occ. eigenvalues --  -38.44647 -38.44631 -38.44183 -38.44061 -38.43975
 Alpha  occ. eigenvalues --  -38.43835 -38.43805  -2.20453  -2.20422  -2.20042
 Alpha  occ. eigenvalues --   -2.19957  -2.19751  -2.19713  -2.19567  -1.14144
 Alpha  occ. eigenvalues --   -1.14142  -1.14058  -1.14057  -1.14044  -1.14021
 Alpha  occ. eigenvalues --   -1.13794  -1.13689  -1.13677  -1.13660  -1.13636
 Alpha  occ. eigenvalues --   -1.13499  -1.13429  -1.13421  -1.13415  -1.13392
 Alpha  occ. eigenvalues --   -1.13374  -1.13304  -1.13255  -1.13237  -1.13202
 Alpha  occ. eigenvalues --   -0.17113  -0.13495  -0.12462  -0.10943
 Alpha virt. eigenvalues --   -0.06073  -0.05899  -0.04826  -0.03546  -0.02621
 Alpha virt. eigenvalues --   -0.02295  -0.02164  -0.01328  -0.01281  -0.00928
 Alpha virt. eigenvalues --   -0.00406  -0.00084   0.00084   0.00394   0.00539

  Beta  occ. eigenvalues --  -38.44600 -38.44519 -38.44167 -38.44046 -38.43962
  Beta  occ. eigenvalues --  -38.43825 -38.43818  -2.20397  -2.20183  -2.20013
  Beta  occ. eigenvalues --   -2.19930  -2.19727  -2.19685  -2.19609  -1.14107
  Beta  occ. eigenvalues --   -1.14105  -1.13998  -1.13895  -1.13894  -1.13863
  Beta  occ. eigenvalues --   -1.13768  -1.13670  -1.13655  -1.13638  -1.13617
  Beta  occ. eigenvalues --   -1.13481  -1.13415  -1.13404  -1.13400  -1.13372
  Beta  occ. eigenvalues --   -1.13355  -1.13305  -1.13272  -1.13256  -1.13192
  Beta  occ. eigenvalues --   -0.16736  -0.13109  -0.11850
  Beta virt. eigenvalues --   -0.07433  -0.05926  -0.05329  -0.04668  -0.03274
  Beta virt. eigenvalues --   -0.02403  -0.02139  -0.01840  -0.01130  -0.00777
  Beta virt. eigenvalues --   -0.00479  -0.00242   0.00133   0.00293   0.00531

 Mulliken charges and spin densities:
               1          2
     1  Na  -0.217990   0.108412
     2  Na   0.652527   0.077143
     3  Na  -0.469449   0.195910
     4  Na   0.337651   0.062696
     5  Na  -0.422418   0.028064
     6  Na   0.147212  -0.134706
     7  Na  -0.027533   0.662481
 Sum of Mulliken charges =  -0.00000   1.00000

 Dipole moment (field-independent basis, Debye):
    X=             -1.4708    Y=             -0.5298    Z=              0.3148  Tot=              1.5947
 Quadrupole moment (field-independent basis, Debye-Ang):
   XX=            -69.8306   YY=            -61.1690   ZZ=            -69.0766
   XY=              4.0040   XZ=             -1.4668   YZ=              2.5516

 Normal termination of Gaussian 16 at Wed Nov 29 03:06:48 2023.
