 Gaussian 16, Revision B.01,
 Gaussian 16:  ES64L-G16RevB.01 20-Dec-2017

 -------------------------
 #P B3LYP/6-311+g(d) force
 -------------------------

 -----
 DPGEN
 -----
 Symbolic Z-matrix:
 Charge =  0 Multiplicity = 2

                         Standard orientation:
 ---------------------------------------------------------------------
 Center     Atomic      Atomic             Coordinates (Angstroms)
 Number     Number       Type             X           Y           Z
 ---------------------------------------------------------------------
      1         11           0        3.905742    0.823214    0.071475
      2         11           0       -3.716165   -1.214206   -0.088264
      3         11           0        0.557059    2.146926   -0.681349
      4         11           0       -2.456425    1.627376   -0.205655
      5         11           0       -0.338734   -1.254064   -1.263600
      6         11           0       -0.484353   -0.014064    2.204193
      7         11           0        2.532877   -2.115182   -0.036800
 ---------------------------------------------------------------------

 SCF Done:  E(UB3LYP) =  -1136.11368593     A.U. after   49 cycles

 The electronic state is 2-A.
 Alpha  occ. eigenvalues --  -38.45797 -38.44807 -38.44732 -38.43867 -38.43840
 Alpha  occ. eigenvalues --  -38.43776 -38.42714  -2.21575  -2.20627  -2.20586
 Alpha  occ. eigenvalues --   -2.19793  -2.19669  -2.19632  -2.18578  -1.15243
 Alpha  occ. eigenvalues --   -1.15233  -1.15207  -1.14331  -1.14280  -1.14277
 Alpha  occ. eigenvalues --   -1.14265  -1.14257  -1.14204  -1.13488  -1.13450
 Alpha  occ. eigenvalues --   -1.13430  -1.13357  -1.13321  -1.13312  -1.13278
 Alpha  occ. eigenvalues --   -1.13260  -1.13238  -1.12280  -1.12228  -1.12218
 Alpha  occ. eigenvalues --   -0.18268  -0.14219  -0.11352  -0.10517
 Alpha virt. eigenvalues --   -0.07869  -0.05733  -0.03697  -0.03539  -0.03086
 Alpha virt. eigenvalues --   -0.02423  -0.02180  -0.01796  -0.00667  -0.00406
 Alpha virt. eigenvalues --   -0.00267   0.00088   0.00414   0.00533   0.00653

  Beta  occ. eigenvalues --  -38.45783 -38.44796 -38.44715 -38.43855 -38.43839
  Beta  occ. eigenvalues --  -38.43653 -38.42714  -2.21549  -2.20609  -2.20557
  Beta  occ. eigenvalues --   -2.19775  -2.19669  -2.19406  -2.18578  -1.15223
  Beta  occ. eigenvalues --   -1.15215  -1.15191  -1.14320  -1.14261  -1.14253
  Beta  occ. eigenvalues --   -1.14242  -1.14223  -1.14187  -1.13485  -1.13433
  Beta  occ. eigenvalues --   -1.13388  -1.13357  -1.13323  -1.13297  -1.13125
  Beta  occ. eigenvalues --   -1.13108  -1.13078  -1.12283  -1.12221  -1.12209
  Beta  occ. eigenvalues --   -0.17646  -0.13974  -0.11175
  Beta virt. eigenvalues --   -0.07689  -0.06623  -0.05614  -0.03594  -0.03053
  Beta virt. eigenvalues --   -0.02861  -0.01954  -0.01407  -0.01372  -0.00591
  Beta virt. eigenvalues --   -0.00261  -0.00100   0.00121   0.00537   0.00612

 Mulliken charges and spin densities:
               1          2
     1  Na  -0.147343   0.001839
     2  Na   0.517914   0.089738
     3  Na   0.057004   0.011161
     4  Na   0.273128   0.208872
     5  Na  -0.671651   0.074525
     6  Na  -0.453678   0.517330
     7  Na   0.424625   0.096534
 Sum of Mulliken charges =  -0.00000   1.00000

 Dipole moment (field-independent basis, Debye):
    X=              0.4366    Y=             -0.1523    Z=              0.5459  Tot=              0.7154
 Quadrupole moment (field-independent basis, Debye-Ang):
   XX=            -47.0647   YY=            -75.2447   ZZ=            -73.4872
   XY=              1.3433   XZ=              0.0822   YZ=              0.0360

 Normal termination of Gaussian 16 at Sun Dec  3 20:58:25 2023.
