 Gaussian 16, Revision B.01,
 Gaussian 16:  ES64L-G16RevB.01 20-Dec-2017

 -------------------------
 #P B3LYP/6-311+g(d) force
 -------------------------

 -----
 DPGEN
 -----
 Symbolic Z-matrix:
 Charge =  0 Multiplicity = 2

                         Standard orientation:
 ---------------------------------------------------------------------
 Center     Atomic      Atomic             Coordinates (Angstroms)
 Number     Number       Type             X           Y           Z
 ---------------------------------------------------------------------
      1         11           0       -0.447032    0.076137    1.938164
      2         11           0       -3.009655   -1.031238   -0.309489
      3         11           0        0.177924   -2.651358   -0.245056
      4         11           0        3.021791   -0.857395    0.151732
      5         11           0        0.179579    0.054242   -1.113565
      6         11           0        2.523491    2.167095   -0.263944
      7         11           0       -2.446097    2.242517   -0.157843
 ---------------------------------------------------------------------

 SCF Done:  E(UB3LYP) =  -1136.12470768     A.U. after   21 cycles

 The electronic state is 2-A.
 Alpha  occ. eigenvalues --  -38.44461 -38.44393 -38.44026 -38.43888 -38.43198
 Alpha  occ. eigenvalues --  -38.43147 -38.42702  -2.20322  -2.20289  -2.19848
 Alpha  occ. eigenvalues --   -2.19735  -2.19312  -2.19080  -2.18640  -1.13995
 Alpha  occ. eigenvalues --   -1.13988  -1.13982  -1.13959  -1.13952  -1.13931
 Alpha  occ. eigenvalues --   -1.13514  -1.13501  -1.13498  -1.13413  -1.13391
 Alpha  occ. eigenvalues --   -1.13365  -1.13102  -1.13022  -1.12907  -1.12755
 Alpha  occ. eigenvalues --   -1.12690  -1.12669  -1.12339  -1.12263  -1.12249
 Alpha  occ. eigenvalues --   -0.18950  -0.13965  -0.11974  -0.10183
 Alpha virt. eigenvalues --   -0.06141  -0.05856  -0.04098  -0.03298  -0.02263
 Alpha virt. eigenvalues --   -0.02158  -0.01923  -0.01308  -0.00717  -0.00222
 Alpha virt. eigenvalues --   -0.00008   0.00283   0.00666   0.00758   0.00886

  Beta  occ. eigenvalues --  -38.44445 -38.44391 -38.44022 -38.43884 -38.43162
  Beta  occ. eigenvalues --  -38.43043 -38.42693  -2.20297  -2.20287  -2.19843
  Beta  occ. eigenvalues --   -2.19730  -2.19250  -2.18888  -2.18628  -1.13987
  Beta  occ. eigenvalues --   -1.13974  -1.13955  -1.13948  -1.13943  -1.13908
  Beta  occ. eigenvalues --   -1.13507  -1.13498  -1.13480  -1.13407  -1.13390
  Beta  occ. eigenvalues --   -1.13352  -1.13053  -1.12953  -1.12862  -1.12632
  Beta  occ. eigenvalues --   -1.12558  -1.12531  -1.12328  -1.12245  -1.12221
  Beta  occ. eigenvalues --   -0.18243  -0.13712  -0.11743
  Beta virt. eigenvalues --   -0.06332  -0.06000  -0.05825  -0.04076  -0.02563
  Beta virt. eigenvalues --   -0.02030  -0.01570  -0.01315  -0.00900  -0.00727
  Beta virt. eigenvalues --   -0.00227   0.00177   0.00348   0.00731   0.00771

 Mulliken charges and spin densities:
               1          2
     1  Na  -0.441898   0.614903
     2  Na   0.378969   0.127054
     3  Na   0.362493   0.107719
     4  Na   0.455287   0.093377
     5  Na  -1.083951  -0.057561
     6  Na   0.254270   0.054876
     7  Na   0.074828   0.059631
 Sum of Mulliken charges =  -0.00000   1.00000

 Dipole moment (field-independent basis, Debye):
    X=             -0.1477    Y=              0.1928    Z=              0.3236  Tot=              0.4046
 Quadrupole moment (field-independent basis, Debye-Ang):
   XX=            -51.1363   YY=            -63.3561   ZZ=            -77.1095
   XY=             -0.4457   XZ=              1.4108   YZ=             -0.7744

 Normal termination of Gaussian 16 at Sat Dec  9 06:31:56 2023.
