 Gaussian 16, Revision B.01,
 Gaussian 16:  ES64L-G16RevB.01 20-Dec-2017

 -------------------------
 #P B3LYP/6-311+g(d) force
 -------------------------

 -----
 DPGEN
 -----
 Symbolic Z-matrix:
 Charge =  0 Multiplicity = 2

                         Standard orientation:
 ---------------------------------------------------------------------
 Center     Atomic      Atomic             Coordinates (Angstroms)
 Number     Number       Type             X           Y           Z
 ---------------------------------------------------------------------
      1         11           0       -2.775604   -1.370225   -0.019961
      2         11           0        0.092749    0.165734    2.171151
      3         11           0        0.333481   -0.146467   -1.385941
      4         11           0        3.520217   -0.478571   -0.071234
      5         11           0       -2.341275    2.017047   -0.298213
      6         11           0        0.096752   -2.905783   -0.187256
      7         11           0        1.073680    2.718264   -0.208547
 ---------------------------------------------------------------------

 SCF Done:  E(UB3LYP) =  -1136.13352676     A.U. after   19 cycles

 The electronic state is 2-A.
 Alpha  occ. eigenvalues --  -38.44668 -38.43749 -38.43739 -38.43614 -38.43609
 Alpha  occ. eigenvalues --  -38.43549 -38.43000  -2.20430  -2.19598  -2.19588
 Alpha  occ. eigenvalues --   -2.19486  -2.19442  -2.19410  -2.19017  -1.14107
 Alpha  occ. eigenvalues --   -1.14080  -1.14074  -1.13308  -1.13291  -1.13270
 Alpha  occ. eigenvalues --   -1.13257  -1.13254  -1.13225  -1.13205  -1.13130
 Alpha  occ. eigenvalues --   -1.13111  -1.13099  -1.13086  -1.13077  -1.13071
 Alpha  occ. eigenvalues --   -1.13030  -1.13022  -1.12701  -1.12676  -1.12612
 Alpha  occ. eigenvalues --   -0.18470  -0.12848  -0.12562  -0.10495
 Alpha virt. eigenvalues --   -0.06102  -0.05075  -0.04767  -0.02952  -0.02785
 Alpha virt. eigenvalues --   -0.02467  -0.01908  -0.01167  -0.00518  -0.00418
 Alpha virt. eigenvalues --   -0.00026   0.00301   0.00756   0.00823   0.00864

  Beta  occ. eigenvalues --  -38.44669 -38.43746 -38.43732 -38.43608 -38.43603
  Beta  occ. eigenvalues --  -38.43440 -38.42953  -2.20434  -2.19596  -2.19578
  Beta  occ. eigenvalues --   -2.19478  -2.19433  -2.19208  -2.18933  -1.14096
  Beta  occ. eigenvalues --   -1.14085  -1.14077  -1.13299  -1.13290  -1.13270
  Beta  occ. eigenvalues --   -1.13235  -1.13225  -1.13214  -1.13202  -1.13105
  Beta  occ. eigenvalues --   -1.13100  -1.13085  -1.13079  -1.13074  -1.12938
  Beta  occ. eigenvalues --   -1.12888  -1.12881  -1.12634  -1.12616  -1.12552
  Beta  occ. eigenvalues --   -0.17763  -0.12654  -0.12337
  Beta virt. eigenvalues --   -0.06532  -0.06084  -0.05054  -0.04725  -0.02223
  Beta virt. eigenvalues --   -0.02043  -0.01839  -0.01337  -0.01095  -0.00570
  Beta virt. eigenvalues --   -0.00454   0.00140   0.00345   0.00788   0.00849

 Mulliken charges and spin densities:
               1          2
     1  Na   0.178577   0.051299
     2  Na  -0.596860   0.779940
     3  Na  -0.525533   0.151845
     4  Na   0.156538  -0.047999
     5  Na   0.144640   0.045294
     6  Na   0.375554   0.013222
     7  Na   0.267084   0.006399
 Sum of Mulliken charges =  -0.00000   1.00000

 Dipole moment (field-independent basis, Debye):
    X=              0.4697    Y=             -0.0091    Z=              0.1854  Tot=              0.5051
 Quadrupole moment (field-independent basis, Debye-Ang):
   XX=            -53.7267   YY=            -62.1653   ZZ=            -76.3015
   XY=             -0.2721   XZ=              0.4996   YZ=             -0.7189

 Normal termination of Gaussian 16 at Thu Dec  7 08:38:18 2023.
