 Gaussian 16, Revision B.01,
 Gaussian 16:  ES64L-G16RevB.01 20-Dec-2017

 -------------------------
 #P B3LYP/6-311+g(d) force
 -------------------------

 -----
 DPGEN
 -----
 Symbolic Z-matrix:
 Charge =  0 Multiplicity = 2

                         Standard orientation:
 ---------------------------------------------------------------------
 Center     Atomic      Atomic             Coordinates (Angstroms)
 Number     Number       Type             X           Y           Z
 ---------------------------------------------------------------------
      1         11           0       -0.136079   -0.297670    1.982578
      2         11           0       -0.765278    3.011732    0.110624
      3         11           0        2.895289    1.224092    0.273804
      4         11           0        2.199625   -2.177077   -0.229729
      5         11           0       -3.198718    0.200278   -0.163471
      6         11           0       -1.456344   -2.635645   -0.237268
      7         11           0        0.461503    0.674290   -1.736538
 ---------------------------------------------------------------------

 SCF Done:  E(UB3LYP) =  -1136.13692537     A.U. after   19 cycles

 The electronic state is 2-A.
 Alpha  occ. eigenvalues --  -38.44242 -38.44139 -38.43804 -38.43708 -38.43478
 Alpha  occ. eigenvalues --  -38.43459 -38.43359  -2.20073  -2.19946  -2.19622
 Alpha  occ. eigenvalues --   -2.19526  -2.19335  -2.19310  -2.19278  -1.13770
 Alpha  occ. eigenvalues --   -1.13732  -1.13703  -1.13624  -1.13611  -1.13586
 Alpha  occ. eigenvalues --   -1.13296  -1.13285  -1.13262  -1.13233  -1.13186
 Alpha  occ. eigenvalues --   -1.13156  -1.13019  -1.12990  -1.12976  -1.12957
 Alpha  occ. eigenvalues --   -1.12950  -1.12949  -1.12941  -1.12914  -1.12896
 Alpha  occ. eigenvalues --   -0.18252  -0.13012  -0.12453  -0.10462
 Alpha virt. eigenvalues --   -0.05825  -0.05353  -0.04858  -0.03216  -0.02938
 Alpha virt. eigenvalues --   -0.02379  -0.01527  -0.01226  -0.00639  -0.00511
 Alpha virt. eigenvalues --   -0.00015   0.00370   0.00778   0.00807   0.00867

  Beta  occ. eigenvalues --  -38.44236 -38.44137 -38.43798 -38.43704 -38.43473
  Beta  occ. eigenvalues --  -38.43371 -38.43300  -2.20066  -2.19944  -2.19615
  Beta  occ. eigenvalues --   -2.19523  -2.19303  -2.19174  -2.19167  -1.13760
  Beta  occ. eigenvalues --   -1.13709  -1.13700  -1.13619  -1.13598  -1.13587
  Beta  occ. eigenvalues --   -1.13285  -1.13266  -1.13260  -1.13223  -1.13167
  Beta  occ. eigenvalues --   -1.13157  -1.12983  -1.12957  -1.12946  -1.12897
  Beta  occ. eigenvalues --   -1.12873  -1.12842  -1.12836  -1.12835  -1.12817
  Beta  occ. eigenvalues --   -0.17543  -0.12812  -0.12247
  Beta virt. eigenvalues --   -0.06621  -0.05794  -0.05344  -0.04729  -0.02461
  Beta virt. eigenvalues --   -0.02202  -0.01439  -0.01374  -0.01151  -0.00684
  Beta virt. eigenvalues --   -0.00549   0.00139   0.00405   0.00807   0.00845

 Mulliken charges and spin densities:
               1          2
     1  Na  -0.286502   0.757883
     2  Na   0.115567  -0.114997
     3  Na   0.233577  -0.069635
     4  Na   0.043433  -0.049193
     5  Na   0.016206  -0.066471
     6  Na  -0.019052  -0.045085
     7  Na  -0.103230   0.587498
 Sum of Mulliken charges =  -0.00000   1.00000

 Dipole moment (field-independent basis, Debye):
    X=              0.1394    Y=              0.1833    Z=              0.0636  Tot=              0.2389
 Quadrupole moment (field-independent basis, Debye-Ang):
   XX=            -56.6056   YY=            -61.7391   ZZ=            -75.2820
   XY=             -0.4411   XZ=              1.1939   YZ=              2.1512

 Normal termination of Gaussian 16 at Tue Dec  5 12:35:20 2023.
