 Gaussian 16, Revision B.01,
 Gaussian 16:  ES64L-G16RevB.01 20-Dec-2017

 -------------------------
 #P B3LYP/6-311+g(d) force
 -------------------------

 -----
 DPGEN
 -----
 Symbolic Z-matrix:
 Charge =  0 Multiplicity = 2

                         Standard orientation:
 ---------------------------------------------------------------------
 Center     Atomic      Atomic             Coordinates (Angstroms)
 Number     Number       Type             X           Y           Z
 ---------------------------------------------------------------------
      1         11           0        1.550025    2.434660   -0.034341
      2         11           0       -3.063505   -1.335776   -0.386569
      3         11           0       -0.101302    0.331550    1.961353
      4         11           0        0.228169   -2.644387    0.522700
      5         11           0        0.141628   -0.081137   -1.742773
      6         11           0        3.201173   -0.908227   -0.277560
      7         11           0       -1.956188    2.203317   -0.042808
 ---------------------------------------------------------------------

 SCF Done:  E(UB3LYP) =  -1136.13883005     A.U. after   19 cycles

 The electronic state is 2-A.
 Alpha  occ. eigenvalues --  -38.44007 -38.43947 -38.43608 -38.43489 -38.43433
 Alpha  occ. eigenvalues --  -38.43428 -38.43232  -2.19816  -2.19738  -2.19462
 Alpha  occ. eigenvalues --   -2.19421  -2.19375  -2.19296  -2.19100  -1.13491
 Alpha  occ. eigenvalues --   -1.13467  -1.13465  -1.13412  -1.13392  -1.13383
 Alpha  occ. eigenvalues --   -1.13180  -1.13145  -1.13098  -1.13088  -1.13063
 Alpha  occ. eigenvalues --   -1.13060  -1.13037  -1.13031  -1.12988  -1.12959
 Alpha  occ. eigenvalues --   -1.12946  -1.12905  -1.12789  -1.12766  -1.12708
 Alpha  occ. eigenvalues --   -0.18622  -0.12814  -0.12490  -0.10855
 Alpha virt. eigenvalues --   -0.05621  -0.05278  -0.04476  -0.03107  -0.03025
 Alpha virt. eigenvalues --   -0.02592  -0.01660  -0.01173  -0.00259  -0.00241
 Alpha virt. eigenvalues --   -0.00008   0.00336   0.00774   0.00854   0.00906

  Beta  occ. eigenvalues --  -38.44005 -38.43942 -38.43602 -38.43422 -38.43397
  Beta  occ. eigenvalues --  -38.43368 -38.43216  -2.19814  -2.19731  -2.19456
  Beta  occ. eigenvalues --   -2.19289  -2.19257  -2.19251  -2.19075  -1.13480
  Beta  occ. eigenvalues --   -1.13466  -1.13460  -1.13396  -1.13385  -1.13379
  Beta  occ. eigenvalues --   -1.13159  -1.13120  -1.13080  -1.13026  -1.12979
  Beta  occ. eigenvalues --   -1.12978  -1.12957  -1.12922  -1.12917  -1.12912
  Beta  occ. eigenvalues --   -1.12893  -1.12881  -1.12765  -1.12722  -1.12696
  Beta  occ. eigenvalues --   -0.17888  -0.12571  -0.12240
  Beta virt. eigenvalues --   -0.06961  -0.05535  -0.05287  -0.04418  -0.02384
  Beta virt. eigenvalues --   -0.02247  -0.01559  -0.01541  -0.01133  -0.00311
  Beta virt. eigenvalues --   -0.00213   0.00103   0.00362   0.00835   0.00848

 Mulliken charges and spin densities:
               1          2
     1  Na   0.159069  -0.109883
     2  Na  -0.032043  -0.042194
     3  Na  -0.147991   0.596232
     4  Na   0.127317   0.014368
     5  Na  -0.321493   0.695800
     6  Na   0.073218  -0.074551
     7  Na   0.141924  -0.079773
 Sum of Mulliken charges =  -0.00000   1.00000

 Dipole moment (field-independent basis, Debye):
    X=              0.0363    Y=              0.0757    Z=             -0.0444  Tot=              0.0950
 Quadrupole moment (field-independent basis, Debye-Ang):
   XX=            -55.1328   YY=            -64.2282   ZZ=            -73.7160
   XY=             -0.0542   XZ=              0.5085   YZ=             -0.5523

 Normal termination of Gaussian 16 at Fri Dec  8 06:00:24 2023.
