 Gaussian 16, Revision B.01,
 Gaussian 16:  ES64L-G16RevB.01 20-Dec-2017

 -------------------------
 #P B3LYP/6-311+g(d) force
 -------------------------

 -----
 DPGEN
 -----
 Symbolic Z-matrix:
 Charge =  0 Multiplicity = 2

                         Standard orientation:
 ---------------------------------------------------------------------
 Center     Atomic      Atomic             Coordinates (Angstroms)
 Number     Number       Type             X           Y           Z
 ---------------------------------------------------------------------
      1         11           0        0.574840   -0.852168    1.482591
      2         11           0        0.631951   -0.894547   -1.495791
      3         11           0        3.075716   -0.320806    0.025992
      4         11           0        0.897926    1.904067   -0.126995
      5         11           0       -1.736994    0.884502   -1.420062
      6         11           0       -1.503277    1.074863    1.458477
      7         11           0       -1.940163   -1.795911    0.075788
 ---------------------------------------------------------------------

 SCF Done:  E(UB3LYP) =  -1136.10151273     A.U. after   21 cycles

 The electronic state is 2-A.
 Alpha  occ. eigenvalues --  -38.44205 -38.43976 -38.43883 -38.43843 -38.43714
 Alpha  occ. eigenvalues --  -38.42911 -38.42428  -2.20185  -2.20071  -2.20040
 Alpha  occ. eigenvalues --   -2.19980  -2.19875  -2.18925  -2.18519  -1.14039
 Alpha  occ. eigenvalues --   -1.13963  -1.13907  -1.13878  -1.13836  -1.13794
 Alpha  occ. eigenvalues --   -1.13738  -1.13673  -1.13612  -1.13557  -1.13517
 Alpha  occ. eigenvalues --   -1.13495  -1.13493  -1.13447  -1.13440  -1.12614
 Alpha  occ. eigenvalues --   -1.12582  -1.12540  -1.12238  -1.12182  -1.12116
 Alpha  occ. eigenvalues --   -0.21052  -0.14035  -0.12736  -0.11843
 Alpha virt. eigenvalues --   -0.05586  -0.04201  -0.03988  -0.03696  -0.02962
 Alpha virt. eigenvalues --   -0.02922  -0.01336  -0.00387  -0.00352   0.00308
 Alpha virt. eigenvalues --    0.00658   0.00865   0.00906   0.01046   0.01058

  Beta  occ. eigenvalues --  -38.44202 -38.43924 -38.43830 -38.43775 -38.43653
  Beta  occ. eigenvalues --  -38.42902 -38.42414  -2.20181  -2.19978  -2.19925
  Beta  occ. eigenvalues --   -2.19881  -2.19767  -2.18915  -2.18499  -1.14003
  Beta  occ. eigenvalues --   -1.13896  -1.13865  -1.13813  -1.13790  -1.13750
  Beta  occ. eigenvalues --   -1.13669  -1.13609  -1.13540  -1.13487  -1.13451
  Beta  occ. eigenvalues --   -1.13429  -1.13403  -1.13376  -1.13339  -1.12612
  Beta  occ. eigenvalues --   -1.12549  -1.12520  -1.12231  -1.12121  -1.12107
  Beta  occ. eigenvalues --   -0.20194  -0.13813  -0.11611
  Beta virt. eigenvalues --   -0.08309  -0.05494  -0.04011  -0.03457  -0.03268
  Beta virt. eigenvalues --   -0.02199  -0.02025  -0.01280  -0.00349  -0.00091
  Beta virt. eigenvalues --    0.00342   0.00721   0.00904   0.01042   0.01067

 Mulliken charges and spin densities:
               1          2
     1  Na  -0.270400   0.360249
     2  Na  -0.296321   0.349148
     3  Na   0.825631  -0.015238
     4  Na  -0.782233   0.109182
     5  Na   0.332699   0.168362
     6  Na   0.436098   0.102392
     7  Na  -0.245474  -0.074096
 Sum of Mulliken charges =  -0.00000   1.00000

 Dipole moment (field-independent basis, Debye):
    X=              0.2450    Y=             -0.0196    Z=             -0.0734  Tot=              0.2565
 Quadrupole moment (field-independent basis, Debye-Ang):
   XX=            -56.1426   YY=            -75.0981   ZZ=            -64.8449
   XY=              0.2668   XZ=              0.2505   YZ=             -0.3024

 Normal termination of Gaussian 16 at Fri Dec  8 19:23:27 2023.
