 Gaussian 16, Revision B.01,
 Gaussian 16:  ES64L-G16RevB.01 20-Dec-2017

 -------------------------
 #P B3LYP/6-311+g(d) force
 -------------------------

 -----
 DPGEN
 -----
 Symbolic Z-matrix:
 Charge =  0 Multiplicity = 2

                         Standard orientation:
 ---------------------------------------------------------------------
 Center     Atomic      Atomic             Coordinates (Angstroms)
 Number     Number       Type             X           Y           Z
 ---------------------------------------------------------------------
      1         11           0        2.124500   -1.820298    2.052787
      2         11           0        1.897153    1.713030   -1.352732
      3         11           0        1.921661   -1.679151   -1.050004
      4         11           0       -1.513453   -1.282268   -2.138314
      5         11           0       -0.545401    0.761846    1.670031
      6         11           0       -3.559507   -0.948687    0.567796
      7         11           0       -0.324954    3.255527    0.250437
 ---------------------------------------------------------------------

 SCF Done:  E(UB3LYP) =  -1136.11872630     A.U. after   20 cycles

 The electronic state is 2-A.
 Alpha  occ. eigenvalues --  -38.44518 -38.44497 -38.44495 -38.44202 -38.43817
 Alpha  occ. eigenvalues --  -38.43523 -38.43403  -2.20347  -2.20338  -2.20285
 Alpha  occ. eigenvalues --   -2.20092  -2.19592  -2.19407  -2.19262  -1.14005
 Alpha  occ. eigenvalues --   -1.14004  -1.13988  -1.13987  -1.13981  -1.13975
 Alpha  occ. eigenvalues --   -1.13951  -1.13940  -1.13905  -1.13851  -1.13734
 Alpha  occ. eigenvalues --   -1.13704  -1.13263  -1.13250  -1.13240  -1.13085
 Alpha  occ. eigenvalues --   -1.13047  -1.13019  -1.12939  -1.12925  -1.12913
 Alpha  occ. eigenvalues --   -0.17558  -0.12732  -0.12436  -0.12022
 Alpha virt. eigenvalues --   -0.05785  -0.05291  -0.04698  -0.03482  -0.03365
 Alpha virt. eigenvalues --   -0.03158  -0.01309  -0.00967  -0.00659  -0.00047
 Alpha virt. eigenvalues --    0.00072   0.00344   0.00393   0.00574   0.00652

  Beta  occ. eigenvalues --  -38.44456 -38.44451 -38.44450 -38.44155 -38.43825
  Beta  occ. eigenvalues --  -38.43527 -38.43395  -2.20262  -2.20221  -2.20201
  Beta  occ. eigenvalues --   -2.20004  -2.19608  -2.19414  -2.19253  -1.13954
  Beta  occ. eigenvalues --   -1.13939  -1.13928  -1.13921  -1.13896  -1.13893
  Beta  occ. eigenvalues --   -1.13890  -1.13884  -1.13844  -1.13788  -1.13676
  Beta  occ. eigenvalues --   -1.13642  -1.13272  -1.13257  -1.13251  -1.13081
  Beta  occ. eigenvalues --   -1.13044  -1.13026  -1.12926  -1.12916  -1.12886
  Beta  occ. eigenvalues --   -0.16820  -0.12484  -0.12296
  Beta virt. eigenvalues --   -0.08266  -0.05387  -0.04775  -0.04297  -0.03106
  Beta virt. eigenvalues --   -0.02957  -0.02687  -0.01149  -0.00867  -0.00378
  Beta virt. eigenvalues --    0.00098   0.00245   0.00431   0.00462   0.00721

 Mulliken charges and spin densities:
               1          2
     1  Na  -0.154685   0.550681
     2  Na  -0.449483   0.357926
     3  Na   0.452476  -0.305564
     4  Na  -0.269021   0.321699
     5  Na  -0.059296  -0.010152
     6  Na   0.089197   0.018201
     7  Na   0.390813   0.067210
 Sum of Mulliken charges =  -0.00000   1.00000

 Dipole moment (field-independent basis, Debye):
    X=              0.0356    Y=              0.0724    Z=             -0.0572  Tot=              0.0989
 Quadrupole moment (field-independent basis, Debye-Ang):
   XX=            -65.8063   YY=            -68.9963   ZZ=            -63.3746
   XY=             -0.6559   XZ=             -1.4193   YZ=             -2.5430

 Normal termination of Gaussian 16 at Mon Dec  4 05:11:24 2023.
