 Gaussian 16, Revision B.01,
 Gaussian 16:  ES64L-G16RevB.01 20-Dec-2017

 -------------------------
 #P B3LYP/6-311+g(d) force
 -------------------------

 -----
 DPGEN
 -----
 Symbolic Z-matrix:
 Charge =  0 Multiplicity = 2

                         Standard orientation:
 ---------------------------------------------------------------------
 Center     Atomic      Atomic             Coordinates (Angstroms)
 Number     Number       Type             X           Y           Z
 ---------------------------------------------------------------------
      1         11           0        0.199700    0.353505   -1.751290
      2         11           0        2.616490    1.775477    0.017559
      3         11           0       -1.598370    2.334332    0.147290
      4         11           0       -3.322855   -0.606652   -0.308478
      5         11           0       -0.384309   -2.369020    0.041788
      6         11           0        2.609723   -1.498229   -0.090356
      7         11           0       -0.120378    0.010587    1.943486
 ---------------------------------------------------------------------

 SCF Done:  E(UB3LYP) =  -1136.13219471     A.U. after   20 cycles

 The electronic state is 2-A.
 Alpha  occ. eigenvalues --  -38.44677 -38.43952 -38.43786 -38.43535 -38.43469
 Alpha  occ. eigenvalues --  -38.43436 -38.42554  -2.20488  -2.19790  -2.19686
 Alpha  occ. eigenvalues --   -2.19490  -2.19436  -2.19303  -2.18515  -1.14154
 Alpha  occ. eigenvalues --   -1.14146  -1.14130  -1.13490  -1.13463  -1.13430
 Alpha  occ. eigenvalues --   -1.13376  -1.13336  -1.13314  -1.13192  -1.13152
 Alpha  occ. eigenvalues --   -1.13120  -1.13095  -1.13089  -1.13048  -1.12968
 Alpha  occ. eigenvalues --   -1.12959  -1.12915  -1.12217  -1.12174  -1.12131
 Alpha  occ. eigenvalues --   -0.19054  -0.13523  -0.12043  -0.10894
 Alpha virt. eigenvalues --   -0.06185  -0.05258  -0.03844  -0.03428  -0.02731
 Alpha virt. eigenvalues --   -0.02558  -0.01990  -0.01069  -0.00267  -0.00058
 Alpha virt. eigenvalues --    0.00069   0.00317   0.00744   0.00854   0.00900

  Beta  occ. eigenvalues --  -38.44673 -38.43950 -38.43782 -38.43440 -38.43428
  Beta  occ. eigenvalues --  -38.43403 -38.42542  -2.20481  -2.19789  -2.19682
  Beta  occ. eigenvalues --   -2.19317  -2.19312  -2.19292  -2.18499  -1.14146
  Beta  occ. eigenvalues --   -1.14130  -1.14128  -1.13491  -1.13450  -1.13421
  Beta  occ. eigenvalues --   -1.13375  -1.13317  -1.13304  -1.13089  -1.13052
  Beta  occ. eigenvalues --   -1.13028  -1.13015  -1.12972  -1.12959  -1.12928
  Beta  occ. eigenvalues --   -1.12915  -1.12909  -1.12207  -1.12136  -1.12114
  Beta  occ. eigenvalues --   -0.18300  -0.13289  -0.11775
  Beta virt. eigenvalues --   -0.06966  -0.06108  -0.05261  -0.03853  -0.02643
  Beta virt. eigenvalues --   -0.01927  -0.01889  -0.01486  -0.01009  -0.00318
  Beta virt. eigenvalues --    0.00021   0.00103   0.00343   0.00804   0.00854

 Mulliken charges and spin densities:
               1          2
     1  Na  -0.522459   0.543747
     2  Na   0.302447  -0.087022
     3  Na   0.215338  -0.098591
     4  Na   0.023101  -0.014185
     5  Na   0.342673   0.037644
     6  Na   0.157227  -0.024599
     7  Na  -0.518326   0.643006
 Sum of Mulliken charges =  -0.00000   1.00000

 Dipole moment (field-independent basis, Debye):
    X=             -0.2136    Y=              0.2457    Z=             -0.0164  Tot=              0.3260
 Quadrupole moment (field-independent basis, Debye-Ang):
   XX=            -51.0740   YY=            -68.4821   ZZ=            -73.5284
   XY=              0.5761   XZ=              1.0995   YZ=              1.0402

 Normal termination of Gaussian 16 at Fri Dec  8 01:37:14 2023.
