 Gaussian 16, Revision B.01,
 Gaussian 16:  ES64L-G16RevB.01 20-Dec-2017

 -------------------------
 #P B3LYP/6-311+g(d) force
 -------------------------

 -----
 DPGEN
 -----
 Symbolic Z-matrix:
 Charge =  0 Multiplicity = 2

                         Standard orientation:
 ---------------------------------------------------------------------
 Center     Atomic      Atomic             Coordinates (Angstroms)
 Number     Number       Type             X           Y           Z
 ---------------------------------------------------------------------
      1         11           0       -0.169241    0.040912   -1.662640
      2         11           0       -1.690767    2.860980    0.056747
      3         11           0        0.147724   -0.173070    1.944334
      4         11           0        2.340788    2.152747   -0.256779
      5         11           0       -3.205107   -0.792712    0.172304
      6         11           0       -0.479657   -2.767741   -0.412011
      7         11           0        3.056260   -1.321116    0.158046
 ---------------------------------------------------------------------

 SCF Done:  E(UB3LYP) =  -1136.13473792     A.U. after   19 cycles

 The electronic state is 2-A.
 Alpha  occ. eigenvalues --  -38.44404 -38.44122 -38.44115 -38.43837 -38.43571
 Alpha  occ. eigenvalues --  -38.43235 -38.43218  -2.20206  -2.19915  -2.19912
 Alpha  occ. eigenvalues --   -2.19602  -2.19443  -2.19162  -2.19120  -1.13879
 Alpha  occ. eigenvalues --   -1.13864  -1.13848  -1.13599  -1.13590  -1.13584
 Alpha  occ. eigenvalues --   -1.13565  -1.13561  -1.13530  -1.13283  -1.13261
 Alpha  occ. eigenvalues --   -1.13245  -1.13127  -1.13075  -1.13054  -1.12939
 Alpha  occ. eigenvalues --   -1.12828  -1.12776  -1.12768  -1.12732  -1.12727
 Alpha  occ. eigenvalues --   -0.18213  -0.12965  -0.12192  -0.10422
 Alpha virt. eigenvalues --   -0.05881  -0.05606  -0.04687  -0.03126  -0.02720
 Alpha virt. eigenvalues --   -0.02364  -0.01775  -0.01354  -0.00701  -0.00506
 Alpha virt. eigenvalues --   -0.00016   0.00333   0.00724   0.00785   0.00846

  Beta  occ. eigenvalues --  -38.44401 -38.44117 -38.44113 -38.43838 -38.43486
  Beta  occ. eigenvalues --  -38.43220 -38.43149  -2.20203  -2.19911  -2.19905
  Beta  occ. eigenvalues --   -2.19607  -2.19287  -2.19099  -2.19035  -1.13866
  Beta  occ. eigenvalues --   -1.13860  -1.13844  -1.13592  -1.13571  -1.13567
  Beta  occ. eigenvalues --   -1.13562  -1.13559  -1.13528  -1.13276  -1.13263
  Beta  occ. eigenvalues --   -1.13247  -1.13023  -1.12966  -1.12939  -1.12884
  Beta  occ. eigenvalues --   -1.12743  -1.12735  -1.12723  -1.12681  -1.12658
  Beta  occ. eigenvalues --   -0.17493  -0.12758  -0.11967
  Beta virt. eigenvalues --   -0.06561  -0.05845  -0.05562  -0.04643  -0.02384
  Beta virt. eigenvalues --   -0.02017  -0.01660  -0.01363  -0.01263  -0.00741
  Beta virt. eigenvalues --   -0.00533   0.00126   0.00364   0.00774   0.00794

 Mulliken charges and spin densities:
               1          2
     1  Na   0.046875   0.522503
     2  Na  -0.148863  -0.131534
     3  Na  -0.308541   0.816957
     4  Na  -0.047543  -0.119974
     5  Na   0.050516  -0.042820
     6  Na   0.273308  -0.007948
     7  Na   0.134249  -0.037185
 Sum of Mulliken charges =  -0.00000   1.00000

 Dipole moment (field-independent basis, Debye):
    X=             -0.0064    Y=              0.0681    Z=              0.1400  Tot=              0.1558
 Quadrupole moment (field-independent basis, Debye-Ang):
   XX=            -53.4803   YY=            -62.2194   ZZ=            -76.3545
   XY=             -0.0430   XZ=             -0.9132   YZ=              0.3415

 Normal termination of Gaussian 16 at Tue Dec  5 21:58:22 2023.
