 Gaussian 16, Revision B.01,
 Gaussian 16:  ES64L-G16RevB.01 20-Dec-2017

 -------------------------
 #P B3LYP/6-311+g(d) force
 -------------------------

 -----
 DPGEN
 -----
 Symbolic Z-matrix:
 Charge =  0 Multiplicity = 2

                         Standard orientation:
 ---------------------------------------------------------------------
 Center     Atomic      Atomic             Coordinates (Angstroms)
 Number     Number       Type             X           Y           Z
 ---------------------------------------------------------------------
      1         11           0       -0.881780   -2.876852    1.031637
      2         11           0        4.354172   -0.610306   -0.138821
      3         11           0       -3.861341   -1.796460   -0.065422
      4         11           0        2.100874   -2.886913   -0.679001
      5         11           0       -3.582705    1.620838   -0.728997
      6         11           0       -0.773252    3.588139    0.426920
      7         11           0        2.644032    2.961553    0.153683
 ---------------------------------------------------------------------

 SCF Done:  E(UB3LYP) =  -1136.10814180     A.U. after   24 cycles

 The electronic state is 2-A.
 Alpha  occ. eigenvalues --  -38.45159 -38.44879 -38.44710 -38.44638 -38.44503
 Alpha  occ. eigenvalues --  -38.44056 -38.44001  -2.20931  -2.20671  -2.20474
 Alpha  occ. eigenvalues --   -2.20395  -2.20298  -2.19852  -2.19814  -1.14612
 Alpha  occ. eigenvalues --   -1.14602  -1.14583  -1.14345  -1.14341  -1.14333
 Alpha  occ. eigenvalues --   -1.14142  -1.14134  -1.14109  -1.14078  -1.14068
 Alpha  occ. eigenvalues --   -1.14022  -1.13953  -1.13942  -1.13931  -1.13508
 Alpha  occ. eigenvalues --   -1.13495  -1.13481  -1.13465  -1.13459  -1.13450
 Alpha  occ. eigenvalues --   -0.15604  -0.13893  -0.13481  -0.10648
 Alpha virt. eigenvalues --   -0.07904  -0.04807  -0.04562  -0.03534  -0.03443
 Alpha virt. eigenvalues --   -0.02453  -0.02168  -0.01930  -0.01296  -0.00843
 Alpha virt. eigenvalues --   -0.00558  -0.00109   0.00049   0.00342   0.00622

  Beta  occ. eigenvalues --  -38.45162 -38.44870 -38.44666 -38.44635 -38.44457
  Beta  occ. eigenvalues --  -38.43990 -38.43944  -2.20942  -2.20661  -2.20397
  Beta  occ. eigenvalues --   -2.20393  -2.20215  -2.19731  -2.19709  -1.14623
  Beta  occ. eigenvalues --   -1.14613  -1.14551  -1.14343  -1.14338  -1.14286
  Beta  occ. eigenvalues --   -1.14092  -1.14088  -1.14081  -1.14069  -1.14047
  Beta  occ. eigenvalues --   -1.13985  -1.13897  -1.13887  -1.13868  -1.13425
  Beta  occ. eigenvalues --   -1.13415  -1.13401  -1.13395  -1.13387  -1.13381
  Beta  occ. eigenvalues --   -0.15072  -0.13170  -0.12762
  Beta virt. eigenvalues --   -0.08059  -0.07564  -0.04364  -0.04069  -0.03249
  Beta virt. eigenvalues --   -0.03114  -0.02268  -0.02026  -0.01737  -0.01205
  Beta virt. eigenvalues --   -0.00506  -0.00281   0.00066   0.00223   0.00405

 Mulliken charges and spin densities:
               1          2
     1  Na  -0.455669   0.258124
     2  Na   0.180531   0.193494
     3  Na   0.379561   0.007578
     4  Na  -0.084387   0.057528
     5  Na  -0.005738   0.297343
     6  Na   0.041674  -0.015985
     7  Na  -0.055974   0.201918
 Sum of Mulliken charges =  -0.00000   1.00000

 Dipole moment (field-independent basis, Debye):
    X=              0.1845    Y=             -0.3360    Z=             -0.0651  Tot=              0.3888
 Quadrupole moment (field-independent basis, Debye-Ang):
   XX=            -59.7087   YY=            -68.6498   ZZ=            -72.0961
   XY=              3.7944   XZ=              0.6051   YZ=              1.6405

 Normal termination of Gaussian 16 at Mon Dec  4 02:33:51 2023.
