 Gaussian 16, Revision B.01,
 Gaussian 16:  ES64L-G16RevB.01 20-Dec-2017

 -------------------------
 #P B3LYP/6-311+g(d) force
 -------------------------

 -----
 DPGEN
 -----
 Symbolic Z-matrix:
 Charge =  0 Multiplicity = 2

                         Standard orientation:
 ---------------------------------------------------------------------
 Center     Atomic      Atomic             Coordinates (Angstroms)
 Number     Number       Type             X           Y           Z
 ---------------------------------------------------------------------
      1         11           0       -0.372918   -0.585378   -1.832597
      2         11           0        2.543929    0.842830   -1.084234
      3         11           0        1.364537    0.249516    1.983770
      4         11           0       -3.537630    0.787240   -0.321264
      5         11           0        0.186230    2.798891    0.398445
      6         11           0       -1.840696   -1.813219    0.932346
      7         11           0        1.656548   -2.279880   -0.076466
 ---------------------------------------------------------------------

 SCF Done:  E(UB3LYP) =  -1136.13255938     A.U. after   20 cycles

 The electronic state is 2-A.
 Alpha  occ. eigenvalues --  -38.44186 -38.43917 -38.43877 -38.43873 -38.43836
 Alpha  occ. eigenvalues --  -38.43156 -38.42974  -2.19966  -2.19829  -2.19804
 Alpha  occ. eigenvalues --   -2.19795  -2.19682  -2.18987  -2.18888  -1.13647
 Alpha  occ. eigenvalues --   -1.13623  -1.13610  -1.13551  -1.13521  -1.13494
 Alpha  occ. eigenvalues --   -1.13462  -1.13451  -1.13439  -1.13431  -1.13415
 Alpha  occ. eigenvalues --   -1.13396  -1.13352  -1.13341  -1.13294  -1.12680
 Alpha  occ. eigenvalues --   -1.12650  -1.12607  -1.12568  -1.12559  -1.12515
 Alpha  occ. eigenvalues --   -0.18616  -0.13200  -0.11997  -0.11484
 Alpha virt. eigenvalues --   -0.05816  -0.04909  -0.04251  -0.03670  -0.03065
 Alpha virt. eigenvalues --   -0.03007  -0.01470  -0.00820  -0.00374  -0.00059
 Alpha virt. eigenvalues --    0.00105   0.00389   0.00611   0.00844   0.00867

  Beta  occ. eigenvalues --  -38.44188 -38.43885 -38.43818 -38.43814 -38.43798
  Beta  occ. eigenvalues --  -38.43152 -38.42966  -2.19971  -2.19774  -2.19691
  Beta  occ. eigenvalues --   -2.19659  -2.19649  -2.18981  -2.18879  -1.13646
  Beta  occ. eigenvalues --   -1.13624  -1.13614  -1.13501  -1.13459  -1.13429
  Beta  occ. eigenvalues --   -1.13407  -1.13367  -1.13364  -1.13347  -1.13345
  Beta  occ. eigenvalues --   -1.13322  -1.13297  -1.13295  -1.13267  -1.12667
  Beta  occ. eigenvalues --   -1.12636  -1.12605  -1.12566  -1.12536  -1.12487
  Beta  occ. eigenvalues --   -0.17834  -0.13056  -0.11762
  Beta virt. eigenvalues --   -0.07478  -0.05726  -0.04749  -0.04108  -0.03171
  Beta virt. eigenvalues --   -0.02326  -0.02008  -0.01392  -0.00734  -0.00238
  Beta virt. eigenvalues --    0.00037   0.00132   0.00430   0.00774   0.00891

 Mulliken charges and spin densities:
               1          2
     1  Na  -0.305945   0.457359
     2  Na   0.355341   0.108931
     3  Na  -0.114236   0.502699
     4  Na   0.149788  -0.047176
     5  Na  -0.327038  -0.043875
     6  Na  -0.135718   0.011674
     7  Na   0.377808   0.010388
 Sum of Mulliken charges =  -0.00000   1.00000

 Dipole moment (field-independent basis, Debye):
    X=             -0.2794    Y=              0.0056    Z=             -0.0182  Tot=              0.2801
 Quadrupole moment (field-independent basis, Debye-Ang):
   XX=            -58.3037   YY=            -68.9157   ZZ=            -68.6909
   XY=             -1.8834   XZ=             -1.4419   YZ=             -2.3286

 Normal termination of Gaussian 16 at Tue Dec  5 14:22:14 2023.
