 Gaussian 16, Revision B.01,
 Gaussian 16:  ES64L-G16RevB.01 20-Dec-2017

 -------------------------
 #P B3LYP/6-311+g(d) force
 -------------------------

 -----
 DPGEN
 -----
 Symbolic Z-matrix:
 Charge =  0 Multiplicity = 2

                         Standard orientation:
 ---------------------------------------------------------------------
 Center     Atomic      Atomic             Coordinates (Angstroms)
 Number     Number       Type             X           Y           Z
 ---------------------------------------------------------------------
      1         11           0       -3.003958    0.319518    1.772944
      2         11           0        0.852978   -0.134666    2.183344
      3         11           0        0.127991   -2.068739   -0.856002
      4         11           0       -0.933472    2.319756   -1.060747
      5         11           0        3.072387   -1.015649    0.018392
      6         11           0       -2.843867   -0.905228   -1.460979
      7         11           0        2.727941    1.485008   -0.596951
 ---------------------------------------------------------------------

 SCF Done:  E(UB3LYP) =  -1136.10856151     A.U. after   27 cycles

 The electronic state is 2-A.
 Alpha  occ. eigenvalues --  -38.45420 -38.45164 -38.44819 -38.44369 -38.44332
 Alpha  occ. eigenvalues --  -38.43746 -38.42978  -2.21198  -2.21007  -2.20809
 Alpha  occ. eigenvalues --   -2.20268  -2.20170  -2.19510  -2.18832  -1.14860
 Alpha  occ. eigenvalues --   -1.14849  -1.14827  -1.14820  -1.14677  -1.14658
 Alpha  occ. eigenvalues --   -1.14635  -1.14416  -1.14401  -1.13877  -1.13856
 Alpha  occ. eigenvalues --   -1.13853  -1.13822  -1.13819  -1.13790  -1.13198
 Alpha  occ. eigenvalues --   -1.13179  -1.13129  -1.12509  -1.12495  -1.12482
 Alpha  occ. eigenvalues --   -0.18135  -0.14384  -0.11666  -0.11047
 Alpha virt. eigenvalues --   -0.06859  -0.05597  -0.05036  -0.03489  -0.02857
 Alpha virt. eigenvalues --   -0.02527  -0.02280  -0.01077  -0.00575  -0.00346
 Alpha virt. eigenvalues --    0.00051   0.00228   0.00250   0.00387   0.00606

  Beta  occ. eigenvalues --  -38.45376 -38.45089 -38.44817 -38.44360 -38.44302
  Beta  occ. eigenvalues --  -38.43728 -38.42964  -2.21118  -2.20869  -2.20808
  Beta  occ. eigenvalues --   -2.20253  -2.20115  -2.19476  -2.18809  -1.14818
  Beta  occ. eigenvalues --   -1.14799  -1.14788  -1.14773  -1.14588  -1.14557
  Beta  occ. eigenvalues --   -1.14544  -1.14411  -1.14383  -1.13860  -1.13847
  Beta  occ. eigenvalues --   -1.13811  -1.13805  -1.13786  -1.13753  -1.13171
  Beta  occ. eigenvalues --   -1.13151  -1.13108  -1.12495  -1.12478  -1.12451
  Beta  occ. eigenvalues --   -0.17570  -0.14123  -0.10828
  Beta virt. eigenvalues --   -0.07874  -0.06619  -0.05139  -0.04663  -0.03136
  Beta virt. eigenvalues --   -0.02203  -0.02163  -0.01939  -0.00653  -0.00498
  Beta virt. eigenvalues --   -0.00193   0.00200   0.00263   0.00287   0.00544

 Mulliken charges and spin densities:
               1          2
     1  Na   0.149110   0.170038
     2  Na  -0.469318   0.277244
     3  Na  -0.439192   0.060082
     4  Na  -0.361987   0.234950
     5  Na   0.884367   0.384159
     6  Na   0.388294   0.064254
     7  Na  -0.151274  -0.190726
 Sum of Mulliken charges =  -0.00000   1.00000

 Dipole moment (field-independent basis, Debye):
    X=             -0.5519    Y=             -0.1424    Z=              0.6412  Tot=              0.8580
 Quadrupole moment (field-independent basis, Debye-Ang):
   XX=            -51.2549   YY=            -80.3865   ZZ=            -67.1533
   XY=             -1.5522   XZ=             -0.7848   YZ=              0.1897

 Normal termination of Gaussian 16 at Thu Dec  7 06:49:57 2023.
