 Gaussian 16, Revision B.01,
 Gaussian 16:  ES64L-G16RevB.01 20-Dec-2017

 -------------------------
 #P B3LYP/6-311+g(d) force
 -------------------------

 -----
 DPGEN
 -----
 Symbolic Z-matrix:
 Charge =  0 Multiplicity = 2

                         Standard orientation:
 ---------------------------------------------------------------------
 Center     Atomic      Atomic             Coordinates (Angstroms)
 Number     Number       Type             X           Y           Z
 ---------------------------------------------------------------------
      1         11           0       -3.021887    0.452893   -1.094794
      2         11           0       -1.949582   -1.434804    1.992905
      3         11           0        2.462938   -1.977830   -0.557045
      4         11           0       -1.062885   -2.813940   -0.732173
      5         11           0        3.978470    0.774450   -0.370334
      6         11           0       -1.462517    3.139790   -0.730914
      7         11           0        1.055464    1.859441    1.492354
 ---------------------------------------------------------------------

 SCF Done:  E(UB3LYP) =  -1136.11769703     A.U. after   20 cycles

 The electronic state is 2-A.
 Alpha  occ. eigenvalues --  -38.44634 -38.44590 -38.44363 -38.44250 -38.44179
 Alpha  occ. eigenvalues --  -38.44115 -38.43754  -2.20430  -2.20411  -2.20191
 Alpha  occ. eigenvalues --   -2.20028  -2.19983  -2.19929  -2.19565  -1.14123
 Alpha  occ. eigenvalues --   -1.14092  -1.14075  -1.14073  -1.14051  -1.14044
 Alpha  occ. eigenvalues --   -1.13871  -1.13858  -1.13811  -1.13691  -1.13689
 Alpha  occ. eigenvalues --   -1.13650  -1.13649  -1.13638  -1.13622  -1.13602
 Alpha  occ. eigenvalues --   -1.13589  -1.13562  -1.13237  -1.13221  -1.13202
 Alpha  occ. eigenvalues --   -0.16717  -0.13642  -0.12762  -0.10537
 Alpha virt. eigenvalues --   -0.06760  -0.05816  -0.04594  -0.03534  -0.03223
 Alpha virt. eigenvalues --   -0.02234  -0.01833  -0.01356  -0.00930  -0.00848
 Alpha virt. eigenvalues --   -0.00386   0.00006   0.00212   0.00511   0.00593

  Beta  occ. eigenvalues --  -38.44640 -38.44526 -38.44317 -38.44201 -38.44152
  Beta  occ. eigenvalues --  -38.44115 -38.43743  -2.20442  -2.20290  -2.20110
  Beta  occ. eigenvalues --   -2.19936  -2.19934  -2.19929  -2.19549  -1.14126
  Beta  occ. eigenvalues --   -1.14102  -1.14072  -1.13996  -1.13970  -1.13958
  Beta  occ. eigenvalues --   -1.13816  -1.13803  -1.13744  -1.13628  -1.13624
  Beta  occ. eigenvalues --   -1.13616  -1.13610  -1.13593  -1.13591  -1.13590
  Beta  occ. eigenvalues --   -1.13582  -1.13554  -1.13221  -1.13214  -1.13174
  Beta  occ. eigenvalues --   -0.16205  -0.13346  -0.12369
  Beta virt. eigenvalues --   -0.07196  -0.06590  -0.05269  -0.04284  -0.03235
  Beta virt. eigenvalues --   -0.02740  -0.01849  -0.01541  -0.01153  -0.00853
  Beta virt. eigenvalues --   -0.00751  -0.00087   0.00225   0.00385   0.00615

 Mulliken charges and spin densities:
               1          2
     1  Na  -0.156145   0.284138
     2  Na   0.125361   0.211041
     3  Na  -0.234890   0.117385
     4  Na   0.050773   0.116064
     5  Na   0.458394  -0.096579
     6  Na   0.192709  -0.109079
     7  Na  -0.436202   0.477030
 Sum of Mulliken charges =  -0.00000   1.00000

 Dipole moment (field-independent basis, Debye):
    X=              0.3370    Y=             -0.1231    Z=             -0.0364  Tot=              0.3607
 Quadrupole moment (field-independent basis, Debye-Ang):
   XX=            -61.5736   YY=            -67.1786   ZZ=            -71.1203
   XY=              5.5536   XZ=             -1.6251   YZ=              0.2498

 Normal termination of Gaussian 16 at Sun Dec  3 19:19:33 2023.
