 Gaussian 16, Revision B.01,
 Gaussian 16:  ES64L-G16RevB.01 20-Dec-2017

 -------------------------
 #P B3LYP/6-311+g(d) force
 -------------------------

 -----
 DPGEN
 -----
 Symbolic Z-matrix:
 Charge =  0 Multiplicity = 2

                         Standard orientation:
 ---------------------------------------------------------------------
 Center     Atomic      Atomic             Coordinates (Angstroms)
 Number     Number       Type             X           Y           Z
 ---------------------------------------------------------------------
      1         11           0        2.090831   -2.245242   -0.113432
      2         11           0       -1.931154   -2.600653    0.142055
      3         11           0       -2.780722    0.698684    0.277214
      4         11           0       -0.557009   -0.098301   -1.560197
      5         11           0       -0.499250    3.042728   -0.095695
      6         11           0        0.734247    0.208496    1.633347
      7         11           0        2.943057    0.994287   -0.283293
 ---------------------------------------------------------------------

 SCF Done:  E(UB3LYP) =  -1136.13274182     A.U. after   21 cycles

 The electronic state is 2-A.
 Alpha  occ. eigenvalues --  -38.44245 -38.44080 -38.43857 -38.43749 -38.43487
 Alpha  occ. eigenvalues --  -38.42989 -38.42904  -2.20110  -2.19920  -2.19771
 Alpha  occ. eigenvalues --   -2.19571  -2.19338  -2.18967  -2.18903  -1.13834
 Alpha  occ. eigenvalues --   -1.13762  -1.13736  -1.13603  -1.13581  -1.13543
 Alpha  occ. eigenvalues --   -1.13517  -1.13419  -1.13401  -1.13246  -1.13226
 Alpha  occ. eigenvalues --   -1.13211  -1.13007  -1.13000  -1.12981  -1.12665
 Alpha  occ. eigenvalues --   -1.12611  -1.12584  -1.12572  -1.12541  -1.12502
 Alpha  occ. eigenvalues --   -0.18781  -0.13483  -0.12517  -0.10014
 Alpha virt. eigenvalues --   -0.05686  -0.05416  -0.05028  -0.03246  -0.02597
 Alpha virt. eigenvalues --   -0.01809  -0.01495  -0.01359  -0.00610  -0.00471
 Alpha virt. eigenvalues --    0.00047   0.00360   0.00798   0.00846   0.00864

  Beta  occ. eigenvalues --  -38.44237 -38.44074 -38.43848 -38.43747 -38.43482
  Beta  occ. eigenvalues --  -38.42921 -38.42839  -2.20100  -2.19912  -2.19758
  Beta  occ. eigenvalues --   -2.19569  -2.19332  -2.18842  -2.18786  -1.13822
  Beta  occ. eigenvalues --   -1.13743  -1.13724  -1.13594  -1.13555  -1.13542
  Beta  occ. eigenvalues --   -1.13503  -1.13399  -1.13384  -1.13239  -1.13216
  Beta  occ. eigenvalues --   -1.13209  -1.13006  -1.12983  -1.12966  -1.12577
  Beta  occ. eigenvalues --   -1.12521  -1.12496  -1.12483  -1.12458  -1.12415
  Beta  occ. eigenvalues --   -0.18088  -0.13243  -0.12293
  Beta virt. eigenvalues --   -0.06199  -0.05661  -0.05345  -0.04999  -0.02429
  Beta virt. eigenvalues --   -0.01904  -0.01411  -0.01288  -0.00897  -0.00655
  Beta virt. eigenvalues --   -0.00485   0.00195   0.00404   0.00805   0.00866

 Mulliken charges and spin densities:
               1          2
     1  Na   0.034778  -0.090954
     2  Na   0.016789  -0.067276
     3  Na   0.188812   0.026462
     4  Na  -0.310560   0.589934
     5  Na   0.145133  -0.059788
     6  Na  -0.278541   0.650404
     7  Na   0.203590  -0.048782
 Sum of Mulliken charges =  -0.00000   1.00000

 Dipole moment (field-independent basis, Debye):
    X=              0.3059    Y=             -0.1286    Z=             -0.0093  Tot=              0.3320
 Quadrupole moment (field-independent basis, Debye-Ang):
   XX=            -56.3269   YY=            -57.6630   ZZ=            -77.6740
   XY=              0.3325   XZ=             -2.7308   YZ=             -0.7998

 Normal termination of Gaussian 16 at Tue Nov 28 19:23:25 2023.
