 Gaussian 16, Revision B.01,
 Gaussian 16:  ES64L-G16RevB.01 20-Dec-2017

 -------------------------
 #P B3LYP/6-311+g(d) force
 -------------------------

 -----
 DPGEN
 -----
 Symbolic Z-matrix:
 Charge =  0 Multiplicity = 2

                         Standard orientation:
 ---------------------------------------------------------------------
 Center     Atomic      Atomic             Coordinates (Angstroms)
 Number     Number       Type             X           Y           Z
 ---------------------------------------------------------------------
      1         11           0       -2.162250   -2.079513    0.235180
      2         11           0        1.417144   -2.526168   -0.004188
      3         11           0        2.870365    0.043222   -0.182933
      4         11           0       -0.159713    0.252052    1.528856
      5         11           0        1.076497    2.865401    0.190121
      6         11           0       -0.171154    0.023547   -1.479372
      7         11           0       -2.870890    1.421460   -0.287663
 ---------------------------------------------------------------------

 SCF Done:  E(UB3LYP) =  -1136.13226016     A.U. after   23 cycles

 The electronic state is 2-A.
 Alpha  occ. eigenvalues --  -38.44211 -38.43830 -38.43682 -38.43562 -38.43329
 Alpha  occ. eigenvalues --  -38.42807 -38.42722  -2.20049  -2.19694  -2.19623
 Alpha  occ. eigenvalues --   -2.19427  -2.19244  -2.18877  -2.18778  -1.13732
 Alpha  occ. eigenvalues --   -1.13710  -1.13676  -1.13379  -1.13378  -1.13366
 Alpha  occ. eigenvalues --   -1.13315  -1.13288  -1.13263  -1.13120  -1.13082
 Alpha  occ. eigenvalues --   -1.13055  -1.12912  -1.12892  -1.12870  -1.12688
 Alpha  occ. eigenvalues --   -1.12489  -1.12482  -1.12427  -1.12384  -1.12380
 Alpha  occ. eigenvalues --   -0.19273  -0.13408  -0.12685  -0.10166
 Alpha virt. eigenvalues --   -0.05748  -0.05289  -0.04675  -0.03009  -0.02585
 Alpha virt. eigenvalues --   -0.01742  -0.01670  -0.01380  -0.00370  -0.00238
 Alpha virt. eigenvalues --    0.00067   0.00344   0.00794   0.00847   0.00906

  Beta  occ. eigenvalues --  -38.44199 -38.43820 -38.43672 -38.43555 -38.43323
  Beta  occ. eigenvalues --  -38.42742 -38.42651  -2.20031  -2.19680  -2.19610
  Beta  occ. eigenvalues --   -2.19417  -2.19238  -2.18761  -2.18649  -1.13713
  Beta  occ. eigenvalues --   -1.13681  -1.13668  -1.13374  -1.13371  -1.13333
  Beta  occ. eigenvalues --   -1.13304  -1.13282  -1.13221  -1.13106  -1.13061
  Beta  occ. eigenvalues --   -1.13047  -1.12909  -1.12885  -1.12840  -1.12601
  Beta  occ. eigenvalues --   -1.12405  -1.12397  -1.12336  -1.12290  -1.12284
  Beta  occ. eigenvalues --   -0.18584  -0.13111  -0.12400
  Beta virt. eigenvalues --   -0.06322  -0.05684  -0.05261  -0.04667  -0.02221
  Beta virt. eigenvalues --   -0.01872  -0.01547  -0.01291  -0.00810  -0.00412
  Beta virt. eigenvalues --   -0.00274   0.00200   0.00393   0.00823   0.00872

 Mulliken charges and spin densities:
               1          2
     1  Na   0.232599  -0.001684
     2  Na   0.128174   0.004283
     3  Na   0.331985   0.069690
     4  Na  -0.545775   0.539906
     5  Na   0.311828  -0.030238
     6  Na  -0.534687   0.480353
     7  Na   0.075876  -0.062311
 Sum of Mulliken charges =  -0.00000   1.00000

 Dipole moment (field-independent basis, Debye):
    X=             -0.4851    Y=              0.2002    Z=              0.0371  Tot=              0.5261
 Quadrupole moment (field-independent basis, Debye-Ang):
   XX=            -54.8086   YY=            -58.5855   ZZ=            -77.3837
   XY=              0.1462   XZ=             -0.1336   YZ=             -0.5957

 Normal termination of Gaussian 16 at Wed Nov 29 04:01:14 2023.
