 Gaussian 16, Revision B.01,
 Gaussian 16:  ES64L-G16RevB.01 20-Dec-2017

 -------------------------
 #P B3LYP/6-311+g(d) force
 -------------------------

 -----
 DPGEN
 -----
 Symbolic Z-matrix:
 Charge =  0 Multiplicity = 2

                         Standard orientation:
 ---------------------------------------------------------------------
 Center     Atomic      Atomic             Coordinates (Angstroms)
 Number     Number       Type             X           Y           Z
 ---------------------------------------------------------------------
      1         11           0       -1.616204   -1.600595   -1.089048
      2         11           0       -5.818879   -0.475907    0.277205
      3         11           0       -3.354907    1.900342   -1.194078
      4         11           0       -2.623525    0.664330    1.777598
      5         11           0        1.340898   -0.796645   -0.011389
      6         11           0        4.773977   -0.625429    0.484756
      7         11           0        7.298638    0.933904   -0.245045
 ---------------------------------------------------------------------

 SCF Done:  E(UB3LYP) =  -1136.10346996     A.U. after   36 cycles

 The electronic state is 2-A.
 Alpha  occ. eigenvalues --  -38.46379 -38.45016 -38.44775 -38.44360 -38.43760
 Alpha  occ. eigenvalues --  -38.43690 -38.43418  -2.22175  -2.20841  -2.20585
 Alpha  occ. eigenvalues --   -2.20142  -2.19575  -2.19514  -2.19217  -1.15850
 Alpha  occ. eigenvalues --   -1.15831  -1.15797  -1.14507  -1.14491  -1.14454
 Alpha  occ. eigenvalues --   -1.14270  -1.14237  -1.14205  -1.13833  -1.13797
 Alpha  occ. eigenvalues --   -1.13796  -1.13239  -1.13217  -1.13181  -1.13173
 Alpha  occ. eigenvalues --   -1.13172  -1.13157  -1.12895  -1.12884  -1.12865
 Alpha  occ. eigenvalues --   -0.16940  -0.13915  -0.11864  -0.10197
 Alpha virt. eigenvalues --   -0.07417  -0.06991  -0.04004  -0.03273  -0.02815
 Alpha virt. eigenvalues --   -0.02451  -0.02143  -0.01971  -0.01694  -0.01389
 Alpha virt. eigenvalues --   -0.01031  -0.00020   0.00078   0.00207   0.00285

  Beta  occ. eigenvalues --  -38.46355 -38.44960 -38.44750 -38.44371 -38.43688
  Beta  occ. eigenvalues --  -38.43672 -38.43428  -2.22136  -2.20741  -2.20540
  Beta  occ. eigenvalues --   -2.20163  -2.19508  -2.19411  -2.19237  -1.15811
  Beta  occ. eigenvalues --   -1.15790  -1.15771  -1.14435  -1.14414  -1.14381
  Beta  occ. eigenvalues --   -1.14237  -1.14200  -1.14177  -1.13845  -1.13811
  Beta  occ. eigenvalues --   -1.13810  -1.13170  -1.13167  -1.13160  -1.13127
  Beta  occ. eigenvalues --   -1.13100  -1.13073  -1.12909  -1.12894  -1.12874
  Beta  occ. eigenvalues --   -0.16315  -0.13913  -0.11631
  Beta virt. eigenvalues --   -0.07228  -0.06874  -0.06262  -0.03771  -0.03028
  Beta virt. eigenvalues --   -0.02771  -0.02251  -0.01814  -0.01757  -0.01085
  Beta virt. eigenvalues --   -0.00989  -0.00644   0.00081   0.00222   0.00258

 Mulliken charges and spin densities:
               1          2
     1  Na   1.141511  -0.105743
     2  Na  -0.032979   0.516884
     3  Na   0.147482   0.218211
     4  Na   0.166992   0.217714
     5  Na  -0.603698   0.080634
     6  Na  -1.071403   0.110872
     7  Na   0.252095  -0.038570
 Sum of Mulliken charges =  -0.00000   1.00000

 Dipole moment (field-independent basis, Debye):
    X=             -0.5128    Y=              1.1475    Z=              0.1011  Tot=              1.2609
 Quadrupole moment (field-independent basis, Debye-Ang):
   XX=            -68.1273   YY=            -75.8778   ZZ=            -60.7204
   XY=              1.8231   XZ=              0.3008   YZ=             -1.6722

 Normal termination of Gaussian 16 at Fri Dec  8 18:55:06 2023.
