 Gaussian 16, Revision B.01,
 Gaussian 16:  ES64L-G16RevB.01 20-Dec-2017

 -------------------------
 #P B3LYP/6-311+g(d) force
 -------------------------

 -----
 DPGEN
 -----
 Symbolic Z-matrix:
 Charge =  0 Multiplicity = 2

                         Standard orientation:
 ---------------------------------------------------------------------
 Center     Atomic      Atomic             Coordinates (Angstroms)
 Number     Number       Type             X           Y           Z
 ---------------------------------------------------------------------
      1         11           0        1.127273    2.291935   -1.224277
      2         11           0        3.118786    0.687718    0.769952
      3         11           0       -0.790841   -0.875868   -1.109306
      4         11           0        2.219353   -2.324356   -0.879600
      5         11           0        0.309114   -0.706900    2.059658
      6         11           0       -4.188346   -0.677412   -0.044134
      7         11           0       -1.795340    1.604882    0.427707
 ---------------------------------------------------------------------

 SCF Done:  E(UB3LYP) =  -1136.12036577     A.U. after   24 cycles

 The electronic state is 2-A.
 Alpha  occ. eigenvalues --  -38.45656 -38.45107 -38.44142 -38.43683 -38.43672
 Alpha  occ. eigenvalues --  -38.43209 -38.42449  -2.21431  -2.20942  -2.20018
 Alpha  occ. eigenvalues --   -2.19628  -2.19583  -2.19035  -2.18305  -1.15106
 Alpha  occ. eigenvalues --   -1.15094  -1.15062  -1.14627  -1.14604  -1.14567
 Alpha  occ. eigenvalues --   -1.13709  -1.13650  -1.13618  -1.13425  -1.13304
 Alpha  occ. eigenvalues --   -1.13259  -1.13249  -1.13210  -1.13165  -1.12708
 Alpha  occ. eigenvalues --   -1.12691  -1.12661  -1.11974  -1.11965  -1.11941
 Alpha  occ. eigenvalues --   -0.18395  -0.13871  -0.11301  -0.10895
 Alpha virt. eigenvalues --   -0.07399  -0.05026  -0.03960  -0.03403  -0.02938
 Alpha virt. eigenvalues --   -0.02521  -0.02218  -0.01268  -0.00627  -0.00182
 Alpha virt. eigenvalues --   -0.00004   0.00115   0.00278   0.00695   0.00771

  Beta  occ. eigenvalues --  -38.45665 -38.45092 -38.44055 -38.43663 -38.43640
  Beta  occ. eigenvalues --  -38.43186 -38.42428  -2.21448  -2.20918  -2.19857
  Beta  occ. eigenvalues --   -2.19574  -2.19550  -2.18994  -2.18266  -1.15117
  Beta  occ. eigenvalues --   -1.15103  -1.15074  -1.14591  -1.14579  -1.14559
  Beta  occ. eigenvalues --   -1.13602  -1.13532  -1.13505  -1.13391  -1.13252
  Beta  occ. eigenvalues --   -1.13226  -1.13196  -1.13177  -1.13143  -1.12671
  Beta  occ. eigenvalues --   -1.12663  -1.12632  -1.11948  -1.11935  -1.11910
  Beta  occ. eigenvalues --   -0.17680  -0.13737  -0.11045
  Beta virt. eigenvalues --   -0.07267  -0.06973  -0.04934  -0.03587  -0.02949
  Beta virt. eigenvalues --   -0.02799  -0.01988  -0.01340  -0.01127  -0.00423
  Beta virt. eigenvalues --   -0.00142   0.00029   0.00172   0.00443   0.00745

 Mulliken charges and spin densities:
               1          2
     1  Na   0.239563  -0.028132
     2  Na  -0.053750   0.188101
     3  Na  -0.780381   0.457808
     4  Na  -0.061030  -0.033847
     5  Na   0.091728   0.350839
     6  Na   0.390369  -0.058843
     7  Na   0.173501   0.124074
 Sum of Mulliken charges =  -0.00000   1.00000

 Dipole moment (field-independent basis, Debye):
    X=             -1.1640    Y=             -0.3159    Z=              0.4039  Tot=              1.2720
 Quadrupole moment (field-independent basis, Debye-Ang):
   XX=            -42.8332   YY=            -75.6800   ZZ=            -72.4873
   XY=              2.1023   XZ=             -0.2102   YZ=              1.1919

 Normal termination of Gaussian 16 at Fri Dec  8 01:09:35 2023.
