 Gaussian 16, Revision B.01,
 Gaussian 16:  ES64L-G16RevB.01 20-Dec-2017

 -------------------------
 #P B3LYP/6-311+g(d) force
 -------------------------

 -----
 DPGEN
 -----
 Symbolic Z-matrix:
 Charge =  0 Multiplicity = 2

                         Standard orientation:
 ---------------------------------------------------------------------
 Center     Atomic      Atomic             Coordinates (Angstroms)
 Number     Number       Type             X           Y           Z
 ---------------------------------------------------------------------
      1         11           0        0.851547    2.695024   -0.146356
      2         11           0        2.959223    0.495595   -0.066919
      3         11           0       -2.557664    1.674361   -0.100478
      4         11           0        1.806706   -2.562432   -0.133525
      5         11           0       -3.037301   -1.685972    0.021121
      6         11           0       -0.112074   -0.421129   -1.650946
      7         11           0        0.089563   -0.195447    2.077103
 ---------------------------------------------------------------------

 SCF Done:  E(UB3LYP) =  -1136.13364042     A.U. after   21 cycles

 The electronic state is 2-A.
 Alpha  occ. eigenvalues --  -38.44501 -38.44124 -38.44099 -38.43722 -38.43515
 Alpha  occ. eigenvalues --  -38.43391 -38.42778  -2.20288  -2.20027  -2.19927
 Alpha  occ. eigenvalues --   -2.19588  -2.19369  -2.19325  -2.18660  -1.13957
 Alpha  occ. eigenvalues --   -1.13948  -1.13937  -1.13726  -1.13679  -1.13677
 Alpha  occ. eigenvalues --   -1.13605  -1.13593  -1.13559  -1.13256  -1.13212
 Alpha  occ. eigenvalues --   -1.13207  -1.13085  -1.13021  -1.13015  -1.13001
 Alpha  occ. eigenvalues --   -1.12952  -1.12932  -1.12350  -1.12309  -1.12303
 Alpha  occ. eigenvalues --   -0.18559  -0.13469  -0.12070  -0.10675
 Alpha virt. eigenvalues --   -0.06077  -0.05546  -0.04252  -0.03402  -0.02649
 Alpha virt. eigenvalues --   -0.02585  -0.01797  -0.01254  -0.00574  -0.00208
 Alpha virt. eigenvalues --   -0.00024   0.00337   0.00705   0.00787   0.00884

  Beta  occ. eigenvalues --  -38.44502 -38.44118 -38.44096 -38.43623 -38.43510
  Beta  occ. eigenvalues --  -38.43329 -38.42773  -2.20293  -2.20019  -2.19924
  Beta  occ. eigenvalues --   -2.19406  -2.19364  -2.19213  -2.18655  -1.13954
  Beta  occ. eigenvalues --   -1.13947  -1.13938  -1.13725  -1.13677  -1.13642
  Beta  occ. eigenvalues --   -1.13597  -1.13577  -1.13562  -1.13136  -1.13086
  Beta  occ. eigenvalues --   -1.13077  -1.13060  -1.13018  -1.12989  -1.12929
  Beta  occ. eigenvalues --   -1.12874  -1.12856  -1.12349  -1.12306  -1.12275
  Beta  occ. eigenvalues --   -0.17821  -0.13274  -0.11849
  Beta virt. eigenvalues --   -0.06745  -0.06043  -0.05493  -0.04242  -0.02618
  Beta virt. eigenvalues --   -0.01923  -0.01721  -0.01489  -0.01162  -0.00637
  Beta virt. eigenvalues --   -0.00239   0.00138   0.00368   0.00762   0.00808

 Mulliken charges and spin densities:
               1          2
     1  Na  -0.153984  -0.005005
     2  Na   0.310908   0.127619
     3  Na   0.044952   0.020496
     4  Na   0.289687  -0.022910
     5  Na   0.113542  -0.076335
     6  Na  -0.139924   0.312058
     7  Na  -0.465181   0.644076
 Sum of Mulliken charges =  -0.00000   1.00000

 Dipole moment (field-independent basis, Debye):
    X=             -0.5281    Y=             -0.4286    Z=              0.1187  Tot=              0.6904
 Quadrupole moment (field-independent basis, Debye-Ang):
   XX=            -54.3821   YY=            -64.4907   ZZ=            -75.0333
   XY=              0.2042   XZ=             -0.3579   YZ=             -0.5246

 Normal termination of Gaussian 16 at Thu Dec  7 10:16:30 2023.
