 Gaussian 16, Revision B.01,
 Gaussian 16:  ES64L-G16RevB.01 20-Dec-2017

 -------------------------
 #P B3LYP/6-311+g(d) force
 -------------------------

 -----
 DPGEN
 -----
 Symbolic Z-matrix:
 Charge =  0 Multiplicity = 2

                         Standard orientation:
 ---------------------------------------------------------------------
 Center     Atomic      Atomic             Coordinates (Angstroms)
 Number     Number       Type             X           Y           Z
 ---------------------------------------------------------------------
      1         11           0        2.117282   -2.452331    0.110599
      2         11           0       -2.661418   -2.126228   -0.289525
      3         11           0        0.159159   -0.585900   -1.427144
      4         11           0        2.967524    0.774602   -0.079209
      5         11           0       -2.908711    1.552025   -0.126711
      6         11           0       -0.325030    0.005626    2.141970
      7         11           0        0.651193    2.832207   -0.329980
 ---------------------------------------------------------------------

 SCF Done:  E(UB3LYP) =  -1136.13095933     A.U. after   20 cycles

 The electronic state is 2-A.
 Alpha  occ. eigenvalues --  -38.44639 -38.44374 -38.43981 -38.43918 -38.43611
 Alpha  occ. eigenvalues --  -38.43245 -38.43033  -2.20414  -2.20160  -2.19866
 Alpha  occ. eigenvalues --   -2.19761  -2.19458  -2.19203  -2.18885  -1.14094
 Alpha  occ. eigenvalues --   -1.14071  -1.14053  -1.13838  -1.13814  -1.13794
 Alpha  occ. eigenvalues --   -1.13562  -1.13538  -1.13520  -1.13461  -1.13401
 Alpha  occ. eigenvalues --   -1.13388  -1.13123  -1.13081  -1.13072  -1.12894
 Alpha  occ. eigenvalues --   -1.12847  -1.12827  -1.12566  -1.12545  -1.12520
 Alpha  occ. eigenvalues --   -0.18258  -0.13318  -0.12157  -0.10401
 Alpha virt. eigenvalues --   -0.06112  -0.05741  -0.04456  -0.03262  -0.02621
 Alpha virt. eigenvalues --   -0.02365  -0.01791  -0.01502  -0.00741  -0.00405
 Alpha virt. eigenvalues --   -0.00023   0.00308   0.00689   0.00715   0.00878

  Beta  occ. eigenvalues --  -38.44637 -38.44366 -38.43976 -38.43916 -38.43505
  Beta  occ. eigenvalues --  -38.43202 -38.43027  -2.20414  -2.20148  -2.19860
  Beta  occ. eigenvalues --   -2.19758  -2.19262  -2.19126  -2.18876  -1.14078
  Beta  occ. eigenvalues --   -1.14071  -1.14055  -1.13821  -1.13799  -1.13789
  Beta  occ. eigenvalues --   -1.13558  -1.13538  -1.13493  -1.13456  -1.13390
  Beta  occ. eigenvalues --   -1.13382  -1.12992  -1.12946  -1.12931  -1.12831
  Beta  occ. eigenvalues --   -1.12793  -1.12770  -1.12562  -1.12531  -1.12503
  Beta  occ. eigenvalues --   -0.17578  -0.13110  -0.11949
  Beta virt. eigenvalues --   -0.06527  -0.06073  -0.05646  -0.04423  -0.02510
  Beta virt. eigenvalues --   -0.01939  -0.01687  -0.01454  -0.01291  -0.00786
  Beta virt. eigenvalues --   -0.00422   0.00154   0.00363   0.00724   0.00774

 Mulliken charges and spin densities:
               1          2
     1  Na   0.380363   0.055015
     2  Na   0.103834  -0.005472
     3  Na  -0.201678   0.126609
     4  Na   0.221155   0.084109
     5  Na   0.083588   0.009803
     6  Na  -0.488924   0.704916
     7  Na  -0.098339   0.025019
 Sum of Mulliken charges =  -0.00000   1.00000

 Dipole moment (field-independent basis, Debye):
    X=             -0.4763    Y=             -0.3507    Z=              0.1223  Tot=              0.6040
 Quadrupole moment (field-independent basis, Debye-Ang):
   XX=            -53.6716   YY=            -62.8946   ZZ=            -76.5364
   XY=             -1.2635   XZ=              1.0773   YZ=             -1.2089

 Normal termination of Gaussian 16 at Thu Dec  7 09:53:32 2023.
