 Gaussian 16, Revision B.01,
 Gaussian 16:  ES64L-G16RevB.01 20-Dec-2017

 -------------------------
 #P B3LYP/6-311+g(d) force
 -------------------------

 -----
 DPGEN
 -----
 Symbolic Z-matrix:
 Charge =  0 Multiplicity = 2

                         Standard orientation:
 ---------------------------------------------------------------------
 Center     Atomic      Atomic             Coordinates (Angstroms)
 Number     Number       Type             X           Y           Z
 ---------------------------------------------------------------------
      1         11           0        0.716422   -0.101253    1.812271
      2         11           0       -3.348073   -0.599387   -0.161202
      3         11           0        3.051216   -0.791174   -0.493544
      4         11           0        0.274155   -2.780441    0.418309
      5         11           0       -1.850688    1.926654    0.430376
      6         11           0        1.624132    2.822881   -0.280965
      7         11           0       -0.467164   -0.477281   -1.725245
 ---------------------------------------------------------------------

 SCF Done:  E(UB3LYP) =  -1136.13150745     A.U. after   19 cycles

 The electronic state is 2-A.
 Alpha  occ. eigenvalues --  -38.44548 -38.44237 -38.43540 -38.43495 -38.43462
 Alpha  occ. eigenvalues --  -38.43428 -38.43314  -2.20374  -2.20095  -2.19471
 Alpha  occ. eigenvalues --   -2.19388  -2.19327  -2.19266  -2.19247  -1.14056
 Alpha  occ. eigenvalues --   -1.14035  -1.13997  -1.13818  -1.13756  -1.13718
 Alpha  occ. eigenvalues --   -1.13181  -1.13134  -1.13102  -1.13085  -1.13062
 Alpha  occ. eigenvalues --   -1.13042  -1.13020  -1.12970  -1.12934  -1.12922
 Alpha  occ. eigenvalues --   -1.12916  -1.12903  -1.12897  -1.12884  -1.12841
 Alpha  occ. eigenvalues --   -0.18586  -0.13418  -0.12211  -0.10636
 Alpha virt. eigenvalues --   -0.06064  -0.05050  -0.04604  -0.03430  -0.02813
 Alpha virt. eigenvalues --   -0.02339  -0.01826  -0.01078  -0.00476  -0.00158
 Alpha virt. eigenvalues --   -0.00019   0.00335   0.00747   0.00798   0.00882

  Beta  occ. eigenvalues --  -38.44534 -38.44236 -38.43485 -38.43478 -38.43461
  Beta  occ. eigenvalues --  -38.43411 -38.43235  -2.20350  -2.20096  -2.19372
  Beta  occ. eigenvalues --   -2.19357  -2.19299  -2.19248  -2.19123  -1.14031
  Beta  occ. eigenvalues --   -1.14009  -1.13981  -1.13821  -1.13742  -1.13717
  Beta  occ. eigenvalues --   -1.13118  -1.13076  -1.13041  -1.13036  -1.13017
  Beta  occ. eigenvalues --   -1.13007  -1.12993  -1.12924  -1.12917  -1.12916
  Beta  occ. eigenvalues --   -1.12902  -1.12891  -1.12827  -1.12791  -1.12746
  Beta  occ. eigenvalues --   -0.17883  -0.13190  -0.11989
  Beta virt. eigenvalues --   -0.06782  -0.05972  -0.04973  -0.04545  -0.02698
  Beta virt. eigenvalues --   -0.02126  -0.01736  -0.01332  -0.01025  -0.00469
  Beta virt. eigenvalues --   -0.00155   0.00125   0.00381   0.00781   0.00872

 Mulliken charges and spin densities:
               1          2
     1  Na   0.024729   0.514573
     2  Na   0.317130  -0.047771
     3  Na   0.005982   0.058778
     4  Na   0.208629  -0.106765
     5  Na  -0.106058  -0.052201
     6  Na  -0.212774  -0.037074
     7  Na  -0.237638   0.670460
 Sum of Mulliken charges =  -0.00000   1.00000

 Dipole moment (field-independent basis, Debye):
    X=              0.1119    Y=             -0.3382    Z=             -0.1555  Tot=              0.3887
 Quadrupole moment (field-independent basis, Debye-Ang):
   XX=            -54.3847   YY=            -64.7904   ZZ=            -74.4639
   XY=              0.6820   XZ=             -2.2348   YZ=             -0.5894

 Normal termination of Gaussian 16 at Mon Dec  4 04:42:38 2023.
