 Gaussian 16, Revision B.01,
 Gaussian 16:  ES64L-G16RevB.01 20-Dec-2017

 -------------------------
 #P B3LYP/6-311+g(d) force
 -------------------------

 -----
 DPGEN
 -----
 Symbolic Z-matrix:
 Charge =  0 Multiplicity = 2

                         Standard orientation:
 ---------------------------------------------------------------------
 Center     Atomic      Atomic             Coordinates (Angstroms)
 Number     Number       Type             X           Y           Z
 ---------------------------------------------------------------------
      1         11           0        0.057889    0.223735   -1.614903
      2         11           0        0.143770   -0.537899    2.168569
      3         11           0        3.047819    1.104957   -0.018996
      4         11           0        1.706699   -2.226430   -0.369148
      5         11           0       -0.460352    3.306462    0.106982
      6         11           0       -1.317194   -2.110200   -0.186582
      7         11           0       -3.178630    0.239375   -0.085922
 ---------------------------------------------------------------------

 SCF Done:  E(UB3LYP) =  -1136.12746592     A.U. after   20 cycles

 The electronic state is 2-A.
 Alpha  occ. eigenvalues --  -38.44327 -38.44152 -38.44049 -38.43900 -38.43373
 Alpha  occ. eigenvalues --  -38.43261 -38.43064  -2.20112  -2.19904  -2.19889
 Alpha  occ. eigenvalues --   -2.19791  -2.19311  -2.19256  -2.19101  -1.13793
 Alpha  occ. eigenvalues --   -1.13772  -1.13748  -1.13616  -1.13586  -1.13562
 Alpha  occ. eigenvalues --   -1.13542  -1.13540  -1.13513  -1.13474  -1.13410
 Alpha  occ. eigenvalues --   -1.13403  -1.13106  -1.12986  -1.12965  -1.12944
 Alpha  occ. eigenvalues --   -1.12894  -1.12851  -1.12747  -1.12722  -1.12710
 Alpha  occ. eigenvalues --   -0.18845  -0.12885  -0.12414  -0.10979
 Alpha virt. eigenvalues --   -0.06013  -0.05036  -0.04534  -0.03126  -0.02926
 Alpha virt. eigenvalues --   -0.02734  -0.01531  -0.01159  -0.00527  -0.00119
 Alpha virt. eigenvalues --   -0.00025   0.00341   0.00771   0.00897   0.00919

  Beta  occ. eigenvalues --  -38.44326 -38.44155 -38.44047 -38.43798 -38.43358
  Beta  occ. eigenvalues --  -38.43199 -38.43047  -2.20112  -2.19910  -2.19889
  Beta  occ. eigenvalues --   -2.19602  -2.19290  -2.19145  -2.19078  -1.13780
  Beta  occ. eigenvalues --   -1.13770  -1.13751  -1.13619  -1.13583  -1.13566
  Beta  occ. eigenvalues --   -1.13548  -1.13522  -1.13515  -1.13352  -1.13276
  Beta  occ. eigenvalues --   -1.13270  -1.13078  -1.12957  -1.12917  -1.12900
  Beta  occ. eigenvalues --   -1.12812  -1.12773  -1.12723  -1.12701  -1.12647
  Beta  occ. eigenvalues --   -0.18050  -0.12666  -0.12219
  Beta virt. eigenvalues --   -0.06938  -0.06024  -0.04928  -0.04524  -0.02354
  Beta virt. eigenvalues --   -0.02226  -0.01636  -0.01460  -0.01076  -0.00553
  Beta virt. eigenvalues --   -0.00160   0.00141   0.00378   0.00797   0.00931

 Mulliken charges and spin densities:
               1          2
     1  Na  -0.112212   0.235092
     2  Na  -0.729959   0.684630
     3  Na  -0.062401  -0.075123
     4  Na   0.499501   0.084278
     5  Na  -0.121273  -0.078480
     6  Na   0.593342   0.236453
     7  Na  -0.066998  -0.086849
 Sum of Mulliken charges =  -0.00000   1.00000

 Dipole moment (field-independent basis, Debye):
    X=              0.2652    Y=              0.5609    Z=              0.3159  Tot=              0.6962
 Quadrupole moment (field-independent basis, Debye-Ang):
   XX=            -57.3995   YY=            -63.2315   ZZ=            -73.3332
   XY=             -0.8715   XZ=             -0.1841   YZ=              1.7632

 Normal termination of Gaussian 16 at Tue Dec  5 20:59:04 2023.
