 Gaussian 16, Revision B.01,
 Gaussian 16:  ES64L-G16RevB.01 20-Dec-2017

 -------------------------
 #P B3LYP/6-311+g(d) force
 -------------------------

 -----
 DPGEN
 -----
 Symbolic Z-matrix:
 Charge =  0 Multiplicity = 2

                         Standard orientation:
 ---------------------------------------------------------------------
 Center     Atomic      Atomic             Coordinates (Angstroms)
 Number     Number       Type             X           Y           Z
 ---------------------------------------------------------------------
      1         11           0        6.880656   -1.838102    1.463697
      2         11           0       -7.671956   -1.529290   -0.813106
      3         11           0       -2.460956    1.320678    1.239330
      4         11           0        0.299176    3.221177    0.005982
      5         11           0       -4.978877   -1.336886    0.577381
      6         11           0        2.721054    1.727583   -1.004715
      7         11           0        5.210903   -1.565161   -1.468569
 ---------------------------------------------------------------------

 SCF Done:  E(UB3LYP) =  -1136.10380702     A.U. after   19 cycles

 The electronic state is 2-A.
 Alpha  occ. eigenvalues --  -38.45361 -38.44855 -38.44578 -38.44540 -38.44375
 Alpha  occ. eigenvalues --  -38.43957 -38.43678  -2.21116  -2.20604  -2.20371
 Alpha  occ. eigenvalues --   -2.20356  -2.20190  -2.19772  -2.19482  -1.14776
 Alpha  occ. eigenvalues --   -1.14774  -1.14740  -1.14281  -1.14269  -1.14244
 Alpha  occ. eigenvalues --   -1.14035  -1.14022  -1.14018  -1.14001  -1.13992
 Alpha  occ. eigenvalues --   -1.13975  -1.13866  -1.13823  -1.13822  -1.13449
 Alpha  occ. eigenvalues --   -1.13433  -1.13419  -1.13155  -1.13148  -1.13137
 Alpha  occ. eigenvalues --   -0.15033  -0.14027  -0.13055  -0.11147
 Alpha virt. eigenvalues --   -0.07225  -0.05615  -0.03910  -0.03296  -0.03186
 Alpha virt. eigenvalues --   -0.02526  -0.02398  -0.02037  -0.01694  -0.01366
 Alpha virt. eigenvalues --   -0.00842  -0.00239  -0.00092   0.00200   0.00277

  Beta  occ. eigenvalues --  -38.45329 -38.44868 -38.44480 -38.44477 -38.44317
  Beta  occ. eigenvalues --  -38.43968 -38.43686  -2.21056  -2.20629  -2.20239
  Beta  occ. eigenvalues --   -2.20189  -2.20081  -2.19800  -2.19503  -1.14735
  Beta  occ. eigenvalues --   -1.14733  -1.14702  -1.14300  -1.14285  -1.14251
  Beta  occ. eigenvalues --   -1.13965  -1.13921  -1.13910  -1.13898  -1.13894
  Beta  occ. eigenvalues --   -1.13859  -1.13797  -1.13749  -1.13747  -1.13459
  Beta  occ. eigenvalues --   -1.13456  -1.13407  -1.13168  -1.13168  -1.13112
  Beta  occ. eigenvalues --   -0.14387  -0.13469  -0.12649
  Beta virt. eigenvalues --   -0.08017  -0.06740  -0.05160  -0.03636  -0.03111
  Beta virt. eigenvalues --   -0.02986  -0.02372  -0.02198  -0.01740  -0.01517
  Beta virt. eigenvalues --   -0.01184  -0.00510   0.00016   0.00134   0.00323

 Mulliken charges and spin densities:
               1          2
     1  Na   0.175605   0.158118
     2  Na   0.372172   0.252681
     3  Na  -0.244672   0.460383
     4  Na   0.249488  -0.052110
     5  Na  -0.268841  -0.058334
     6  Na  -0.184786   0.293334
     7  Na  -0.098967  -0.054072
 Sum of Mulliken charges =  -0.00000   1.00000

 Dipole moment (field-independent basis, Debye):
    X=              1.5876    Y=             -0.5062    Z=              0.1347  Tot=              1.6718
 Quadrupole moment (field-independent basis, Debye-Ang):
   XX=            -53.7797   YY=            -70.4090   ZZ=            -64.9752
   XY=             -3.9079   XZ=              9.3248   YZ=              0.6179

 Normal termination of Gaussian 16 at Mon Dec  4 01:22:11 2023.
