 Gaussian 16, Revision B.01,
 Gaussian 16:  ES64L-G16RevB.01 20-Dec-2017

 -------------------------
 #P B3LYP/6-311+g(d) force
 -------------------------

 -----
 DPGEN
 -----
 Symbolic Z-matrix:
 Charge =  0 Multiplicity = 2

                         Standard orientation:
 ---------------------------------------------------------------------
 Center     Atomic      Atomic             Coordinates (Angstroms)
 Number     Number       Type             X           Y           Z
 ---------------------------------------------------------------------
      1         11           0        4.027206   -1.847887   -0.265338
      2         11           0        3.522079    1.278936   -1.067936
      3         11           0       -0.192210    3.210931    0.304612
      4         11           0        0.683348   -0.337286    1.692925
      5         11           0       -4.309782   -1.040258   -0.963089
      6         11           0       -2.648682    1.318925    0.061127
      7         11           0       -1.081959   -2.583360    0.237700
 ---------------------------------------------------------------------

 SCF Done:  E(UB3LYP) =  -1136.11671893     A.U. after   21 cycles

 The electronic state is 2-A.
 Alpha  occ. eigenvalues --  -38.45081 -38.44775 -38.44726 -38.44194 -38.44049
 Alpha  occ. eigenvalues --  -38.43717 -38.42764  -2.20859  -2.20603  -2.20498
 Alpha  occ. eigenvalues --   -2.19995  -2.19890  -2.19599  -2.18581  -1.14530
 Alpha  occ. eigenvalues --   -1.14509  -1.14491  -1.14306  -1.14240  -1.14206
 Alpha  occ. eigenvalues --   -1.14169  -1.14147  -1.14136  -1.13686  -1.13664
 Alpha  occ. eigenvalues --   -1.13617  -1.13598  -1.13527  -1.13485  -1.13276
 Alpha  occ. eigenvalues --   -1.13260  -1.13230  -1.12265  -1.12235  -1.12218
 Alpha  occ. eigenvalues --   -0.16720  -0.14056  -0.11906  -0.11378
 Alpha virt. eigenvalues --   -0.06355  -0.05256  -0.04438  -0.03843  -0.03178
 Alpha virt. eigenvalues --   -0.02204  -0.01784  -0.01580  -0.00990  -0.00782
 Alpha virt. eigenvalues --   -0.00378   0.00131   0.00319   0.00501   0.00610

  Beta  occ. eigenvalues --  -38.45043 -38.44715 -38.44700 -38.44162 -38.43984
  Beta  occ. eigenvalues --  -38.43697 -38.42764  -2.20788  -2.20482  -2.20467
  Beta  occ. eigenvalues --   -2.19941  -2.19772  -2.19566  -2.18582  -1.14482
  Beta  occ. eigenvalues --   -1.14466  -1.14432  -1.14207  -1.14159  -1.14147
  Beta  occ. eigenvalues --   -1.14130  -1.14116  -1.14106  -1.13637  -1.13627
  Beta  occ. eigenvalues --   -1.13553  -1.13529  -1.13447  -1.13412  -1.13258
  Beta  occ. eigenvalues --   -1.13220  -1.13194  -1.12267  -1.12234  -1.12216
  Beta  occ. eigenvalues --   -0.16017  -0.13361  -0.11679
  Beta virt. eigenvalues --   -0.07820  -0.06273  -0.04925  -0.04100  -0.03557
  Beta virt. eigenvalues --   -0.02533  -0.01997  -0.01543  -0.01337  -0.00845
  Beta virt. eigenvalues --   -0.00686  -0.00033   0.00339   0.00407   0.00616

 Mulliken charges and spin densities:
               1          2
     1  Na   0.125779   0.061414
     2  Na  -0.019762   0.166784
     3  Na   0.173508  -0.015534
     4  Na  -0.088468   0.458798
     5  Na   0.675115   0.254146
     6  Na  -0.744166   0.140416
     7  Na  -0.122006  -0.066024
 Sum of Mulliken charges =  -0.00000   1.00000

 Dipole moment (field-independent basis, Debye):
    X=              1.0973    Y=             -0.9008    Z=             -0.3396  Tot=              1.4597
 Quadrupole moment (field-independent basis, Debye-Ang):
   XX=            -63.1453   YY=            -64.9331   ZZ=            -69.8564
   XY=              1.0017   XZ=              1.1222   YZ=             -0.4468

 Normal termination of Gaussian 16 at Sun Dec  3 17:40:20 2023.
