 Gaussian 16, Revision B.01,
 Gaussian 16:  ES64L-G16RevB.01 20-Dec-2017

 -------------------------
 #P B3LYP/6-311+g(d) force
 -------------------------

 -----
 DPGEN
 -----
 Symbolic Z-matrix:
 Charge =  0 Multiplicity = 2

                         Standard orientation:
 ---------------------------------------------------------------------
 Center     Atomic      Atomic             Coordinates (Angstroms)
 Number     Number       Type             X           Y           Z
 ---------------------------------------------------------------------
      1         11           0       -2.988494    0.123594   -0.937150
      2         11           0       -0.474168    1.981451    0.038698
      3         11           0       -5.684247   -0.719430    0.499027
      4         11           0        1.341875   -0.033257    2.286818
      5         11           0        4.167689   -1.338295    0.052378
      6         11           0        0.925691   -1.612491   -1.135157
      7         11           0        2.711653    1.598427   -0.804614
 ---------------------------------------------------------------------

 SCF Done:  E(UB3LYP) =  -1136.10801829     A.U. after   31 cycles

 The electronic state is 2-A.
 Alpha  occ. eigenvalues --  -38.46055 -38.45852 -38.44526 -38.44093 -38.43648
 Alpha  occ. eigenvalues --  -38.43492 -38.42666  -2.21895  -2.21659  -2.20374
 Alpha  occ. eigenvalues --   -2.19870  -2.19476  -2.19327  -2.18546  -1.15576
 Alpha  occ. eigenvalues --   -1.15554  -1.15526  -1.15352  -1.15302  -1.15260
 Alpha  occ. eigenvalues --   -1.14048  -1.13996  -1.13972  -1.13540  -1.13525
 Alpha  occ. eigenvalues --   -1.13524  -1.13167  -1.13124  -1.13123  -1.13014
 Alpha  occ. eigenvalues --   -1.12996  -1.12959  -1.12225  -1.12207  -1.12197
 Alpha  occ. eigenvalues --   -0.18040  -0.13707  -0.11395  -0.10723
 Alpha virt. eigenvalues --   -0.08269  -0.05558  -0.04087  -0.03236  -0.03067
 Alpha virt. eigenvalues --   -0.02536  -0.02311  -0.02017  -0.01308  -0.00784
 Alpha virt. eigenvalues --   -0.00412   0.00085   0.00130   0.00471   0.00508

  Beta  occ. eigenvalues --  -38.46045 -38.45799 -38.44422 -38.44088 -38.43651
  Beta  occ. eigenvalues --  -38.43489 -38.42662  -2.21879  -2.21564  -2.20179
  Beta  occ. eigenvalues --   -2.19861  -2.19485  -2.19324  -2.18542  -1.15552
  Beta  occ. eigenvalues --   -1.15537  -1.15516  -1.15272  -1.15239  -1.15191
  Beta  occ. eigenvalues --   -1.13914  -1.13866  -1.13833  -1.13535  -1.13518
  Beta  occ. eigenvalues --   -1.13518  -1.13178  -1.13130  -1.13107  -1.13014
  Beta  occ. eigenvalues --   -1.12996  -1.12946  -1.12226  -1.12206  -1.12167
  Beta  occ. eigenvalues --   -0.17333  -0.13611  -0.11111
  Beta virt. eigenvalues --   -0.07962  -0.06962  -0.05439  -0.03871  -0.02915
  Beta virt. eigenvalues --   -0.02807  -0.02019  -0.01682  -0.01578  -0.01042
  Beta virt. eigenvalues --   -0.00608  -0.00387   0.00115   0.00342   0.00528

 Mulliken charges and spin densities:
               1          2
     1  Na  -0.383692  -0.201440
     2  Na  -0.006189   0.252735
     3  Na   0.260936   0.031352
     4  Na  -0.227900   0.499809
     5  Na   0.429924   0.053265
     6  Na  -0.276347   0.322865
     7  Na   0.203268   0.041414
 Sum of Mulliken charges =  -0.00000   1.00000

 Dipole moment (field-independent basis, Debye):
    X=              1.5913    Y=              0.1184    Z=             -0.0946  Tot=              1.5985
 Quadrupole moment (field-independent basis, Debye-Ang):
   XX=            -60.3102   YY=            -68.3123   ZZ=            -73.6929
   XY=              6.0810   XZ=             -5.0886   YZ=             -3.1783

 Normal termination of Gaussian 16 at Thu Dec  7 18:59:24 2023.
