 Gaussian 16, Revision B.01,
 Gaussian 16:  ES64L-G16RevB.01 20-Dec-2017

 -------------------------
 #P B3LYP/6-311+g(d) force
 -------------------------

 -----
 DPGEN
 -----
 Symbolic Z-matrix:
 Charge =  0 Multiplicity = 2

                         Standard orientation:
 ---------------------------------------------------------------------
 Center     Atomic      Atomic             Coordinates (Angstroms)
 Number     Number       Type             X           Y           Z
 ---------------------------------------------------------------------
      1         11           0       -8.265392    2.393576   -0.151789
      2         11           0        7.845095    2.650377   -0.284749
      3         11           0        3.714564   -1.402639   -0.280498
      4         11           0        6.840841   -0.034290    0.512918
      5         11           0       -0.316612   -2.242662    0.100711
      6         11           0       -3.744586   -1.958040   -0.355302
      7         11           0       -6.073910    0.593678    0.458708
 ---------------------------------------------------------------------

 SCF Done:  E(UB3LYP) =  -1136.10294882     A.U. after   19 cycles

 The electronic state is 2-A.
 Alpha  occ. eigenvalues --  -38.45318 -38.45209 -38.44600 -38.44594 -38.44511
 Alpha  occ. eigenvalues --  -38.44377 -38.43869  -2.21141  -2.20992  -2.20427
 Alpha  occ. eigenvalues --   -2.20318  -2.20304  -2.20204  -2.19701  -1.14828
 Alpha  occ. eigenvalues --   -1.14768  -1.14764  -1.14641  -1.14639  -1.14594
 Alpha  occ. eigenvalues --   -1.14154  -1.14054  -1.14054  -1.14012  -1.14011
 Alpha  occ. eigenvalues --   -1.13979  -1.13961  -1.13960  -1.13901  -1.13888
 Alpha  occ. eigenvalues --   -1.13861  -1.13855  -1.13368  -1.13351  -1.13350
 Alpha  occ. eigenvalues --   -0.15190  -0.14615  -0.12962  -0.11716
 Alpha virt. eigenvalues --   -0.07343  -0.05268  -0.03942  -0.03361  -0.03219
 Alpha virt. eigenvalues --   -0.03039  -0.02476  -0.02064  -0.01839  -0.01295
 Alpha virt. eigenvalues --   -0.01039  -0.00596  -0.00266   0.00274   0.00453

  Beta  occ. eigenvalues --  -38.45249 -38.45110 -38.44625 -38.44562 -38.44455
  Beta  occ. eigenvalues --  -38.44383 -38.43873  -2.21012  -2.20806  -2.20380
  Beta  occ. eigenvalues --   -2.20355  -2.20222  -2.20200  -2.19713  -1.14744
  Beta  occ. eigenvalues --   -1.14680  -1.14676  -1.14515  -1.14513  -1.14476
  Beta  occ. eigenvalues --   -1.14108  -1.14058  -1.14057  -1.14005  -1.14005
  Beta  occ. eigenvalues --   -1.13982  -1.13890  -1.13889  -1.13884  -1.13880
  Beta  occ. eigenvalues --   -1.13850  -1.13836  -1.13365  -1.13364  -1.13340
  Beta  occ. eigenvalues --   -0.14449  -0.14094  -0.12445
  Beta virt. eigenvalues --   -0.08616  -0.06843  -0.04816  -0.03700  -0.03121
  Beta virt. eigenvalues --   -0.02999  -0.02882  -0.02125  -0.01931  -0.01716
  Beta virt. eigenvalues --   -0.00930  -0.00533  -0.00251  -0.00157   0.00369

 Mulliken charges and spin densities:
               1          2
     1  Na   0.274825   0.132920
     2  Na   0.271264   0.304154
     3  Na  -0.302662   0.492508
     4  Na   0.049808  -0.027248
     5  Na  -0.231426  -0.193605
     6  Na   0.104447   0.237130
     7  Na  -0.166256   0.054141
 Sum of Mulliken charges =  -0.00000   1.00000

 Dipole moment (field-independent basis, Debye):
    X=              1.1515    Y=              1.2190    Z=             -0.3580  Tot=              1.7147
 Quadrupole moment (field-independent basis, Debye-Ang):
   XX=            -46.8709   YY=            -62.8864   ZZ=            -73.8840
   XY=              1.5158   XZ=              1.2262   YZ=             -2.4837

 Normal termination of Gaussian 16 at Mon Dec  4 03:40:27 2023.
