 Gaussian 16, Revision B.01,
 Gaussian 16:  ES64L-G16RevB.01 20-Dec-2017

 -------------------------
 #P B3LYP/6-311+g(d) force
 -------------------------

 -----
 DPGEN
 -----
 Symbolic Z-matrix:
 Charge =  0 Multiplicity = 2

                         Standard orientation:
 ---------------------------------------------------------------------
 Center     Atomic      Atomic             Coordinates (Angstroms)
 Number     Number       Type             X           Y           Z
 ---------------------------------------------------------------------
      1         11           0        3.236548    2.531369   -0.183998
      2         11           0       -4.693213    2.338694   -0.077306
      3         11           0       -0.828804   -2.214739   -1.495633
      4         11           0       -0.998236   -1.604128    1.583398
      5         11           0       -3.945718   -0.474336    0.123546
      6         11           0        1.700303   -0.173460   -0.204965
      7         11           0        5.529120   -0.403400    0.254959
 ---------------------------------------------------------------------

 SCF Done:  E(UB3LYP) =  -1136.10562680     A.U. after   23 cycles

 The electronic state is 2-A.
 Alpha  occ. eigenvalues --  -38.46084 -38.45898 -38.44195 -38.43762 -38.43472
 Alpha  occ. eigenvalues --  -38.43456 -38.43068  -2.21928  -2.21723  -2.20003
 Alpha  occ. eigenvalues --   -2.19578  -2.19364  -2.19330  -2.18882  -1.15606
 Alpha  occ. eigenvalues --   -1.15588  -1.15575  -1.15385  -1.15377  -1.15338
 Alpha  occ. eigenvalues --   -1.13702  -1.13666  -1.13624  -1.13352  -1.13220
 Alpha  occ. eigenvalues --   -1.13216  -1.13071  -1.13037  -1.13002  -1.12977
 Alpha  occ. eigenvalues --   -1.12961  -1.12923  -1.12534  -1.12528  -1.12472
 Alpha  occ. eigenvalues --   -0.17180  -0.14246  -0.12199  -0.09572
 Alpha virt. eigenvalues --   -0.07354  -0.06567  -0.04420  -0.03513  -0.03022
 Alpha virt. eigenvalues --   -0.02238  -0.01916  -0.01630  -0.01466  -0.01035
 Alpha virt. eigenvalues --   -0.00448  -0.00287   0.00230   0.00271   0.00403

  Beta  occ. eigenvalues --  -38.46073 -38.45898 -38.44182 -38.43756 -38.43451
  Beta  occ. eigenvalues --  -38.43443 -38.42954  -2.21910  -2.21726  -2.19983
  Beta  occ. eigenvalues --   -2.19567  -2.19322  -2.19313  -2.18669  -1.15595
  Beta  occ. eigenvalues --   -1.15568  -1.15559  -1.15383  -1.15369  -1.15340
  Beta  occ. eigenvalues --   -1.13680  -1.13656  -1.13593  -1.13343  -1.13212
  Beta  occ. eigenvalues --   -1.13207  -1.13038  -1.12997  -1.12975  -1.12973
  Beta  occ. eigenvalues --   -1.12936  -1.12910  -1.12388  -1.12383  -1.12332
  Beta  occ. eigenvalues --   -0.16889  -0.13746  -0.12034
  Beta virt. eigenvalues --   -0.07252  -0.06449  -0.05667  -0.04239  -0.03142
  Beta virt. eigenvalues --   -0.02852  -0.02194  -0.01796  -0.01505  -0.01001
  Beta virt. eigenvalues --   -0.00741  -0.00152   0.00085   0.00305   0.00392

 Mulliken charges and spin densities:
               1          2
     1  Na   0.864607   0.008132
     2  Na   0.592944   0.008768
     3  Na   0.779084  -0.027858
     4  Na   0.588901   0.064675
     5  Na  -0.910470   0.031611
     6  Na  -2.084227   0.221428
     7  Na   0.169160   0.693244
 Sum of Mulliken charges =  -0.00000   1.00000

 Dipole moment (field-independent basis, Debye):
    X=             -1.7621    Y=             -0.8225    Z=             -0.3048  Tot=              1.9683
 Quadrupole moment (field-independent basis, Debye-Ang):
   XX=            -94.2013   YY=            -60.6610   ZZ=            -62.2409
   XY=              6.1977   XZ=              0.1276   YZ=              2.2893

 Normal termination of Gaussian 16 at Mon Dec  4 04:28:05 2023.
