 Gaussian 16, Revision B.01,
 Gaussian 16:  ES64L-G16RevB.01 20-Dec-2017

 -------------------------
 #P B3LYP/6-311+g(d) force
 -------------------------

 -----
 DPGEN
 -----
 Symbolic Z-matrix:
 Charge =  0 Multiplicity = 2

                         Standard orientation:
 ---------------------------------------------------------------------
 Center     Atomic      Atomic             Coordinates (Angstroms)
 Number     Number       Type             X           Y           Z
 ---------------------------------------------------------------------
      1         11           0        0.782810    1.000103   -0.763105
      2         11           0       -0.708606   -0.030513    1.652740
      3         11           0       -1.914026    2.167913   -0.093701
      4         11           0       -3.216757   -0.597346   -0.151770
      5         11           0       -0.659859   -1.847711   -1.102840
      6         11           0        1.821682   -1.399415    0.681694
      7         11           0        3.894757    0.706969   -0.223017
 ---------------------------------------------------------------------

 SCF Done:  E(UB3LYP) =  -1136.10094599     A.U. after   27 cycles

 The electronic state is 2-A.
 Alpha  occ. eigenvalues --  -38.45365 -38.45182 -38.43956 -38.43495 -38.43293
 Alpha  occ. eigenvalues --  -38.43159 -38.42815  -2.21313  -2.21027  -2.20041
 Alpha  occ. eigenvalues --   -2.19549  -2.19424  -2.19126  -2.18814  -1.14997
 Alpha  occ. eigenvalues --   -1.14979  -1.14950  -1.14711  -1.14687  -1.14659
 Alpha  occ. eigenvalues --   -1.13824  -1.13726  -1.13679  -1.13317  -1.13208
 Alpha  occ. eigenvalues --   -1.13156  -1.13117  -1.13061  -1.12989  -1.12800
 Alpha  occ. eigenvalues --   -1.12764  -1.12738  -1.12502  -1.12478  -1.12416
 Alpha  occ. eigenvalues --   -0.20015  -0.14735  -0.11694  -0.10799
 Alpha virt. eigenvalues --   -0.07547  -0.04873  -0.03802  -0.03338  -0.03080
 Alpha virt. eigenvalues --   -0.02203  -0.01736  -0.01043  -0.00343  -0.00123
 Alpha virt. eigenvalues --   -0.00033   0.00304   0.00528   0.00745   0.00856

  Beta  occ. eigenvalues --  -38.45341 -38.45172 -38.43935 -38.43469 -38.43200
  Beta  occ. eigenvalues --  -38.43152 -38.42788  -2.21272  -2.21008  -2.20008
  Beta  occ. eigenvalues --   -2.19507  -2.19258  -2.19117  -2.18768  -1.14975
  Beta  occ. eigenvalues --   -1.14929  -1.14915  -1.14701  -1.14671  -1.14641
  Beta  occ. eigenvalues --   -1.13783  -1.13700  -1.13640  -1.13262  -1.13157
  Beta  occ. eigenvalues --   -1.13126  -1.13016  -1.12948  -1.12885  -1.12792
  Beta  occ. eigenvalues --   -1.12752  -1.12692  -1.12474  -1.12446  -1.12359
  Beta  occ. eigenvalues --   -0.19312  -0.14443  -0.11405
  Beta virt. eigenvalues --   -0.07380  -0.06850  -0.04797  -0.03209  -0.03093
  Beta virt. eigenvalues --   -0.02933  -0.01580  -0.01035  -0.00846  -0.00072
  Beta virt. eigenvalues --   -0.00012   0.00002   0.00350   0.00703   0.00777

 Mulliken charges and spin densities:
               1          2
     1  Na  -1.297613   0.351751
     2  Na  -0.556331   0.048876
     3  Na   1.006028   0.137118
     4  Na   0.066354   0.233889
     5  Na  -0.057463   0.076560
     6  Na   0.848246   0.280359
     7  Na  -0.009220  -0.128553
 Sum of Mulliken charges =  -0.00000   1.00000

 Dipole moment (field-independent basis, Debye):
    X=              0.3538    Y=             -0.1935    Z=              0.3465  Tot=              0.5317
 Quadrupole moment (field-independent basis, Debye-Ang):
   XX=            -45.4384   YY=            -74.6454   ZZ=            -72.8426
   XY=              0.0070   XZ=             -0.0025   YZ=             -1.1772

 Normal termination of Gaussian 16 at Fri Dec  8 17:48:19 2023.
