 Gaussian 16, Revision B.01,
 Gaussian 16:  ES64L-G16RevB.01 20-Dec-2017

 -------------------------
 #P B3LYP/6-311+g(d) force
 -------------------------

 -----
 DPGEN
 -----
 Symbolic Z-matrix:
 Charge =  0 Multiplicity = 2

                         Standard orientation:
 ---------------------------------------------------------------------
 Center     Atomic      Atomic             Coordinates (Angstroms)
 Number     Number       Type             X           Y           Z
 ---------------------------------------------------------------------
      1         11           0       -3.951689   -1.525481   -0.731102
      2         11           0        2.304237   -3.526536    0.873611
      3         11           0       -1.259901   -3.177995   -0.228228
      4         11           0        4.291539   -0.284921   -0.219677
      5         11           0        2.749065    2.859102   -0.864206
      6         11           0       -0.479718    3.818892    0.756834
      7         11           0       -3.653533    1.836939    0.412768
 ---------------------------------------------------------------------

 SCF Done:  E(UB3LYP) =  -1136.10459391     A.U. after   24 cycles

 The electronic state is 2-A.
 Alpha  occ. eigenvalues --  -38.45486 -38.45434 -38.45267 -38.44690 -38.44536
 Alpha  occ. eigenvalues --  -38.43960 -38.43867  -2.21230  -2.21168  -2.21039
 Alpha  occ. eigenvalues --   -2.20438  -2.20302  -2.19734  -2.19691  -1.14915
 Alpha  occ. eigenvalues --   -1.14898  -1.14855  -1.14855  -1.14838  -1.14795
 Alpha  occ. eigenvalues --   -1.14721  -1.14713  -1.14681  -1.14118  -1.14107
 Alpha  occ. eigenvalues --   -1.14064  -1.13976  -1.13964  -1.13925  -1.13392
 Alpha  occ. eigenvalues --   -1.13376  -1.13363  -1.13357  -1.13339  -1.13324
 Alpha  occ. eigenvalues --   -0.15314  -0.13837  -0.13364  -0.10934
 Alpha virt. eigenvalues --   -0.07957  -0.04951  -0.04693  -0.03563  -0.03463
 Alpha virt. eigenvalues --   -0.02219  -0.02117  -0.01784  -0.01645  -0.01149
 Alpha virt. eigenvalues --   -0.01043  -0.00238  -0.00115   0.00375   0.00629

  Beta  occ. eigenvalues --  -38.45465 -38.45418 -38.45245 -38.44670 -38.44507
  Beta  occ. eigenvalues --  -38.43895 -38.43826  -2.21195  -2.21144  -2.21004
  Beta  occ. eigenvalues --   -2.20402  -2.20250  -2.19617  -2.19613  -1.14894
  Beta  occ. eigenvalues --   -1.14877  -1.14842  -1.14825  -1.14809  -1.14752
  Beta  occ. eigenvalues --   -1.14703  -1.14696  -1.14612  -1.14095  -1.14085
  Beta  occ. eigenvalues --   -1.14028  -1.13942  -1.13931  -1.13881  -1.13311
  Beta  occ. eigenvalues --   -1.13300  -1.13295  -1.13289  -1.13281  -1.13276
  Beta  occ. eigenvalues --   -0.14767  -0.13229  -0.12539
  Beta virt. eigenvalues --   -0.08221  -0.07781  -0.04404  -0.04162  -0.03403
  Beta virt. eigenvalues --   -0.03231  -0.02078  -0.01939  -0.01607  -0.01401
  Beta virt. eigenvalues --   -0.00881  -0.00723   0.00020   0.00104   0.00408

 Mulliken charges and spin densities:
               1          2
     1  Na   0.213477   0.133572
     2  Na   0.213812   0.263680
     3  Na  -0.326394   0.253558
     4  Na  -0.040307   0.101590
     5  Na  -0.057387   0.082298
     6  Na  -0.041379   0.035022
     7  Na   0.038178   0.130280
 Sum of Mulliken charges =  -0.00000   1.00000

 Dipole moment (field-independent basis, Debye):
    X=             -0.2056    Y=              0.3908    Z=             -0.0597  Tot=              0.4456
 Quadrupole moment (field-independent basis, Debye-Ang):
   XX=            -58.7042   YY=            -67.9720   ZZ=            -72.8132
   XY=             -1.2294   XZ=              0.3274   YZ=              0.0424

 Normal termination of Gaussian 16 at Mon Dec  4 02:10:50 2023.
