 Gaussian 16, Revision B.01,
 Gaussian 16:  ES64L-G16RevB.01 20-Dec-2017

 -------------------------
 #P B3LYP/6-311+g(d) force
 -------------------------

 -----
 DPGEN
 -----
 Symbolic Z-matrix:
 Charge =  0 Multiplicity = 2

                         Standard orientation:
 ---------------------------------------------------------------------
 Center     Atomic      Atomic             Coordinates (Angstroms)
 Number     Number       Type             X           Y           Z
 ---------------------------------------------------------------------
      1         11           0        3.275376   -0.256141   -0.463560
      2         11           0        1.045118    2.678233    0.546941
      3         11           0       -2.089214    1.963253   -0.405528
      4         11           0        0.809988   -2.759469    0.491008
      5         11           0       -0.618574   -0.095505    2.022708
      6         11           0        0.301263    0.049232   -1.658316
      7         11           0       -2.723957   -1.579603   -0.533252
 ---------------------------------------------------------------------

 SCF Done:  E(UB3LYP) =  -1136.13907692     A.U. after   19 cycles

 The electronic state is 2-A.
 Alpha  occ. eigenvalues --  -38.43811 -38.43784 -38.43662 -38.43583 -38.43486
 Alpha  occ. eigenvalues --  -38.43406 -38.43316  -2.19629  -2.19604  -2.19564
 Alpha  occ. eigenvalues --   -2.19413  -2.19369  -2.19279  -2.19256  -1.13308
 Alpha  occ. eigenvalues --   -1.13304  -1.13292  -1.13267  -1.13255  -1.13239
 Alpha  occ. eigenvalues --   -1.13237  -1.13209  -1.13183  -1.13091  -1.13084
 Alpha  occ. eigenvalues --   -1.13079  -1.13031  -1.13027  -1.13003  -1.12958
 Alpha  occ. eigenvalues --   -1.12927  -1.12923  -1.12902  -1.12888  -1.12875
 Alpha  occ. eigenvalues --   -0.18548  -0.12819  -0.12480  -0.11026
 Alpha virt. eigenvalues --   -0.05413  -0.05030  -0.04763  -0.03179  -0.03167
 Alpha virt. eigenvalues --   -0.02654  -0.01449  -0.01096  -0.00409  -0.00107
 Alpha virt. eigenvalues --    0.00002   0.00354   0.00817   0.00871   0.00892

  Beta  occ. eigenvalues --  -38.43801 -38.43778 -38.43575 -38.43571 -38.43476
  Beta  occ. eigenvalues --  -38.43394 -38.43258  -2.19611  -2.19594  -2.19405
  Beta  occ. eigenvalues --   -2.19395  -2.19354  -2.19238  -2.19173  -1.13290
  Beta  occ. eigenvalues --   -1.13284  -1.13280  -1.13246  -1.13244  -1.13234
  Beta  occ. eigenvalues --   -1.13143  -1.13111  -1.13081  -1.13063  -1.13059
  Beta  occ. eigenvalues --   -1.13043  -1.13014  -1.13003  -1.12984  -1.12917
  Beta  occ. eigenvalues --   -1.12893  -1.12877  -1.12862  -1.12832  -1.12815
  Beta  occ. eigenvalues --   -0.17829  -0.12556  -0.12237
  Beta virt. eigenvalues --   -0.07138  -0.05329  -0.05013  -0.04652  -0.02513
  Beta virt. eigenvalues --   -0.02406  -0.01652  -0.01327  -0.01026  -0.00360
  Beta virt. eigenvalues --   -0.00140   0.00113   0.00393   0.00871   0.00892

 Mulliken charges and spin densities:
               1          2
     1  Na   0.082301  -0.030107
     2  Na  -0.018106   0.073257
     3  Na   0.186637   0.000387
     4  Na  -0.056002  -0.016656
     5  Na  -0.135080   0.563101
     6  Na  -0.035854   0.442127
     7  Na  -0.023896  -0.032109
 Sum of Mulliken charges =  -0.00000   1.00000

 Dipole moment (field-independent basis, Debye):
    X=             -0.0423    Y=             -0.0996    Z=              0.0962  Tot=              0.1447
 Quadrupole moment (field-independent basis, Debye-Ang):
   XX=            -58.0232   YY=            -63.1424   ZZ=            -72.5641
   XY=              0.6292   XZ=              1.8312   YZ=              0.5080

 Normal termination of Gaussian 16 at Mon Dec  4 01:02:22 2023.
