 Gaussian 16, Revision B.01,
 Gaussian 16:  ES64L-G16RevB.01 20-Dec-2017

 -------------------------
 #P B3LYP/6-311+g(d) force
 -------------------------

 -----
 DPGEN
 -----
 Symbolic Z-matrix:
 Charge =  0 Multiplicity = 2

                         Standard orientation:
 ---------------------------------------------------------------------
 Center     Atomic      Atomic             Coordinates (Angstroms)
 Number     Number       Type             X           Y           Z
 ---------------------------------------------------------------------
      1         11           0       -1.020691   -0.598438   -1.571590
      2         11           0        2.317653   -1.763657   -1.601104
      3         11           0       -0.162253   -0.382522    2.135124
      4         11           0        1.448118    2.065037   -0.275917
      5         11           0       -3.508195   -1.633280    0.729119
      6         11           0       -2.503291    2.231244   -0.574344
      7         11           0        3.428658    0.081615    1.158712
 ---------------------------------------------------------------------

 SCF Done:  E(UB3LYP) =  -1136.11977469     A.U. after   28 cycles

 The electronic state is 2-A.
 Alpha  occ. eigenvalues --  -38.45285 -38.44697 -38.44286 -38.44205 -38.43986
 Alpha  occ. eigenvalues --  -38.43626 -38.43391  -2.21076  -2.20540  -2.20101
 Alpha  occ. eigenvalues --   -2.19971  -2.19859  -2.19414  -2.19225  -1.14753
 Alpha  occ. eigenvalues --   -1.14731  -1.14675  -1.14228  -1.14192  -1.14174
 Alpha  occ. eigenvalues --   -1.13768  -1.13745  -1.13719  -1.13649  -1.13633
 Alpha  occ. eigenvalues --   -1.13615  -1.13554  -1.13504  -1.13482  -1.13100
 Alpha  occ. eigenvalues --   -1.13065  -1.13038  -1.12914  -1.12901  -1.12849
 Alpha  occ. eigenvalues --   -0.17840  -0.13770  -0.11836  -0.10819
 Alpha virt. eigenvalues --   -0.06613  -0.05577  -0.04945  -0.03413  -0.02611
 Alpha virt. eigenvalues --   -0.02553  -0.02292  -0.01335  -0.01046  -0.00087
 Alpha virt. eigenvalues --    0.00051   0.00094   0.00210   0.00396   0.00554

  Beta  occ. eigenvalues --  -38.45214 -38.44684 -38.44219 -38.44211 -38.43940
  Beta  occ. eigenvalues --  -38.43621 -38.43387  -2.20944  -2.20517  -2.19983
  Beta  occ. eigenvalues --   -2.19978  -2.19777  -2.19405  -2.19220  -1.14665
  Beta  occ. eigenvalues --   -1.14643  -1.14571  -1.14214  -1.14167  -1.14152
  Beta  occ. eigenvalues --   -1.13672  -1.13662  -1.13656  -1.13639  -1.13639
  Beta  occ. eigenvalues --   -1.13620  -1.13502  -1.13431  -1.13424  -1.13086
  Beta  occ. eigenvalues --   -1.13060  -1.13036  -1.12909  -1.12881  -1.12850
  Beta  occ. eigenvalues --   -0.17112  -0.13652  -0.10585
  Beta virt. eigenvalues --   -0.07879  -0.06336  -0.05472  -0.04371  -0.02912
  Beta virt. eigenvalues --   -0.02317  -0.02076  -0.01904  -0.01219  -0.00634
  Beta virt. eigenvalues --   -0.00079   0.00153   0.00196   0.00256   0.00526

 Mulliken charges and spin densities:
               1          2
     1  Na  -0.272384   0.318873
     2  Na  -0.079644   0.226986
     3  Na  -0.439249   0.409192
     4  Na  -0.384106   0.078402
     5  Na   0.357145  -0.061210
     6  Na   0.079623  -0.069483
     7  Na   0.738614   0.097239
 Sum of Mulliken charges =  -0.00000   1.00000

 Dipole moment (field-independent basis, Debye):
    X=              0.2816    Y=             -0.1378    Z=              0.6390  Tot=              0.7118
 Quadrupole moment (field-independent basis, Debye-Ang):
   XX=            -50.6868   YY=            -76.8863   ZZ=            -68.9418
   XY=             -0.7970   XZ=              1.0307   YZ=              2.0411

 Normal termination of Gaussian 16 at Wed Nov 29 00:18:57 2023.
