 Gaussian 16, Revision B.01,
 Gaussian 16:  ES64L-G16RevB.01 20-Dec-2017

 -------------------------
 #P B3LYP/6-311+g(d) force
 -------------------------

 -----
 DPGEN
 -----
 Symbolic Z-matrix:
 Charge =  0 Multiplicity = 2

                         Standard orientation:
 ---------------------------------------------------------------------
 Center     Atomic      Atomic             Coordinates (Angstroms)
 Number     Number       Type             X           Y           Z
 ---------------------------------------------------------------------
      1         11           0        1.099970    1.659571   -0.747153
      2         11           0       -0.517797   -1.109412   -1.464698
      3         11           0        2.974619   -1.440447   -0.338119
      4         11           0        4.438858    0.898752    0.731457
      5         11           0       -1.116208   -1.643416    1.457430
      6         11           0       -2.429506    1.651361    0.522643
      7         11           0       -4.449937   -0.016409   -0.161560
 ---------------------------------------------------------------------

 SCF Done:  E(UB3LYP) =  -1136.10835709     A.U. after   25 cycles

 The electronic state is 2-A.
 Alpha  occ. eigenvalues --  -38.44818 -38.44425 -38.44392 -38.44130 -38.43875
 Alpha  occ. eigenvalues --  -38.43420 -38.43279  -2.20658  -2.20302  -2.20262
 Alpha  occ. eigenvalues --   -2.20000  -2.19792  -2.19334  -2.19129  -1.14351
 Alpha  occ. eigenvalues --   -1.14329  -1.14251  -1.14195  -1.13967  -1.13929
 Alpha  occ. eigenvalues --   -1.13926  -1.13895  -1.13881  -1.13682  -1.13662
 Alpha  occ. eigenvalues --   -1.13593  -1.13442  -1.13403  -1.13391  -1.13018
 Alpha  occ. eigenvalues --   -1.13005  -1.12951  -1.12817  -1.12771  -1.12748
 Alpha  occ. eigenvalues --   -0.18044  -0.14561  -0.11255  -0.11020
 Alpha virt. eigenvalues --   -0.06977  -0.05367  -0.04365  -0.03295  -0.03132
 Alpha virt. eigenvalues --   -0.02488  -0.01803  -0.01425  -0.00788  -0.00540
 Alpha virt. eigenvalues --   -0.00365   0.00031   0.00332   0.00628   0.00708

  Beta  occ. eigenvalues --  -38.44786 -38.44402 -38.44365 -38.44049 -38.43861
  Beta  occ. eigenvalues --  -38.43409 -38.43260  -2.20598  -2.20260  -2.20213
  Beta  occ. eigenvalues --   -2.19855  -2.19770  -2.19321  -2.19096  -1.14313
  Beta  occ. eigenvalues --   -1.14284  -1.14207  -1.14170  -1.13932  -1.13897
  Beta  occ. eigenvalues --   -1.13896  -1.13860  -1.13837  -1.13585  -1.13565
  Beta  occ. eigenvalues --   -1.13476  -1.13432  -1.13394  -1.13333  -1.13009
  Beta  occ. eigenvalues --   -1.12975  -1.12933  -1.12784  -1.12749  -1.12728
  Beta  occ. eigenvalues --   -0.17334  -0.14217  -0.10851
  Beta virt. eigenvalues --   -0.07414  -0.06717  -0.05189  -0.03907  -0.03078
  Beta virt. eigenvalues --   -0.02807  -0.02025  -0.01295  -0.01227  -0.00623
  Beta virt. eigenvalues --   -0.00317  -0.00228   0.00157   0.00420   0.00693

 Mulliken charges and spin densities:
               1          2
     1  Na  -0.307076   0.123776
     2  Na  -0.013632   0.191952
     3  Na   0.048017   0.203698
     4  Na   0.188985   0.073252
     5  Na  -0.080657   0.190288
     6  Na  -0.392341  -0.028503
     7  Na   0.556705   0.245537
 Sum of Mulliken charges =  -0.00000   1.00000

 Dipole moment (field-independent basis, Debye):
    X=             -0.3672    Y=             -0.8749    Z=              0.0723  Tot=              0.9516
 Quadrupole moment (field-independent basis, Debye-Ang):
   XX=            -70.3842   YY=            -72.3040   ZZ=            -63.5960
   XY=              3.9856   XZ=              2.7477   YZ=              1.5951

 Normal termination of Gaussian 16 at Tue Dec  5 20:58:43 2023.
