 Gaussian 16, Revision B.01,
 Gaussian 16:  ES64L-G16RevB.01 20-Dec-2017

 -------------------------
 #P B3LYP/6-311+g(d) force
 -------------------------

 -----
 DPGEN
 -----
 Symbolic Z-matrix:
 Charge =  0 Multiplicity = 2

                         Standard orientation:
 ---------------------------------------------------------------------
 Center     Atomic      Atomic             Coordinates (Angstroms)
 Number     Number       Type             X           Y           Z
 ---------------------------------------------------------------------
      1         11           0        0.610270   -2.452101   -0.276398
      2         11           0        3.353393   -0.432831   -0.206539
      3         11           0       -0.161119   -0.443745    2.043168
      4         11           0        1.369887    2.410731    0.087020
      5         11           0       -0.634474    0.628873   -1.692701
      6         11           0       -2.447781   -1.614045   -0.258080
      7         11           0       -2.090176    1.903119    0.303530
 ---------------------------------------------------------------------

 SCF Done:  E(UB3LYP) =  -1136.13121615     A.U. after   19 cycles

 The electronic state is 2-A.
 Alpha  occ. eigenvalues --  -38.44075 -38.43751 -38.43701 -38.43588 -38.43571
 Alpha  occ. eigenvalues --  -38.43490 -38.43165  -2.19872  -2.19697  -2.19628
 Alpha  occ. eigenvalues --   -2.19593  -2.19505  -2.19352  -2.19082  -1.13645
 Alpha  occ. eigenvalues --   -1.13544  -1.13530  -1.13520  -1.13355  -1.13320
 Alpha  occ. eigenvalues --   -1.13308  -1.13256  -1.13248  -1.13243  -1.13227
 Alpha  occ. eigenvalues --   -1.13165  -1.13143  -1.13132  -1.13121  -1.13028
 Alpha  occ. eigenvalues --   -1.13016  -1.12966  -1.12767  -1.12743  -1.12699
 Alpha  occ. eigenvalues --   -0.19129  -0.13041  -0.12725  -0.11061
 Alpha virt. eigenvalues --   -0.05625  -0.05148  -0.04414  -0.03286  -0.03099
 Alpha virt. eigenvalues --   -0.02639  -0.01396  -0.01006  -0.00179  -0.00058
 Alpha virt. eigenvalues --    0.00007   0.00343   0.00867   0.00911   0.00957

  Beta  occ. eigenvalues --  -38.44076 -38.43740 -38.43607 -38.43577 -38.43509
  Beta  occ. eigenvalues --  -38.43486 -38.43155  -2.19875  -2.19678  -2.19490
  Beta  occ. eigenvalues --   -2.19482  -2.19455  -2.19347  -2.19069  -1.13607
  Beta  occ. eigenvalues --   -1.13544  -1.13527  -1.13523  -1.13306  -1.13295
  Beta  occ. eigenvalues --   -1.13232  -1.13192  -1.13159  -1.13151  -1.13138
  Beta  occ. eigenvalues --   -1.13132  -1.13095  -1.13082  -1.13065  -1.13009
  Beta  occ. eigenvalues --   -1.12990  -1.12967  -1.12756  -1.12703  -1.12695
  Beta  occ. eigenvalues --   -0.18364  -0.12833  -0.12484
  Beta virt. eigenvalues --   -0.07073  -0.05547  -0.05144  -0.04352  -0.02494
  Beta virt. eigenvalues --   -0.02342  -0.01577  -0.01330  -0.00953  -0.00207
  Beta virt. eigenvalues --   -0.00041   0.00113   0.00384   0.00902   0.00929

 Mulliken charges and spin densities:
               1          2
     1  Na   0.091073   0.025848
     2  Na  -0.172783  -0.100725
     3  Na  -0.576548   0.626725
     4  Na   0.052315  -0.016216
     5  Na  -0.329067   0.474069
     6  Na   0.470151  -0.005286
     7  Na   0.464861  -0.004414
 Sum of Mulliken charges =  -0.00000   1.00000

 Dipole moment (field-independent basis, Debye):
    X=              0.0823    Y=              0.0522    Z=              0.1759  Tot=              0.2011
 Quadrupole moment (field-independent basis, Debye-Ang):
   XX=            -56.9960   YY=            -65.8576   ZZ=            -72.2338
   XY=              0.4169   XZ=             -0.8344   YZ=              1.9258

 Normal termination of Gaussian 16 at Tue Dec  5 13:09:39 2023.
