 Gaussian 16, Revision B.01,
 Gaussian 16:  ES64L-G16RevB.01 20-Dec-2017

 -------------------------
 #P B3LYP/6-311+g(d) force
 -------------------------

 -----
 DPGEN
 -----
 Symbolic Z-matrix:
 Charge =  0 Multiplicity = 2

                         Standard orientation:
 ---------------------------------------------------------------------
 Center     Atomic      Atomic             Coordinates (Angstroms)
 Number     Number       Type             X           Y           Z
 ---------------------------------------------------------------------
      1         11           0       -3.428675   -1.399401    1.058633
      2         11           0       -2.849508    0.989084   -1.051597
      3         11           0        3.420238   -1.996256   -0.558883
      4         11           0       -0.546325    0.365599    1.080951
      5         11           0       -0.393858   -1.627941   -0.997501
      6         11           0        0.629686    2.843207   -0.495628
      7         11           0        3.168442    0.825708    0.964024
 ---------------------------------------------------------------------

 SCF Done:  E(UB3LYP) =  -1136.11618235     A.U. after   24 cycles

 The electronic state is 2-A.
 Alpha  occ. eigenvalues --  -38.45145 -38.44357 -38.44273 -38.44061 -38.44041
 Alpha  occ. eigenvalues --  -38.43869 -38.42981  -2.21026  -2.20367  -2.20155
 Alpha  occ. eigenvalues --   -2.19878  -2.19844  -2.19753  -2.18812  -1.14716
 Alpha  occ. eigenvalues --   -1.14688  -1.14645  -1.14237  -1.14026  -1.13964
 Alpha  occ. eigenvalues --   -1.13826  -1.13785  -1.13703  -1.13594  -1.13556
 Alpha  occ. eigenvalues --   -1.13517  -1.13510  -1.13479  -1.13449  -1.13418
 Alpha  occ. eigenvalues --   -1.13400  -1.13362  -1.12501  -1.12478  -1.12443
 Alpha  occ. eigenvalues --   -0.18416  -0.14226  -0.11756  -0.10185
 Alpha virt. eigenvalues --   -0.07119  -0.05445  -0.04870  -0.03129  -0.02859
 Alpha virt. eigenvalues --   -0.02425  -0.01654  -0.01475  -0.00779  -0.00340
 Alpha virt. eigenvalues --   -0.00070   0.00056   0.00372   0.00466   0.00651

  Beta  occ. eigenvalues --  -38.45115 -38.44342 -38.44220 -38.44068 -38.44015
  Beta  occ. eigenvalues --  -38.43811 -38.42986  -2.20975  -2.20344  -2.20060
  Beta  occ. eigenvalues --   -2.19858  -2.19827  -2.19644  -2.18823  -1.14684
  Beta  occ. eigenvalues --   -1.14634  -1.14600  -1.14199  -1.13994  -1.13944
  Beta  occ. eigenvalues --   -1.13772  -1.13702  -1.13641  -1.13585  -1.13528
  Beta  occ. eigenvalues --   -1.13513  -1.13491  -1.13474  -1.13434  -1.13344
  Beta  occ. eigenvalues --   -1.13320  -1.13290  -1.12512  -1.12488  -1.12427
  Beta  occ. eigenvalues --   -0.17800  -0.13949  -0.11497
  Beta virt. eigenvalues --   -0.06949  -0.06670  -0.05164  -0.04354  -0.02896
  Beta virt. eigenvalues --   -0.02657  -0.01970  -0.01302  -0.01033  -0.00485
  Beta virt. eigenvalues --   -0.00189   0.00021   0.00169   0.00511   0.00633

 Mulliken charges and spin densities:
               1          2
     1  Na   0.982893   0.296256
     2  Na   0.306092   0.238732
     3  Na  -0.307281  -0.028296
     4  Na  -1.252398   0.027164
     5  Na  -0.325895   0.259750
     6  Na   0.009398   0.044603
     7  Na   0.587191   0.161791
 Sum of Mulliken charges =  -0.00000   1.00000

 Dipole moment (field-independent basis, Debye):
    X=             -0.7313    Y=              0.1668    Z=             -0.7797  Tot=              1.0819
 Quadrupole moment (field-independent basis, Debye-Ang):
   XX=            -52.6611   YY=            -70.3101   ZZ=            -72.6535
   XY=             -1.0140   XZ=              3.1811   YZ=             -2.0834

 Normal termination of Gaussian 16 at Sat Dec  9 07:08:37 2023.
