 Gaussian 16, Revision B.01,
 Gaussian 16:  ES64L-G16RevB.01 20-Dec-2017

 -------------------------
 #P B3LYP/6-311+g(d) force
 -------------------------

 -----
 DPGEN
 -----
 Symbolic Z-matrix:
 Charge =  0 Multiplicity = 2

                         Standard orientation:
 ---------------------------------------------------------------------
 Center     Atomic      Atomic             Coordinates (Angstroms)
 Number     Number       Type             X           Y           Z
 ---------------------------------------------------------------------
      1         11           0       -3.977178   -1.169980   -0.034739
      2         11           0       -1.841777    2.050829   -0.649515
      3         11           0       -0.371829   -1.313556   -1.353424
      4         11           0       -0.676375   -0.119329    2.120344
      5         11           0        3.159898   -1.314669   -0.969182
      6         11           0        2.257829    0.004176    1.699726
      7         11           0        1.449432    1.862529   -0.813211
 ---------------------------------------------------------------------

 SCF Done:  E(UB3LYP) =  -1136.11724638     A.U. after   30 cycles

 The electronic state is 2-A.
 Alpha  occ. eigenvalues --  -38.45534 -38.44775 -38.44768 -38.44172 -38.43843
 Alpha  occ. eigenvalues --  -38.42801 -38.42716  -2.21292  -2.20635  -2.20593
 Alpha  occ. eigenvalues --   -2.20010  -2.19736  -2.18754  -2.18583  -1.14963
 Alpha  occ. eigenvalues --   -1.14942  -1.14904  -1.14307  -1.14299  -1.14286
 Alpha  occ. eigenvalues --   -1.14251  -1.14249  -1.14194  -1.13708  -1.13656
 Alpha  occ. eigenvalues --   -1.13628  -1.13419  -1.13389  -1.13362  -1.12527
 Alpha  occ. eigenvalues --   -1.12413  -1.12392  -1.12256  -1.12246  -1.12164
 Alpha  occ. eigenvalues --   -0.18456  -0.14001  -0.11985  -0.10772
 Alpha virt. eigenvalues --   -0.06914  -0.05563  -0.04244  -0.03435  -0.02696
 Alpha virt. eigenvalues --   -0.02616  -0.02332  -0.01387  -0.00544  -0.00329
 Alpha virt. eigenvalues --    0.00081   0.00213   0.00372   0.00581   0.00698

  Beta  occ. eigenvalues --  -38.45497 -38.44731 -38.44730 -38.44127 -38.43806
  Beta  occ. eigenvalues --  -38.42791 -38.42715  -2.21223  -2.20554  -2.20523
  Beta  occ. eigenvalues --   -2.19931  -2.19672  -2.18739  -2.18582  -1.14911
  Beta  occ. eigenvalues --   -1.14895  -1.14860  -1.14255  -1.14244  -1.14228
  Beta  occ. eigenvalues --   -1.14201  -1.14199  -1.14138  -1.13640  -1.13607
  Beta  occ. eigenvalues --   -1.13564  -1.13375  -1.13342  -1.13298  -1.12515
  Beta  occ. eigenvalues --   -1.12400  -1.12376  -1.12259  -1.12232  -1.12160
  Beta  occ. eigenvalues --   -0.17785  -0.13665  -0.10500
  Beta virt. eigenvalues --   -0.08222  -0.06603  -0.04969  -0.04175  -0.03005
  Beta virt. eigenvalues --   -0.02432  -0.02095  -0.01780  -0.00975  -0.00497
  Beta virt. eigenvalues --   -0.00140   0.00152   0.00302   0.00457   0.00639

 Mulliken charges and spin densities:
               1          2
     1  Na   0.630369   0.157130
     2  Na   0.236301  -0.014692
     3  Na  -0.817633   0.318747
     4  Na  -0.587028   0.256201
     5  Na   0.592107   0.153931
     6  Na   0.279747  -0.219741
     7  Na  -0.333862   0.348422
 Sum of Mulliken charges =  -0.00000   1.00000

 Dipole moment (field-independent basis, Debye):
    X=             -0.9681    Y=             -0.5111    Z=             -0.8725  Tot=              1.3998
 Quadrupole moment (field-independent basis, Debye-Ang):
   XX=            -45.8477   YY=            -65.8307   ZZ=            -82.4991
   XY=              0.1725   XZ=             -1.5539   YZ=              4.3809

 Normal termination of Gaussian 16 at Fri Dec  8 04:27:43 2023.
