 Gaussian 16, Revision B.01,
 Gaussian 16:  ES64L-G16RevB.01 20-Dec-2017

 -------------------------
 #P B3LYP/6-311+g(d) force
 -------------------------

 -----
 DPGEN
 -----
 Symbolic Z-matrix:
 Charge =  0 Multiplicity = 2

                         Standard orientation:
 ---------------------------------------------------------------------
 Center     Atomic      Atomic             Coordinates (Angstroms)
 Number     Number       Type             X           Y           Z
 ---------------------------------------------------------------------
      1         11           0        0.055503    2.938252    0.155358
      2         11           0       -2.835810   -2.074953    0.446121
      3         11           0        2.879759   -2.030547   -0.045065
      4         11           0        0.197538   -0.213538    1.694259
      5         11           0       -2.595438    1.254033   -0.410325
      6         11           0       -0.355000   -0.917696   -1.618735
      7         11           0        2.653448    1.044449   -0.221613
 ---------------------------------------------------------------------

 SCF Done:  E(UB3LYP) =  -1136.13120951     A.U. after   20 cycles

 The electronic state is 2-A.
 Alpha  occ. eigenvalues --  -38.44200 -38.44149 -38.44121 -38.44104 -38.43576
 Alpha  occ. eigenvalues --  -38.43346 -38.42723  -2.20035  -2.20010  -2.20003
 Alpha  occ. eigenvalues --   -2.19967  -2.19474  -2.19272  -2.18603  -1.13800
 Alpha  occ. eigenvalues --   -1.13699  -1.13696  -1.13687  -1.13669  -1.13668
 Alpha  occ. eigenvalues --   -1.13664  -1.13660  -1.13633  -1.13618  -1.13590
 Alpha  occ. eigenvalues --   -1.13587  -1.13178  -1.13120  -1.13078  -1.12965
 Alpha  occ. eigenvalues --   -1.12896  -1.12887  -1.12285  -1.12264  -1.12245
 Alpha  occ. eigenvalues --   -0.18606  -0.13772  -0.12226  -0.10238
 Alpha virt. eigenvalues --   -0.06004  -0.05921  -0.04361  -0.03449  -0.02534
 Alpha virt. eigenvalues --   -0.02086  -0.01944  -0.01414  -0.00679  -0.00169
 Alpha virt. eigenvalues --    0.00038   0.00306   0.00681   0.00741   0.00861

  Beta  occ. eigenvalues --  -38.44199 -38.44140 -38.44106 -38.44098 -38.43519
  Beta  occ. eigenvalues --  -38.43269 -38.42721  -2.20035  -2.20002  -2.19979
  Beta  occ. eigenvalues --   -2.19952  -2.19370  -2.19131  -2.18602  -1.13802
  Beta  occ. eigenvalues --   -1.13695  -1.13677  -1.13669  -1.13667  -1.13655
  Beta  occ. eigenvalues --   -1.13632  -1.13629  -1.13619  -1.13589  -1.13589
  Beta  occ. eigenvalues --   -1.13577  -1.13106  -1.13037  -1.13003  -1.12867
  Beta  occ. eigenvalues --   -1.12796  -1.12783  -1.12288  -1.12265  -1.12220
  Beta  occ. eigenvalues --   -0.17920  -0.13539  -0.12016
  Beta virt. eigenvalues --   -0.06458  -0.05906  -0.05831  -0.04301  -0.02707
  Beta virt. eigenvalues --   -0.01970  -0.01746  -0.01379  -0.01073  -0.00737
  Beta virt. eigenvalues --   -0.00109   0.00183   0.00351   0.00750   0.00764

 Mulliken charges and spin densities:
               1          2
     1  Na  -0.170341  -0.037626
     2  Na   0.068921   0.010083
     3  Na   0.261286   0.014970
     4  Na  -0.248419   0.467769
     5  Na   0.217916   0.136202
     6  Na  -0.245579   0.308922
     7  Na   0.116217   0.099679
 Sum of Mulliken charges =  -0.00000   1.00000

 Dipole moment (field-independent basis, Debye):
    X=             -0.0391    Y=             -0.6776    Z=             -0.0039  Tot=              0.6787
 Quadrupole moment (field-independent basis, Debye-Ang):
   XX=            -53.1842   YY=            -63.3710   ZZ=            -76.4694
   XY=             -0.1559   XZ=             -0.9812   YZ=             -1.2513

 Normal termination of Gaussian 16 at Tue Dec  5 18:52:42 2023.
