 Gaussian 16, Revision B.01,
 Gaussian 16:  ES64L-G16RevB.01 20-Dec-2017

 -------------------------
 #P B3LYP/6-311+g(d) force
 -------------------------

 -----
 DPGEN
 -----
 Symbolic Z-matrix:
 Charge =  0 Multiplicity = 2

                         Standard orientation:
 ---------------------------------------------------------------------
 Center     Atomic      Atomic             Coordinates (Angstroms)
 Number     Number       Type             X           Y           Z
 ---------------------------------------------------------------------
      1         11           0        4.358790    0.646265   -0.505843
      2         11           0       -2.459974    2.774334   -0.109544
      3         11           0        2.218914   -2.096946    0.747370
      4         11           0       -0.981224   -2.148294   -1.148928
      5         11           0       -1.060023   -0.055327    1.661312
      6         11           0        1.878810    1.709729   -0.280755
      7         11           0       -3.955292   -0.829759   -0.363613
 ---------------------------------------------------------------------

 SCF Done:  E(UB3LYP) =  -1136.11518422     A.U. after   22 cycles

 The electronic state is 2-A.
 Alpha  occ. eigenvalues --  -38.44403 -38.44385 -38.44372 -38.44202 -38.44100
 Alpha  occ. eigenvalues --  -38.44009 -38.43882  -2.20272  -2.20230  -2.20160
 Alpha  occ. eigenvalues --   -2.20039  -2.19907  -2.19857  -2.19696  -1.14183
 Alpha  occ. eigenvalues --   -1.13930  -1.13925  -1.13903  -1.13895  -1.13845
 Alpha  occ. eigenvalues --   -1.13831  -1.13813  -1.13784  -1.13705  -1.13688
 Alpha  occ. eigenvalues --   -1.13647  -1.13537  -1.13510  -1.13509  -1.13499
 Alpha  occ. eigenvalues --   -1.13499  -1.13472  -1.13381  -1.13364  -1.13324
 Alpha  occ. eigenvalues --   -0.17253  -0.14408  -0.11706  -0.10582
 Alpha virt. eigenvalues --   -0.06409  -0.06151  -0.04167  -0.03560  -0.02962
 Alpha virt. eigenvalues --   -0.02387  -0.01875  -0.01536  -0.01314  -0.00679
 Alpha virt. eigenvalues --   -0.00087  -0.00021   0.00346   0.00520   0.00611

  Beta  occ. eigenvalues --  -38.44393 -38.44352 -38.44341 -38.44129 -38.44097
  Beta  occ. eigenvalues --  -38.43959 -38.43877  -2.20260  -2.20152  -2.20124
  Beta  occ. eigenvalues --   -2.19904  -2.19853  -2.19813  -2.19692  -1.14136
  Beta  occ. eigenvalues --   -1.13926  -1.13884  -1.13868  -1.13837  -1.13819
  Beta  occ. eigenvalues --   -1.13790  -1.13769  -1.13753  -1.13609  -1.13601
  Beta  occ. eigenvalues --   -1.13553  -1.13535  -1.13500  -1.13493  -1.13446
  Beta  occ. eigenvalues --   -1.13432  -1.13420  -1.13383  -1.13366  -1.13285
  Beta  occ. eigenvalues --   -0.16683  -0.13820  -0.11369
  Beta virt. eigenvalues --   -0.07136  -0.06303  -0.05973  -0.03505  -0.03391
  Beta virt. eigenvalues --   -0.02597  -0.02054  -0.01761  -0.01083  -0.01078
  Beta virt. eigenvalues --   -0.00295  -0.00042   0.00204   0.00408   0.00543

 Mulliken charges and spin densities:
               1          2
     1  Na   1.371778   0.249885
     2  Na  -0.039515  -0.119631
     3  Na  -0.045877   0.101354
     4  Na  -0.194534  -0.011971
     5  Na  -0.087470   0.414487
     6  Na  -1.378939   0.005050
     7  Na   0.374558   0.360826
 Sum of Mulliken charges =  -0.00000   1.00000

 Dipole moment (field-independent basis, Debye):
    X=              0.0119    Y=             -0.4232    Z=              0.2039  Tot=              0.4699
 Quadrupole moment (field-independent basis, Debye-Ang):
   XX=            -60.3701   YY=            -72.5470   ZZ=            -67.9811
   XY=             -7.9104   XZ=              0.3390   YZ=             -2.2984

 Normal termination of Gaussian 16 at Sun Dec  3 18:57:32 2023.
