 Gaussian 16, Revision B.01,
 Gaussian 16:  ES64L-G16RevB.01 20-Dec-2017

 -------------------------
 #P B3LYP/6-311+g(d) force
 -------------------------

 -----
 DPGEN
 -----
 Symbolic Z-matrix:
 Charge =  0 Multiplicity = 2

                         Standard orientation:
 ---------------------------------------------------------------------
 Center     Atomic      Atomic             Coordinates (Angstroms)
 Number     Number       Type             X           Y           Z
 ---------------------------------------------------------------------
      1         11           0       -0.125063   -0.323262   -1.508548
      2         11           0       -2.476255    1.879018    0.200074
      3         11           0       -3.101974   -0.936366   -0.721725
      4         11           0        0.749275    1.185932    1.915636
      5         11           0        2.283459    2.501816   -0.629496
      6         11           0        2.741612   -1.848604   -0.667354
      7         11           0       -0.071055   -2.458534    1.411412
 ---------------------------------------------------------------------

 SCF Done:  E(UB3LYP) =  -1136.12777447     A.U. after   19 cycles

 The electronic state is 2-A.
 Alpha  occ. eigenvalues --  -38.44392 -38.44296 -38.43903 -38.43839 -38.43586
 Alpha  occ. eigenvalues --  -38.43501 -38.43444  -2.20227  -2.20090  -2.19784
 Alpha  occ. eigenvalues --   -2.19630  -2.19437  -2.19411  -2.19299  -1.13934
 Alpha  occ. eigenvalues --   -1.13889  -1.13869  -1.13777  -1.13739  -1.13722
 Alpha  occ. eigenvalues --   -1.13485  -1.13426  -1.13403  -1.13317  -1.13289
 Alpha  occ. eigenvalues --   -1.13270  -1.13126  -1.13081  -1.13078  -1.13065
 Alpha  occ. eigenvalues --   -1.13051  -1.13032  -1.12965  -1.12942  -1.12918
 Alpha  occ. eigenvalues --   -0.17971  -0.13171  -0.12005  -0.10939
 Alpha virt. eigenvalues --   -0.05981  -0.05372  -0.04245  -0.03421  -0.03274
 Alpha virt. eigenvalues --   -0.02578  -0.01705  -0.01275  -0.00496  -0.00107
 Alpha virt. eigenvalues --    0.00062   0.00346   0.00456   0.00720   0.00765

  Beta  occ. eigenvalues --  -38.44390 -38.44285 -38.43894 -38.43835 -38.43538
  Beta  occ. eigenvalues --  -38.43455 -38.43385  -2.20224  -2.20071  -2.19769
  Beta  occ. eigenvalues --   -2.19623  -2.19355  -2.19322  -2.19192  -1.13934
  Beta  occ. eigenvalues --   -1.13877  -1.13861  -1.13754  -1.13728  -1.13704
  Beta  occ. eigenvalues --   -1.13466  -1.13419  -1.13385  -1.13309  -1.13283
  Beta  occ. eigenvalues --   -1.13258  -1.13063  -1.13025  -1.13012  -1.13001
  Beta  occ. eigenvalues --   -1.12992  -1.12968  -1.12895  -1.12869  -1.12834
  Beta  occ. eigenvalues --   -0.17293  -0.12921  -0.11852
  Beta virt. eigenvalues --   -0.07129  -0.05887  -0.05226  -0.03915  -0.02956
  Beta virt. eigenvalues --   -0.02680  -0.01662  -0.01592  -0.01229  -0.00283
  Beta virt. eigenvalues --   -0.00064   0.00116   0.00403   0.00581   0.00738

 Mulliken charges and spin densities:
               1          2
     1  Na  -0.068694   0.191838
     2  Na  -0.343247   0.050960
     3  Na   0.662715   0.051770
     4  Na   0.167459   0.282117
     5  Na  -0.081566   0.036024
     6  Na   0.076195   0.029706
     7  Na  -0.412863   0.357585
 Sum of Mulliken charges =  -0.00000   1.00000

 Dipole moment (field-independent basis, Debye):
    X=             -0.0692    Y=             -0.0186    Z=             -0.1086  Tot=              0.1301
 Quadrupole moment (field-independent basis, Debye-Ang):
   XX=            -56.7307   YY=            -65.7450   ZZ=            -71.8313
   XY=             -0.3183   XZ=             -2.4169   YZ=             -1.5521

 Normal termination of Gaussian 16 at Sun Dec  3 12:58:24 2023.
