 Gaussian 16, Revision B.01,
 Gaussian 16:  ES64L-G16RevB.01 20-Dec-2017

 -------------------------
 #P B3LYP/6-311+g(d) force
 -------------------------

 -----
 DPGEN
 -----
 Symbolic Z-matrix:
 Charge =  0 Multiplicity = 2

                         Standard orientation:
 ---------------------------------------------------------------------
 Center     Atomic      Atomic             Coordinates (Angstroms)
 Number     Number       Type             X           Y           Z
 ---------------------------------------------------------------------
      1         11           0        0.001401   -0.703990   -1.615778
      2         11           0        3.064896    1.208831   -0.467877
      3         11           0       -1.822044   -2.353325    0.215777
      4         11           0       -3.268452    0.448943   -0.246057
      5         11           0       -0.488303    3.063925   -0.096046
      6         11           0        2.356932   -2.166575    0.288223
      7         11           0        0.155569    0.502190    1.921757
 ---------------------------------------------------------------------

 SCF Done:  E(UB3LYP) =  -1136.13263120     A.U. after   20 cycles

 The electronic state is 2-A.
 Alpha  occ. eigenvalues --  -38.44510 -38.44415 -38.43983 -38.43662 -38.43514
 Alpha  occ. eigenvalues --  -38.43407 -38.43218  -2.20298  -2.20234  -2.19799
 Alpha  occ. eigenvalues --   -2.19540  -2.19439  -2.19206  -2.19099  -1.13974
 Alpha  occ. eigenvalues --   -1.13951  -1.13934  -1.13919  -1.13898  -1.13867
 Alpha  occ. eigenvalues --   -1.13478  -1.13459  -1.13438  -1.13306  -1.13191
 Alpha  occ. eigenvalues --   -1.13165  -1.13109  -1.13067  -1.13035  -1.12907
 Alpha  occ. eigenvalues --   -1.12871  -1.12842  -1.12769  -1.12723  -1.12712
 Alpha  occ. eigenvalues --   -0.18194  -0.13264  -0.12203  -0.10260
 Alpha virt. eigenvalues --   -0.06074  -0.05545  -0.04663  -0.03244  -0.02817
 Alpha virt. eigenvalues --   -0.02160  -0.01844  -0.01288  -0.00694  -0.00531
 Alpha virt. eigenvalues --   -0.00015   0.00333   0.00705   0.00799   0.00831

  Beta  occ. eigenvalues --  -38.44496 -38.44411 -38.43977 -38.43656 -38.43465
  Beta  occ. eigenvalues --  -38.43406 -38.43133  -2.20274  -2.20227  -2.19791
  Beta  occ. eigenvalues --   -2.19532  -2.19349  -2.19206  -2.18942  -1.13942
  Beta  occ. eigenvalues --   -1.13937  -1.13919  -1.13915  -1.13883  -1.13860
  Beta  occ. eigenvalues --   -1.13471  -1.13446  -1.13423  -1.13286  -1.13184
  Beta  occ. eigenvalues --   -1.13141  -1.13049  -1.13007  -1.12973  -1.12894
  Beta  occ. eigenvalues --   -1.12860  -1.12844  -1.12666  -1.12615  -1.12600
  Beta  occ. eigenvalues --   -0.17507  -0.13036  -0.12011
  Beta virt. eigenvalues --   -0.06486  -0.05983  -0.05508  -0.04569  -0.02525
  Beta virt. eigenvalues --   -0.02115  -0.01726  -0.01251  -0.01177  -0.00697
  Beta virt. eigenvalues --   -0.00559   0.00141   0.00383   0.00775   0.00815

 Mulliken charges and spin densities:
               1          2
     1  Na  -0.126060   0.391288
     2  Na  -0.034963  -0.006580
     3  Na   0.311867   0.059443
     4  Na   0.012244  -0.042891
     5  Na  -0.047155  -0.091238
     6  Na   0.177781   0.026672
     7  Na  -0.293714   0.663307
 Sum of Mulliken charges =  -0.00000   1.00000

 Dipole moment (field-independent basis, Debye):
    X=              0.1378    Y=             -0.0571    Z=             -0.0321  Tot=              0.1526
 Quadrupole moment (field-independent basis, Debye-Ang):
   XX=            -53.4716   YY=            -63.2864   ZZ=            -76.1352
   XY=             -0.4291   XZ=             -0.1069   YZ=             -2.9931

 Normal termination of Gaussian 16 at Thu Dec  7 05:11:54 2023.
