 Gaussian 16, Revision B.01,
 Gaussian 16:  ES64L-G16RevB.01 20-Dec-2017

 -------------------------
 #P B3LYP/6-311+g(d) force
 -------------------------

 -----
 DPGEN
 -----
 Symbolic Z-matrix:
 Charge =  0 Multiplicity = 2

                         Standard orientation:
 ---------------------------------------------------------------------
 Center     Atomic      Atomic             Coordinates (Angstroms)
 Number     Number       Type             X           Y           Z
 ---------------------------------------------------------------------
      1         11           0        2.475289   -2.000322   -0.669279
      2         11           0       -0.224126   -0.220158    1.677169
      3         11           0        3.107631    1.121335    1.245393
      4         11           0       -3.354676   -1.315205    1.046238
      5         11           0       -2.566939    2.170537   -0.621415
      6         11           0        1.514369    1.139082   -1.002206
      7         11           0       -0.951548   -0.895270   -1.675900
 ---------------------------------------------------------------------

 SCF Done:  E(UB3LYP) =  -1136.11564447     A.U. after   33 cycles

 The electronic state is 2-A.
 Alpha  occ. eigenvalues --  -38.45001 -38.44682 -38.44518 -38.44101 -38.43605
 Alpha  occ. eigenvalues --  -38.43523 -38.42963  -2.20814  -2.20467  -2.20392
 Alpha  occ. eigenvalues --   -2.20110  -2.19502  -2.19342  -2.18861  -1.14487
 Alpha  occ. eigenvalues --   -1.14456  -1.14429  -1.14131  -1.14117  -1.14103
 Alpha  occ. eigenvalues --   -1.14088  -1.14034  -1.14010  -1.13949  -1.13786
 Alpha  occ. eigenvalues --   -1.13691  -1.13165  -1.13118  -1.13102  -1.13028
 Alpha  occ. eigenvalues --   -1.13004  -1.12973  -1.12587  -1.12528  -1.12442
 Alpha  occ. eigenvalues --   -0.18499  -0.14242  -0.11667  -0.10573
 Alpha virt. eigenvalues --   -0.06452  -0.05815  -0.04691  -0.03141  -0.02526
 Alpha virt. eigenvalues --   -0.02337  -0.02210  -0.01570  -0.00770  -0.00028
 Alpha virt. eigenvalues --    0.00145   0.00204   0.00354   0.00461   0.00616

  Beta  occ. eigenvalues --  -38.44949 -38.44628 -38.44474 -38.44079 -38.43603
  Beta  occ. eigenvalues --  -38.43535 -38.42930  -2.20720  -2.20369  -2.20312
  Beta  occ. eigenvalues --   -2.20071  -2.19499  -2.19366  -2.18805  -1.14409
  Beta  occ. eigenvalues --   -1.14392  -1.14370  -1.14056  -1.14047  -1.14039
  Beta  occ. eigenvalues --   -1.14025  -1.13981  -1.13945  -1.13905  -1.13763
  Beta  occ. eigenvalues --   -1.13665  -1.13160  -1.13109  -1.13103  -1.13041
  Beta  occ. eigenvalues --   -1.13019  -1.12985  -1.12546  -1.12463  -1.12406
  Beta  occ. eigenvalues --   -0.17839  -0.13908  -0.10450
  Beta virt. eigenvalues --   -0.07742  -0.06260  -0.05498  -0.04203  -0.02778
  Beta virt. eigenvalues --   -0.02316  -0.01842  -0.01670  -0.01213  -0.00534
  Beta virt. eigenvalues --    0.00033   0.00194   0.00267   0.00428   0.00574

 Mulliken charges and spin densities:
               1          2
     1  Na  -0.117700  -0.093421
     2  Na  -0.810667   0.466276
     3  Na   0.792507   0.125165
     4  Na   0.587919   0.027093
     5  Na  -0.138500   0.195524
     6  Na  -0.205558  -0.015936
     7  Na  -0.108002   0.295299
 Sum of Mulliken charges =  -0.00000   1.00000

 Dipole moment (field-independent basis, Debye):
    X=             -0.9890    Y=             -0.3896    Z=              0.3225  Tot=              1.1108
 Quadrupole moment (field-independent basis, Debye-Ang):
   XX=            -50.1724   YY=            -72.5988   ZZ=            -72.0974
   XY=             -1.2633   XZ=              0.6498   YZ=             -6.4215

 Normal termination of Gaussian 16 at Tue Dec  5 23:59:01 2023.
