 Gaussian 16, Revision B.01,
 Gaussian 16:  ES64L-G16RevB.01 20-Dec-2017

 -------------------------
 #P B3LYP/6-311+g(d) force
 -------------------------

 -----
 DPGEN
 -----
 Symbolic Z-matrix:
 Charge =  0 Multiplicity = 2

                         Standard orientation:
 ---------------------------------------------------------------------
 Center     Atomic      Atomic             Coordinates (Angstroms)
 Number     Number       Type             X           Y           Z
 ---------------------------------------------------------------------
      1         11           0       -0.333483    0.918263    1.473157
      2         11           0       -2.061433    3.396093   -0.889043
      3         11           0       -3.894626    0.571481    0.167141
      4         11           0        0.368561   -1.732997   -0.483202
      5         11           0        2.736500   -0.447054    0.994674
      6         11           0       -2.665388   -3.197004   -0.487652
      7         11           0        5.849868    0.491219   -0.775076
 ---------------------------------------------------------------------

 SCF Done:  E(UB3LYP) =  -1136.11525634     A.U. after   21 cycles

 The electronic state is 2-A.
 Alpha  occ. eigenvalues --  -38.45012 -38.44873 -38.44799 -38.44535 -38.43922
 Alpha  occ. eigenvalues --  -38.43479 -38.42981  -2.20801  -2.20645  -2.20636
 Alpha  occ. eigenvalues --   -2.20296  -2.19799  -2.19342  -2.18767  -1.14431
 Alpha  occ. eigenvalues --   -1.14431  -1.14405  -1.14346  -1.14333  -1.14317
 Alpha  occ. eigenvalues --   -1.14305  -1.14243  -1.14227  -1.13971  -1.13962
 Alpha  occ. eigenvalues --   -1.13917  -1.13484  -1.13482  -1.13447  -1.13031
 Alpha  occ. eigenvalues --   -1.13001  -1.12978  -1.12434  -1.12426  -1.12406
 Alpha  occ. eigenvalues --   -0.16762  -0.13842  -0.12046  -0.11298
 Alpha virt. eigenvalues --   -0.06471  -0.05475  -0.04655  -0.03719  -0.02784
 Alpha virt. eigenvalues --   -0.02398  -0.02027  -0.01735  -0.01066  -0.00875
 Alpha virt. eigenvalues --   -0.00555  -0.00191   0.00308   0.00428   0.00476

  Beta  occ. eigenvalues --  -38.44878 -38.44852 -38.44759 -38.44534 -38.43917
  Beta  occ. eigenvalues --  -38.43478 -38.42970  -2.20604  -2.20567  -2.20552
  Beta  occ. eigenvalues --   -2.20294  -2.19791  -2.19349  -2.18746  -1.14318
  Beta  occ. eigenvalues --   -1.14290  -1.14281  -1.14269  -1.14262  -1.14261
  Beta  occ. eigenvalues --   -1.14239  -1.14210  -1.14165  -1.13970  -1.13957
  Beta  occ. eigenvalues --   -1.13917  -1.13482  -1.13462  -1.13448  -1.13044
  Beta  occ. eigenvalues --   -1.13012  -1.12924  -1.12420  -1.12413  -1.12390
  Beta  occ. eigenvalues --   -0.16310  -0.13158  -0.11590
  Beta virt. eigenvalues --   -0.07775  -0.06351  -0.05050  -0.04395  -0.03517
  Beta virt. eigenvalues --   -0.02515  -0.02028  -0.01712  -0.01196  -0.00926
  Beta virt. eigenvalues --   -0.00461  -0.00411   0.00036   0.00400   0.00517

 Mulliken charges and spin densities:
               1          2
     1  Na  -0.411204   0.104001
     2  Na   0.195353   0.011509
     3  Na   0.020287   0.185740
     4  Na  -0.793952  -0.118259
     5  Na   0.518567   0.044746
     6  Na   0.452688   0.102991
     7  Na   0.018261   0.669272
 Sum of Mulliken charges =  -0.00000   1.00000

 Dipole moment (field-independent basis, Debye):
    X=             -0.3613    Y=              1.3576    Z=             -0.1375  Tot=              1.4116
 Quadrupole moment (field-independent basis, Debye-Ang):
   XX=            -64.4530   YY=            -68.7878   ZZ=            -67.2775
   XY=             -1.1500   XZ=             -2.5221   YZ=             -3.2056

 Normal termination of Gaussian 16 at Tue Nov 28 19:13:40 2023.
