 Gaussian 16, Revision B.01,
 Gaussian 16:  ES64L-G16RevB.01 20-Dec-2017

 -------------------------
 #P B3LYP/6-311+g(d) force
 -------------------------

 -----
 DPGEN
 -----
 Symbolic Z-matrix:
 Charge =  0 Multiplicity = 2

                         Standard orientation:
 ---------------------------------------------------------------------
 Center     Atomic      Atomic             Coordinates (Angstroms)
 Number     Number       Type             X           Y           Z
 ---------------------------------------------------------------------
      1         11           0        3.003511   -0.892878   -0.257400
      2         11           0        0.176295   -2.779162    0.027354
      3         11           0       -0.104115   -0.255873    2.110859
      4         11           0        0.038465    0.326980   -1.761441
      5         11           0       -3.170346   -1.037942   -0.367353
      6         11           0        1.725983    2.234490    0.089891
      7         11           0       -1.669792    2.404385    0.158090
 ---------------------------------------------------------------------

 SCF Done:  E(UB3LYP) =  -1136.13848727     A.U. after   20 cycles

 The electronic state is 2-A.
 Alpha  occ. eigenvalues --  -38.44142 -38.43761 -38.43730 -38.43525 -38.43465
 Alpha  occ. eigenvalues --  -38.43316 -38.43303  -2.19920  -2.19646  -2.19575
 Alpha  occ. eigenvalues --   -2.19421  -2.19379  -2.19199  -2.19175  -1.13596
 Alpha  occ. eigenvalues --   -1.13570  -1.13565  -1.13316  -1.13284  -1.13263
 Alpha  occ. eigenvalues --   -1.13249  -1.13240  -1.13222  -1.13152  -1.13082
 Alpha  occ. eigenvalues --   -1.13068  -1.13046  -1.13011  -1.13003  -1.12865
 Alpha  occ. eigenvalues --   -1.12861  -1.12854  -1.12843  -1.12817  -1.12790
 Alpha  occ. eigenvalues --   -0.18643  -0.12804  -0.12542  -0.10952
 Alpha virt. eigenvalues --   -0.05640  -0.05092  -0.04586  -0.03142  -0.03132
 Alpha virt. eigenvalues --   -0.02707  -0.01551  -0.01068  -0.00271  -0.00216
 Alpha virt. eigenvalues --   -0.00045   0.00356   0.00789   0.00892   0.00919

  Beta  occ. eigenvalues --  -38.44137 -38.43726 -38.43665 -38.43519 -38.43400
  Beta  occ. eigenvalues --  -38.43311 -38.43296  -2.19913  -2.19570  -2.19468
  Beta  occ. eigenvalues --   -2.19373  -2.19303  -2.19191  -2.19168  -1.13578
  Beta  occ. eigenvalues --   -1.13566  -1.13561  -1.13244  -1.13237  -1.13210
  Beta  occ. eigenvalues --   -1.13196  -1.13156  -1.13137  -1.13104  -1.13031
  Beta  occ. eigenvalues --   -1.13021  -1.13009  -1.12987  -1.12938  -1.12852
  Beta  occ. eigenvalues --   -1.12849  -1.12826  -1.12814  -1.12807  -1.12790
  Beta  occ. eigenvalues --   -0.17897  -0.12575  -0.12305
  Beta virt. eigenvalues --   -0.07038  -0.05595  -0.05084  -0.04515  -0.02402
  Beta virt. eigenvalues --   -0.02305  -0.01675  -0.01453  -0.01005  -0.00308
  Beta virt. eigenvalues --   -0.00272   0.00098   0.00376   0.00848   0.00887

 Mulliken charges and spin densities:
               1          2
     1  Na   0.138942  -0.046736
     2  Na   0.175044  -0.055696
     3  Na  -0.466176   0.654045
     4  Na  -0.317446   0.560897
     5  Na   0.000586  -0.078915
     6  Na   0.300839   0.013710
     7  Na   0.168212  -0.047306
 Sum of Mulliken charges =  -0.00000   1.00000

 Dipole moment (field-independent basis, Debye):
    X=             -0.2026    Y=             -0.0460    Z=              0.0690  Tot=              0.2189
 Quadrupole moment (field-independent basis, Debye-Ang):
   XX=            -56.8106   YY=            -64.3195   ZZ=            -72.9216
   XY=             -0.1199   XZ=              0.2947   YZ=              1.4394

 Normal termination of Gaussian 16 at Tue Dec  5 10:40:30 2023.
