 Gaussian 16, Revision B.01,
 Gaussian 16:  ES64L-G16RevB.01 20-Dec-2017

 -------------------------
 #P B3LYP/6-311+g(d) force
 -------------------------

 -----
 DPGEN
 -----
 Symbolic Z-matrix:
 Charge =  0 Multiplicity = 2

                         Standard orientation:
 ---------------------------------------------------------------------
 Center     Atomic      Atomic             Coordinates (Angstroms)
 Number     Number       Type             X           Y           Z
 ---------------------------------------------------------------------
      1         11           0        3.947983   -0.778069    0.123432
      2         11           0       -2.848412   -2.264515   -0.451281
      3         11           0        2.142912    1.561079   -0.489352
      4         11           0        0.556652   -0.660344    2.360988
      5         11           0       -2.415998    0.304553    0.950989
      6         11           0       -1.660071    3.164242   -0.490511
      7         11           0        0.276934   -1.326947   -2.004265
 ---------------------------------------------------------------------

 SCF Done:  E(UB3LYP) =  -1136.11419951     A.U. after   23 cycles

 The electronic state is 2-A.
 Alpha  occ. eigenvalues --  -38.45308 -38.45203 -38.45088 -38.44416 -38.43905
 Alpha  occ. eigenvalues --  -38.43632 -38.42771  -2.21109  -2.21009  -2.20862
 Alpha  occ. eigenvalues --   -2.20253  -2.19731  -2.19534  -2.18555  -1.14762
 Alpha  occ. eigenvalues --   -1.14744  -1.14730  -1.14715  -1.14651  -1.14643
 Alpha  occ. eigenvalues --   -1.14535  -1.14525  -1.14460  -1.13933  -1.13919
 Alpha  occ. eigenvalues --   -1.13874  -1.13524  -1.13373  -1.13359  -1.13220
 Alpha  occ. eigenvalues --   -1.13182  -1.13132  -1.12230  -1.12215  -1.12190
 Alpha  occ. eigenvalues --   -0.17521  -0.13820  -0.11538  -0.11246
 Alpha virt. eigenvalues --   -0.06847  -0.05435  -0.04767  -0.03606  -0.03053
 Alpha virt. eigenvalues --   -0.02535  -0.02327  -0.01286  -0.00626  -0.00246
 Alpha virt. eigenvalues --   -0.00134   0.00021   0.00226   0.00472   0.00687

  Beta  occ. eigenvalues --  -38.45208 -38.45198 -38.45028 -38.44402 -38.43915
  Beta  occ. eigenvalues --  -38.43624 -38.42765  -2.21019  -2.20906  -2.20749
  Beta  occ. eigenvalues --   -2.20230  -2.19751  -2.19521  -2.18545  -1.14738
  Beta  occ. eigenvalues --   -1.14651  -1.14645  -1.14624  -1.14606  -1.14568
  Beta  occ. eigenvalues --   -1.14456  -1.14448  -1.14379  -1.13912  -1.13892
  Beta  occ. eigenvalues --   -1.13863  -1.13539  -1.13381  -1.13366  -1.13196
  Beta  occ. eigenvalues --   -1.13164  -1.13136  -1.12225  -1.12206  -1.12183
  Beta  occ. eigenvalues --   -0.16791  -0.13782  -0.11109
  Beta virt. eigenvalues --   -0.07611  -0.06512  -0.05348  -0.04201  -0.03109
  Beta virt. eigenvalues --   -0.02450  -0.02198  -0.01939  -0.01229  -0.00453
  Beta virt. eigenvalues --   -0.00152   0.00018   0.00239   0.00271   0.00578

 Mulliken charges and spin densities:
               1          2
     1  Na   0.585864  -0.009063
     2  Na   0.107711  -0.104314
     3  Na  -0.331615   0.232015
     4  Na  -0.125486   0.383126
     5  Na   0.052863   0.256752
     6  Na  -0.049405  -0.071840
     7  Na  -0.239931   0.313325
 Sum of Mulliken charges =  -0.00000   1.00000

 Dipole moment (field-independent basis, Debye):
    X=              1.7473    Y=             -1.2066    Z=             -0.0683  Tot=              2.1245
 Quadrupole moment (field-independent basis, Debye-Ang):
   XX=            -54.3044   YY=            -73.2903   ZZ=            -70.5276
   XY=              0.1208   XZ=              0.2289   YZ=             -1.8677

 Normal termination of Gaussian 16 at Sun Dec  3 15:19:38 2023.
