 Gaussian 16, Revision B.01,
 Gaussian 16:  ES64L-G16RevB.01 20-Dec-2017

 -------------------------
 #P B3LYP/6-311+g(d) force
 -------------------------

 -----
 DPGEN
 -----
 Symbolic Z-matrix:
 Charge =  0 Multiplicity = 2

                         Standard orientation:
 ---------------------------------------------------------------------
 Center     Atomic      Atomic             Coordinates (Angstroms)
 Number     Number       Type             X           Y           Z
 ---------------------------------------------------------------------
      1         11           0        1.424190    0.309558    1.845259
      2         11           0        0.125799   -0.383988   -1.385224
      3         11           0       -1.899572    1.568965    0.881863
      4         11           0       -0.934972   -2.275371    0.928239
      5         11           0        3.391632   -1.600417   -0.697635
      6         11           0        1.912847    2.606012   -0.651621
      7         11           0       -4.019923   -0.224759   -0.920881
 ---------------------------------------------------------------------

 SCF Done:  E(UB3LYP) =  -1136.12395572     A.U. after   22 cycles

 The electronic state is 2-A.
 Alpha  occ. eigenvalues --  -38.44589 -38.44579 -38.44126 -38.43775 -38.43737
 Alpha  occ. eigenvalues --  -38.43675 -38.43296  -2.20379  -2.20349  -2.20032
 Alpha  occ. eigenvalues --   -2.19605  -2.19570  -2.19566  -2.19097  -1.14049
 Alpha  occ. eigenvalues --   -1.14035  -1.14028  -1.13997  -1.13993  -1.13976
 Alpha  occ. eigenvalues --   -1.13771  -1.13690  -1.13638  -1.13299  -1.13289
 Alpha  occ. eigenvalues --   -1.13270  -1.13252  -1.13229  -1.13219  -1.13213
 Alpha  occ. eigenvalues --   -1.13176  -1.13158  -1.12780  -1.12753  -1.12725
 Alpha  occ. eigenvalues --   -0.18026  -0.13443  -0.11217  -0.10830
 Alpha virt. eigenvalues --   -0.06744  -0.05372  -0.04367  -0.03046  -0.02694
 Alpha virt. eigenvalues --   -0.02458  -0.02175  -0.01362  -0.00918  -0.00233
 Alpha virt. eigenvalues --   -0.00013   0.00153   0.00331   0.00594   0.00719

  Beta  occ. eigenvalues --  -38.44557 -38.44553 -38.44104 -38.43765 -38.43708
  Beta  occ. eigenvalues --  -38.43618 -38.43289  -2.20319  -2.20302  -2.19994
  Beta  occ. eigenvalues --   -2.19591  -2.19516  -2.19465  -2.19085  -1.14010
  Beta  occ. eigenvalues --   -1.13991  -1.13990  -1.13959  -1.13958  -1.13946
  Beta  occ. eigenvalues --   -1.13726  -1.13667  -1.13611  -1.13290  -1.13252
  Beta  occ. eigenvalues --   -1.13238  -1.13212  -1.13184  -1.13164  -1.13131
  Beta  occ. eigenvalues --   -1.13128  -1.13099  -1.12766  -1.12748  -1.12711
  Beta  occ. eigenvalues --   -0.17350  -0.13094  -0.11040
  Beta virt. eigenvalues --   -0.07186  -0.06453  -0.05191  -0.04032  -0.02823
  Beta virt. eigenvalues --   -0.02346  -0.01993  -0.01464  -0.01227  -0.00614
  Beta virt. eigenvalues --   -0.00082   0.00035   0.00194   0.00423   0.00679

 Mulliken charges and spin densities:
               1          2
     1  Na   0.218753   0.276901
     2  Na  -0.585996   0.276913
     3  Na  -0.031190   0.051519
     4  Na   0.059488   0.082900
     5  Na   0.179169   0.106723
     6  Na  -0.008311   0.076815
     7  Na   0.168087   0.128229
 Sum of Mulliken charges =  -0.00000   1.00000

 Dipole moment (field-independent basis, Debye):
    X=             -0.1105    Y=             -0.3548    Z=              0.0570  Tot=              0.3759
 Quadrupole moment (field-independent basis, Debye-Ang):
   XX=            -51.4819   YY=            -72.1880   ZZ=            -69.1143
   XY=              0.7040   XZ=              1.2725   YZ=             -0.8642

 Normal termination of Gaussian 16 at Tue Dec  5 23:37:36 2023.
