 Gaussian 16, Revision B.01,
 Gaussian 16:  ES64L-G16RevB.01 20-Dec-2017

 -------------------------
 #P B3LYP/6-311+g(d) force
 -------------------------

 -----
 DPGEN
 -----
 Symbolic Z-matrix:
 Charge =  0 Multiplicity = 2

                         Standard orientation:
 ---------------------------------------------------------------------
 Center     Atomic      Atomic             Coordinates (Angstroms)
 Number     Number       Type             X           Y           Z
 ---------------------------------------------------------------------
      1         11           0        1.544343    0.612671    1.521802
      2         11           0       -2.034167    0.524048    2.172213
      3         11           0       -0.049171   -1.965099   -0.865893
      4         11           0       -1.595380    1.559911   -0.657313
      5         11           0        3.378735   -1.600640    0.325376
      6         11           0        1.869591    2.132288   -1.584242
      7         11           0       -3.113952   -1.263180   -0.911943
 ---------------------------------------------------------------------

 SCF Done:  E(UB3LYP) =  -1136.12414727     A.U. after   21 cycles

 The electronic state is 2-A.
 Alpha  occ. eigenvalues --  -38.44408 -38.44282 -38.44136 -38.43777 -38.43714
 Alpha  occ. eigenvalues --  -38.43713 -38.43488  -2.20279  -2.20088  -2.19954
 Alpha  occ. eigenvalues --   -2.19653  -2.19628  -2.19598  -2.19317  -1.13974
 Alpha  occ. eigenvalues --   -1.13924  -1.13879  -1.13746  -1.13725  -1.13713
 Alpha  occ. eigenvalues --   -1.13665  -1.13597  -1.13587  -1.13374  -1.13333
 Alpha  occ. eigenvalues --   -1.13318  -1.13297  -1.13286  -1.13282  -1.13255
 Alpha  occ. eigenvalues --   -1.13217  -1.13203  -1.13003  -1.12999  -1.12927
 Alpha  occ. eigenvalues --   -0.18146  -0.13880  -0.11599  -0.11495
 Alpha virt. eigenvalues --   -0.06026  -0.05285  -0.05009  -0.03423  -0.02812
 Alpha virt. eigenvalues --   -0.02507  -0.01879  -0.01088  -0.00890   0.00026
 Alpha virt. eigenvalues --    0.00160   0.00210   0.00402   0.00562   0.00639

  Beta  occ. eigenvalues --  -38.44336 -38.44214 -38.44128 -38.43767 -38.43702
  Beta  occ. eigenvalues --  -38.43689 -38.43485  -2.20144  -2.19962  -2.19939
  Beta  occ. eigenvalues --   -2.19636  -2.19610  -2.19558  -2.19312  -1.13892
  Beta  occ. eigenvalues --   -1.13827  -1.13784  -1.13655  -1.13650  -1.13645
  Beta  occ. eigenvalues --   -1.13624  -1.13585  -1.13580  -1.13361  -1.13326
  Beta  occ. eigenvalues --   -1.13293  -1.13270  -1.13257  -1.13257  -1.13207
  Beta  occ. eigenvalues --   -1.13195  -1.13187  -1.13001  -1.12990  -1.12918
  Beta  occ. eigenvalues --   -0.17537  -0.13656  -0.11193
  Beta virt. eigenvalues --   -0.07763  -0.05851  -0.05175  -0.04322  -0.03137
  Beta virt. eigenvalues --   -0.02317  -0.01860  -0.01791  -0.00936  -0.00453
  Beta virt. eigenvalues --    0.00081   0.00220   0.00282   0.00572   0.00693

 Mulliken charges and spin densities:
               1          2
     1  Na  -0.450200   0.104657
     2  Na   0.259732   0.324875
     3  Na  -0.881296   0.138362
     4  Na  -0.386948   0.386939
     5  Na   0.612327   0.032929
     6  Na   0.171695   0.276242
     7  Na   0.674690  -0.264002
 Sum of Mulliken charges =  -0.00000   1.00000

 Dipole moment (field-independent basis, Debye):
    X=              0.0914    Y=             -0.0136    Z=              0.0351  Tot=              0.0988
 Quadrupole moment (field-independent basis, Debye-Ang):
   XX=            -52.6067   YY=            -75.5641   ZZ=            -67.9483
   XY=             -0.1143   XZ=             -1.9186   YZ=             -2.6822

 Normal termination of Gaussian 16 at Wed Nov 29 01:12:42 2023.
