 Gaussian 16, Revision B.01,
 Gaussian 16:  ES64L-G16RevB.01 20-Dec-2017

 -------------------------
 #P B3LYP/6-311+g(d) force
 -------------------------

 -----
 DPGEN
 -----
 Symbolic Z-matrix:
 Charge =  0 Multiplicity = 2

                         Standard orientation:
 ---------------------------------------------------------------------
 Center     Atomic      Atomic             Coordinates (Angstroms)
 Number     Number       Type             X           Y           Z
 ---------------------------------------------------------------------
      1         11           0       -2.819843    1.721306    0.075796
      2         11           0       -2.517131   -2.000435   -0.124776
      3         11           0        1.013579   -2.495519   -0.280245
      4         11           0        3.387968   -0.112503    0.095476
      5         11           0        0.025289    0.354707   -1.757427
      6         11           0        0.969454    2.789993    0.022151
      7         11           0       -0.059315   -0.257549    1.969025
 ---------------------------------------------------------------------

 SCF Done:  E(UB3LYP) =  -1136.13651921     A.U. after   19 cycles

 The electronic state is 2-A.
 Alpha  occ. eigenvalues --  -38.44398 -38.44320 -38.43872 -38.43544 -38.43543
 Alpha  occ. eigenvalues --  -38.43282 -38.43099  -2.20196  -2.20098  -2.19677
 Alpha  occ. eigenvalues --   -2.19428  -2.19373  -2.19216  -2.18988  -1.13867
 Alpha  occ. eigenvalues --   -1.13858  -1.13837  -1.13778  -1.13755  -1.13737
 Alpha  occ. eigenvalues --   -1.13350  -1.13336  -1.13323  -1.13116  -1.13105
 Alpha  occ. eigenvalues --   -1.13067  -1.13041  -1.13029  -1.12986  -1.12897
 Alpha  occ. eigenvalues --   -1.12851  -1.12823  -1.12671  -1.12655  -1.12605
 Alpha  occ. eigenvalues --   -0.18365  -0.12892  -0.12330  -0.10541
 Alpha virt. eigenvalues --   -0.06015  -0.05419  -0.04463  -0.03089  -0.02876
 Alpha virt. eigenvalues --   -0.02452  -0.01838  -0.01267  -0.00557  -0.00300
 Alpha virt. eigenvalues --   -0.00033   0.00337   0.00727   0.00817   0.00887

  Beta  occ. eigenvalues --  -38.44397 -38.44319 -38.43871 -38.43538 -38.43458
  Beta  occ. eigenvalues --  -38.43211 -38.43088  -2.20197  -2.20099  -2.19677
  Beta  occ. eigenvalues --   -2.19367  -2.19269  -2.19085  -2.18971  -1.13866
  Beta  occ. eigenvalues --   -1.13845  -1.13840  -1.13763  -1.13755  -1.13740
  Beta  occ. eigenvalues --   -1.13337  -1.13330  -1.13325  -1.13093  -1.13019
  Beta  occ. eigenvalues --   -1.13002  -1.12986  -1.12949  -1.12923  -1.12811
  Beta  occ. eigenvalues --   -1.12761  -1.12731  -1.12658  -1.12608  -1.12598
  Beta  occ. eigenvalues --   -0.17626  -0.12709  -0.12092
  Beta virt. eigenvalues --   -0.06649  -0.05975  -0.05416  -0.04414  -0.02361
  Beta virt. eigenvalues --   -0.02093  -0.01740  -0.01403  -0.01211  -0.00616
  Beta virt. eigenvalues --   -0.00335   0.00110   0.00354   0.00773   0.00818

 Mulliken charges and spin densities:
               1          2
     1  Na   0.026185  -0.132127
     2  Na   0.093855  -0.091559
     3  Na   0.196762  -0.034375
     4  Na   0.112956  -0.044940
     5  Na  -0.105510   0.633336
     6  Na   0.073942  -0.153404
     7  Na  -0.398190   0.823069
 Sum of Mulliken charges =  -0.00000   1.00000

 Dipole moment (field-independent basis, Debye):
    X=             -0.0856    Y=              0.2029    Z=              0.1126  Tot=              0.2474
 Quadrupole moment (field-independent basis, Debye-Ang):
   XX=            -52.6599   YY=            -64.2585   ZZ=            -75.3834
   XY=              0.2069   XZ=              0.3510   YZ=              1.4195

 Normal termination of Gaussian 16 at Fri Dec  8 00:35:13 2023.
