 Gaussian 16, Revision B.01,
 Gaussian 16:  ES64L-G16RevB.01 20-Dec-2017

 -------------------------
 #P B3LYP/6-311+g(d) force
 -------------------------

 -----
 DPGEN
 -----
 Symbolic Z-matrix:
 Charge =  0 Multiplicity = 2

                         Standard orientation:
 ---------------------------------------------------------------------
 Center     Atomic      Atomic             Coordinates (Angstroms)
 Number     Number       Type             X           Y           Z
 ---------------------------------------------------------------------
      1         11           0        0.655022    1.781940   -0.317720
      2         11           0       -2.591186    3.366739    0.265648
      3         11           0       -2.594878    0.435052   -0.571180
      4         11           0       -3.296609   -2.870972    0.882448
      5         11           0       -0.294661   -2.299377   -1.193559
      6         11           0        2.619827   -0.283823    1.099547
      7         11           0        5.502484   -0.129560   -0.165183
 ---------------------------------------------------------------------

 SCF Done:  E(UB3LYP) =  -1136.11869071     A.U. after   19 cycles

 The electronic state is 2-A.
 Alpha  occ. eigenvalues --  -38.44671 -38.44379 -38.44203 -38.44150 -38.43721
 Alpha  occ. eigenvalues --  -38.43706 -38.43559  -2.20444  -2.20152  -2.20046
 Alpha  occ. eigenvalues --   -2.19970  -2.19593  -2.19569  -2.19397  -1.14141
 Alpha  occ. eigenvalues --   -1.14106  -1.14050  -1.13819  -1.13813  -1.13761
 Alpha  occ. eigenvalues --   -1.13752  -1.13718  -1.13651  -1.13627  -1.13602
 Alpha  occ. eigenvalues --   -1.13595  -1.13321  -1.13278  -1.13257  -1.13248
 Alpha  occ. eigenvalues --   -1.13224  -1.13204  -1.13043  -1.13039  -1.12997
 Alpha  occ. eigenvalues --   -0.16780  -0.13803  -0.12504  -0.10440
 Alpha virt. eigenvalues --   -0.06489  -0.05247  -0.04861  -0.03366  -0.03062
 Alpha virt. eigenvalues --   -0.02550  -0.01546  -0.01238  -0.01097  -0.00722
 Alpha virt. eigenvalues --   -0.00673  -0.00021   0.00315   0.00433   0.00487

  Beta  occ. eigenvalues --  -38.44652 -38.44345 -38.44173 -38.44057 -38.43724
  Beta  occ. eigenvalues --  -38.43693 -38.43541  -2.20411  -2.20089  -2.19992
  Beta  occ. eigenvalues --   -2.19797  -2.19581  -2.19572  -2.19363  -1.14120
  Beta  occ. eigenvalues --   -1.14082  -1.14017  -1.13776  -1.13766  -1.13723
  Beta  occ. eigenvalues --   -1.13717  -1.13674  -1.13618  -1.13519  -1.13483
  Beta  occ. eigenvalues --   -1.13478  -1.13298  -1.13261  -1.13251  -1.13235
  Beta  occ. eigenvalues --   -1.13229  -1.13166  -1.13021  -1.13011  -1.12980
  Beta  occ. eigenvalues --   -0.16256  -0.13108  -0.12344
  Beta virt. eigenvalues --   -0.07168  -0.05932  -0.04997  -0.04615  -0.03001
  Beta virt. eigenvalues --   -0.02800  -0.02379  -0.01385  -0.01017  -0.00811
  Beta virt. eigenvalues --   -0.00426  -0.00278   0.00182   0.00447   0.00537

 Mulliken charges and spin densities:
               1          2
     1  Na  -0.666923  -0.075384
     2  Na   0.739219   0.096734
     3  Na  -0.501295   0.319567
     4  Na   0.265599   0.177377
     5  Na  -0.020803   0.067122
     6  Na   0.049089  -0.052127
     7  Na   0.135114   0.466710
 Sum of Mulliken charges =  -0.00000   1.00000

 Dipole moment (field-independent basis, Debye):
    X=             -0.4202    Y=             -0.3373    Z=             -0.0614  Tot=              0.5423
 Quadrupole moment (field-independent basis, Debye-Ang):
   XX=            -71.4408   YY=            -63.0552   ZZ=            -66.5155
   XY=              0.6166   XZ=             -6.2785   YZ=             -0.0726

 Normal termination of Gaussian 16 at Tue Nov 28 22:59:09 2023.
