 Gaussian 16, Revision B.01,
 Gaussian 16:  ES64L-G16RevB.01 20-Dec-2017

 -------------------------
 #P B3LYP/6-311+g(d) force
 -------------------------

 -----
 DPGEN
 -----
 Symbolic Z-matrix:
 Charge =  0 Multiplicity = 2

                         Standard orientation:
 ---------------------------------------------------------------------
 Center     Atomic      Atomic             Coordinates (Angstroms)
 Number     Number       Type             X           Y           Z
 ---------------------------------------------------------------------
      1         11           0       -4.713935   -0.269847    0.050298
      2         11           0        3.463285    1.778943   -0.500950
      3         11           0        1.267573   -3.259993    0.204581
      4         11           0        0.796754    3.861720    0.827036
      5         11           0        4.201311   -1.673976   -0.066364
      6         11           0       -2.436542   -3.319756    0.040250
      7         11           0       -2.578447    2.882909   -0.554852
 ---------------------------------------------------------------------

 SCF Done:  E(UB3LYP) =  -1136.10442486     A.U. after   25 cycles

 The electronic state is 2-A.
 Alpha  occ. eigenvalues --  -38.45890 -38.45597 -38.45127 -38.44786 -38.44348
 Alpha  occ. eigenvalues --  -38.43946 -38.43723  -2.21634  -2.21321  -2.20891
 Alpha  occ. eigenvalues --   -2.20530  -2.20110  -2.19720  -2.19537  -1.15323
 Alpha  occ. eigenvalues --   -1.15306  -1.15255  -1.15012  -1.14998  -1.14933
 Alpha  occ. eigenvalues --   -1.14578  -1.14568  -1.14518  -1.14210  -1.14188
 Alpha  occ. eigenvalues --   -1.14159  -1.13784  -1.13772  -1.13728  -1.13385
 Alpha  occ. eigenvalues --   -1.13370  -1.13357  -1.13190  -1.13189  -1.13178
 Alpha  occ. eigenvalues --   -0.15281  -0.13673  -0.13432  -0.10798
 Alpha virt. eigenvalues --   -0.08034  -0.05144  -0.04584  -0.03446  -0.03361
 Alpha virt. eigenvalues --   -0.02552  -0.02377  -0.01982  -0.01532  -0.00672
 Alpha virt. eigenvalues --   -0.00507  -0.00341  -0.00046   0.00196   0.00274

  Beta  occ. eigenvalues --  -38.45866 -38.45580 -38.45106 -38.44764 -38.44307
  Beta  occ. eigenvalues --  -38.43909 -38.43682  -2.21596  -2.21292  -2.20856
  Beta  occ. eigenvalues --   -2.20490  -2.20038  -2.19652  -2.19461  -1.15301
  Beta  occ. eigenvalues --   -1.15285  -1.15193  -1.14995  -1.14980  -1.14894
  Beta  occ. eigenvalues --   -1.14559  -1.14549  -1.14458  -1.14184  -1.14164
  Beta  occ. eigenvalues --   -1.14122  -1.13736  -1.13724  -1.13670  -1.13339
  Beta  occ. eigenvalues --   -1.13326  -1.13307  -1.13142  -1.13137  -1.13124
  Beta  occ. eigenvalues --   -0.14717  -0.13117  -0.12698
  Beta virt. eigenvalues --   -0.08261  -0.07597  -0.04654  -0.04036  -0.03272
  Beta virt. eigenvalues --   -0.03039  -0.02370  -0.02168  -0.01858  -0.01361
  Beta virt. eigenvalues --   -0.00374  -0.00275  -0.00076   0.00159   0.00233

 Mulliken charges and spin densities:
               1          2
     1  Na   0.046191   0.134030
     2  Na  -0.214870   0.174648
     3  Na  -0.088849   0.184134
     4  Na  -0.086610   0.150403
     5  Na   0.542713   0.299922
     6  Na  -0.075593  -0.018111
     7  Na  -0.122983   0.074975
 Sum of Mulliken charges =  -0.00000   1.00000

 Dipole moment (field-independent basis, Debye):
    X=              0.1674    Y=              0.4074    Z=             -0.1719  Tot=              0.4728
 Quadrupole moment (field-independent basis, Debye-Ang):
   XX=            -59.5545   YY=            -67.0898   ZZ=            -72.8835
   XY=              1.2341   XZ=             -1.0071   YZ=             -1.1071

 Normal termination of Gaussian 16 at Sun Dec  3 21:54:21 2023.
