 Gaussian 16, Revision B.01,
 Gaussian 16:  ES64L-G16RevB.01 20-Dec-2017

 -------------------------
 #P B3LYP/6-311+g(d) force
 -------------------------

 -----
 DPGEN
 -----
 Symbolic Z-matrix:
 Charge =  0 Multiplicity = 2

                         Standard orientation:
 ---------------------------------------------------------------------
 Center     Atomic      Atomic             Coordinates (Angstroms)
 Number     Number       Type             X           Y           Z
 ---------------------------------------------------------------------
      1         11           0        1.143992   -2.362440    1.499863
      2         11           0        2.798244   -0.429192   -0.629913
      3         11           0       -2.050874    0.531878   -1.069032
      4         11           0        2.475285    2.829675   -0.150058
      5         11           0       -4.792580    0.501801    0.470256
      6         11           0        0.013673   -2.099681   -1.328388
      7         11           0        0.412261    1.027959    1.207272
 ---------------------------------------------------------------------

 SCF Done:  E(UB3LYP) =  -1136.11540901     A.U. after   24 cycles

 The electronic state is 2-A.
 Alpha  occ. eigenvalues --  -38.45233 -38.44771 -38.44165 -38.43707 -38.43349
 Alpha  occ. eigenvalues --  -38.43327 -38.43285  -2.21001  -2.20684  -2.20094
 Alpha  occ. eigenvalues --   -2.19574  -2.19248  -2.19213  -2.19205  -1.14668
 Alpha  occ. eigenvalues --   -1.14655  -1.14645  -1.14378  -1.14368  -1.14299
 Alpha  occ. eigenvalues --   -1.13784  -1.13754  -1.13740  -1.13263  -1.13234
 Alpha  occ. eigenvalues --   -1.13205  -1.12994  -1.12902  -1.12887  -1.12876
 Alpha  occ. eigenvalues --   -1.12864  -1.12857  -1.12852  -1.12841  -1.12767
 Alpha  occ. eigenvalues --   -0.18341  -0.13423  -0.12422  -0.10449
 Alpha virt. eigenvalues --   -0.07404  -0.04975  -0.03810  -0.03544  -0.02965
 Alpha virt. eigenvalues --   -0.02553  -0.02049  -0.01161  -0.00721  -0.00596
 Alpha virt. eigenvalues --   -0.00076   0.00211   0.00259   0.00640   0.00866

  Beta  occ. eigenvalues --  -38.45228 -38.44756 -38.44134 -38.43687 -38.43347
  Beta  occ. eigenvalues --  -38.43273 -38.43236  -2.20991  -2.20660  -2.20039
  Beta  occ. eigenvalues --   -2.19541  -2.19203  -2.19149  -2.19125  -1.14663
  Beta  occ. eigenvalues --   -1.14648  -1.14637  -1.14365  -1.14314  -1.14289
  Beta  occ. eigenvalues --   -1.13742  -1.13709  -1.13692  -1.13245  -1.13207
  Beta  occ. eigenvalues --   -1.13160  -1.12930  -1.12873  -1.12855  -1.12834
  Beta  occ. eigenvalues --   -1.12833  -1.12813  -1.12794  -1.12789  -1.12695
  Beta  occ. eigenvalues --   -0.17646  -0.13249  -0.12294
  Beta virt. eigenvalues --   -0.07134  -0.06572  -0.04848  -0.03481  -0.03350
  Beta virt. eigenvalues --   -0.02541  -0.02288  -0.01368  -0.00965  -0.00652
  Beta virt. eigenvalues --   -0.00215   0.00026   0.00299   0.00461   0.00692

 Mulliken charges and spin densities:
               1          2
     1  Na   0.056145   0.199529
     2  Na   0.105529   0.231031
     3  Na   0.324306  -0.035242
     4  Na   0.358353  -0.081657
     5  Na  -0.079978   0.072899
     6  Na   0.001516   0.240764
     7  Na  -0.765871   0.372676
 Sum of Mulliken charges =  -0.00000   1.00000

 Dipole moment (field-independent basis, Debye):
    X=             -0.4694    Y=             -0.0862    Z=              0.1841  Tot=              0.5115
 Quadrupole moment (field-independent basis, Debye-Ang):
   XX=            -51.0479   YY=            -67.6781   ZZ=            -73.3176
   XY=              0.1307   XZ=             -5.1813   YZ=             -1.0049

 Normal termination of Gaussian 16 at Wed Nov 29 00:28:14 2023.
