 Gaussian 16, Revision B.01,
 Gaussian 16:  ES64L-G16RevB.01 20-Dec-2017

 -------------------------
 #P B3LYP/6-311+g(d) force
 -------------------------

 -----
 DPGEN
 -----
 Symbolic Z-matrix:
 Charge =  0 Multiplicity = 2

                         Standard orientation:
 ---------------------------------------------------------------------
 Center     Atomic      Atomic             Coordinates (Angstroms)
 Number     Number       Type             X           Y           Z
 ---------------------------------------------------------------------
      1         11           0        2.352769   -2.254980    0.913955
      2         11           0        5.451185   -0.254101   -0.801859
      3         11           0        3.206788    1.627262    0.286219
      4         11           0        0.022976    2.416127    0.033736
      5         11           0       -0.283353   -1.540407   -0.583220
      6         11           0       -3.825281    0.329878    0.704475
      7         11           0       -6.925084   -0.323779   -0.553307
 ---------------------------------------------------------------------

 SCF Done:  E(UB3LYP) =  -1136.10717032     A.U. after   26 cycles

 The electronic state is 2-A.
 Alpha  occ. eigenvalues --  -38.45855 -38.45403 -38.44565 -38.44414 -38.43720
 Alpha  occ. eigenvalues --  -38.43716 -38.43666  -2.21675  -2.21214  -2.20371
 Alpha  occ. eigenvalues --   -2.20278  -2.19523  -2.19482  -2.19411  -1.15356
 Alpha  occ. eigenvalues --   -1.15328  -1.15266  -1.14881  -1.14864  -1.14804
 Alpha  occ. eigenvalues --   -1.14057  -1.14033  -1.13990  -1.13957  -1.13934
 Alpha  occ. eigenvalues --   -1.13920  -1.13194  -1.13178  -1.13171  -1.13165
 Alpha  occ. eigenvalues --   -1.13155  -1.13109  -1.13083  -1.13083  -1.13025
 Alpha  occ. eigenvalues --   -0.16919  -0.13234  -0.12952  -0.11356
 Alpha virt. eigenvalues --   -0.06649  -0.05572  -0.04785  -0.03847  -0.02990
 Alpha virt. eigenvalues --   -0.02542  -0.02041  -0.01921  -0.01078  -0.00920
 Alpha virt. eigenvalues --   -0.00508  -0.00250   0.00011   0.00138   0.00495

  Beta  occ. eigenvalues --  -38.45775 -38.45309 -38.44541 -38.44371 -38.43715
  Beta  occ. eigenvalues --  -38.43708 -38.43680  -2.21530  -2.21043  -2.20331
  Beta  occ. eigenvalues --   -2.20203  -2.19509  -2.19471  -2.19438  -1.15251
  Beta  occ. eigenvalues --   -1.15234  -1.15157  -1.14753  -1.14750  -1.14691
  Beta  occ. eigenvalues --   -1.14015  -1.14009  -1.13955  -1.13912  -1.13881
  Beta  occ. eigenvalues --   -1.13843  -1.13183  -1.13167  -1.13161  -1.13157
  Beta  occ. eigenvalues --   -1.13144  -1.13115  -1.13102  -1.13101  -1.13036
  Beta  occ. eigenvalues --   -0.15954  -0.13183  -0.11202
  Beta virt. eigenvalues --   -0.08789  -0.06334  -0.05206  -0.04353  -0.03201
  Beta virt. eigenvalues --   -0.02826  -0.02457  -0.01762  -0.01393  -0.00977
  Beta virt. eigenvalues --   -0.00775  -0.00258  -0.00119   0.00169   0.00268

 Mulliken charges and spin densities:
               1          2
     1  Na   0.239582   0.307388
     2  Na   0.509855   0.021767
     3  Na  -0.429002   0.165278
     4  Na   0.137582   0.459303
     5  Na  -0.265329   0.184403
     6  Na  -0.425923  -0.064011
     7  Na   0.233235  -0.074129
 Sum of Mulliken charges =  -0.00000   1.00000

 Dipole moment (field-independent basis, Debye):
    X=              1.7018    Y=             -0.4968    Z=             -0.0720  Tot=              1.7743
 Quadrupole moment (field-independent basis, Debye-Ang):
   XX=            -73.9879   YY=            -64.7328   ZZ=            -68.9023
   XY=             -3.8238   XZ=              3.1871   YZ=              0.4817

 Normal termination of Gaussian 16 at Wed Nov 29 03:17:35 2023.
