 Gaussian 16, Revision B.01,
 Gaussian 16:  ES64L-G16RevB.01 20-Dec-2017

 -------------------------
 #P B3LYP/6-311+g(d) force
 -------------------------

 -----
 DPGEN
 -----
 Symbolic Z-matrix:
 Charge =  0 Multiplicity = 2

                         Standard orientation:
 ---------------------------------------------------------------------
 Center     Atomic      Atomic             Coordinates (Angstroms)
 Number     Number       Type             X           Y           Z
 ---------------------------------------------------------------------
      1         11           0        0.187642    2.679710   -0.561108
      2         11           0       -5.730708    0.059167    0.054346
      3         11           0       -2.905663    0.646515    0.810048
      4         11           0       -2.779574   -2.260599   -0.460931
      5         11           0        0.351336   -0.313599    0.110837
      6         11           0        3.881212   -0.390550   -0.360524
      7         11           0        6.995754   -0.420643    0.407332
 ---------------------------------------------------------------------

 SCF Done:  E(UB3LYP) =  -1136.11425625     A.U. after   21 cycles

 The electronic state is 2-A.
 Alpha  occ. eigenvalues --  -38.44664 -38.44532 -38.44427 -38.44382 -38.43903
 Alpha  occ. eigenvalues --  -38.43782 -38.43551  -2.20516  -2.20359  -2.20352
 Alpha  occ. eigenvalues --   -2.20228  -2.19677  -2.19671  -2.19350  -1.14221
 Alpha  occ. eigenvalues --   -1.14174  -1.14128  -1.14107  -1.14031  -1.14018
 Alpha  occ. eigenvalues --   -1.14004  -1.14001  -1.13982  -1.13865  -1.13853
 Alpha  occ. eigenvalues --   -1.13800  -1.13357  -1.13345  -1.13336  -1.13332
 Alpha  occ. eigenvalues --   -1.13332  -1.13311  -1.13025  -1.13017  -1.12963
 Alpha  occ. eigenvalues --   -0.17329  -0.14019  -0.11981  -0.11187
 Alpha virt. eigenvalues --   -0.06789  -0.05883  -0.04115  -0.03468  -0.03033
 Alpha virt. eigenvalues --   -0.02585  -0.01879  -0.01673  -0.01330  -0.00850
 Alpha virt. eigenvalues --   -0.00303  -0.00136   0.00073   0.00289   0.00587

  Beta  occ. eigenvalues --  -38.44589 -38.44492 -38.44406 -38.44338 -38.43911
  Beta  occ. eigenvalues --  -38.43764 -38.43548  -2.20378  -2.20326  -2.20278
  Beta  occ. eigenvalues --   -2.20147  -2.19688  -2.19649  -2.19344  -1.14142
  Beta  occ. eigenvalues --   -1.14084  -1.14074  -1.14001  -1.13997  -1.13982
  Beta  occ. eigenvalues --   -1.13949  -1.13945  -1.13927  -1.13811  -1.13790
  Beta  occ. eigenvalues --   -1.13761  -1.13349  -1.13344  -1.13344  -1.13341
  Beta  occ. eigenvalues --   -1.13327  -1.13251  -1.13020  -1.13012  -1.12967
  Beta  occ. eigenvalues --   -0.16596  -0.13855  -0.11835
  Beta virt. eigenvalues --   -0.07390  -0.06579  -0.05376  -0.03811  -0.03268
  Beta virt. eigenvalues --   -0.02469  -0.02408  -0.01584  -0.01580  -0.00843
  Beta virt. eigenvalues --   -0.00774  -0.00016   0.00118   0.00223   0.00417

 Mulliken charges and spin densities:
               1          2
     1  Na   0.526120   0.216664
     2  Na   0.023007   0.145809
     3  Na   1.018622   0.298887
     4  Na   0.564974   0.216495
     5  Na  -1.766315   0.204171
     6  Na  -0.605718  -0.044197
     7  Na   0.239311  -0.037828
 Sum of Mulliken charges =  -0.00000   1.00000

 Dipole moment (field-independent basis, Debye):
    X=             -1.7869    Y=              0.3204    Z=             -0.4131  Tot=              1.8618
 Quadrupole moment (field-independent basis, Debye-Ang):
   XX=            -57.4223   YY=            -66.7500   ZZ=            -71.0864
   XY=              4.5482   XZ=              3.9227   YZ=             -0.1978

 Normal termination of Gaussian 16 at Tue Nov 28 18:57:38 2023.
