 Gaussian 16, Revision B.01,
 Gaussian 16:  ES64L-G16RevB.01 20-Dec-2017

 -------------------------
 #P B3LYP/6-311+g(d) force
 -------------------------

 -----
 DPGEN
 -----
 Symbolic Z-matrix:
 Charge =  0 Multiplicity = 2

                         Standard orientation:
 ---------------------------------------------------------------------
 Center     Atomic      Atomic             Coordinates (Angstroms)
 Number     Number       Type             X           Y           Z
 ---------------------------------------------------------------------
      1         11           0       -2.593950   -1.679172   -0.786552
      2         11           0        0.108875    0.063643   -1.726012
      3         11           0       -0.198399   -0.193228    2.020622
      4         11           0       -2.486979    1.578879    0.494987
      5         11           0        1.205798   -2.775268    0.355875
      6         11           0        0.853962    2.869633   -0.206906
      7         11           0        3.110693    0.135513   -0.152013
 ---------------------------------------------------------------------

 SCF Done:  E(UB3LYP) =  -1136.13870345     A.U. after   19 cycles

 The electronic state is 2-A.
 Alpha  occ. eigenvalues --  -38.43917 -38.43811 -38.43805 -38.43636 -38.43444
 Alpha  occ. eigenvalues --  -38.43434 -38.43239  -2.19750  -2.19703  -2.19636
 Alpha  occ. eigenvalues --   -2.19492  -2.19387  -2.19273  -2.19081  -1.13440
 Alpha  occ. eigenvalues --   -1.13417  -1.13379  -1.13379  -1.13352  -1.13328
 Alpha  occ. eigenvalues --   -1.13325  -1.13281  -1.13270  -1.13168  -1.13143
 Alpha  occ. eigenvalues --   -1.13115  -1.13068  -1.13030  -1.13011  -1.12953
 Alpha  occ. eigenvalues --   -1.12928  -1.12904  -1.12764  -1.12741  -1.12707
 Alpha  occ. eigenvalues --   -0.18504  -0.12968  -0.12326  -0.11091
 Alpha virt. eigenvalues --   -0.05414  -0.05052  -0.04757  -0.03320  -0.03017
 Alpha virt. eigenvalues --   -0.02741  -0.01436  -0.01123  -0.00374  -0.00211
 Alpha virt. eigenvalues --    0.00001   0.00356   0.00819   0.00875   0.00889

  Beta  occ. eigenvalues --  -38.43915 -38.43786 -38.43718 -38.43624 -38.43437
  Beta  occ. eigenvalues --  -38.43370 -38.43237  -2.19749  -2.19592  -2.19542
  Beta  occ. eigenvalues --   -2.19472  -2.19270  -2.19262  -2.19081  -1.13432
  Beta  occ. eigenvalues --   -1.13413  -1.13374  -1.13290  -1.13274  -1.13251
  Beta  occ. eigenvalues --   -1.13239  -1.13238  -1.13216  -1.13133  -1.13120
  Beta  occ. eigenvalues --   -1.13099  -1.12990  -1.12957  -1.12932  -1.12924
  Beta  occ. eigenvalues --   -1.12913  -1.12897  -1.12753  -1.12739  -1.12701
  Beta  occ. eigenvalues --   -0.17794  -0.12703  -0.12053
  Beta virt. eigenvalues --   -0.07208  -0.05374  -0.04976  -0.04679  -0.02595
  Beta virt. eigenvalues --   -0.02291  -0.01735  -0.01319  -0.01019  -0.00374
  Beta virt. eigenvalues --   -0.00234   0.00107   0.00390   0.00869   0.00896

 Mulliken charges and spin densities:
               1          2
     1  Na   0.000681   0.051987
     2  Na  -0.063346   0.486019
     3  Na  -0.221079   0.576266
     4  Na   0.195448   0.057625
     5  Na   0.070340  -0.025354
     6  Na  -0.001667  -0.069841
     7  Na   0.019623  -0.076702
 Sum of Mulliken charges =  -0.00000   1.00000

 Dipole moment (field-independent basis, Debye):
    X=              0.0523    Y=             -0.0950    Z=              0.0986  Tot=              0.1466
 Quadrupole moment (field-independent basis, Debye-Ang):
   XX=            -58.3577   YY=            -62.9832   ZZ=            -72.8075
   XY=              0.1073   XZ=              0.5832   YZ=              1.0100

 Normal termination of Gaussian 16 at Wed Dec  6 01:10:47 2023.
