 Gaussian 16, Revision B.01,
 Gaussian 16:  ES64L-G16RevB.01 20-Dec-2017

 -------------------------
 #P B3LYP/6-311+g(d) force
 -------------------------

 -----
 DPGEN
 -----
 Symbolic Z-matrix:
 Charge =  0 Multiplicity = 2

                         Standard orientation:
 ---------------------------------------------------------------------
 Center     Atomic      Atomic             Coordinates (Angstroms)
 Number     Number       Type             X           Y           Z
 ---------------------------------------------------------------------
      1         11           0        1.260630   -2.135835   -0.362919
      2         11           0        1.131327    2.708421    0.082977
      3         11           0       -0.329277    0.288625   -1.629309
      4         11           0        3.526092    0.014360   -0.019911
      5         11           0       -3.245120    1.466533   -0.055058
      6         11           0       -2.130791   -2.050817   -0.073539
      7         11           0       -0.212861   -0.291287    2.057759
 ---------------------------------------------------------------------

 SCF Done:  E(UB3LYP) =  -1136.12922988     A.U. after   20 cycles

 The electronic state is 2-A.
 Alpha  occ. eigenvalues --  -38.44833 -38.44788 -38.43617 -38.43601 -38.43578
 Alpha  occ. eigenvalues --  -38.43355 -38.42791  -2.20639  -2.20555  -2.19509
 Alpha  occ. eigenvalues --   -2.19481  -2.19385  -2.19321  -2.18734  -1.14331
 Alpha  occ. eigenvalues --   -1.14298  -1.14267  -1.14231  -1.14208  -1.14198
 Alpha  occ. eigenvalues --   -1.13212  -1.13170  -1.13162  -1.13130  -1.13106
 Alpha  occ. eigenvalues --   -1.13102  -1.13099  -1.13052  -1.13013  -1.13005
 Alpha  occ. eigenvalues --   -1.12952  -1.12930  -1.12426  -1.12389  -1.12362
 Alpha  occ. eigenvalues --   -0.18582  -0.13330  -0.11931  -0.10667
 Alpha virt. eigenvalues --   -0.06620  -0.05291  -0.03978  -0.03273  -0.02673
 Alpha virt. eigenvalues --   -0.02515  -0.02196  -0.01261  -0.00524  -0.00092
 Alpha virt. eigenvalues --   -0.00046   0.00255   0.00708   0.00750   0.00802

  Beta  occ. eigenvalues --  -38.44835 -38.44787 -38.43593 -38.43575 -38.43519
  Beta  occ. eigenvalues --  -38.43293 -38.42777  -2.20644  -2.20556  -2.19472
  Beta  occ. eigenvalues --   -2.19381  -2.19328  -2.19208  -2.18712  -1.14336
  Beta  occ. eigenvalues --   -1.14288  -1.14272  -1.14216  -1.14211  -1.14199
  Beta  occ. eigenvalues --   -1.13180  -1.13121  -1.13106  -1.13091  -1.13055
  Beta  occ. eigenvalues --   -1.13035  -1.13006  -1.12999  -1.12987  -1.12939
  Beta  occ. eigenvalues --   -1.12867  -1.12854  -1.12412  -1.12359  -1.12330
  Beta  occ. eigenvalues --   -0.17838  -0.13142  -0.11696
  Beta virt. eigenvalues --   -0.06720  -0.06571  -0.05258  -0.03966  -0.02547
  Beta virt. eigenvalues --   -0.02152  -0.01884  -0.01422  -0.01204  -0.00555
  Beta virt. eigenvalues --   -0.00086   0.00086   0.00284   0.00761   0.00816

 Mulliken charges and spin densities:
               1          2
     1  Na   0.329636   0.098258
     2  Na   0.076267  -0.079951
     3  Na  -0.266436   0.368970
     4  Na  -0.077116  -0.049466
     5  Na   0.036279  -0.104405
     6  Na   0.481212   0.053491
     7  Na  -0.579842   0.713104
 Sum of Mulliken charges =  -0.00000   1.00000

 Dipole moment (field-independent basis, Debye):
    X=             -0.2116    Y=              0.3076    Z=              0.2212  Tot=              0.4340
 Quadrupole moment (field-independent basis, Debye-Ang):
   XX=            -49.2131   YY=            -67.8702   ZZ=            -75.0477
   XY=             -0.1063   XZ=             -0.1290   YZ=              1.1944

 Normal termination of Gaussian 16 at Thu Dec  7 11:50:05 2023.
