 Gaussian 16, Revision B.01,
 Gaussian 16:  ES64L-G16RevB.01 20-Dec-2017

 -------------------------
 #P B3LYP/6-311+g(d) force
 -------------------------

 -----
 DPGEN
 -----
 Symbolic Z-matrix:
 Charge =  0 Multiplicity = 2

                         Standard orientation:
 ---------------------------------------------------------------------
 Center     Atomic      Atomic             Coordinates (Angstroms)
 Number     Number       Type             X           Y           Z
 ---------------------------------------------------------------------
      1         11           0       -0.319199    0.561398    0.720764
      2         11           0        6.688755    0.224088    0.717448
      3         11           0        3.953168    0.157095   -0.672560
      4         11           0        0.908441   -1.917761   -0.374786
      5         11           0       -2.702224   -0.860793   -0.808249
      6         11           0       -2.741606    2.659732   -0.439334
      7         11           0       -5.787335   -0.823758    0.856717
 ---------------------------------------------------------------------

 SCF Done:  E(UB3LYP) =  -1136.11078173     A.U. after   20 cycles

 The electronic state is 2-A.
 Alpha  occ. eigenvalues --  -38.44838 -38.44817 -38.44671 -38.44658 -38.43747
 Alpha  occ. eigenvalues --  -38.43395 -38.43325  -2.20665  -2.20594  -2.20584
 Alpha  occ. eigenvalues --   -2.20535  -2.19616  -2.19183  -2.19144  -1.14349
 Alpha  occ. eigenvalues --   -1.14328  -1.14317  -1.14270  -1.14253  -1.14243
 Alpha  occ. eigenvalues --   -1.14241  -1.14233  -1.14222  -1.14203  -1.14178
 Alpha  occ. eigenvalues --   -1.14113  -1.13292  -1.13261  -1.13240  -1.12934
 Alpha  occ. eigenvalues --   -1.12844  -1.12841  -1.12813  -1.12799  -1.12707
 Alpha  occ. eigenvalues --   -0.17286  -0.13760  -0.11929  -0.11488
 Alpha virt. eigenvalues --   -0.06584  -0.05679  -0.04475  -0.03386  -0.02850
 Alpha virt. eigenvalues --   -0.02788  -0.02028  -0.01466  -0.01214  -0.00857
 Alpha virt. eigenvalues --   -0.00628  -0.00384   0.00115   0.00461   0.00532

  Beta  occ. eigenvalues --  -38.44750 -38.44739 -38.44659 -38.44639 -38.43732
  Beta  occ. eigenvalues --  -38.43406 -38.43322  -2.20554  -2.20516  -2.20503
  Beta  occ. eigenvalues --   -2.20450  -2.19588  -2.19204  -2.19137  -1.14322
  Beta  occ. eigenvalues --   -1.14234  -1.14231  -1.14212  -1.14204  -1.14172
  Beta  occ. eigenvalues --   -1.14155  -1.14146  -1.14143  -1.14139  -1.14123
  Beta  occ. eigenvalues --   -1.14081  -1.13278  -1.13243  -1.13214  -1.12943
  Beta  occ. eigenvalues --   -1.12856  -1.12854  -1.12810  -1.12796  -1.12715
  Beta  occ. eigenvalues --   -0.16672  -0.13518  -0.11327
  Beta virt. eigenvalues --   -0.07913  -0.06240  -0.05471  -0.04166  -0.03047
  Beta virt. eigenvalues --   -0.02691  -0.02243  -0.01683  -0.01150  -0.00995
  Beta virt. eigenvalues --   -0.00655  -0.00415  -0.00258   0.00317   0.00486

 Mulliken charges and spin densities:
               1          2
     1  Na  -0.475199   0.302228
     2  Na   0.218362  -0.044661
     3  Na  -0.449142  -0.081228
     4  Na   0.320561   0.102847
     5  Na  -0.104104   0.272104
     6  Na   0.217985   0.234923
     7  Na   0.271537   0.213788
 Sum of Mulliken charges =  -0.00000   1.00000

 Dipole moment (field-independent basis, Debye):
    X=             -2.0906    Y=              0.1902    Z=              0.2622  Tot=              2.1155
 Quadrupole moment (field-independent basis, Debye-Ang):
   XX=            -69.4773   YY=            -67.2499   ZZ=            -67.4001
   XY=             -3.2390   XZ=              1.3335   YZ=              1.0108

 Normal termination of Gaussian 16 at Tue Nov 28 19:59:31 2023.
