 Gaussian 16, Revision B.01,
 Gaussian 16:  ES64L-G16RevB.01 20-Dec-2017

 -------------------------
 #P B3LYP/6-311+g(d) force
 -------------------------

 -----
 DPGEN
 -----
 Symbolic Z-matrix:
 Charge =  0 Multiplicity = 2

                         Standard orientation:
 ---------------------------------------------------------------------
 Center     Atomic      Atomic             Coordinates (Angstroms)
 Number     Number       Type             X           Y           Z
 ---------------------------------------------------------------------
      1         11           0       -2.994125   -1.861520   -0.574080
      2         11           0        3.767271   -0.623571    1.114785
      3         11           0        1.210846   -1.921557   -1.399879
      4         11           0       -3.047055    0.559841    1.649279
      5         11           0       -1.515531    2.363610   -1.166635
      6         11           0        0.197414   -0.393121    0.852994
      7         11           0        2.381179    1.876317   -0.476463
 ---------------------------------------------------------------------

 SCF Done:  E(UB3LYP) =  -1136.11795366     A.U. after   24 cycles

 The electronic state is 2-A.
 Alpha  occ. eigenvalues --  -38.44750 -38.44312 -38.44138 -38.44101 -38.44092
 Alpha  occ. eigenvalues --  -38.43735 -38.43424  -2.20525  -2.20159  -2.20096
 Alpha  occ. eigenvalues --   -2.19944  -2.19926  -2.19597  -2.19203  -1.14207
 Alpha  occ. eigenvalues --   -1.14194  -1.14166  -1.13924  -1.13830  -1.13819
 Alpha  occ. eigenvalues --   -1.13774  -1.13743  -1.13705  -1.13618  -1.13606
 Alpha  occ. eigenvalues --   -1.13590  -1.13578  -1.13556  -1.13544  -1.13286
 Alpha  occ. eigenvalues --   -1.13225  -1.13173  -1.12877  -1.12855  -1.12838
 Alpha  occ. eigenvalues --   -0.17807  -0.14361  -0.11216  -0.10427
 Alpha virt. eigenvalues --   -0.06527  -0.05632  -0.05005  -0.03240  -0.02829
 Alpha virt. eigenvalues --   -0.02473  -0.01729  -0.01293  -0.00760  -0.00564
 Alpha virt. eigenvalues --   -0.00107   0.00151   0.00245   0.00469   0.00629

  Beta  occ. eigenvalues --  -38.44757 -38.44255 -38.44129 -38.44092 -38.44046
  Beta  occ. eigenvalues --  -38.43682 -38.43402  -2.20542  -2.20085  -2.20054
  Beta  occ. eigenvalues --   -2.19913  -2.19858  -2.19500  -2.19165  -1.14218
  Beta  occ. eigenvalues --   -1.14202  -1.14163  -1.13877  -1.13762  -1.13751
  Beta  occ. eigenvalues --   -1.13736  -1.13713  -1.13683  -1.13600  -1.13579
  Beta  occ. eigenvalues --   -1.13559  -1.13526  -1.13506  -1.13496  -1.13223
  Beta  occ. eigenvalues --   -1.13153  -1.13105  -1.12848  -1.12832  -1.12804
  Beta  occ. eigenvalues --   -0.17257  -0.13912  -0.10848
  Beta virt. eigenvalues --   -0.07051  -0.06381  -0.05531  -0.04322  -0.03047
  Beta virt. eigenvalues --   -0.02505  -0.02099  -0.01178  -0.01142  -0.00439
  Beta virt. eigenvalues --   -0.00339   0.00084   0.00228   0.00318   0.00575

 Mulliken charges and spin densities:
               1          2
     1  Na   0.200917  -0.096485
     2  Na   1.285320   0.487840
     3  Na   0.073062   0.360420
     4  Na   1.223329   0.140285
     5  Na  -0.153798   0.082132
     6  Na  -2.668221  -0.088973
     7  Na   0.039391   0.114779
 Sum of Mulliken charges =  -0.00000   1.00000

 Dipole moment (field-independent basis, Debye):
    X=             -0.0515    Y=             -0.4145    Z=             -0.3765  Tot=              0.5623
 Quadrupole moment (field-independent basis, Debye-Ang):
   XX=            -54.0117   YY=            -75.1715   ZZ=            -66.8337
   XY=             -0.1214   XZ=              1.2037   YZ=              0.9093

 Normal termination of Gaussian 16 at Tue Dec  5 11:37:44 2023.
