 Gaussian 16, Revision B.01,
 Gaussian 16:  ES64L-G16RevB.01 20-Dec-2017

 -------------------------
 #P B3LYP/6-311+g(d) force
 -------------------------

 -----
 DPGEN
 -----
 Symbolic Z-matrix:
 Charge =  0 Multiplicity = 2

                         Standard orientation:
 ---------------------------------------------------------------------
 Center     Atomic      Atomic             Coordinates (Angstroms)
 Number     Number       Type             X           Y           Z
 ---------------------------------------------------------------------
      1         11           0       -1.017417   -2.638394    0.196366
      2         11           0        2.619747    1.905357   -0.087963
      3         11           0        0.230998    0.267777    2.108980
      4         11           0       -1.324135    2.594635   -0.210904
      5         11           0        0.101417   -0.148161   -1.657872
      6         11           0       -3.254194   -0.161149   -0.127760
      7         11           0        2.643584   -1.820065   -0.220847
 ---------------------------------------------------------------------

 SCF Done:  E(UB3LYP) =  -1136.13778375     A.U. after   20 cycles

 The electronic state is 2-A.
 Alpha  occ. eigenvalues --  -38.44139 -38.44078 -38.44052 -38.43638 -38.43401
 Alpha  occ. eigenvalues --  -38.43290 -38.43198  -2.19934  -2.19910  -2.19862
 Alpha  occ. eigenvalues --   -2.19503  -2.19242  -2.19241  -2.19056  -1.13612
 Alpha  occ. eigenvalues --   -1.13596  -1.13574  -1.13574  -1.13572  -1.13567
 Alpha  occ. eigenvalues --   -1.13547  -1.13518  -1.13493  -1.13167  -1.13129
 Alpha  occ. eigenvalues --   -1.13122  -1.12954  -1.12934  -1.12907  -1.12881
 Alpha  occ. eigenvalues --   -1.12865  -1.12855  -1.12730  -1.12718  -1.12682
 Alpha  occ. eigenvalues --   -0.18412  -0.13081  -0.12225  -0.10680
 Alpha virt. eigenvalues --   -0.05748  -0.05580  -0.04415  -0.03190  -0.02851
 Alpha virt. eigenvalues --   -0.02571  -0.01679  -0.01284  -0.00486  -0.00326
 Alpha virt. eigenvalues --   -0.00034   0.00340   0.00728   0.00828   0.00893

  Beta  occ. eigenvalues --  -38.44137 -38.44076 -38.44047 -38.43539 -38.43395
  Beta  occ. eigenvalues --  -38.43230 -38.43191  -2.19933  -2.19910  -2.19856
  Beta  occ. eigenvalues --   -2.19320  -2.19233  -2.19132  -2.19047  -1.13598
  Beta  occ. eigenvalues --   -1.13592  -1.13576  -1.13574  -1.13569  -1.13554
  Beta  occ. eigenvalues --   -1.13532  -1.13506  -1.13492  -1.13046  -1.13003
  Beta  occ. eigenvalues --   -1.12990  -1.12928  -1.12887  -1.12864  -1.12861
  Beta  occ. eigenvalues --   -1.12812  -1.12778  -1.12717  -1.12686  -1.12679
  Beta  occ. eigenvalues --   -0.17691  -0.12868  -0.11999
  Beta virt. eigenvalues --   -0.06766  -0.05707  -0.05566  -0.04375  -0.02437
  Beta virt. eigenvalues --   -0.02065  -0.01600  -0.01502  -0.01228  -0.00542
  Beta virt. eigenvalues --   -0.00361   0.00117   0.00368   0.00798   0.00824

 Mulliken charges and spin densities:
               1          2
     1  Na   0.166869  -0.003404
     2  Na   0.121229  -0.106779
     3  Na  -0.503767   0.787342
     4  Na   0.176535  -0.073933
     5  Na  -0.212363   0.476468
     6  Na   0.079071  -0.024016
     7  Na   0.172426  -0.055678
 Sum of Mulliken charges =  -0.00000   1.00000

 Dipole moment (field-independent basis, Debye):
    X=              0.2894    Y=              0.0822    Z=              0.0713  Tot=              0.3092
 Quadrupole moment (field-independent basis, Debye-Ang):
   XX=            -54.2490   YY=            -64.0765   ZZ=            -74.7982
   XY=              0.1728   XZ=             -0.2508   YZ=             -0.8722

 Normal termination of Gaussian 16 at Fri Dec  8 02:54:34 2023.
