 Gaussian 16, Revision B.01,
 Gaussian 16:  ES64L-G16RevB.01 20-Dec-2017

 -------------------------
 #P B3LYP/6-311+g(d) force
 -------------------------

 -----
 DPGEN
 -----
 Symbolic Z-matrix:
 Charge =  0 Multiplicity = 2

                         Standard orientation:
 ---------------------------------------------------------------------
 Center     Atomic      Atomic             Coordinates (Angstroms)
 Number     Number       Type             X           Y           Z
 ---------------------------------------------------------------------
      1         11           0        1.429977    2.357133   -0.384406
      2         11           0       -3.491251   -0.896877    0.709184
      3         11           0       -1.076798   -2.152396   -0.942331
      4         11           0       -2.422213    1.918225   -0.587945
      5         11           0        0.182491    0.250893    1.898159
      6         11           0        3.556170   -0.881214    0.866030
      7         11           0        1.821624   -0.595764   -1.558689
 ---------------------------------------------------------------------

 SCF Done:  E(UB3LYP) =  -1136.11933707     A.U. after   23 cycles

 The electronic state is 2-A.
 Alpha  occ. eigenvalues --  -38.45144 -38.44611 -38.44479 -38.44417 -38.43514
 Alpha  occ. eigenvalues --  -38.43442 -38.43295  -2.20974  -2.20449  -2.20322
 Alpha  occ. eigenvalues --   -2.20203  -2.19457  -2.19282  -2.19151  -1.14681
 Alpha  occ. eigenvalues --   -1.14615  -1.14594  -1.14136  -1.14103  -1.14058
 Alpha  occ. eigenvalues --   -1.14010  -1.13988  -1.13968  -1.13878  -1.13851
 Alpha  occ. eigenvalues --   -1.13831  -1.13142  -1.13116  -1.13104  -1.12953
 Alpha  occ. eigenvalues --   -1.12941  -1.12912  -1.12831  -1.12820  -1.12754
 Alpha  occ. eigenvalues --   -0.18157  -0.14183  -0.11380  -0.10835
 Alpha virt. eigenvalues --   -0.06993  -0.05572  -0.04547  -0.03329  -0.02769
 Alpha virt. eigenvalues --   -0.02359  -0.02335  -0.01172  -0.00674  -0.00346
 Alpha virt. eigenvalues --    0.00081   0.00187   0.00263   0.00557   0.00698

  Beta  occ. eigenvalues --  -38.45119 -38.44554 -38.44477 -38.44414 -38.43466
  Beta  occ. eigenvalues --  -38.43418 -38.43276  -2.20930  -2.20343  -2.20318
  Beta  occ. eigenvalues --   -2.20198  -2.19371  -2.19241  -2.19118  -1.14650
  Beta  occ. eigenvalues --   -1.14581  -1.14557  -1.14063  -1.14032  -1.14008
  Beta  occ. eigenvalues --   -1.13988  -1.13974  -1.13957  -1.13867  -1.13848
  Beta  occ. eigenvalues --   -1.13829  -1.13077  -1.13057  -1.13035  -1.12926
  Beta  occ. eigenvalues --   -1.12899  -1.12881  -1.12808  -1.12777  -1.12733
  Beta  occ. eigenvalues --   -0.17501  -0.14036  -0.11124
  Beta virt. eigenvalues --   -0.07091  -0.06798  -0.05404  -0.03996  -0.03158
  Beta virt. eigenvalues --   -0.02379  -0.01979  -0.01500  -0.01009  -0.00525
  Beta virt. eigenvalues --   -0.00202   0.00114   0.00219   0.00435   0.00674

 Mulliken charges and spin densities:
               1          2
     1  Na  -0.025076   0.106123
     2  Na   0.632132   0.035479
     3  Na  -0.258550   0.043742
     4  Na  -0.182768   0.013545
     5  Na  -0.520203   0.464952
     6  Na   0.288993   0.062608
     7  Na   0.065473   0.273550
 Sum of Mulliken charges =  -0.00000   1.00000

 Dipole moment (field-independent basis, Debye):
    X=             -0.1498    Y=              0.1271    Z=              0.5225  Tot=              0.5582
 Quadrupole moment (field-independent basis, Debye-Ang):
   XX=            -48.6101   YY=            -75.2017   ZZ=            -71.5523
   XY=             -0.9044   XZ=              0.2217   YZ=             -2.9228

 Normal termination of Gaussian 16 at Tue Dec  5 11:03:00 2023.
