 Gaussian 16, Revision B.01,
 Gaussian 16:  ES64L-G16RevB.01 20-Dec-2017

 -------------------------
 #P B3LYP/6-311+g(d) force
 -------------------------

 -----
 DPGEN
 -----
 Symbolic Z-matrix:
 Charge =  0 Multiplicity = 2

                         Standard orientation:
 ---------------------------------------------------------------------
 Center     Atomic      Atomic             Coordinates (Angstroms)
 Number     Number       Type             X           Y           Z
 ---------------------------------------------------------------------
      1         11           0       -3.889094   -1.521883    0.223807
      2         11           0        0.064522    0.405463    1.442532
      3         11           0       -0.800612   -2.174628   -0.996098
      4         11           0        2.845135   -2.847501    0.325952
      5         11           0        0.668025    3.296331   -0.073402
      6         11           0       -2.465515    1.978238   -0.397617
      7         11           0        3.577540    0.863981   -0.525174
 ---------------------------------------------------------------------

 SCF Done:  E(UB3LYP) =  -1136.11994202     A.U. after   23 cycles

 The electronic state is 2-A.
 Alpha  occ. eigenvalues --  -38.45215 -38.44747 -38.44639 -38.44305 -38.43815
 Alpha  occ. eigenvalues --  -38.43381 -38.43360  -2.21038  -2.20560  -2.20423
 Alpha  occ. eigenvalues --   -2.20057  -2.19646  -2.19181  -2.19177  -1.14743
 Alpha  occ. eigenvalues --   -1.14697  -1.14648  -1.14252  -1.14223  -1.14170
 Alpha  occ. eigenvalues --   -1.14120  -1.14115  -1.14024  -1.13734  -1.13713
 Alpha  occ. eigenvalues --   -1.13685  -1.13337  -1.13322  -1.13269  -1.12847
 Alpha  occ. eigenvalues --   -1.12834  -1.12832  -1.12819  -1.12796  -1.12794
 Alpha  occ. eigenvalues --   -0.17068  -0.13344  -0.12898  -0.09561
 Alpha virt. eigenvalues --   -0.06673  -0.06110  -0.05047  -0.02878  -0.02598
 Alpha virt. eigenvalues --   -0.02459  -0.02217  -0.01894  -0.01063  -0.00825
 Alpha virt. eigenvalues --    0.00050   0.00108   0.00316   0.00367   0.00646

  Beta  occ. eigenvalues --  -38.45199 -38.44734 -38.44637 -38.44287 -38.43812
  Beta  occ. eigenvalues --  -38.43307 -38.43295  -2.21008  -2.20538  -2.20422
  Beta  occ. eigenvalues --   -2.20025  -2.19646  -2.19079  -2.19022  -1.14722
  Beta  occ. eigenvalues --   -1.14684  -1.14621  -1.14239  -1.14207  -1.14145
  Beta  occ. eigenvalues --   -1.14122  -1.14117  -1.14001  -1.13713  -1.13685
  Beta  occ. eigenvalues --   -1.13663  -1.13342  -1.13326  -1.13227  -1.12767
  Beta  occ. eigenvalues --   -1.12762  -1.12740  -1.12734  -1.12714  -1.12678
  Beta  occ. eigenvalues --   -0.16756  -0.12644  -0.12504
  Beta virt. eigenvalues --   -0.06596  -0.06203  -0.06016  -0.04740  -0.02495
  Beta virt. eigenvalues --   -0.02391  -0.02141  -0.02013  -0.01381  -0.00954
  Beta virt. eigenvalues --   -0.00632   0.00157   0.00316   0.00479   0.00586

 Mulliken charges and spin densities:
               1          2
     1  Na   0.173404   0.326940
     2  Na   0.084584  -0.175113
     3  Na  -0.269545   0.055284
     4  Na   0.137404   0.116168
     5  Na   0.111329   0.135725
     6  Na  -0.050567   0.008007
     7  Na  -0.186609   0.532988
 Sum of Mulliken charges =  -0.00000   1.00000

 Dipole moment (field-independent basis, Debye):
    X=             -0.8171    Y=              0.1962    Z=              0.2092  Tot=              0.8660
 Quadrupole moment (field-independent basis, Debye-Ang):
   XX=            -71.0622   YY=            -66.3227   ZZ=            -67.0976
   XY=            -10.2804   XZ=              0.8999   YZ=             -1.2521

 Normal termination of Gaussian 16 at Sun Dec  3 13:35:37 2023.
