 Gaussian 16, Revision B.01,
 Gaussian 16:  ES64L-G16RevB.01 20-Dec-2017

 -------------------------
 #P B3LYP/6-311+g(d) force
 -------------------------

 -----
 DPGEN
 -----
 Symbolic Z-matrix:
 Charge =  0 Multiplicity = 2

                         Standard orientation:
 ---------------------------------------------------------------------
 Center     Atomic      Atomic             Coordinates (Angstroms)
 Number     Number       Type             X           Y           Z
 ---------------------------------------------------------------------
      1         11           0        0.079013   -0.164712    1.839714
      2         11           0       -2.013797   -2.201315   -0.369771
      3         11           0       -2.691137    0.965533    0.370068
      4         11           0        2.763254    0.848849   -0.017510
      5         11           0       -0.005682   -0.169747   -1.535444
      6         11           0       -0.061423    2.792435   -0.351303
      7         11           0        1.929772   -2.071041    0.064246
 ---------------------------------------------------------------------

 SCF Done:  E(UB3LYP) =  -1136.13413953     A.U. after   19 cycles

 The electronic state is 2-A.
 Alpha  occ. eigenvalues --  -38.43737 -38.43698 -38.43570 -38.43535 -38.43314
 Alpha  occ. eigenvalues --  -38.42980 -38.42910  -2.19666  -2.19603  -2.19510
 Alpha  occ. eigenvalues --   -2.19414  -2.19307  -2.19007  -2.18879  -1.13421
 Alpha  occ. eigenvalues --   -1.13324  -1.13319  -1.13297  -1.13267  -1.13253
 Alpha  occ. eigenvalues --   -1.13206  -1.13180  -1.13135  -1.13101  -1.13056
 Alpha  occ. eigenvalues --   -1.13036  -1.12985  -1.12922  -1.12910  -1.12699
 Alpha  occ. eigenvalues --   -1.12663  -1.12621  -1.12528  -1.12523  -1.12514
 Alpha  occ. eigenvalues --   -0.19526  -0.13500  -0.12554  -0.10882
 Alpha virt. eigenvalues --   -0.05364  -0.05142  -0.04475  -0.03344  -0.02769
 Alpha virt. eigenvalues --   -0.02361  -0.01404  -0.01052  -0.00113  -0.00002
 Alpha virt. eigenvalues --    0.00084   0.00368   0.00858   0.00934   0.00948

  Beta  occ. eigenvalues --  -38.43730 -38.43688 -38.43561 -38.43525 -38.43227
  Beta  occ. eigenvalues --  -38.42972 -38.42840  -2.19658  -2.19589  -2.19500
  Beta  occ. eigenvalues --   -2.19400  -2.19149  -2.18882  -2.18868  -1.13420
  Beta  occ. eigenvalues --   -1.13319  -1.13285  -1.13282  -1.13250  -1.13229
  Beta  occ. eigenvalues --   -1.13197  -1.13135  -1.13114  -1.13095  -1.13031
  Beta  occ. eigenvalues --   -1.13029  -1.12885  -1.12808  -1.12801  -1.12631
  Beta  occ. eigenvalues --   -1.12582  -1.12535  -1.12513  -1.12502  -1.12473
  Beta  occ. eigenvalues --   -0.18795  -0.13214  -0.12263
  Beta virt. eigenvalues --   -0.06926  -0.05340  -0.05129  -0.04452  -0.02489
  Beta virt. eigenvalues --   -0.02013  -0.01317  -0.01299  -0.00982  -0.00119
  Beta virt. eigenvalues --   -0.00035   0.00166   0.00391   0.00916   0.00926

 Mulliken charges and spin densities:
               1          2
     1  Na  -0.434046   0.567639
     2  Na   0.173291  -0.057284
     3  Na   0.185378   0.067217
     4  Na   0.179336   0.009059
     5  Na  -0.579900   0.465068
     6  Na   0.117003  -0.017263
     7  Na   0.358938  -0.034435
 Sum of Mulliken charges =  -0.00000   1.00000

 Dipole moment (field-independent basis, Debye):
    X=             -0.0208    Y=             -0.1338    Z=              0.1900  Tot=              0.2333
 Quadrupole moment (field-independent basis, Debye-Ang):
   XX=            -56.7126   YY=            -62.5976   ZZ=            -74.1085
   XY=              0.2796   XZ=             -0.3517   YZ=              0.1351

 Normal termination of Gaussian 16 at Fri Dec  8 06:25:42 2023.
