 Gaussian 16, Revision B.01,
 Gaussian 16:  ES64L-G16RevB.01 20-Dec-2017

 -------------------------
 #P B3LYP/6-311+g(d) force
 -------------------------

 -----
 DPGEN
 -----
 Symbolic Z-matrix:
 Charge =  0 Multiplicity = 2

                         Standard orientation:
 ---------------------------------------------------------------------
 Center     Atomic      Atomic             Coordinates (Angstroms)
 Number     Number       Type             X           Y           Z
 ---------------------------------------------------------------------
      1         11           0        0.164293    0.040062   -1.759952
      2         11           0       -1.489382    2.265577    0.115091
      3         11           0        2.732144   -1.460976   -0.042356
      4         11           0        1.989756    2.187965   -0.057875
      5         11           0       -0.574541   -2.484149    0.075162
      6         11           0        0.136499   -0.014301    1.833625
      7         11           0       -2.958769   -0.534180   -0.163695
 ---------------------------------------------------------------------

 SCF Done:  E(UB3LYP) =  -1136.13706847     A.U. after   20 cycles

 The electronic state is 2-A.
 Alpha  occ. eigenvalues --  -38.43839 -38.43671 -38.43562 -38.43278 -38.43241
 Alpha  occ. eigenvalues --  -38.43197 -38.43067  -2.19687  -2.19579  -2.19428
 Alpha  occ. eigenvalues --   -2.19277  -2.19209  -2.19160  -2.19031  -1.13362
 Alpha  occ. eigenvalues --   -1.13354  -1.13327  -1.13279  -1.13258  -1.13220
 Alpha  occ. eigenvalues --   -1.13126  -1.13104  -1.13054  -1.12994  -1.12947
 Alpha  occ. eigenvalues --   -1.12900  -1.12884  -1.12877  -1.12826  -1.12809
 Alpha  occ. eigenvalues --   -1.12791  -1.12776  -1.12694  -1.12676  -1.12637
 Alpha  occ. eigenvalues --   -0.19430  -0.13196  -0.12659  -0.10946
 Alpha virt. eigenvalues --   -0.05418  -0.05188  -0.04329  -0.03194  -0.02946
 Alpha virt. eigenvalues --   -0.02516  -0.01470  -0.01059  -0.00050   0.00002
 Alpha virt. eigenvalues --    0.00056   0.00361   0.00831   0.00931   0.00977

  Beta  occ. eigenvalues --  -38.43836 -38.43667 -38.43557 -38.43233 -38.43191
  Beta  occ. eigenvalues --  -38.43119 -38.43055  -2.19685  -2.19574  -2.19423
  Beta  occ. eigenvalues --   -2.19150  -2.19119  -2.19066  -2.19016  -1.13357
  Beta  occ. eigenvalues --   -1.13334  -1.13326  -1.13281  -1.13257  -1.13189
  Beta  occ. eigenvalues --   -1.13118  -1.13074  -1.13055  -1.12907  -1.12874
  Beta  occ. eigenvalues --   -1.12815  -1.12805  -1.12788  -1.12774  -1.12746
  Beta  occ. eigenvalues --   -1.12739  -1.12705  -1.12666  -1.12631  -1.12616
  Beta  occ. eigenvalues --   -0.18668  -0.12936  -0.12372
  Beta virt. eigenvalues --   -0.06976  -0.05403  -0.05184  -0.04336  -0.02373
  Beta virt. eigenvalues --   -0.02099  -0.01448  -0.01382  -0.01007  -0.00091
  Beta virt. eigenvalues --   -0.00016   0.00129   0.00376   0.00878   0.00914

 Mulliken charges and spin densities:
               1          2
     1  Na  -0.569053   0.674610
     2  Na   0.321615  -0.038982
     3  Na   0.152309  -0.130418
     4  Na   0.122952  -0.141748
     5  Na   0.447014  -0.015533
     6  Na  -0.538321   0.672869
     7  Na   0.063484  -0.020799
 Sum of Mulliken charges =  -0.00000   1.00000

 Dipole moment (field-independent basis, Debye):
    X=              0.3462    Y=              0.0806    Z=              0.0004  Tot=              0.3555
 Quadrupole moment (field-independent basis, Debye-Ang):
   XX=            -55.7509   YY=            -64.2217   ZZ=            -73.5085
   XY=             -0.1461   XZ=              0.1760   YZ=              0.1805

 Normal termination of Gaussian 16 at Sun Dec  3 17:58:25 2023.
