 Gaussian 16, Revision B.01,
 Gaussian 16:  ES64L-G16RevB.01 20-Dec-2017

 -------------------------
 #P B3LYP/6-311+g(d) force
 -------------------------

 -----
 DPGEN
 -----
 Symbolic Z-matrix:
 Charge =  0 Multiplicity = 2

                         Standard orientation:
 ---------------------------------------------------------------------
 Center     Atomic      Atomic             Coordinates (Angstroms)
 Number     Number       Type             X           Y           Z
 ---------------------------------------------------------------------
      1         11           0        0.524997    2.671503    0.239194
      2         11           0        3.107478    0.921377   -0.509798
      3         11           0        0.592713   -0.056987    2.005860
      4         11           0        1.609487   -2.557075   -0.139428
      5         11           0       -0.354984   -0.630069   -1.806577
      6         11           0       -2.310671   -1.683692    0.606604
      7         11           0       -3.169019    1.334943   -0.395855
 ---------------------------------------------------------------------

 SCF Done:  E(UB3LYP) =  -1136.13354772     A.U. after   20 cycles

 The electronic state is 2-A.
 Alpha  occ. eigenvalues --  -38.44373 -38.44074 -38.44045 -38.43720 -38.43632
 Alpha  occ. eigenvalues --  -38.43286 -38.43133  -2.20198  -2.19901  -2.19873
 Alpha  occ. eigenvalues --   -2.19624  -2.19541  -2.19132  -2.18988  -1.13877
 Alpha  occ. eigenvalues --   -1.13857  -1.13832  -1.13612  -1.13578  -1.13562
 Alpha  occ. eigenvalues --   -1.13537  -1.13514  -1.13478  -1.13305  -1.13268
 Alpha  occ. eigenvalues --   -1.13247  -1.13215  -1.13178  -1.13158  -1.12811
 Alpha  occ. eigenvalues --   -1.12795  -1.12758  -1.12678  -1.12655  -1.12609
 Alpha  occ. eigenvalues --   -0.18366  -0.13276  -0.12080  -0.10902
 Alpha virt. eigenvalues --   -0.05873  -0.05425  -0.04249  -0.03528  -0.02888
 Alpha virt. eigenvalues --   -0.02695  -0.01693  -0.01193  -0.00330  -0.00200
 Alpha virt. eigenvalues --   -0.00038   0.00350   0.00724   0.00809   0.00841

  Beta  occ. eigenvalues --  -38.44364 -38.44071 -38.44032 -38.43661 -38.43544
  Beta  occ. eigenvalues --  -38.43280 -38.43127  -2.20183  -2.19880  -2.19870
  Beta  occ. eigenvalues --   -2.19516  -2.19378  -2.19127  -2.18981  -1.13866
  Beta  occ. eigenvalues --   -1.13838  -1.13818  -1.13602  -1.13561  -1.13533
  Beta  occ. eigenvalues --   -1.13523  -1.13512  -1.13470  -1.13234  -1.13193
  Beta  occ. eigenvalues --   -1.13164  -1.13107  -1.13067  -1.13037  -1.12801
  Beta  occ. eigenvalues --   -1.12780  -1.12747  -1.12668  -1.12634  -1.12606
  Beta  occ. eigenvalues --   -0.17640  -0.13087  -0.11851
  Beta virt. eigenvalues --   -0.07035  -0.05742  -0.05383  -0.04180  -0.02831
  Beta virt. eigenvalues --   -0.02165  -0.01706  -0.01562  -0.01128  -0.00325
  Beta virt. eigenvalues --   -0.00192   0.00090   0.00388   0.00818   0.00829

 Mulliken charges and spin densities:
               1          2
     1  Na  -0.006997  -0.021780
     2  Na   0.006781   0.006301
     3  Na  -0.080503   0.538564
     4  Na   0.205727  -0.032894
     5  Na  -0.264090   0.524870
     6  Na   0.221555   0.024597
     7  Na  -0.082474  -0.039658
 Sum of Mulliken charges =  -0.00000   1.00000

 Dipole moment (field-independent basis, Debye):
    X=              0.0070    Y=             -0.0873    Z=             -0.1042  Tot=              0.1361
 Quadrupole moment (field-independent basis, Debye-Ang):
   XX=            -55.0370   YY=            -66.8934   ZZ=            -72.6794
   XY=             -1.1154   XZ=             -1.6969   YZ=             -1.9218

 Normal termination of Gaussian 16 at Tue Dec  5 17:51:30 2023.
