 Gaussian 16, Revision B.01,
 Gaussian 16:  ES64L-G16RevB.01 20-Dec-2017

 -------------------------
 #P B3LYP/6-311+g(d) force
 -------------------------

 -----
 DPGEN
 -----
 Symbolic Z-matrix:
 Charge =  0 Multiplicity = 2

                         Standard orientation:
 ---------------------------------------------------------------------
 Center     Atomic      Atomic             Coordinates (Angstroms)
 Number     Number       Type             X           Y           Z
 ---------------------------------------------------------------------
      1         11           0       -0.011113   -1.410868   -1.324041
      2         11           0        2.738657    1.871223   -1.387086
      3         11           0       -3.162457   -1.587219   -0.871224
      4         11           0        3.271029   -0.466967    0.395024
      5         11           0       -3.279061    1.756047    0.347464
      6         11           0        0.863516   -2.291437    1.612367
      7         11           0       -0.420572    2.129222    1.227498
 ---------------------------------------------------------------------

 SCF Done:  E(UB3LYP) =  -1136.11731391     A.U. after   20 cycles

 The electronic state is 2-A.
 Alpha  occ. eigenvalues --  -38.44541 -38.44284 -38.44147 -38.44070 -38.44009
 Alpha  occ. eigenvalues --  -38.43931 -38.43894  -2.20425  -2.20105  -2.20005
 Alpha  occ. eigenvalues --   -2.19884  -2.19834  -2.19775  -2.19759  -1.14152
 Alpha  occ. eigenvalues --   -1.14083  -1.14068  -1.13812  -1.13751  -1.13735
 Alpha  occ. eigenvalues --   -1.13710  -1.13672  -1.13665  -1.13611  -1.13540
 Alpha  occ. eigenvalues --   -1.13530  -1.13483  -1.13458  -1.13442  -1.13416
 Alpha  occ. eigenvalues --   -1.13408  -1.13406  -1.13392  -1.13385  -1.13380
 Alpha  occ. eigenvalues --   -0.17420  -0.13971  -0.12342  -0.10947
 Alpha virt. eigenvalues --   -0.06502  -0.05341  -0.04308  -0.03645  -0.03376
 Alpha virt. eigenvalues --   -0.02251  -0.01995  -0.01347  -0.00650  -0.00387
 Alpha virt. eigenvalues --   -0.00091   0.00100   0.00138   0.00619   0.00739

  Beta  occ. eigenvalues --  -38.44526 -38.44243 -38.44137 -38.44037 -38.44002
  Beta  occ. eigenvalues --  -38.43879 -38.43834  -2.20405  -2.20029  -2.19990
  Beta  occ. eigenvalues --   -2.19832  -2.19818  -2.19679  -2.19648  -1.14102
  Beta  occ. eigenvalues --   -1.14070  -1.14048  -1.13764  -1.13703  -1.13690
  Beta  occ. eigenvalues --   -1.13681  -1.13657  -1.13639  -1.13585  -1.13503
  Beta  occ. eigenvalues --   -1.13491  -1.13472  -1.13449  -1.13382  -1.13378
  Beta  occ. eigenvalues --   -1.13340  -1.13334  -1.13322  -1.13317  -1.13302
  Beta  occ. eigenvalues --   -0.16918  -0.13462  -0.11790
  Beta virt. eigenvalues --   -0.07612  -0.06356  -0.05105  -0.03852  -0.03266
  Beta virt. eigenvalues --   -0.02877  -0.02118  -0.01507  -0.01167  -0.00464
  Beta virt. eigenvalues --   -0.00219   0.00044   0.00236   0.00340   0.00688

 Mulliken charges and spin densities:
               1          2
     1  Na  -0.497350   0.109211
     2  Na   0.374828   0.219628
     3  Na   0.199900   0.111959
     4  Na   0.240795   0.164917
     5  Na   0.106325  -0.045135
     6  Na   0.085666   0.255488
     7  Na  -0.510164   0.183933
 Sum of Mulliken charges =  -0.00000   1.00000

 Dipole moment (field-independent basis, Debye):
    X=             -0.1580    Y=             -0.3676    Z=              0.1395  Tot=              0.4237
 Quadrupole moment (field-independent basis, Debye-Ang):
   XX=            -57.1264   YY=            -73.0260   ZZ=            -69.5717
   XY=              0.8093   XZ=              1.3071   YZ=             -3.2546

 Normal termination of Gaussian 16 at Mon Dec  4 04:20:22 2023.
