 Gaussian 16, Revision B.01,
 Gaussian 16:  ES64L-G16RevB.01 20-Dec-2017

 -------------------------
 #P B3LYP/6-311+g(d) force
 -------------------------

 -----
 DPGEN
 -----
 Symbolic Z-matrix:
 Charge =  0 Multiplicity = 2

                         Standard orientation:
 ---------------------------------------------------------------------
 Center     Atomic      Atomic             Coordinates (Angstroms)
 Number     Number       Type             X           Y           Z
 ---------------------------------------------------------------------
      1         11           0        3.662342    1.834603    0.475850
      2         11           0        4.367508   -1.739237    0.197789
      3         11           0       -1.359422   -0.355140    2.106879
      4         11           0       -3.210789    0.317740   -1.886940
      5         11           0        1.675638   -1.545261   -1.346308
      6         11           0       -4.982357   -0.876154    0.719720
      7         11           0       -0.152919    2.363450   -0.266988
 ---------------------------------------------------------------------

 SCF Done:  E(UB3LYP) =  -1136.09962706     A.U. after   35 cycles

 The electronic state is 2-A.
 Alpha  occ. eigenvalues --  -38.45469 -38.44960 -38.44692 -38.44680 -38.44374
 Alpha  occ. eigenvalues --  -38.44035 -38.43801  -2.21268  -2.20740  -2.20488
 Alpha  occ. eigenvalues --   -2.20464  -2.20117  -2.19845  -2.19542  -1.14936
 Alpha  occ. eigenvalues --   -1.14912  -1.14890  -1.14409  -1.14371  -1.14350
 Alpha  occ. eigenvalues --   -1.14160  -1.14123  -1.14122  -1.14102  -1.14087
 Alpha  occ. eigenvalues --   -1.14076  -1.13807  -1.13793  -1.13782  -1.13527
 Alpha  occ. eigenvalues --   -1.13507  -1.13489  -1.13239  -1.13224  -1.13199
 Alpha  occ. eigenvalues --   -0.16227  -0.14204  -0.11458  -0.10586
 Alpha virt. eigenvalues --   -0.07890  -0.05457  -0.04794  -0.03519  -0.03099
 Alpha virt. eigenvalues --   -0.02711  -0.02366  -0.01748  -0.01560  -0.00677
 Alpha virt. eigenvalues --   -0.00388  -0.00031   0.00137   0.00169   0.00328

  Beta  occ. eigenvalues --  -38.45418 -38.44875 -38.44625 -38.44580 -38.44429
  Beta  occ. eigenvalues --  -38.44044 -38.43841  -2.21173  -2.20581  -2.20362
  Beta  occ. eigenvalues --   -2.20277  -2.20224  -2.19866  -2.19620  -1.14873
  Beta  occ. eigenvalues --   -1.14845  -1.14821  -1.14300  -1.14264  -1.14244
  Beta  occ. eigenvalues --   -1.14069  -1.14050  -1.14023  -1.13989  -1.13964
  Beta  occ. eigenvalues --   -1.13959  -1.13883  -1.13857  -1.13839  -1.13528
  Beta  occ. eigenvalues --   -1.13523  -1.13497  -1.13296  -1.13266  -1.13241
  Beta  occ. eigenvalues --   -0.15800  -0.13946  -0.11228
  Beta virt. eigenvalues --   -0.07472  -0.06856  -0.05472  -0.04500  -0.03136
  Beta virt. eigenvalues --   -0.02642  -0.02423  -0.02048  -0.01453  -0.01204
  Beta virt. eigenvalues --   -0.00528  -0.00297   0.00051   0.00251   0.00336

 Mulliken charges and spin densities:
               1          2
     1  Na  -0.005117   0.366755
     2  Na   0.382280  -0.139309
     3  Na  -0.158809   0.471760
     4  Na  -0.128041   0.521728
     5  Na  -0.293009   0.310384
     6  Na   0.278326  -0.291682
     7  Na  -0.075631  -0.239635
 Sum of Mulliken charges =  -0.00000   1.00000

 Dipole moment (field-independent basis, Debye):
    X=              0.5707    Y=             -0.5001    Z=              0.1898  Tot=              0.7821
 Quadrupole moment (field-independent basis, Debye-Ang):
   XX=            -65.1212   YY=            -74.0188   ZZ=            -66.8819
   XY=              0.0340   XZ=              0.5719   YZ=             -0.8985

 Normal termination of Gaussian 16 at Sun Dec  3 16:47:39 2023.
