 Gaussian 16, Revision B.01,
 Gaussian 16:  ES64L-G16RevB.01 20-Dec-2017

 -------------------------
 #P B3LYP/6-311+g(d) force
 -------------------------

 -----
 DPGEN
 -----
 Symbolic Z-matrix:
 Charge =  0 Multiplicity = 2

                         Standard orientation:
 ---------------------------------------------------------------------
 Center     Atomic      Atomic             Coordinates (Angstroms)
 Number     Number       Type             X           Y           Z
 ---------------------------------------------------------------------
      1         11           0        0.478319    2.644560   -1.206805
      2         11           0       -0.352358   -2.203991   -0.735940
      3         11           0        0.337443   -0.461776    1.930944
      4         11           0        3.152620    1.798652   -0.070370
      5         11           0       -2.573876    1.796912    0.849952
      6         11           0        3.068343   -2.454927   -0.150456
      7         11           0       -4.110491   -1.119430   -0.617325
 ---------------------------------------------------------------------

 SCF Done:  E(UB3LYP) =  -1136.11519910     A.U. after   19 cycles

 The electronic state is 2-A.
 Alpha  occ. eigenvalues --  -38.44948 -38.44552 -38.44483 -38.44369 -38.44100
 Alpha  occ. eigenvalues --  -38.43994 -38.43924  -2.20708  -2.20352  -2.20256
 Alpha  occ. eigenvalues --   -2.20202  -2.19880  -2.19808  -2.19735  -1.14389
 Alpha  occ. eigenvalues --   -1.14363  -1.14340  -1.14084  -1.14040  -1.13942
 Alpha  occ. eigenvalues --   -1.13934  -1.13915  -1.13897  -1.13878  -1.13844
 Alpha  occ. eigenvalues --   -1.13785  -1.13584  -1.13539  -1.13527  -1.13502
 Alpha  occ. eigenvalues --   -1.13464  -1.13439  -1.13395  -1.13366  -1.13330
 Alpha  occ. eigenvalues --   -0.16968  -0.13195  -0.12560  -0.10230
 Alpha virt. eigenvalues --   -0.06667  -0.06599  -0.03856  -0.03675  -0.02954
 Alpha virt. eigenvalues --   -0.02512  -0.02329  -0.01781  -0.01091  -0.00370
 Alpha virt. eigenvalues --   -0.00187   0.00060   0.00241   0.00413   0.00565

  Beta  occ. eigenvalues --  -38.44946 -38.44546 -38.44469 -38.44287 -38.44042
  Beta  occ. eigenvalues --  -38.43976 -38.43916  -2.20706  -2.20343  -2.20233
  Beta  occ. eigenvalues --   -2.20051  -2.19776  -2.19772  -2.19723  -1.14385
  Beta  occ. eigenvalues --   -1.14362  -1.14337  -1.14058  -1.14036  -1.13930
  Beta  occ. eigenvalues --   -1.13920  -1.13893  -1.13869  -1.13785  -1.13745
  Beta  occ. eigenvalues --   -1.13671  -1.13566  -1.13464  -1.13449  -1.13436
  Beta  occ. eigenvalues --   -1.13433  -1.13418  -1.13386  -1.13350  -1.13313
  Beta  occ. eigenvalues --   -0.16451  -0.12863  -0.12231
  Beta virt. eigenvalues --   -0.06798  -0.06552  -0.06279  -0.03627  -0.03259
  Beta virt. eigenvalues --   -0.02502  -0.02303  -0.02038  -0.01315  -0.00852
  Beta virt. eigenvalues --   -0.00273  -0.00004   0.00208   0.00333   0.00492

 Mulliken charges and spin densities:
               1          2
     1  Na  -0.024783   0.015528
     2  Na  -0.645592   0.141403
     3  Na   0.017528   0.368474
     4  Na  -0.095696   0.112215
     5  Na   0.091700   0.120811
     6  Na   0.625821   0.037523
     7  Na   0.031022   0.204047
 Sum of Mulliken charges =  -0.00000   1.00000

 Dipole moment (field-independent basis, Debye):
    X=              0.7975    Y=             -0.4619    Z=              0.3412  Tot=              0.9828
 Quadrupole moment (field-independent basis, Debye-Ang):
   XX=            -57.7109   YY=            -70.3217   ZZ=            -71.9045
   XY=             -8.7029   XZ=              1.3616   YZ=              1.3143

 Normal termination of Gaussian 16 at Sun Dec  3 23:50:45 2023.
