 Gaussian 16, Revision B.01,
 Gaussian 16:  ES64L-G16RevB.01 20-Dec-2017

 -------------------------
 #P B3LYP/6-311+g(d) force
 -------------------------

 -----
 DPGEN
 -----
 Symbolic Z-matrix:
 Charge =  0 Multiplicity = 2

                         Standard orientation:
 ---------------------------------------------------------------------
 Center     Atomic      Atomic             Coordinates (Angstroms)
 Number     Number       Type             X           Y           Z
 ---------------------------------------------------------------------
      1         11           0       -1.541764    3.807322    0.320825
      2         11           0       -0.490365   -3.414416    0.894586
      3         11           0        4.164981    0.421673    0.276962
      4         11           0        1.905150    2.957571   -0.113917
      5         11           0       -3.116442   -2.260642   -0.245273
      6         11           0        2.853019   -2.405948   -0.761192
      7         11           0       -3.774580    0.894441   -0.371992
 ---------------------------------------------------------------------

 SCF Done:  E(UB3LYP) =  -1136.10763220     A.U. after   25 cycles

 The electronic state is 2-A.
 Alpha  occ. eigenvalues --  -38.45858 -38.45013 -38.44524 -38.44462 -38.44182
 Alpha  occ. eigenvalues --  -38.44041 -38.43742  -2.21616  -2.20782  -2.20297
 Alpha  occ. eigenvalues --   -2.20283  -2.19999  -2.19854  -2.19568  -1.15295
 Alpha  occ. eigenvalues --   -1.15281  -1.15252  -1.14463  -1.14450  -1.14409
 Alpha  occ. eigenvalues --   -1.13997  -1.13970  -1.13960  -1.13956  -1.13945
 Alpha  occ. eigenvalues --   -1.13920  -1.13654  -1.13651  -1.13648  -1.13508
 Alpha  occ. eigenvalues --   -1.13505  -1.13473  -1.13225  -1.13205  -1.13193
 Alpha  occ. eigenvalues --   -0.15722  -0.14163  -0.13446  -0.10579
 Alpha virt. eigenvalues --   -0.07931  -0.04855  -0.04311  -0.03465  -0.03348
 Alpha virt. eigenvalues --   -0.02683  -0.02335  -0.01873  -0.01525  -0.00463
 Alpha virt. eigenvalues --   -0.00178   0.00004   0.00037   0.00365   0.00495

  Beta  occ. eigenvalues --  -38.45842 -38.44985 -38.44512 -38.44449 -38.44154
  Beta  occ. eigenvalues --  -38.43975 -38.43682  -2.21592  -2.20735  -2.20281
  Beta  occ. eigenvalues --   -2.20265  -2.19948  -2.19734  -2.19457  -1.15283
  Beta  occ. eigenvalues --   -1.15270  -1.15204  -1.14434  -1.14421  -1.14358
  Beta  occ. eigenvalues --   -1.13971  -1.13955  -1.13950  -1.13937  -1.13918
  Beta  occ. eigenvalues --   -1.13889  -1.13619  -1.13617  -1.13608  -1.13427
  Beta  occ. eigenvalues --   -1.13425  -1.13388  -1.13156  -1.13128  -1.13117
  Beta  occ. eigenvalues --   -0.15201  -0.13464  -0.12745
  Beta virt. eigenvalues --   -0.08137  -0.07351  -0.04477  -0.03884  -0.03119
  Beta virt. eigenvalues --   -0.02930  -0.02485  -0.02119  -0.01789  -0.01377
  Beta virt. eigenvalues --   -0.00204  -0.00073   0.00217   0.00290   0.00383

 Mulliken charges and spin densities:
               1          2
     1  Na   0.316905   0.049587
     2  Na  -0.397013   0.225193
     3  Na   0.047082   0.180386
     4  Na  -0.205649   0.156312
     5  Na   0.226747   0.055686
     6  Na  -0.032448   0.075118
     7  Na   0.044376   0.257718
 Sum of Mulliken charges =  -0.00000   1.00000

 Dipole moment (field-independent basis, Debye):
    X=              1.0399    Y=             -0.0384    Z=             -0.1847  Tot=              1.0569
 Quadrupole moment (field-independent basis, Debye-Ang):
   XX=            -64.0913   YY=            -65.8137   ZZ=            -71.2737
   XY=             -2.5787   XZ=             -0.3660   YZ=              2.5511

 Normal termination of Gaussian 16 at Sun Dec  3 15:01:32 2023.
