 Gaussian 16, Revision B.01,
 Gaussian 16:  ES64L-G16RevB.01 20-Dec-2017

 -------------------------
 #P B3LYP/6-311+g(d) force
 -------------------------

 -----
 DPGEN
 -----
 Symbolic Z-matrix:
 Charge =  0 Multiplicity = 2

                         Standard orientation:
 ---------------------------------------------------------------------
 Center     Atomic      Atomic             Coordinates (Angstroms)
 Number     Number       Type             X           Y           Z
 ---------------------------------------------------------------------
      1         11           0        0.974332    2.277527    0.625891
      2         11           0       -2.854025   -1.403335    0.216042
      3         11           0        0.873942    0.482080   -1.920009
      4         11           0       -0.065133   -2.400754   -0.530699
      5         11           0        0.137389   -0.232838    1.998716
      6         11           0        3.220731   -0.698693    0.087816
      7         11           0       -2.287235    1.976013   -0.477756
 ---------------------------------------------------------------------

 SCF Done:  E(UB3LYP) =  -1136.13166546     A.U. after   19 cycles

 The electronic state is 2-A.
 Alpha  occ. eigenvalues --  -38.44324 -38.44009 -38.43852 -38.43684 -38.43644
 Alpha  occ. eigenvalues --  -38.43232 -38.43075  -2.20152  -2.19955  -2.19794
 Alpha  occ. eigenvalues --   -2.19536  -2.19458  -2.19173  -2.18988  -1.13837
 Alpha  occ. eigenvalues --   -1.13807  -1.13795  -1.13672  -1.13599  -1.13546
 Alpha  occ. eigenvalues --   -1.13475  -1.13458  -1.13388  -1.13246  -1.13190
 Alpha  occ. eigenvalues --   -1.13188  -1.13129  -1.13111  -1.13098  -1.12878
 Alpha  occ. eigenvalues --   -1.12839  -1.12748  -1.12674  -1.12654  -1.12600
 Alpha  occ. eigenvalues --   -0.18901  -0.13127  -0.12246  -0.11421
 Alpha virt. eigenvalues --   -0.05839  -0.04961  -0.04064  -0.03449  -0.03131
 Alpha virt. eigenvalues --   -0.03028  -0.01725  -0.00780  -0.00225   0.00066
 Alpha virt. eigenvalues --    0.00147   0.00347   0.00824   0.00847   0.00892

  Beta  occ. eigenvalues --  -38.44321 -38.43917 -38.43778 -38.43686 -38.43639
  Beta  occ. eigenvalues --  -38.43211 -38.43063  -2.20151  -2.19788  -2.19657
  Beta  occ. eigenvalues --   -2.19541  -2.19450  -2.19141  -2.18970  -1.13823
  Beta  occ. eigenvalues --   -1.13803  -1.13787  -1.13559  -1.13480  -1.13427
  Beta  occ. eigenvalues --   -1.13387  -1.13361  -1.13287  -1.13250  -1.13193
  Beta  occ. eigenvalues --   -1.13179  -1.13110  -1.13107  -1.13095  -1.12846
  Beta  occ. eigenvalues --   -1.12788  -1.12727  -1.12664  -1.12615  -1.12589
  Beta  occ. eigenvalues --   -0.18123  -0.12934  -0.11993
  Beta virt. eigenvalues --   -0.07424  -0.05753  -0.04923  -0.04004  -0.02756
  Beta virt. eigenvalues --   -0.02344  -0.01936  -0.01651  -0.00744  -0.00091
  Beta virt. eigenvalues --    0.00099   0.00131   0.00381   0.00880   0.00920

 Mulliken charges and spin densities:
               1          2
     1  Na   0.277236   0.020452
     2  Na   0.115856  -0.032623
     3  Na  -0.177913   0.613890
     4  Na  -0.131761  -0.032093
     5  Na  -0.226969   0.573700
     6  Na   0.328617  -0.106881
     7  Na  -0.185067  -0.036446
 Sum of Mulliken charges =  -0.00000   1.00000

 Dipole moment (field-independent basis, Debye):
    X=              0.3499    Y=             -0.0404    Z=             -0.0102  Tot=              0.3524
 Quadrupole moment (field-independent basis, Debye-Ang):
   XX=            -54.9712   YY=            -69.9812   ZZ=            -70.2532
   XY=             -1.2888   XZ=              0.9456   YZ=             -0.0953

 Normal termination of Gaussian 16 at Thu Dec  7 15:52:19 2023.
