 Gaussian 16, Revision B.01,
 Gaussian 16:  ES64L-G16RevB.01 20-Dec-2017

 -------------------------
 #P B3LYP/6-311+g(d) force
 -------------------------

 -----
 DPGEN
 -----
 Symbolic Z-matrix:
 Charge =  0 Multiplicity = 2

                         Standard orientation:
 ---------------------------------------------------------------------
 Center     Atomic      Atomic             Coordinates (Angstroms)
 Number     Number       Type             X           Y           Z
 ---------------------------------------------------------------------
      1         11           0        0.094242   -0.117142   -1.718447
      2         11           0        2.679906    1.658414   -0.450758
      3         11           0        2.723373   -1.513128    0.345798
      4         11           0       -1.076021   -2.561073   -0.454485
      5         11           0       -3.176330    0.025987   -0.114923
      6         11           0       -0.127368   -0.185278    2.270545
      7         11           0       -1.117802    2.692219    0.122270
 ---------------------------------------------------------------------

 SCF Done:  E(UB3LYP) =  -1136.13438168     A.U. after   19 cycles

 The electronic state is 2-A.
 Alpha  occ. eigenvalues --  -38.44264 -38.44261 -38.44035 -38.43868 -38.43587
 Alpha  occ. eigenvalues --  -38.43052 -38.43027  -2.20108  -2.20102  -2.19863
 Alpha  occ. eigenvalues --   -2.19696  -2.19554  -2.18916  -2.18878  -1.13776
 Alpha  occ. eigenvalues --   -1.13770  -1.13757  -1.13750  -1.13736  -1.13723
 Alpha  occ. eigenvalues --   -1.13549  -1.13530  -1.13505  -1.13384  -1.13345
 Alpha  occ. eigenvalues --   -1.13324  -1.13272  -1.13204  -1.13161  -1.12619
 Alpha  occ. eigenvalues --   -1.12558  -1.12554  -1.12548  -1.12527  -1.12515
 Alpha  occ. eigenvalues --   -0.18487  -0.13288  -0.11959  -0.11206
 Alpha virt. eigenvalues --   -0.05857  -0.05193  -0.04214  -0.03504  -0.03035
 Alpha virt. eigenvalues --   -0.02858  -0.01663  -0.00998  -0.00273  -0.00229
 Alpha virt. eigenvalues --   -0.00058   0.00361   0.00736   0.00840   0.00890

  Beta  occ. eigenvalues --  -38.44259 -38.44160 -38.44029 -38.43860 -38.43524
  Beta  occ. eigenvalues --  -38.43050 -38.43017  -2.20103  -2.19915  -2.19855
  Beta  occ. eigenvalues --   -2.19685  -2.19441  -2.18901  -2.18878  -1.13769
  Beta  occ. eigenvalues --   -1.13766  -1.13740  -1.13633  -1.13606  -1.13584
  Beta  occ. eigenvalues --   -1.13546  -1.13505  -1.13498  -1.13362  -1.13333
  Beta  occ. eigenvalues --   -1.13319  -1.13195  -1.13122  -1.13081  -1.12598
  Beta  occ. eigenvalues --   -1.12556  -1.12541  -1.12535  -1.12513  -1.12509
  Beta  occ. eigenvalues --   -0.17754  -0.13084  -0.11717
  Beta virt. eigenvalues --   -0.07249  -0.05774  -0.05157  -0.04174  -0.02742
  Beta virt. eigenvalues --   -0.02109  -0.01953  -0.01562  -0.00919  -0.00295
  Beta virt. eigenvalues --   -0.00272   0.00086   0.00388   0.00835   0.00882

 Mulliken charges and spin densities:
               1          2
     1  Na  -0.075627   0.302326
     2  Na   0.086647  -0.044234
     3  Na   0.099327   0.057231
     4  Na   0.324765   0.031673
     5  Na   0.134442  -0.024626
     6  Na  -0.522784   0.704378
     7  Na  -0.046770  -0.026749
 Sum of Mulliken charges =  -0.00000   1.00000

 Dipole moment (field-independent basis, Debye):
    X=              0.0847    Y=             -0.0738    Z=              0.2746  Tot=              0.2967
 Quadrupole moment (field-independent basis, Debye-Ang):
   XX=            -55.6330   YY=            -67.2519   ZZ=            -72.1345
   XY=              0.0805   XZ=              0.2835   YZ=             -0.6373

 Normal termination of Gaussian 16 at Thu Dec  7 13:33:55 2023.
