 Gaussian 16, Revision B.01,
 Gaussian 16:  ES64L-G16RevB.01 20-Dec-2017

 -------------------------
 #P B3LYP/6-311+g(d) force
 -------------------------

 -----
 DPGEN
 -----
 Symbolic Z-matrix:
 Charge =  0 Multiplicity = 2

                         Standard orientation:
 ---------------------------------------------------------------------
 Center     Atomic      Atomic             Coordinates (Angstroms)
 Number     Number       Type             X           Y           Z
 ---------------------------------------------------------------------
      1         11           0       -0.112942    0.320387   -1.758942
      2         11           0        1.641111   -2.339195   -0.046329
      3         11           0        0.412466    2.955074    0.331169
      4         11           0        3.047567    0.387939   -0.334708
      5         11           0       -2.906599    0.995946   -0.143090
      6         11           0        0.033078   -0.250325    2.082433
      7         11           0       -2.114681   -2.069826   -0.130533
 ---------------------------------------------------------------------

 SCF Done:  E(UB3LYP) =  -1136.13792863     A.U. after   19 cycles

 The electronic state is 2-A.
 Alpha  occ. eigenvalues --  -38.44035 -38.44023 -38.43726 -38.43485 -38.43442
 Alpha  occ. eigenvalues --  -38.43253 -38.43233  -2.19893  -2.19884  -2.19616
 Alpha  occ. eigenvalues --   -2.19391  -2.19352  -2.19138  -2.19056  -1.13591
 Alpha  occ. eigenvalues --   -1.13584  -1.13560  -1.13545  -1.13526  -1.13516
 Alpha  occ. eigenvalues --   -1.13283  -1.13246  -1.13237  -1.13077  -1.13042
 Alpha  occ. eigenvalues --   -1.13027  -1.13017  -1.12996  -1.12987  -1.12813
 Alpha  occ. eigenvalues --   -1.12794  -1.12775  -1.12726  -1.12722  -1.12691
 Alpha  occ. eigenvalues --   -0.18728  -0.13293  -0.12227  -0.10989
 Alpha virt. eigenvalues --   -0.05663  -0.05026  -0.04574  -0.03382  -0.02977
 Alpha virt. eigenvalues --   -0.02714  -0.01508  -0.00997  -0.00304  -0.00199
 Alpha virt. eigenvalues --   -0.00031   0.00379   0.00802   0.00896   0.00926

  Beta  occ. eigenvalues --  -38.44030 -38.44015 -38.43630 -38.43481 -38.43379
  Beta  occ. eigenvalues --  -38.43248 -38.43226  -2.19888  -2.19873  -2.19439
  Beta  occ. eigenvalues --   -2.19347  -2.19276  -2.19132  -2.19046  -1.13585
  Beta  occ. eigenvalues --   -1.13578  -1.13547  -1.13523  -1.13516  -1.13504
  Beta  occ. eigenvalues --   -1.13167  -1.13123  -1.13108  -1.13028  -1.13007
  Beta  occ. eigenvalues --   -1.12988  -1.12972  -1.12945  -1.12928  -1.12812
  Beta  occ. eigenvalues --   -1.12776  -1.12757  -1.12717  -1.12697  -1.12688
  Beta  occ. eigenvalues --   -0.17984  -0.13040  -0.12001
  Beta virt. eigenvalues --   -0.07070  -0.05609  -0.05037  -0.04502  -0.02581
  Beta virt. eigenvalues --   -0.02196  -0.01671  -0.01403  -0.00929  -0.00342
  Beta virt. eigenvalues --   -0.00254   0.00109   0.00402   0.00872   0.00892

 Mulliken charges and spin densities:
               1          2
     1  Na  -0.214580   0.459581
     2  Na   0.175664  -0.039974
     3  Na  -0.000539  -0.054417
     4  Na   0.177579  -0.023021
     5  Na   0.223706  -0.045359
     6  Na  -0.491302   0.763006
     7  Na   0.129472  -0.059816
 Sum of Mulliken charges =  -0.00000   1.00000

 Dipole moment (field-independent basis, Debye):
    X=             -0.1042    Y=              0.1126    Z=              0.0699  Tot=              0.1686
 Quadrupole moment (field-independent basis, Debye-Ang):
   XX=            -57.3856   YY=            -64.4468   ZZ=            -72.8674
   XY=              0.1828   XZ=             -0.4405   YZ=              1.1958

 Normal termination of Gaussian 16 at Wed Dec  6 01:16:49 2023.
