 Gaussian 16, Revision B.01,
 Gaussian 16:  ES64L-G16RevB.01 20-Dec-2017

 -------------------------
 #P B3LYP/6-311+g(d) force
 -------------------------

 -----
 DPGEN
 -----
 Symbolic Z-matrix:
 Charge =  0 Multiplicity = 2

                         Standard orientation:
 ---------------------------------------------------------------------
 Center     Atomic      Atomic             Coordinates (Angstroms)
 Number     Number       Type             X           Y           Z
 ---------------------------------------------------------------------
      1         11           0        0.253941    0.168848   -1.720911
      2         11           0        3.016004   -1.429238    0.124658
      3         11           0       -0.926272   -2.438044   -0.478667
      4         11           0       -1.470943    2.427371    0.032320
      5         11           0       -3.307279   -0.329223   -0.043634
      6         11           0        2.466304    1.818183   -0.165270
      7         11           0       -0.031756   -0.217898    2.251504
 ---------------------------------------------------------------------

 SCF Done:  E(UB3LYP) =  -1136.13115683     A.U. after   20 cycles

 The electronic state is 2-A.
 Alpha  occ. eigenvalues --  -38.44599 -38.44414 -38.44234 -38.43886 -38.43585
 Alpha  occ. eigenvalues --  -38.42980 -38.42891  -2.20437  -2.20218  -2.20072
 Alpha  occ. eigenvalues --   -2.19736  -2.19556  -2.18829  -2.18779  -1.14105
 Alpha  occ. eigenvalues --   -1.14096  -1.14091  -1.13891  -1.13885  -1.13858
 Alpha  occ. eigenvalues --   -1.13730  -1.13703  -1.13687  -1.13461  -1.13390
 Alpha  occ. eigenvalues --   -1.13359  -1.13244  -1.13203  -1.13163  -1.12514
 Alpha  occ. eigenvalues --   -1.12492  -1.12482  -1.12464  -1.12429  -1.12399
 Alpha  occ. eigenvalues --   -0.18546  -0.13515  -0.11743  -0.11082
 Alpha virt. eigenvalues --   -0.06272  -0.05324  -0.03837  -0.03549  -0.02990
 Alpha virt. eigenvalues --   -0.02684  -0.01962  -0.01127  -0.00295  -0.00126
 Alpha virt. eigenvalues --   -0.00063   0.00328   0.00685   0.00725   0.00869

  Beta  occ. eigenvalues --  -38.44599 -38.44414 -38.44132 -38.43881 -38.43519
  Beta  occ. eigenvalues --  -38.42977 -38.42878  -2.20441  -2.20219  -2.19883
  Beta  occ. eigenvalues --   -2.19730  -2.19437  -2.18826  -2.18758  -1.14111
  Beta  occ. eigenvalues --   -1.14096  -1.14079  -1.13895  -1.13867  -1.13860
  Beta  occ. eigenvalues --   -1.13604  -1.13570  -1.13550  -1.13443  -1.13373
  Beta  occ. eigenvalues --   -1.13359  -1.13163  -1.13117  -1.13080  -1.12512
  Beta  occ. eigenvalues --   -1.12471  -1.12463  -1.12462  -1.12403  -1.12379
  Beta  occ. eigenvalues --   -0.17806  -0.13336  -0.11503
  Beta virt. eigenvalues --   -0.07121  -0.06153  -0.05346  -0.03807  -0.02791
  Beta virt. eigenvalues --   -0.02009  -0.01875  -0.01769  -0.01072  -0.00344
  Beta virt. eigenvalues --   -0.00127   0.00075   0.00354   0.00766   0.00860

 Mulliken charges and spin densities:
               1          2
     1  Na  -0.128226   0.328914
     2  Na   0.091191  -0.008959
     3  Na   0.268266   0.019939
     4  Na   0.105721  -0.022936
     5  Na   0.092250  -0.022802
     6  Na   0.218574  -0.034106
     7  Na  -0.647776   0.739950
 Sum of Mulliken charges =  -0.00000   1.00000

 Dipole moment (field-independent basis, Debye):
    X=              0.2300    Y=             -0.1027    Z=              0.3150  Tot=              0.4033
 Quadrupole moment (field-independent basis, Debye-Ang):
   XX=            -51.8602   YY=            -69.6666   ZZ=            -72.7657
   XY=             -0.5091   XZ=              0.3735   YZ=              0.4025

 Normal termination of Gaussian 16 at Thu Dec  7 13:45:20 2023.
