 Gaussian 16, Revision B.01,
 Gaussian 16:  ES64L-G16RevB.01 20-Dec-2017

 -------------------------
 #P B3LYP/6-311+g(d) force
 -------------------------

 -----
 DPGEN
 -----
 Symbolic Z-matrix:
 Charge =  0 Multiplicity = 2

                         Standard orientation:
 ---------------------------------------------------------------------
 Center     Atomic      Atomic             Coordinates (Angstroms)
 Number     Number       Type             X           Y           Z
 ---------------------------------------------------------------------
      1         11           0       -4.248903   -1.254302   -0.694114
      2         11           0        2.674375    2.170016   -1.228610
      3         11           0       -0.551670    2.461811   -0.156204
      4         11           0       -1.144140   -2.132074   -0.228217
      5         11           0        2.821631   -2.267405   -0.182019
      6         11           0        4.588047   -0.181742    1.238211
      7         11           0       -4.139340    1.203696    1.250954
 ---------------------------------------------------------------------

 SCF Done:  E(UB3LYP) =  -1136.10807865     A.U. after   22 cycles

 The electronic state is 2-A.
 Alpha  occ. eigenvalues --  -38.45033 -38.45019 -38.44462 -38.44375 -38.44362
 Alpha  occ. eigenvalues --  -38.44136 -38.43505  -2.20850  -2.20843  -2.20286
 Alpha  occ. eigenvalues --   -2.20163  -2.20126  -2.19939  -2.19262  -1.14600
 Alpha  occ. eigenvalues --   -1.14517  -1.14509  -1.14488  -1.14467  -1.14420
 Alpha  occ. eigenvalues --   -1.14011  -1.13930  -1.13911  -1.13834  -1.13819
 Alpha  occ. eigenvalues --   -1.13809  -1.13786  -1.13775  -1.13754  -1.13600
 Alpha  occ. eigenvalues --   -1.13583  -1.13557  -1.12945  -1.12938  -1.12888
 Alpha  occ. eigenvalues --   -0.16136  -0.14561  -0.11874  -0.10906
 Alpha virt. eigenvalues --   -0.07235  -0.05438  -0.04553  -0.03476  -0.03233
 Alpha virt. eigenvalues --   -0.02773  -0.02096  -0.01569  -0.01018  -0.00717
 Alpha virt. eigenvalues --   -0.00393  -0.00180   0.00074   0.00414   0.00452

  Beta  occ. eigenvalues --  -38.45020 -38.44965 -38.44408 -38.44379 -38.44350
  Beta  occ. eigenvalues --  -38.44059 -38.43498  -2.20853  -2.20723  -2.20188
  Beta  occ. eigenvalues --   -2.20174  -2.20106  -2.19796  -2.19252  -1.14560
  Beta  occ. eigenvalues --   -1.14515  -1.14501  -1.14407  -1.14383  -1.14363
  Beta  occ. eigenvalues --   -1.13963  -1.13865  -1.13850  -1.13839  -1.13820
  Beta  occ. eigenvalues --   -1.13795  -1.13773  -1.13739  -1.13731  -1.13502
  Beta  occ. eigenvalues --   -1.13484  -1.13465  -1.12940  -1.12929  -1.12873
  Beta  occ. eigenvalues --   -0.15537  -0.14028  -0.11366
  Beta virt. eigenvalues --   -0.07642  -0.07175  -0.04878  -0.04283  -0.03314
  Beta virt. eigenvalues --   -0.02869  -0.02329  -0.01938  -0.01213  -0.00768
  Beta virt. eigenvalues --   -0.00530  -0.00258  -0.00069   0.00221   0.00487

 Mulliken charges and spin densities:
               1          2
     1  Na   0.815265   0.125390
     2  Na   0.164343   0.031181
     3  Na  -0.489407  -0.022103
     4  Na  -0.642755   0.313550
     5  Na  -0.349365  -0.094027
     6  Na   0.311103   0.283383
     7  Na   0.190817   0.362626
 Sum of Mulliken charges =  -0.00000   1.00000

 Dipole moment (field-independent basis, Debye):
    X=             -0.4663    Y=             -0.1107    Z=              0.2766  Tot=              0.5533
 Quadrupole moment (field-independent basis, Debye-Ang):
   XX=            -55.5069   YY=            -75.6057   ZZ=            -67.1915
   XY=              4.1048   XZ=              0.5360   YZ=              4.0402

 Normal termination of Gaussian 16 at Sun Dec  3 20:48:47 2023.
