 Gaussian 16, Revision B.01,
 Gaussian 16:  ES64L-G16RevB.01 20-Dec-2017

 -------------------------
 #P B3LYP/6-311+g(d) force
 -------------------------

 -----
 DPGEN
 -----
 Symbolic Z-matrix:
 Charge =  0 Multiplicity = 2

                         Standard orientation:
 ---------------------------------------------------------------------
 Center     Atomic      Atomic             Coordinates (Angstroms)
 Number     Number       Type             X           Y           Z
 ---------------------------------------------------------------------
      1         11           0       -2.341723    1.173957    0.756354
      2         11           0       -2.373757    4.076402   -0.388392
      3         11           0       -3.327618   -1.495929   -1.140170
      4         11           0       -0.942024   -1.909211    1.934607
      5         11           0        5.725411    1.240895   -0.090598
      6         11           0        0.292205   -2.879114   -0.963219
      7         11           0        2.967507   -0.207000   -0.108582
 ---------------------------------------------------------------------

 SCF Done:  E(UB3LYP) =  -1136.10598959     A.U. after   25 cycles

 The electronic state is 2-A.
 Alpha  occ. eigenvalues --  -38.45847 -38.45733 -38.44354 -38.44318 -38.43661
 Alpha  occ. eigenvalues --  -38.43502 -38.43338  -2.21652  -2.21520  -2.20157
 Alpha  occ. eigenvalues --   -2.20141  -2.19464  -2.19350  -2.19130  -1.15332
 Alpha  occ. eigenvalues --   -1.15314  -1.15285  -1.15196  -1.15166  -1.15145
 Alpha  occ. eigenvalues --   -1.13809  -1.13805  -1.13797  -1.13789  -1.13786
 Alpha  occ. eigenvalues --   -1.13754  -1.13139  -1.13107  -1.13106  -1.13034
 Alpha  occ. eigenvalues --   -1.13016  -1.12991  -1.12813  -1.12804  -1.12756
 Alpha  occ. eigenvalues --   -0.17022  -0.13316  -0.12353  -0.10640
 Alpha virt. eigenvalues --   -0.07910  -0.05682  -0.04048  -0.03596  -0.02848
 Alpha virt. eigenvalues --   -0.02569  -0.02128  -0.01672  -0.01299  -0.01110
 Alpha virt. eigenvalues --   -0.00894  -0.00269  -0.00110   0.00272   0.00577

  Beta  occ. eigenvalues --  -38.45823 -38.45725 -38.44335 -38.44205 -38.43622
  Beta  occ. eigenvalues --  -38.43500 -38.43345  -2.21609  -2.21508  -2.20104
  Beta  occ. eigenvalues --   -2.19947  -2.19391  -2.19351  -2.19146  -1.15305
  Beta  occ. eigenvalues --   -1.15286  -1.15240  -1.15190  -1.15143  -1.15131
  Beta  occ. eigenvalues --   -1.13785  -1.13764  -1.13761  -1.13662  -1.13654
  Beta  occ. eigenvalues --   -1.13616  -1.13094  -1.13056  -1.13056  -1.13035
  Beta  occ. eigenvalues --   -1.13013  -1.12973  -1.12828  -1.12819  -1.12736
  Beta  occ. eigenvalues --   -0.16473  -0.12881  -0.11960
  Beta virt. eigenvalues --   -0.07812  -0.07079  -0.05437  -0.03541  -0.03414
  Beta virt. eigenvalues --   -0.02473  -0.02271  -0.01830  -0.01528  -0.01076
  Beta virt. eigenvalues --   -0.00756  -0.00603  -0.00160   0.00126   0.00342

 Mulliken charges and spin densities:
               1          2
     1  Na  -1.021597   0.038070
     2  Na   0.463187   0.032146
     3  Na   0.175433   0.517482
     4  Na   0.476099   0.191944
     5  Na  -0.717870   0.172396
     6  Na   1.012114  -0.132447
     7  Na  -0.387367   0.180408
 Sum of Mulliken charges =  -0.00000   1.00000

 Dipole moment (field-independent basis, Debye):
    X=             -0.7448    Y=             -1.1397    Z=             -0.0389  Tot=              1.3620
 Quadrupole moment (field-independent basis, Debye-Ang):
   XX=            -75.4794   YY=            -61.1505   ZZ=            -64.7932
   XY=              2.7910   XZ=             -1.6723   YZ=             -1.8819

 Normal termination of Gaussian 16 at Sun Dec  3 22:28:12 2023.
