 Gaussian 16, Revision B.01,
 Gaussian 16:  ES64L-G16RevB.01 20-Dec-2017

 -------------------------
 #P B3LYP/6-311+g(d) force
 -------------------------

 -----
 DPGEN
 -----
 Symbolic Z-matrix:
 Charge =  0 Multiplicity = 2

                         Standard orientation:
 ---------------------------------------------------------------------
 Center     Atomic      Atomic             Coordinates (Angstroms)
 Number     Number       Type             X           Y           Z
 ---------------------------------------------------------------------
      1         11           0        2.058274    1.397663    1.020791
      2         11           0       -0.525957    3.115358   -0.570888
      3         11           0        0.411087   -1.312235    1.833569
      4         11           0        3.147103   -1.500552   -0.910528
      5         11           0       -2.551522    0.832296    0.481273
      6         11           0       -0.032806   -0.080758   -1.499401
      7         11           0       -2.506179   -2.451771   -0.354816
 ---------------------------------------------------------------------

 SCF Done:  E(UB3LYP) =  -1136.13451970     A.U. after   19 cycles

 The electronic state is 2-A.
 Alpha  occ. eigenvalues --  -38.44121 -38.43968 -38.43809 -38.43792 -38.43682
 Alpha  occ. eigenvalues --  -38.43363 -38.42917  -2.19921  -2.19845  -2.19677
 Alpha  occ. eigenvalues --   -2.19599  -2.19548  -2.19314  -2.18784  -1.13586
 Alpha  occ. eigenvalues --   -1.13580  -1.13547  -1.13544  -1.13515  -1.13476
 Alpha  occ. eigenvalues --   -1.13395  -1.13337  -1.13289  -1.13268  -1.13258
 Alpha  occ. eigenvalues --   -1.13238  -1.13229  -1.13189  -1.13141  -1.13013
 Alpha  occ. eigenvalues --   -1.12953  -1.12938  -1.12448  -1.12446  -1.12427
 Alpha  occ. eigenvalues --   -0.18319  -0.13107  -0.12289  -0.10757
 Alpha virt. eigenvalues --   -0.05685  -0.05421  -0.04493  -0.03452  -0.02797
 Alpha virt. eigenvalues --   -0.02376  -0.01668  -0.01363  -0.00436  -0.00251
 Alpha virt. eigenvalues --    0.00150   0.00333   0.00707   0.00765   0.00789

  Beta  occ. eigenvalues --  -38.44090 -38.43965 -38.43793 -38.43780 -38.43615
  Beta  occ. eigenvalues --  -38.43310 -38.42915  -2.19864  -2.19842  -2.19626
  Beta  occ. eigenvalues --   -2.19602  -2.19427  -2.19218  -2.18781  -1.13544
  Beta  occ. eigenvalues --   -1.13543  -1.13533  -1.13507  -1.13495  -1.13477
  Beta  occ. eigenvalues --   -1.13348  -1.13284  -1.13264  -1.13258  -1.13257
  Beta  occ. eigenvalues --   -1.13238  -1.13153  -1.13092  -1.13058  -1.12940
  Beta  occ. eigenvalues --   -1.12885  -1.12866  -1.12448  -1.12439  -1.12418
  Beta  occ. eigenvalues --   -0.17652  -0.12848  -0.12123
  Beta virt. eigenvalues --   -0.06888  -0.05531  -0.05288  -0.04412  -0.02802
  Beta virt. eigenvalues --   -0.02282  -0.01607  -0.01389  -0.01248  -0.00297
  Beta virt. eigenvalues --   -0.00151   0.00229   0.00382   0.00785   0.00808

 Mulliken charges and spin densities:
               1          2
     1  Na  -0.090308   0.237020
     2  Na   0.445851  -0.083922
     3  Na   0.016351   0.318166
     4  Na  -0.086063   0.031334
     5  Na  -0.072432   0.085425
     6  Na  -0.337399   0.442948
     7  Na   0.123999  -0.030970
 Sum of Mulliken charges =  -0.00000   1.00000

 Dipole moment (field-independent basis, Debye):
    X=              0.0378    Y=             -0.4261    Z=              0.1121  Tot=              0.4422
 Quadrupole moment (field-independent basis, Debye-Ang):
   XX=            -58.3784   YY=            -62.0644   ZZ=            -72.7059
   XY=              0.6740   XZ=             -0.9382   YZ=              1.5158

 Normal termination of Gaussian 16 at Tue Dec  5 18:09:16 2023.
