 Gaussian 16, Revision B.01,
 Gaussian 16:  ES64L-G16RevB.01 20-Dec-2017

 -------------------------
 #P B3LYP/6-311+g(d) force
 -------------------------

 -----
 DPGEN
 -----
 Symbolic Z-matrix:
 Charge =  0 Multiplicity = 2

                         Standard orientation:
 ---------------------------------------------------------------------
 Center     Atomic      Atomic             Coordinates (Angstroms)
 Number     Number       Type             X           Y           Z
 ---------------------------------------------------------------------
      1         11           0       -0.061745    0.089899   -1.736410
      2         11           0        2.148987    2.106490    0.340507
      3         11           0       -1.590964    2.715750   -0.218607
      4         11           0       -0.041252   -2.918530   -0.103175
      5         11           0       -3.224471   -0.753445   -0.096607
      6         11           0       -0.242164   -0.302546    2.141041
      7         11           0        3.011609   -0.937616   -0.326748
 ---------------------------------------------------------------------

 SCF Done:  E(UB3LYP) =  -1136.13747786     A.U. after   18 cycles

 The electronic state is 2-A.
 Alpha  occ. eigenvalues --  -38.44496 -38.43821 -38.43816 -38.43652 -38.43606
 Alpha  occ. eigenvalues --  -38.43403 -38.43358  -2.20277  -2.19672  -2.19658
 Alpha  occ. eigenvalues --   -2.19451  -2.19437  -2.19328  -2.19196  -1.13959
 Alpha  occ. eigenvalues --   -1.13932  -1.13914  -1.13350  -1.13333  -1.13326
 Alpha  occ. eigenvalues --   -1.13303  -1.13298  -1.13288  -1.13147  -1.13115
 Alpha  occ. eigenvalues --   -1.13101  -1.13100  -1.13087  -1.13066  -1.13014
 Alpha  occ. eigenvalues --   -1.12969  -1.12947  -1.12872  -1.12865  -1.12818
 Alpha  occ. eigenvalues --   -0.18240  -0.12903  -0.12270  -0.10778
 Alpha virt. eigenvalues --   -0.05896  -0.05137  -0.04719  -0.03223  -0.02927
 Alpha virt. eigenvalues --   -0.02692  -0.01657  -0.01138  -0.00502  -0.00424
 Alpha virt. eigenvalues --   -0.00043   0.00359   0.00758   0.00837   0.00882

  Beta  occ. eigenvalues --  -38.44494 -38.43816 -38.43720 -38.43650 -38.43600
  Beta  occ. eigenvalues --  -38.43352 -38.43339  -2.20277  -2.19652  -2.19492
  Beta  occ. eigenvalues --   -2.19449  -2.19428  -2.19211  -2.19189  -1.13941
  Beta  occ. eigenvalues --   -1.13935  -1.13914  -1.13348  -1.13302  -1.13297
  Beta  occ. eigenvalues --   -1.13214  -1.13177  -1.13161  -1.13135  -1.13104
  Beta  occ. eigenvalues --   -1.13096  -1.13088  -1.13074  -1.13064  -1.12941
  Beta  occ. eigenvalues --   -1.12897  -1.12863  -1.12854  -1.12833  -1.12813
  Beta  occ. eigenvalues --   -0.17512  -0.12705  -0.12043
  Beta virt. eigenvalues --   -0.06880  -0.05875  -0.05115  -0.04621  -0.02473
  Beta virt. eigenvalues --   -0.02168  -0.01654  -0.01565  -0.01062  -0.00552
  Beta virt. eigenvalues --   -0.00463   0.00106   0.00385   0.00798   0.00869

 Mulliken charges and spin densities:
               1          2
     1  Na  -0.040267   0.518712
     2  Na   0.035181   0.018088
     3  Na   0.019377  -0.083359
     4  Na   0.162535  -0.092134
     5  Na   0.101932  -0.119038
     6  Na  -0.423052   0.779343
     7  Na   0.144294  -0.021612
 Sum of Mulliken charges =  -0.00000   1.00000

 Dipole moment (field-independent basis, Debye):
    X=             -0.3785    Y=             -0.0894    Z=              0.0701  Tot=              0.3952
 Quadrupole moment (field-independent basis, Debye-Ang):
   XX=            -56.1353   YY=            -63.4039   ZZ=            -74.1638
   XY=              0.0687   XZ=              0.1898   YZ=              1.1323

 Normal termination of Gaussian 16 at Sun Dec  3 12:03:17 2023.
