 Gaussian 16, Revision B.01,
 Gaussian 16:  ES64L-G16RevB.01 20-Dec-2017

 -------------------------
 #P B3LYP/6-311+g(d) force
 -------------------------

 -----
 DPGEN
 -----
 Symbolic Z-matrix:
 Charge =  0 Multiplicity = 2

                         Standard orientation:
 ---------------------------------------------------------------------
 Center     Atomic      Atomic             Coordinates (Angstroms)
 Number     Number       Type             X           Y           Z
 ---------------------------------------------------------------------
      1         11           0        0.031460   -0.080205    2.079518
      2         11           0        1.923412    2.612467   -0.299845
      3         11           0       -2.276533   -2.228638   -0.156220
      4         11           0        1.071032   -2.164701   -1.058527
      5         11           0        3.476148   -0.797834    0.293533
      6         11           0       -3.341372    1.079744    0.199409
      7         11           0       -0.884149    1.579167   -1.057868
 ---------------------------------------------------------------------

 SCF Done:  E(UB3LYP) =  -1136.11793297     A.U. after   23 cycles

 The electronic state is 2-A.
 Alpha  occ. eigenvalues --  -38.45297 -38.45132 -38.44284 -38.44086 -38.43677
 Alpha  occ. eigenvalues --  -38.43463 -38.43408  -2.21154  -2.20934  -2.20086
 Alpha  occ. eigenvalues --   -2.19894  -2.19519  -2.19405  -2.19256  -1.14936
 Alpha  occ. eigenvalues --   -1.14778  -1.14761  -1.14640  -1.14588  -1.14561
 Alpha  occ. eigenvalues --   -1.13761  -1.13752  -1.13727  -1.13618  -1.13545
 Alpha  occ. eigenvalues --   -1.13520  -1.13188  -1.13151  -1.13128  -1.13107
 Alpha  occ. eigenvalues --   -1.13040  -1.13005  -1.12924  -1.12914  -1.12896
 Alpha  occ. eigenvalues --   -0.18029  -0.13716  -0.12239  -0.10258
 Alpha virt. eigenvalues --   -0.06983  -0.05924  -0.03992  -0.03601  -0.02781
 Alpha virt. eigenvalues --   -0.02319  -0.02159  -0.01586  -0.00863  -0.00151
 Alpha virt. eigenvalues --   -0.00033   0.00149   0.00404   0.00640   0.00687

  Beta  occ. eigenvalues --  -38.45294 -38.45133 -38.44280 -38.44082 -38.43571
  Beta  occ. eigenvalues --  -38.43437 -38.43382  -2.21151  -2.20938  -2.20080
  Beta  occ. eigenvalues --   -2.19889  -2.19358  -2.19322  -2.19208  -1.14932
  Beta  occ. eigenvalues --   -1.14771  -1.14750  -1.14641  -1.14581  -1.14561
  Beta  occ. eigenvalues --   -1.13755  -1.13735  -1.13721  -1.13612  -1.13533
  Beta  occ. eigenvalues --   -1.13514  -1.13074  -1.13057  -1.13018  -1.12994
  Beta  occ. eigenvalues --   -1.12986  -1.12972  -1.12888  -1.12882  -1.12856
  Beta  occ. eigenvalues --   -0.17396  -0.13560  -0.11968
  Beta virt. eigenvalues --   -0.06899  -0.06475  -0.05873  -0.03789  -0.02972
  Beta virt. eigenvalues --   -0.02330  -0.02020  -0.01515  -0.01196  -0.00880
  Beta virt. eigenvalues --   -0.00019   0.00083   0.00261   0.00508   0.00704

 Mulliken charges and spin densities:
               1          2
     1  Na  -0.399722   0.555858
     2  Na   0.047863  -0.053777
     3  Na  -0.033837   0.104657
     4  Na  -0.201776   0.010947
     5  Na   0.351635   0.112252
     6  Na   1.070861   0.068995
     7  Na  -0.835024   0.201068
 Sum of Mulliken charges =  -0.00000   1.00000

 Dipole moment (field-independent basis, Debye):
    X=             -0.0771    Y=              0.0245    Z=              0.3774  Tot=              0.3860
 Quadrupole moment (field-independent basis, Debye-Ang):
   XX=            -47.2303   YY=            -70.3612   ZZ=            -76.8309
   XY=              1.3606   XZ=             -0.0904   YZ=              0.8232

 Normal termination of Gaussian 16 at Sun Dec  3 17:03:40 2023.
