 Gaussian 16, Revision B.01,
 Gaussian 16:  ES64L-G16RevB.01 20-Dec-2017

 -------------------------
 #P B3LYP/6-311+g(d) force
 -------------------------

 -----
 DPGEN
 -----
 Symbolic Z-matrix:
 Charge =  0 Multiplicity = 2

                         Standard orientation:
 ---------------------------------------------------------------------
 Center     Atomic      Atomic             Coordinates (Angstroms)
 Number     Number       Type             X           Y           Z
 ---------------------------------------------------------------------
      1         11           0       -1.621475    0.932137    0.407447
      2         11           0        3.093414    0.616028   -0.100636
      3         11           0        0.589979    3.253137   -0.599087
      4         11           0        2.471035   -2.692952   -0.338015
      5         11           0       -4.576902   -0.838313    0.127846
      6         11           0       -0.774325   -0.969024   -1.465951
      7         11           0        0.818274   -0.301013    1.968395
 ---------------------------------------------------------------------

 SCF Done:  E(UB3LYP) =  -1136.11180131     A.U. after   25 cycles

 The electronic state is 2-A.
 Alpha  occ. eigenvalues --  -38.45719 -38.45156 -38.45102 -38.43569 -38.43539
 Alpha  occ. eigenvalues --  -38.43437 -38.42954  -2.21450  -2.21006  -2.20938
 Alpha  occ. eigenvalues --   -2.19489  -2.19425  -2.19349  -2.18762  -1.15134
 Alpha  occ. eigenvalues --   -1.15124  -1.15074  -1.14812  -1.14651  -1.14638
 Alpha  occ. eigenvalues --   -1.14600  -1.14566  -1.14545  -1.13241  -1.13174
 Alpha  occ. eigenvalues --   -1.13129  -1.13093  -1.13044  -1.13023  -1.13004
 Alpha  occ. eigenvalues --   -1.12988  -1.12961  -1.12435  -1.12417  -1.12393
 Alpha  occ. eigenvalues --   -0.18090  -0.13530  -0.11793  -0.10299
 Alpha virt. eigenvalues --   -0.07520  -0.05185  -0.04150  -0.03462  -0.03011
 Alpha virt. eigenvalues --   -0.02466  -0.01968  -0.01281  -0.00832  -0.00505
 Alpha virt. eigenvalues --   -0.00119   0.00090   0.00343   0.00638   0.00731

  Beta  occ. eigenvalues --  -38.45741 -38.45106 -38.45090 -38.43533 -38.43469
  Beta  occ. eigenvalues --  -38.43416 -38.42938  -2.21491  -2.20919  -2.20915
  Beta  occ. eigenvalues --   -2.19392  -2.19340  -2.19305  -2.18732  -1.15162
  Beta  occ. eigenvalues --   -1.15149  -1.15101  -1.14746  -1.14618  -1.14582
  Beta  occ. eigenvalues --   -1.14567  -1.14535  -1.14503  -1.13188  -1.13092
  Beta  occ. eigenvalues --   -1.13018  -1.13006  -1.12994  -1.12985  -1.12979
  Beta  occ. eigenvalues --   -1.12959  -1.12918  -1.12415  -1.12389  -1.12375
  Beta  occ. eigenvalues --   -0.17350  -0.13493  -0.11525
  Beta virt. eigenvalues --   -0.07380  -0.06476  -0.05054  -0.03980  -0.02984
  Beta virt. eigenvalues --   -0.02746  -0.01880  -0.01331  -0.01054  -0.00824
  Beta virt. eigenvalues --   -0.00247  -0.00040   0.00141   0.00535   0.00679

 Mulliken charges and spin densities:
               1          2
     1  Na  -0.753383   0.496649
     2  Na  -0.272243   0.308057
     3  Na   0.576039  -0.064352
     4  Na   0.066856   0.013394
     5  Na   0.219408  -0.121181
     6  Na  -0.352268   0.204766
     7  Na   0.515590   0.162667
 Sum of Mulliken charges =  -0.00000   1.00000

 Dipole moment (field-independent basis, Debye):
    X=             -0.9160    Y=             -0.6327    Z=             -0.0838  Tot=              1.1164
 Quadrupole moment (field-independent basis, Debye-Ang):
   XX=            -45.9093   YY=            -67.8689   ZZ=            -76.0283
   XY=              2.9548   XZ=             -1.2828   YZ=             -0.0311

 Normal termination of Gaussian 16 at Wed Dec  6 00:31:42 2023.
