 Gaussian 16, Revision B.01,
 Gaussian 16:  ES64L-G16RevB.01 20-Dec-2017

 -------------------------
 #P B3LYP/6-311+g(d) force
 -------------------------

 -----
 DPGEN
 -----
 Symbolic Z-matrix:
 Charge =  0 Multiplicity = 2

                         Standard orientation:
 ---------------------------------------------------------------------
 Center     Atomic      Atomic             Coordinates (Angstroms)
 Number     Number       Type             X           Y           Z
 ---------------------------------------------------------------------
      1         11           0        2.208806   -2.007937    0.228399
      2         11           0       -1.734626   -2.198051   -0.401805
      3         11           0       -3.097937    0.630333    0.002501
      4         11           0        0.415414   -0.011467   -1.558017
      5         11           0       -0.307279    2.686509    0.010601
      6         11           0       -0.312496   -0.273294    1.720319
      7         11           0        2.828119    1.173908   -0.001999
 ---------------------------------------------------------------------

 SCF Done:  E(UB3LYP) =  -1136.13376254     A.U. after   19 cycles

 The electronic state is 2-A.
 Alpha  occ. eigenvalues --  -38.44291 -38.44094 -38.43635 -38.43420 -38.43054
 Alpha  occ. eigenvalues --  -38.42947 -38.42861  -2.20161  -2.19987  -2.19521
 Alpha  occ. eigenvalues --   -2.19332  -2.19055  -2.19009  -2.18756  -1.13842
 Alpha  occ. eigenvalues --   -1.13824  -1.13805  -1.13698  -1.13639  -1.13623
 Alpha  occ. eigenvalues --   -1.13211  -1.13185  -1.13151  -1.13041  -1.13000
 Alpha  occ. eigenvalues --   -1.12956  -1.12770  -1.12684  -1.12673  -1.12664
 Alpha  occ. eigenvalues --   -1.12641  -1.12632  -1.12433  -1.12416  -1.12376
 Alpha  occ. eigenvalues --   -0.19321  -0.13719  -0.12332  -0.10515
 Alpha virt. eigenvalues --   -0.05941  -0.05261  -0.04259  -0.03343  -0.02577
 Alpha virt. eigenvalues --   -0.02078  -0.01770  -0.01087  -0.00240  -0.00137
 Alpha virt. eigenvalues --    0.00034   0.00350   0.00775   0.00896   0.00922

  Beta  occ. eigenvalues --  -38.44288 -38.44089 -38.43627 -38.43406 -38.42976
  Beta  occ. eigenvalues --  -38.42879 -38.42855  -2.20158  -2.19982  -2.19510
  Beta  occ. eigenvalues --   -2.19310  -2.18912  -2.18885  -2.18748  -1.13844
  Beta  occ. eigenvalues --   -1.13808  -1.13793  -1.13691  -1.13626  -1.13611
  Beta  occ. eigenvalues --   -1.13205  -1.13147  -1.13146  -1.13026  -1.12952
  Beta  occ. eigenvalues --   -1.12942  -1.12681  -1.12594  -1.12576  -1.12565
  Beta  occ. eigenvalues --   -1.12552  -1.12541  -1.12420  -1.12388  -1.12365
  Beta  occ. eigenvalues --   -0.18603  -0.13460  -0.12055
  Beta virt. eigenvalues --   -0.06597  -0.05890  -0.05257  -0.04248  -0.02523
  Beta virt. eigenvalues --   -0.01819  -0.01678  -0.01065  -0.01026  -0.00284
  Beta virt. eigenvalues --   -0.00170   0.00169   0.00385   0.00827   0.00898

 Mulliken charges and spin densities:
               1          2
     1  Na   0.269395  -0.035627
     2  Na   0.276213  -0.021461
     3  Na   0.129419  -0.022109
     4  Na  -0.469412   0.524691
     5  Na   0.092592  -0.104399
     6  Na  -0.512476   0.685107
     7  Na   0.214270  -0.026203
 Sum of Mulliken charges =  -0.00000   1.00000

 Dipole moment (field-independent basis, Debye):
    X=             -0.0041    Y=             -0.0300    Z=              0.1123  Tot=              0.1163
 Quadrupole moment (field-independent basis, Debye-Ang):
   XX=            -51.9581   YY=            -64.6103   ZZ=            -75.6738
   XY=             -0.4277   XZ=              1.3378   YZ=              0.5400

 Normal termination of Gaussian 16 at Tue Nov 28 20:17:28 2023.
