 Gaussian 16, Revision B.01,
 Gaussian 16:  ES64L-G16RevB.01 20-Dec-2017

 -------------------------
 #P B3LYP/6-311+g(d) force
 -------------------------

 -----
 DPGEN
 -----
 Symbolic Z-matrix:
 Charge =  0 Multiplicity = 2

                         Standard orientation:
 ---------------------------------------------------------------------
 Center     Atomic      Atomic             Coordinates (Angstroms)
 Number     Number       Type             X           Y           Z
 ---------------------------------------------------------------------
      1         11           0        0.942255   -3.281346   -0.063670
      2         11           0       -2.995213    3.190725   -0.263931
      3         11           0        1.078054    3.008306   -0.074948
      4         11           0       -2.333418   -2.550116    1.240499
      5         11           0        3.729678    1.769940    1.020224
      6         11           0        3.692048   -1.529519   -1.179133
      7         11           0       -4.113404   -0.607991   -0.679042
 ---------------------------------------------------------------------

 SCF Done:  E(UB3LYP) =  -1136.10571554     A.U. after   22 cycles

 The electronic state is 2-A.
 Alpha  occ. eigenvalues --  -38.45292 -38.44882 -38.44711 -38.44466 -38.44271
 Alpha  occ. eigenvalues --  -38.44225 -38.44175  -2.21044  -2.20654  -2.20484
 Alpha  occ. eigenvalues --   -2.20226  -2.20085  -2.19992  -2.19982  -1.14729
 Alpha  occ. eigenvalues --   -1.14719  -1.14684  -1.14322  -1.14303  -1.14281
 Alpha  occ. eigenvalues --   -1.14174  -1.14153  -1.14138  -1.13912  -1.13905
 Alpha  occ. eigenvalues --   -1.13860  -1.13738  -1.13728  -1.13709  -1.13645
 Alpha  occ. eigenvalues --   -1.13636  -1.13634  -1.13627  -1.13616  -1.13614
 Alpha  occ. eigenvalues --   -0.15388  -0.13884  -0.13129  -0.10849
 Alpha virt. eigenvalues --   -0.07462  -0.05031  -0.04608  -0.03555  -0.03274
 Alpha virt. eigenvalues --   -0.02374  -0.02260  -0.01923  -0.01186  -0.01075
 Alpha virt. eigenvalues --   -0.00770  -0.00331   0.00115   0.00379   0.00625

  Beta  occ. eigenvalues --  -38.45298 -38.44834 -38.44699 -38.44466 -38.44227
  Beta  occ. eigenvalues --  -38.44140 -38.44135  -2.21059  -2.20568  -2.20467
  Beta  occ. eigenvalues --   -2.20229  -2.20006  -2.19908  -2.19834  -1.14740
  Beta  occ. eigenvalues --   -1.14730  -1.14670  -1.14265  -1.14246  -1.14211
  Beta  occ. eigenvalues --   -1.14159  -1.14148  -1.14096  -1.13917  -1.13911
  Beta  occ. eigenvalues --   -1.13836  -1.13684  -1.13673  -1.13653  -1.13585
  Beta  occ. eigenvalues --   -1.13582  -1.13573  -1.13538  -1.13521  -1.13509
  Beta  occ. eigenvalues --   -0.14924  -0.13271  -0.12217
  Beta virt. eigenvalues --   -0.07762  -0.07612  -0.04594  -0.04228  -0.03361
  Beta virt. eigenvalues --   -0.02949  -0.02183  -0.01980  -0.01630  -0.00964
  Beta virt. eigenvalues --   -0.00847  -0.00549  -0.00050   0.00240   0.00365

 Mulliken charges and spin densities:
               1          2
     1  Na  -0.077910  -0.001672
     2  Na   0.080888   0.443174
     3  Na  -0.447090   0.080508
     4  Na  -0.123070   0.201988
     5  Na   0.320170   0.132864
     6  Na   0.200751   0.192444
     7  Na   0.046261  -0.049305
 Sum of Mulliken charges =  -0.00000   1.00000

 Dipole moment (field-independent basis, Debye):
    X=              0.3453    Y=             -0.4166    Z=             -0.0674  Tot=              0.5453
 Quadrupole moment (field-independent basis, Debye-Ang):
   XX=            -58.0526   YY=            -74.0623   ZZ=            -68.8934
   XY=              1.2868   XZ=              1.5053   YZ=             -1.0417

 Normal termination of Gaussian 16 at Mon Dec  4 04:31:16 2023.
