 Gaussian 16, Revision B.01,
 Gaussian 16:  ES64L-G16RevB.01 20-Dec-2017

 -------------------------
 #P B3LYP/6-311+g(d) force
 -------------------------

 -----
 DPGEN
 -----
 Symbolic Z-matrix:
 Charge =  0 Multiplicity = 2

                         Standard orientation:
 ---------------------------------------------------------------------
 Center     Atomic      Atomic             Coordinates (Angstroms)
 Number     Number       Type             X           Y           Z
 ---------------------------------------------------------------------
      1         11           0        5.507899   -0.506940   -0.438473
      2         11           0        2.495173   -0.909615   -0.426819
      3         11           0        0.108298    1.231390    1.922070
      4         11           0       -0.880237    4.059214   -0.575537
      5         11           0       -3.582349   -2.878234   -0.359768
      6         11           0       -2.968820    1.086314   -0.608984
      7         11           0       -0.679964   -2.082128    0.487511
 ---------------------------------------------------------------------

 SCF Done:  E(UB3LYP) =  -1136.11736352     A.U. after   20 cycles

 The electronic state is 2-A.
 Alpha  occ. eigenvalues --  -38.45111 -38.45043 -38.44481 -38.44004 -38.43893
 Alpha  occ. eigenvalues --  -38.43718 -38.43299  -2.20893  -2.20806  -2.20239
 Alpha  occ. eigenvalues --   -2.19832  -2.19703  -2.19581  -2.19131  -1.14575
 Alpha  occ. eigenvalues --   -1.14550  -1.14511  -1.14493  -1.14483  -1.14386
 Alpha  occ. eigenvalues --   -1.13913  -1.13901  -1.13860  -1.13508  -1.13458
 Alpha  occ. eigenvalues --   -1.13457  -1.13417  -1.13357  -1.13335  -1.13267
 Alpha  occ. eigenvalues --   -1.13245  -1.13177  -1.12819  -1.12799  -1.12775
 Alpha  occ. eigenvalues --   -0.16659  -0.13400  -0.12623  -0.10967
 Alpha virt. eigenvalues --   -0.06269  -0.06072  -0.04339  -0.03451  -0.02814
 Alpha virt. eigenvalues --   -0.02337  -0.01983  -0.01620  -0.01440  -0.00964
 Alpha virt. eigenvalues --   -0.00538   0.00047   0.00296   0.00416   0.00483

  Beta  occ. eigenvalues --  -38.45055 -38.45013 -38.44470 -38.43927 -38.43876
  Beta  occ. eigenvalues --  -38.43696 -38.43302  -2.20791  -2.20751  -2.20218
  Beta  occ. eigenvalues --   -2.19689  -2.19670  -2.19544  -2.19146  -1.14508
  Beta  occ. eigenvalues --   -1.14481  -1.14475  -1.14445  -1.14410  -1.14343
  Beta  occ. eigenvalues --   -1.13898  -1.13881  -1.13848  -1.13416  -1.13396
  Beta  occ. eigenvalues --   -1.13360  -1.13359  -1.13335  -1.13308  -1.13248
  Beta  occ. eigenvalues --   -1.13220  -1.13132  -1.12824  -1.12818  -1.12736
  Beta  occ. eigenvalues --   -0.16021  -0.12630  -0.12486
  Beta virt. eigenvalues --   -0.07670  -0.05981  -0.05698  -0.03949  -0.03163
  Beta virt. eigenvalues --   -0.02569  -0.02159  -0.01828  -0.01273  -0.01106
  Beta virt. eigenvalues --   -0.00596  -0.00359   0.00173   0.00389   0.00553

 Mulliken charges and spin densities:
               1          2
     1  Na   0.545332   0.141355
     2  Na  -0.717829   0.128044
     3  Na   0.098401   0.167677
     4  Na   0.103668   0.079121
     5  Na   0.766895   0.078325
     6  Na  -0.208449   0.266830
     7  Na  -0.588017   0.138650
 Sum of Mulliken charges =  -0.00000   1.00000

 Dipole moment (field-independent basis, Debye):
    X=             -0.6637    Y=              1.0957    Z=              0.4262  Tot=              1.3501
 Quadrupole moment (field-independent basis, Debye-Ang):
   XX=            -65.0105   YY=            -62.9755   ZZ=            -69.1842
   XY=              6.0068   XZ=              1.8473   YZ=             -0.1487

 Normal termination of Gaussian 16 at Sun Dec  3 15:02:53 2023.
