 Gaussian 16, Revision B.01,
 Gaussian 16:  ES64L-G16RevB.01 20-Dec-2017

 -------------------------
 #P B3LYP/6-311+g(d) force
 -------------------------

 -----
 DPGEN
 -----
 Symbolic Z-matrix:
 Charge =  0 Multiplicity = 2

                         Standard orientation:
 ---------------------------------------------------------------------
 Center     Atomic      Atomic             Coordinates (Angstroms)
 Number     Number       Type             X           Y           Z
 ---------------------------------------------------------------------
      1         11           0        0.111237   -0.081435   -1.729514
      2         11           0        1.847666   -2.111774    0.360220
      3         11           0       -0.094633    0.049679    2.058445
      4         11           0       -0.147234    3.097662   -0.167157
      5         11           0       -3.136489    0.627336    0.140536
      6         11           0        3.024530    0.821009   -0.199934
      7         11           0       -1.605078   -2.402476   -0.462596
 ---------------------------------------------------------------------

 SCF Done:  E(UB3LYP) =  -1136.13776277     A.U. after   19 cycles

 The electronic state is 2-A.
 Alpha  occ. eigenvalues --  -38.44193 -38.43990 -38.43779 -38.43524 -38.43344
 Alpha  occ. eigenvalues --  -38.43274 -38.43267  -2.19998  -2.19831  -2.19664
 Alpha  occ. eigenvalues --   -2.19316  -2.19310  -2.19178  -2.19143  -1.13676
 Alpha  occ. eigenvalues --   -1.13659  -1.13635  -1.13520  -1.13497  -1.13465
 Alpha  occ. eigenvalues --   -1.13336  -1.13291  -1.13284  -1.13027  -1.13007
 Alpha  occ. eigenvalues --   -1.12986  -1.12963  -1.12948  -1.12932  -1.12852
 Alpha  occ. eigenvalues --   -1.12830  -1.12819  -1.12805  -1.12784  -1.12761
 Alpha  occ. eigenvalues --   -0.18632  -0.13024  -0.12296  -0.10956
 Alpha virt. eigenvalues --   -0.05785  -0.04818  -0.04766  -0.03297  -0.02928
 Alpha virt. eigenvalues --   -0.02717  -0.01542  -0.01053  -0.00399  -0.00253
 Alpha virt. eigenvalues --   -0.00000   0.00368   0.00815   0.00869   0.00925

  Beta  occ. eigenvalues --  -38.44191 -38.43987 -38.43686 -38.43523 -38.43274
  Beta  occ. eigenvalues --  -38.43263 -38.43255  -2.19996  -2.19827  -2.19493
  Beta  occ. eigenvalues --   -2.19317  -2.19184  -2.19161  -2.19124  -1.13664
  Beta  occ. eigenvalues --   -1.13652  -1.13637  -1.13518  -1.13472  -1.13466
  Beta  occ. eigenvalues --   -1.13224  -1.13168  -1.13162  -1.12993  -1.12979
  Beta  occ. eigenvalues --   -1.12954  -1.12948  -1.12886  -1.12858  -1.12824
  Beta  occ. eigenvalues --   -1.12815  -1.12781  -1.12769  -1.12754  -1.12750
  Beta  occ. eigenvalues --   -0.17886  -0.12797  -0.12050
  Beta virt. eigenvalues --   -0.07023  -0.05761  -0.04811  -0.04694  -0.02506
  Beta virt. eigenvalues --   -0.02167  -0.01667  -0.01456  -0.00969  -0.00450
  Beta virt. eigenvalues --   -0.00272   0.00116   0.00388   0.00842   0.00889

 Mulliken charges and spin densities:
               1          2
     1  Na  -0.113554   0.522735
     2  Na   0.303369   0.098189
     3  Na  -0.354747   0.683269
     4  Na  -0.108790  -0.131497
     5  Na   0.000452  -0.077414
     6  Na   0.055515  -0.100108
     7  Na   0.217754   0.004826
 Sum of Mulliken charges =  -0.00000   1.00000

 Dipole moment (field-independent basis, Debye):
    X=             -0.1111    Y=              0.2302    Z=              0.1393  Tot=              0.2911
 Quadrupole moment (field-independent basis, Debye-Ang):
   XX=            -56.7689   YY=            -63.6391   ZZ=            -73.4378
   XY=              0.1243   XZ=              0.0905   YZ=             -0.2637

 Normal termination of Gaussian 16 at Tue Dec  5 16:40:33 2023.
