 Gaussian 16, Revision B.01,
 Gaussian 16:  ES64L-G16RevB.01 20-Dec-2017

 -------------------------
 #P B3LYP/6-311+g(d) force
 -------------------------

 -----
 DPGEN
 -----
 Symbolic Z-matrix:
 Charge =  0 Multiplicity = 2

                         Standard orientation:
 ---------------------------------------------------------------------
 Center     Atomic      Atomic             Coordinates (Angstroms)
 Number     Number       Type             X           Y           Z
 ---------------------------------------------------------------------
      1         11           0       -0.561412   -1.013427   -1.396173
      2         11           0        2.429610   -1.563732   -1.029826
      3         11           0       -0.398903   -0.201244    1.503066
      4         11           0        0.280733    2.279363   -0.051192
      5         11           0       -2.540660   -2.011250    0.887028
      6         11           0       -2.567220    1.861403   -0.724612
      7         11           0        3.357852    0.648887    0.811709
 ---------------------------------------------------------------------

 SCF Done:  E(UB3LYP) =  -1136.11679381     A.U. after   20 cycles

 The electronic state is 2-A.
 Alpha  occ. eigenvalues --  -38.44494 -38.44046 -38.44039 -38.43923 -38.43733
 Alpha  occ. eigenvalues --  -38.43403 -38.43007  -2.20339  -2.19978  -2.19937
 Alpha  occ. eigenvalues --   -2.19916  -2.19639  -2.19417  -2.18957  -1.14056
 Alpha  occ. eigenvalues --   -1.13991  -1.13967  -1.13762  -1.13725  -1.13651
 Alpha  occ. eigenvalues --   -1.13629  -1.13574  -1.13563  -1.13557  -1.13556
 Alpha  occ. eigenvalues --   -1.13530  -1.13287  -1.13270  -1.13243  -1.13111
 Alpha  occ. eigenvalues --   -1.13038  -1.13006  -1.12671  -1.12601  -1.12568
 Alpha  occ. eigenvalues --   -0.19054  -0.13885  -0.12212  -0.11065
 Alpha virt. eigenvalues --   -0.06316  -0.05094  -0.04211  -0.03454  -0.02808
 Alpha virt. eigenvalues --   -0.02204  -0.02027  -0.01208  -0.00429   0.00164
 Alpha virt. eigenvalues --    0.00183   0.00246   0.00608   0.00756   0.00814

  Beta  occ. eigenvalues --  -38.44481 -38.44021 -38.44011 -38.43867 -38.43708
  Beta  occ. eigenvalues --  -38.43350 -38.43000  -2.20316  -2.19885  -2.19878
  Beta  occ. eigenvalues --   -2.19874  -2.19594  -2.19323  -2.18950  -1.14040
  Beta  occ. eigenvalues --   -1.13975  -1.13943  -1.13689  -1.13649  -1.13609
  Beta  occ. eigenvalues --   -1.13592  -1.13531  -1.13523  -1.13520  -1.13511
  Beta  occ. eigenvalues --   -1.13496  -1.13253  -1.13221  -1.13214  -1.13050
  Beta  occ. eigenvalues --   -1.12957  -1.12936  -1.12667  -1.12580  -1.12549
  Beta  occ. eigenvalues --   -0.18418  -0.13633  -0.11850
  Beta virt. eigenvalues --   -0.07269  -0.06168  -0.04842  -0.03869  -0.03118
  Beta virt. eigenvalues --   -0.02265  -0.01848  -0.01351  -0.01059  -0.00135
  Beta virt. eigenvalues --    0.00163   0.00228   0.00331   0.00746   0.00839

 Mulliken charges and spin densities:
               1          2
     1  Na   0.515900   0.435417
     2  Na  -0.715923   0.051772
     3  Na  -0.374175   0.416528
     4  Na  -0.296790   0.013035
     5  Na   0.091808   0.020865
     6  Na  -0.080885   0.007464
     7  Na   0.860064   0.054919
 Sum of Mulliken charges =  -0.00000   1.00000

 Dipole moment (field-independent basis, Debye):
    X=             -0.0431    Y=              0.0702    Z=              0.0198  Tot=              0.0847
 Quadrupole moment (field-independent basis, Debye-Ang):
   XX=            -50.4433   YY=            -71.4815   ZZ=            -72.1551
   XY=              0.6036   XZ=              2.1810   YZ=              0.1209

 Normal termination of Gaussian 16 at Tue Nov 28 18:52:23 2023.
