 Gaussian 16, Revision B.01,
 Gaussian 16:  ES64L-G16RevB.01 20-Dec-2017

 -------------------------
 #P B3LYP/6-311+g(d) force
 -------------------------

 -----
 DPGEN
 -----
 Symbolic Z-matrix:
 Charge =  0 Multiplicity = 2

                         Standard orientation:
 ---------------------------------------------------------------------
 Center     Atomic      Atomic             Coordinates (Angstroms)
 Number     Number       Type             X           Y           Z
 ---------------------------------------------------------------------
      1         11           0       -0.140467   -0.106880    1.882251
      2         11           0       -2.863853    1.557245   -0.196634
      3         11           0        3.161382    0.147608    0.310211
      4         11           0       -2.575076   -1.798298    0.000972
      5         11           0        0.598803   -0.049650   -1.817029
      6         11           0        1.074714   -2.450094   -0.166698
      7         11           0        0.744496    2.700068   -0.013074
 ---------------------------------------------------------------------

 SCF Done:  E(UB3LYP) =  -1136.13498260     A.U. after   19 cycles

 The electronic state is 2-A.
 Alpha  occ. eigenvalues --  -38.44352 -38.44146 -38.43855 -38.43487 -38.43486
 Alpha  occ. eigenvalues --  -38.43078 -38.43077  -2.20217  -2.19941  -2.19677
 Alpha  occ. eigenvalues --   -2.19464  -2.19411  -2.19009  -2.18935  -1.13891
 Alpha  occ. eigenvalues --   -1.13878  -1.13858  -1.13617  -1.13608  -1.13583
 Alpha  occ. eigenvalues --   -1.13353  -1.13338  -1.13314  -1.13207  -1.13119
 Alpha  occ. eigenvalues --   -1.13089  -1.13063  -1.13049  -1.13023  -1.12694
 Alpha  occ. eigenvalues --   -1.12661  -1.12621  -1.12608  -1.12605  -1.12554
 Alpha  occ. eigenvalues --   -0.18808  -0.13303  -0.12221  -0.10777
 Alpha virt. eigenvalues --   -0.05962  -0.05286  -0.04276  -0.03344  -0.02781
 Alpha virt. eigenvalues --   -0.02521  -0.01750  -0.01027  -0.00319  -0.00253
 Alpha virt. eigenvalues --   -0.00026   0.00349   0.00778   0.00879   0.00897

  Beta  occ. eigenvalues --  -38.44344 -38.44146 -38.43855 -38.43408 -38.43405
  Beta  occ. eigenvalues --  -38.43071 -38.43065  -2.20205  -2.19943  -2.19678
  Beta  occ. eigenvalues --   -2.19320  -2.19262  -2.18992  -2.18927  -1.13883
  Beta  occ. eigenvalues --   -1.13856  -1.13839  -1.13616  -1.13602  -1.13585
  Beta  occ. eigenvalues --   -1.13344  -1.13333  -1.13319  -1.13114  -1.13017
  Beta  occ. eigenvalues --   -1.12991  -1.12962  -1.12942  -1.12911  -1.12675
  Beta  occ. eigenvalues --   -1.12618  -1.12609  -1.12600  -1.12574  -1.12552
  Beta  occ. eigenvalues --   -0.18059  -0.13107  -0.11954
  Beta virt. eigenvalues --   -0.06852  -0.05877  -0.05292  -0.04259  -0.02585
  Beta virt. eigenvalues --   -0.01990  -0.01673  -0.01448  -0.00979  -0.00367
  Beta virt. eigenvalues --   -0.00290   0.00118   0.00377   0.00847   0.00869

 Mulliken charges and spin densities:
               1          2
     1  Na  -0.290934   0.712540
     2  Na  -0.095801  -0.097331
     3  Na   0.336948   0.007224
     4  Na   0.050646  -0.108662
     5  Na  -0.241217   0.688657
     6  Na   0.311391  -0.077443
     7  Na  -0.071033  -0.124986
 Sum of Mulliken charges =  -0.00000   1.00000

 Dipole moment (field-independent basis, Debye):
    X=             -0.0414    Y=              0.0728    Z=              0.1093  Tot=              0.1377
 Quadrupole moment (field-independent basis, Debye-Ang):
   XX=            -53.5304   YY=            -65.9378   ZZ=            -74.0442
   XY=              0.1713   XZ=              1.8177   YZ=             -0.0371

 Normal termination of Gaussian 16 at Thu Dec  7 11:04:56 2023.
