 Gaussian 16, Revision B.01,
 Gaussian 16:  ES64L-G16RevB.01 20-Dec-2017

 -------------------------
 #P B3LYP/6-311+g(d) force
 -------------------------

 -----
 DPGEN
 -----
 Symbolic Z-matrix:
 Charge =  0 Multiplicity = 2

                         Standard orientation:
 ---------------------------------------------------------------------
 Center     Atomic      Atomic             Coordinates (Angstroms)
 Number     Number       Type             X           Y           Z
 ---------------------------------------------------------------------
      1         11           0       -1.201991    2.222364    1.907392
      2         11           0        1.588448   -0.709030   -1.841975
      3         11           0        2.707003   -1.403735    1.382748
      4         11           0        1.717609    2.273549   -1.143790
      5         11           0       -2.082444    0.901016   -1.295127
      6         11           0       -2.162123   -2.323981   -0.817402
      7         11           0       -0.566502   -0.960183    1.808154
 ---------------------------------------------------------------------

 SCF Done:  E(UB3LYP) =  -1136.12264541     A.U. after   24 cycles

 The electronic state is 2-A.
 Alpha  occ. eigenvalues --  -38.44385 -38.44166 -38.44088 -38.44071 -38.43827
 Alpha  occ. eigenvalues --  -38.43711 -38.43658  -2.20210  -2.19999  -2.19925
 Alpha  occ. eigenvalues --   -2.19890  -2.19662  -2.19608  -2.19463  -1.13902
 Alpha  occ. eigenvalues --   -1.13843  -1.13816  -1.13692  -1.13654  -1.13642
 Alpha  occ. eigenvalues --   -1.13634  -1.13579  -1.13575  -1.13566  -1.13531
 Alpha  occ. eigenvalues --   -1.13502  -1.13337  -1.13323  -1.13297  -1.13280
 Alpha  occ. eigenvalues --   -1.13245  -1.13225  -1.13151  -1.13114  -1.13078
 Alpha  occ. eigenvalues --   -0.17863  -0.12683  -0.12475  -0.11784
 Alpha virt. eigenvalues --   -0.05470  -0.04948  -0.04633  -0.03679  -0.03529
 Alpha virt. eigenvalues --   -0.03229  -0.01110  -0.00954  -0.00721   0.00091
 Alpha virt. eigenvalues --    0.00241   0.00364   0.00444   0.00578   0.00720

  Beta  occ. eigenvalues --  -38.44320 -38.44147 -38.44062 -38.44045 -38.43795
  Beta  occ. eigenvalues --  -38.43663 -38.43650  -2.20090  -2.19966  -2.19878
  Beta  occ. eigenvalues --   -2.19843  -2.19605  -2.19525  -2.19451  -1.13808
  Beta  occ. eigenvalues --   -1.13765  -1.13739  -1.13664  -1.13625  -1.13608
  Beta  occ. eigenvalues --   -1.13604  -1.13543  -1.13534  -1.13529  -1.13500
  Beta  occ. eigenvalues --   -1.13470  -1.13296  -1.13270  -1.13260  -1.13225
  Beta  occ. eigenvalues --   -1.13177  -1.13164  -1.13132  -1.13104  -1.13074
  Beta  occ. eigenvalues --   -0.17091  -0.12386  -0.11541
  Beta virt. eigenvalues --   -0.08576  -0.05244  -0.04555  -0.04203  -0.03395
  Beta virt. eigenvalues --   -0.03043  -0.02556  -0.00969  -0.00862  -0.00423
  Beta virt. eigenvalues --    0.00204   0.00354   0.00477   0.00546   0.00702

 Mulliken charges and spin densities:
               1          2
     1  Na  -0.054679   0.303945
     2  Na   0.001892   0.213416
     3  Na  -0.142409   0.121399
     4  Na  -0.042758  -0.087275
     5  Na  -0.259307   0.121761
     6  Na  -0.022539   0.282609
     7  Na   0.519801   0.044144
 Sum of Mulliken charges =  -0.00000   1.00000

 Dipole moment (field-independent basis, Debye):
    X=              0.0178    Y=              0.1026    Z=             -0.0208  Tot=              0.1062
 Quadrupole moment (field-independent basis, Debye-Ang):
   XX=            -66.3107   YY=            -67.4818   ZZ=            -63.8583
   XY=              0.3084   XZ=              3.2770   YZ=              3.9075

 Normal termination of Gaussian 16 at Sun Dec  3 12:09:09 2023.
