 Gaussian 16, Revision B.01,
 Gaussian 16:  ES64L-G16RevB.01 20-Dec-2017

 -------------------------
 #P B3LYP/6-311+g(d) force
 -------------------------

 -----
 DPGEN
 -----
 Symbolic Z-matrix:
 Charge =  0 Multiplicity = 2

                         Standard orientation:
 ---------------------------------------------------------------------
 Center     Atomic      Atomic             Coordinates (Angstroms)
 Number     Number       Type             X           Y           Z
 ---------------------------------------------------------------------
      1         11           0        0.460569   -1.965335   -0.166356
      2         11           0       -0.562145    1.842097   -0.220685
      3         11           0        3.498814   -2.815097    0.253084
      4         11           0        4.553104    0.407032   -0.117002
      5         11           0        2.366545    3.168782    0.217322
      6         11           0       -6.554285   -0.014075    0.282247
      7         11           0       -3.762602   -0.623404   -0.248609
 ---------------------------------------------------------------------

 SCF Done:  E(UB3LYP) =  -1136.11446671     A.U. after   21 cycles

 The electronic state is 2-A.
 Alpha  occ. eigenvalues --  -38.45373 -38.44961 -38.44698 -38.44423 -38.43985
 Alpha  occ. eigenvalues --  -38.43647 -38.43583  -2.21166  -2.20758  -2.20538
 Alpha  occ. eigenvalues --   -2.20213  -2.19805  -2.19470  -2.19386  -1.14836
 Alpha  occ. eigenvalues --   -1.14808  -1.14783  -1.14433  -1.14412  -1.14381
 Alpha  occ. eigenvalues --   -1.14257  -1.14156  -1.14155  -1.13892  -1.13881
 Alpha  occ. eigenvalues --   -1.13838  -1.13475  -1.13467  -1.13455  -1.13142
 Alpha  occ. eigenvalues --   -1.13126  -1.13122  -1.13051  -1.13045  -1.13043
 Alpha  occ. eigenvalues --   -0.16257  -0.14231  -0.12386  -0.11891
 Alpha virt. eigenvalues --   -0.06350  -0.05800  -0.04305  -0.03859  -0.02769
 Alpha virt. eigenvalues --   -0.02620  -0.02280  -0.01506  -0.01093  -0.00878
 Alpha virt. eigenvalues --   -0.00676  -0.00256  -0.00088   0.00310   0.00823

  Beta  occ. eigenvalues --  -38.45303 -38.44906 -38.44631 -38.44398 -38.43989
  Beta  occ. eigenvalues --  -38.43649 -38.43582  -2.21036  -2.20656  -2.20414
  Beta  occ. eigenvalues --   -2.20165  -2.19820  -2.19476  -2.19386  -1.14749
  Beta  occ. eigenvalues --   -1.14723  -1.14686  -1.14364  -1.14345  -1.14303
  Beta  occ. eigenvalues --   -1.14176  -1.14072  -1.14071  -1.13860  -1.13847
  Beta  occ. eigenvalues --   -1.13808  -1.13485  -1.13483  -1.13418  -1.13141
  Beta  occ. eigenvalues --   -1.13132  -1.13117  -1.13053  -1.13048  -1.13029
  Beta  occ. eigenvalues --   -0.15520  -0.13492  -0.12336
  Beta virt. eigenvalues --   -0.08576  -0.05710  -0.05199  -0.04085  -0.03666
  Beta virt. eigenvalues --   -0.02499  -0.02401  -0.01898  -0.01496  -0.00917
  Beta virt. eigenvalues --   -0.00584  -0.00264  -0.00013   0.00082   0.00380

 Mulliken charges and spin densities:
               1          2
     1  Na  -1.219231   0.168945
     2  Na  -0.406885  -0.090302
     3  Na   0.960236   0.035637
     4  Na  -0.422909   0.410732
     5  Na   0.384788   0.174243
     6  Na   0.695564   0.340038
     7  Na   0.008437  -0.039292
 Sum of Mulliken charges =  -0.00000   1.00000

 Dipole moment (field-independent basis, Debye):
    X=              0.1403    Y=             -0.0461    Z=              0.1165  Tot=              0.1881
 Quadrupole moment (field-independent basis, Debye-Ang):
   XX=            -51.0401   YY=            -68.8389   ZZ=            -73.8148
   XY=             -2.0622   XZ=             -1.1477   YZ=              0.1926

 Normal termination of Gaussian 16 at Sun Dec  3 13:49:26 2023.
