 Gaussian 16, Revision B.01,
 Gaussian 16:  ES64L-G16RevB.01 20-Dec-2017

 -------------------------
 #P B3LYP/6-311+g(d) force
 -------------------------

 -----
 DPGEN
 -----
 Symbolic Z-matrix:
 Charge =  0 Multiplicity = 2

                         Standard orientation:
 ---------------------------------------------------------------------
 Center     Atomic      Atomic             Coordinates (Angstroms)
 Number     Number       Type             X           Y           Z
 ---------------------------------------------------------------------
      1         11           0        0.150522   -0.534584   -1.225143
      2         11           0       -1.531895    1.271899    0.753757
      3         11           0        2.906907   -0.968557   -0.516943
      4         11           0        1.315113    0.414327    1.439557
      5         11           0       -2.671074   -0.850812   -0.805043
      6         11           0       -0.674169   -1.433692    1.170857
      7         11           0        0.504596    2.101419   -0.817043
 ---------------------------------------------------------------------

 SCF Done:  E(UB3LYP) =  -1136.06988385     A.U. after   22 cycles

 The electronic state is 2-A.
 Alpha  occ. eigenvalues --  -38.44353 -38.44278 -38.44030 -38.43948 -38.43913
 Alpha  occ. eigenvalues --  -38.43422 -38.43320  -2.20383  -2.20321  -2.20295
 Alpha  occ. eigenvalues --   -2.20249  -2.20151  -2.19668  -2.19430  -1.14501
 Alpha  occ. eigenvalues --   -1.14348  -1.14205  -1.14172  -1.14080  -1.14038
 Alpha  occ. eigenvalues --   -1.13991  -1.13949  -1.13871  -1.13818  -1.13802
 Alpha  occ. eigenvalues --   -1.13740  -1.13695  -1.13670  -1.13600  -1.13525
 Alpha  occ. eigenvalues --   -1.13298  -1.13238  -1.13053  -1.12992  -1.12890
 Alpha  occ. eigenvalues --   -0.21466  -0.14219  -0.12462  -0.12045
 Alpha virt. eigenvalues --   -0.05730  -0.04233  -0.03859  -0.03478  -0.02725
 Alpha virt. eigenvalues --   -0.02679  -0.01588  -0.00486  -0.00247   0.00319
 Alpha virt. eigenvalues --    0.00655   0.00770   0.01023   0.01054   0.01136

  Beta  occ. eigenvalues --  -38.44344 -38.44258 -38.43976 -38.43883 -38.43849
  Beta  occ. eigenvalues --  -38.43393 -38.43297  -2.20307  -2.20289  -2.20246
  Beta  occ. eigenvalues --   -2.20153  -2.20043  -2.19624  -2.19392  -1.14436
  Beta  occ. eigenvalues --   -1.14284  -1.14135  -1.14106  -1.14041  -1.13985
  Beta  occ. eigenvalues --   -1.13950  -1.13908  -1.13856  -1.13753  -1.13749
  Beta  occ. eigenvalues --   -1.13679  -1.13610  -1.13590  -1.13520  -1.13491
  Beta  occ. eigenvalues --   -1.13252  -1.13169  -1.13016  -1.12946  -1.12861
  Beta  occ. eigenvalues --   -0.20591  -0.13970  -0.11829
  Beta virt. eigenvalues --   -0.07986  -0.05673  -0.04043  -0.03361  -0.03162
  Beta virt. eigenvalues --   -0.02032  -0.01597  -0.01510  -0.00391  -0.00054
  Beta virt. eigenvalues --    0.00340   0.00688   0.00849   0.01040   0.01074

 Mulliken charges and spin densities:
               1          2
     1  Na  -0.792388   0.288229
     2  Na  -0.127801   0.273849
     3  Na  -0.326045   0.026236
     4  Na   0.090585  -0.032962
     5  Na   1.056408  -0.107504
     6  Na  -0.023162   0.408829
     7  Na   0.122403   0.143323
 Sum of Mulliken charges =  -0.00000   1.00000

 Dipole moment (field-independent basis, Debye):
    X=              0.2440    Y=             -0.0467    Z=             -0.2221  Tot=              0.3333
 Quadrupole moment (field-independent basis, Debye-Ang):
   XX=            -54.3877   YY=            -73.9575   ZZ=            -66.6889
   XY=             -0.3201   XZ=              0.1668   YZ=              0.1552

 Normal termination of Gaussian 16 at Sat Dec  9 07:14:41 2023.
