 Gaussian 16, Revision B.01,
 Gaussian 16:  ES64L-G16RevB.01 20-Dec-2017

 -------------------------
 #P B3LYP/6-311+g(d) force
 -------------------------

 -----
 DPGEN
 -----
 Symbolic Z-matrix:
 Charge =  0 Multiplicity = 2

                         Standard orientation:
 ---------------------------------------------------------------------
 Center     Atomic      Atomic             Coordinates (Angstroms)
 Number     Number       Type             X           Y           Z
 ---------------------------------------------------------------------
      1         11           0        0.203012    0.099611   -0.003261
      2         11           0        3.739914   -1.133727   -0.381300
      3         11           0       -3.245563   -2.000416   -1.121573
      4         11           0        2.734383    1.998255   -0.625551
      5         11           0        1.128213   -2.860568    1.206028
      6         11           0       -3.844006    0.549660    0.383906
      7         11           0       -0.715952    3.347185    0.541751
 ---------------------------------------------------------------------

 SCF Done:  E(UB3LYP) =  -1136.12220306     A.U. after   21 cycles

 The electronic state is 2-A.
 Alpha  occ. eigenvalues --  -38.44600 -38.44234 -38.44202 -38.43808 -38.43664
 Alpha  occ. eigenvalues --  -38.43569 -38.43504  -2.20411  -2.20067  -2.20021
 Alpha  occ. eigenvalues --   -2.19666  -2.19567  -2.19399  -2.19301  -1.14129
 Alpha  occ. eigenvalues --   -1.14075  -1.14039  -1.13746  -1.13743  -1.13692
 Alpha  occ. eigenvalues --   -1.13670  -1.13662  -1.13644  -1.13388  -1.13333
 Alpha  occ. eigenvalues --   -1.13292  -1.13269  -1.13207  -1.13195  -1.13052
 Alpha  occ. eigenvalues --   -1.13037  -1.13013  -1.12968  -1.12952  -1.12925
 Alpha  occ. eigenvalues --   -0.16920  -0.14036  -0.12404  -0.10412
 Alpha virt. eigenvalues --   -0.06427  -0.05109  -0.04443  -0.03398  -0.03187
 Alpha virt. eigenvalues --   -0.02398  -0.01767  -0.01322  -0.00936  -0.00535
 Alpha virt. eigenvalues --   -0.00147   0.00079   0.00192   0.00626   0.00710

  Beta  occ. eigenvalues --  -38.44588 -38.44205 -38.44169 -38.43765 -38.43652
  Beta  occ. eigenvalues --  -38.43510 -38.43475  -2.20392  -2.20018  -2.19961
  Beta  occ. eigenvalues --   -2.19590  -2.19547  -2.19288  -2.19247  -1.14106
  Beta  occ. eigenvalues --   -1.14065  -1.14011  -1.13716  -1.13704  -1.13630
  Beta  occ. eigenvalues --   -1.13629  -1.13621  -1.13597  -1.13350  -1.13286
  Beta  occ. eigenvalues --   -1.13266  -1.13209  -1.13179  -1.13168  -1.12976
  Beta  occ. eigenvalues --   -1.12963  -1.12947  -1.12930  -1.12912  -1.12895
  Beta  occ. eigenvalues --   -0.16460  -0.13359  -0.11970
  Beta virt. eigenvalues --   -0.07029  -0.06352  -0.04883  -0.04163  -0.02992
  Beta virt. eigenvalues --   -0.02667  -0.02247  -0.01528  -0.01117  -0.00752
  Beta virt. eigenvalues --   -0.00246   0.00148   0.00199   0.00331   0.00627

 Mulliken charges and spin densities:
               1          2
     1  Na  -3.286004  -0.057974
     2  Na   0.700917   0.208221
     3  Na   0.174909   0.167357
     4  Na   0.600746   0.378794
     5  Na   0.616014   0.184452
     6  Na   0.609382   0.045252
     7  Na   0.584036   0.073897
 Sum of Mulliken charges =  -0.00000   1.00000

 Dipole moment (field-independent basis, Debye):
    X=             -0.2164    Y=             -0.1383    Z=              0.1543  Tot=              0.2997
 Quadrupole moment (field-independent basis, Debye-Ang):
   XX=            -63.9447   YY=            -61.4629   ZZ=            -70.3819
   XY=             -4.9048   XZ=             -2.1435   YZ=              2.7351

 Normal termination of Gaussian 16 at Wed Nov 29 17:00:16 2023.
