 Gaussian 16, Revision B.01,
 Gaussian 16:  ES64L-G16RevB.01 20-Dec-2017

 -------------------------
 #P B3LYP/6-311+g(d) force
 -------------------------

 -----
 DPGEN
 -----
 Symbolic Z-matrix:
 Charge =  0 Multiplicity = 2

                         Standard orientation:
 ---------------------------------------------------------------------
 Center     Atomic      Atomic             Coordinates (Angstroms)
 Number     Number       Type             X           Y           Z
 ---------------------------------------------------------------------
      1         11           0        0.758873   -0.634595    2.103310
      2         11           0       -2.692016    0.701029   -1.026125
      3         11           0        3.865183   -1.104117   -0.218282
      4         11           0       -1.071457    2.890744    0.842403
      5         11           0        1.793855    1.696451   -0.659495
      6         11           0        0.107390   -1.084841   -1.500915
      7         11           0       -2.761828   -2.464670    0.459104
 ---------------------------------------------------------------------

 SCF Done:  E(UB3LYP) =  -1136.12718905     A.U. after   21 cycles

 The electronic state is 2-A.
 Alpha  occ. eigenvalues --  -38.44860 -38.44273 -38.44117 -38.44109 -38.43954
 Alpha  occ. eigenvalues --  -38.43914 -38.42831  -2.20629  -2.20085  -2.19982
 Alpha  occ. eigenvalues --   -2.19957  -2.19771  -2.19727  -2.18655  -1.14306
 Alpha  occ. eigenvalues --   -1.14295  -1.14256  -1.13755  -1.13715  -1.13708
 Alpha  occ. eigenvalues --   -1.13696  -1.13664  -1.13643  -1.13629  -1.13579
 Alpha  occ. eigenvalues --   -1.13554  -1.13470  -1.13446  -1.13404  -1.13385
 Alpha  occ. eigenvalues --   -1.13367  -1.13360  -1.12332  -1.12304  -1.12301
 Alpha  occ. eigenvalues --   -0.17812  -0.13339  -0.11718  -0.10785
 Alpha virt. eigenvalues --   -0.06452  -0.05585  -0.04304  -0.03325  -0.02943
 Alpha virt. eigenvalues --   -0.02586  -0.02259  -0.01339  -0.00543  -0.00327
 Alpha virt. eigenvalues --    0.00097   0.00215   0.00443   0.00692   0.00736

  Beta  occ. eigenvalues --  -38.44861 -38.44176 -38.44094 -38.44075 -38.43955
  Beta  occ. eigenvalues --  -38.43898 -38.42825  -2.20633  -2.19930  -2.19908
  Beta  occ. eigenvalues --   -2.19902  -2.19745  -2.19731  -2.18645  -1.14310
  Beta  occ. eigenvalues --   -1.14283  -1.14260  -1.13669  -1.13637  -1.13615
  Beta  occ. eigenvalues --   -1.13607  -1.13587  -1.13574  -1.13570  -1.13559
  Beta  occ. eigenvalues --   -1.13513  -1.13448  -1.13408  -1.13407  -1.13378
  Beta  occ. eigenvalues --   -1.13362  -1.13349  -1.12327  -1.12297  -1.12284
  Beta  occ. eigenvalues --   -0.17099  -0.13187  -0.11583
  Beta virt. eigenvalues --   -0.06928  -0.06307  -0.05420  -0.04063  -0.02883
  Beta virt. eigenvalues --   -0.02324  -0.02121  -0.01708  -0.01151  -0.00499
  Beta virt. eigenvalues --   -0.00173   0.00167   0.00264   0.00579   0.00755

 Mulliken charges and spin densities:
               1          2
     1  Na  -0.620445   0.692093
     2  Na   0.152341   0.038558
     3  Na   0.468498  -0.009487
     4  Na   0.220923   0.009857
     5  Na  -0.100919   0.046211
     6  Na  -0.189214   0.301473
     7  Na   0.068816  -0.078705
 Sum of Mulliken charges =  -0.00000   1.00000

 Dipole moment (field-independent basis, Debye):
    X=              0.7426    Y=             -0.6591    Z=             -0.0069  Tot=              0.9929
 Quadrupole moment (field-independent basis, Debye-Ang):
   XX=            -51.9543   YY=            -69.1634   ZZ=            -72.5165
   XY=             -1.3729   XZ=             -1.2430   YZ=             -0.9981

 Normal termination of Gaussian 16 at Thu Dec  7 05:25:44 2023.
