 Gaussian 16, Revision B.01,
 Gaussian 16:  ES64L-G16RevB.01 20-Dec-2017

 -------------------------
 #P B3LYP/6-311+g(d) force
 -------------------------

 -----
 DPGEN
 -----
 Symbolic Z-matrix:
 Charge =  0 Multiplicity = 2

                         Standard orientation:
 ---------------------------------------------------------------------
 Center     Atomic      Atomic             Coordinates (Angstroms)
 Number     Number       Type             X           Y           Z
 ---------------------------------------------------------------------
      1         11           0        4.432266    0.897967   -0.229282
      2         11           0        3.292462   -3.046481    0.150952
      3         11           0        1.607585    3.520496   -0.698150
      4         11           0       -0.079438   -3.101674    0.437603
      5         11           0       -1.254950    2.934995    1.155537
      6         11           0       -4.339147    0.855649   -0.203558
      7         11           0       -3.658778   -2.060953   -0.613102
 ---------------------------------------------------------------------

 SCF Done:  E(UB3LYP) =  -1136.10333264     A.U. after   21 cycles

 The electronic state is 2-A.
 Alpha  occ. eigenvalues --  -38.45159 -38.44755 -38.44698 -38.44619 -38.44590
 Alpha  occ. eigenvalues --  -38.44580 -38.44274  -2.20959  -2.20491  -2.20445
 Alpha  occ. eigenvalues --   -2.20406  -2.20385  -2.20349  -2.20055  -1.14667
 Alpha  occ. eigenvalues --   -1.14617  -1.14596  -1.14180  -1.14169  -1.14138
 Alpha  occ. eigenvalues --   -1.14125  -1.14119  -1.14098  -1.14061  -1.14054
 Alpha  occ. eigenvalues --   -1.14043  -1.14039  -1.14018  -1.14018  -1.14009
 Alpha  occ. eigenvalues --   -1.13998  -1.13955  -1.13710  -1.13701  -1.13675
 Alpha  occ. eigenvalues --   -0.15365  -0.13746  -0.13208  -0.10846
 Alpha virt. eigenvalues --   -0.07761  -0.05304  -0.04477  -0.03581  -0.03264
 Alpha virt. eigenvalues --   -0.02581  -0.02279  -0.01871  -0.01334  -0.00938
 Alpha virt. eigenvalues --   -0.00740  -0.00307  -0.00075   0.00343   0.00509

  Beta  occ. eigenvalues --  -38.45144 -38.44773 -38.44705 -38.44566 -38.44540
  Beta  occ. eigenvalues --  -38.44520 -38.44211  -2.20934  -2.20530  -2.20463
  Beta  occ. eigenvalues --   -2.20363  -2.20276  -2.20201  -2.19938  -1.14639
  Beta  occ. eigenvalues --   -1.14604  -1.14568  -1.14211  -1.14199  -1.14140
  Beta  occ. eigenvalues --   -1.14131  -1.14128  -1.14088  -1.14030  -1.14026
  Beta  occ. eigenvalues --   -1.14006  -1.13969  -1.13961  -1.13913  -1.13905
  Beta  occ. eigenvalues --   -1.13895  -1.13876  -1.13630  -1.13623  -1.13600
  Beta  occ. eigenvalues --   -0.14882  -0.13005  -0.12658
  Beta virt. eigenvalues --   -0.07854  -0.07635  -0.04787  -0.04039  -0.03409
  Beta virt. eigenvalues --   -0.02895  -0.02446  -0.02077  -0.01674  -0.01253
  Beta virt. eigenvalues --   -0.00661  -0.00388  -0.00134   0.00182   0.00406

 Mulliken charges and spin densities:
               1          2
     1  Na  -0.074789   0.517180
     2  Na   0.269570  -0.105727
     3  Na   0.050550  -0.101495
     4  Na  -0.437365   0.202669
     5  Na  -0.237086   0.301562
     6  Na  -0.031121   0.074052
     7  Na   0.460241   0.111759
 Sum of Mulliken charges =  -0.00000   1.00000

 Dipole moment (field-independent basis, Debye):
    X=             -0.7709    Y=             -0.1838    Z=             -0.1348  Tot=              0.8039
 Quadrupole moment (field-independent basis, Debye-Ang):
   XX=            -60.7992   YY=            -67.6230   ZZ=            -72.3521
   XY=             -3.5311   XZ=             -0.7108   YZ=             -0.7784

 Normal termination of Gaussian 16 at Sun Dec  3 16:42:19 2023.
