 Gaussian 16, Revision B.01,
 Gaussian 16:  ES64L-G16RevB.01 20-Dec-2017

 -------------------------
 #P B3LYP/6-311+g(d) force
 -------------------------

 -----
 DPGEN
 -----
 Symbolic Z-matrix:
 Charge =  0 Multiplicity = 2

                         Standard orientation:
 ---------------------------------------------------------------------
 Center     Atomic      Atomic             Coordinates (Angstroms)
 Number     Number       Type             X           Y           Z
 ---------------------------------------------------------------------
      1         11           0       -0.106079   -0.823856   -0.884313
      2         11           0        0.049761   -0.378763    2.051606
      3         11           0       -2.989450    1.209254    0.553142
      4         11           0        0.049654    2.592207   -1.086691
      5         11           0        3.160052   -2.084006   -0.412657
      6         11           0       -3.381693   -1.766804   -0.534449
      7         11           0        3.217754    1.251967    0.313363
 ---------------------------------------------------------------------

 SCF Done:  E(UB3LYP) =  -1136.11604042     A.U. after   26 cycles

 The electronic state is 2-A.
 Alpha  occ. eigenvalues --  -38.45323 -38.45029 -38.44343 -38.44153 -38.44116
 Alpha  occ. eigenvalues --  -38.43820 -38.42573  -2.21102  -2.20853  -2.20274
 Alpha  occ. eigenvalues --   -2.19982  -2.19911  -2.19708  -2.18391  -1.14789
 Alpha  occ. eigenvalues --   -1.14751  -1.14740  -1.14533  -1.14516  -1.14498
 Alpha  occ. eigenvalues --   -1.14087  -1.13922  -1.13874  -1.13650  -1.13631
 Alpha  occ. eigenvalues --   -1.13609  -1.13583  -1.13571  -1.13546  -1.13399
 Alpha  occ. eigenvalues --   -1.13301  -1.13286  -1.12090  -1.12032  -1.12022
 Alpha  occ. eigenvalues --   -0.18083  -0.14035  -0.11295  -0.10348
 Alpha virt. eigenvalues --   -0.07116  -0.06239  -0.03754  -0.03501  -0.02837
 Alpha virt. eigenvalues --   -0.02211  -0.02032  -0.01921  -0.00902  -0.00308
 Alpha virt. eigenvalues --   -0.00083   0.00136   0.00474   0.00513   0.00546

  Beta  occ. eigenvalues --  -38.45323 -38.45026 -38.44329 -38.44128 -38.44111
  Beta  occ. eigenvalues --  -38.43701 -38.42556  -2.21103  -2.20851  -2.20254
  Beta  occ. eigenvalues --   -2.19936  -2.19902  -2.19488  -2.18360  -1.14774
  Beta  occ. eigenvalues --   -1.14754  -1.14744  -1.14523  -1.14502  -1.14492
  Beta  occ. eigenvalues --   -1.14025  -1.13912  -1.13865  -1.13620  -1.13596
  Beta  occ. eigenvalues --   -1.13577  -1.13575  -1.13560  -1.13538  -1.13255
  Beta  occ. eigenvalues --   -1.13151  -1.13131  -1.12068  -1.12007  -1.12002
  Beta  occ. eigenvalues --   -0.17427  -0.13781  -0.11094
  Beta virt. eigenvalues --   -0.06968  -0.06571  -0.06128  -0.03510  -0.02948
  Beta virt. eigenvalues --   -0.02675  -0.01950  -0.01631  -0.01173  -0.00821
  Beta virt. eigenvalues --   -0.00122   0.00065   0.00190   0.00522   0.00618

 Mulliken charges and spin densities:
               1          2
     1  Na  -0.711314   0.388705
     2  Na  -0.291368   0.422216
     3  Na   0.465127   0.152441
     4  Na  -0.122912  -0.098649
     5  Na   0.152138   0.001012
     6  Na   0.141216   0.042975
     7  Na   0.367113   0.091301
 Sum of Mulliken charges =  -0.00000   1.00000

 Dipole moment (field-independent basis, Debye):
    X=              0.1753    Y=              0.0535    Z=              0.6190  Tot=              0.6456
 Quadrupole moment (field-independent basis, Debye-Ang):
   XX=            -49.0206   YY=            -70.7651   ZZ=            -74.3633
   XY=             -0.6084   XZ=             -0.0452   YZ=              3.0934

 Normal termination of Gaussian 16 at Tue Dec  5 14:31:54 2023.
