 Gaussian 16, Revision B.01,
 Gaussian 16:  ES64L-G16RevB.01 20-Dec-2017

 -------------------------
 #P B3LYP/6-311+g(d) force
 -------------------------

 -----
 DPGEN
 -----
 Symbolic Z-matrix:
 Charge =  0 Multiplicity = 2

                         Standard orientation:
 ---------------------------------------------------------------------
 Center     Atomic      Atomic             Coordinates (Angstroms)
 Number     Number       Type             X           Y           Z
 ---------------------------------------------------------------------
      1         11           0       -1.483906    1.957031    0.692542
      2         11           0       -3.491572   -0.626125   -0.741833
      3         11           0        0.391391    0.242804   -1.422807
      4         11           0        1.651313    2.653521   -0.524278
      5         11           0       -1.042812   -1.595836    1.307850
      6         11           0        2.056958   -2.706745   -0.701657
      7         11           0        1.918628    0.075349    1.390184
 ---------------------------------------------------------------------

 SCF Done:  E(UB3LYP) =  -1136.13126033     A.U. after   20 cycles

 The electronic state is 2-A.
 Alpha  occ. eigenvalues --  -38.44018 -38.43882 -38.43625 -38.43463 -38.43400
 Alpha  occ. eigenvalues --  -38.43384 -38.43208  -2.19827  -2.19754  -2.19438
 Alpha  occ. eigenvalues --   -2.19395  -2.19334  -2.19288  -2.19248  -1.13500
 Alpha  occ. eigenvalues --   -1.13484  -1.13480  -1.13458  -1.13428  -1.13353
 Alpha  occ. eigenvalues --   -1.13255  -1.13115  -1.13103  -1.13090  -1.13076
 Alpha  occ. eigenvalues --   -1.13051  -1.12999  -1.12985  -1.12970  -1.12950
 Alpha  occ. eigenvalues --   -1.12914  -1.12902  -1.12879  -1.12840  -1.12809
 Alpha  occ. eigenvalues --   -0.18767  -0.13074  -0.12495  -0.10604
 Alpha virt. eigenvalues --   -0.05635  -0.05249  -0.04507  -0.03235  -0.02966
 Alpha virt. eigenvalues --   -0.02130  -0.01508  -0.01309  -0.00530  -0.00010
 Alpha virt. eigenvalues --    0.00270   0.00337   0.00719   0.00800   0.00830

  Beta  occ. eigenvalues --  -38.44009 -38.43870 -38.43611 -38.43454 -38.43366
  Beta  occ. eigenvalues --  -38.43339 -38.43152  -2.19811  -2.19733  -2.19413
  Beta  occ. eigenvalues --   -2.19381  -2.19255  -2.19229  -2.19149  -1.13489
  Beta  occ. eigenvalues --   -1.13469  -1.13465  -1.13447  -1.13385  -1.13343
  Beta  occ. eigenvalues --   -1.13224  -1.13087  -1.13083  -1.13057  -1.13051
  Beta  occ. eigenvalues --   -1.13007  -1.12983  -1.12942  -1.12908  -1.12879
  Beta  occ. eigenvalues --   -1.12862  -1.12842  -1.12826  -1.12772  -1.12749
  Beta  occ. eigenvalues --   -0.18041  -0.12898  -0.12261
  Beta virt. eigenvalues --   -0.06736  -0.05493  -0.05104  -0.04400  -0.02722
  Beta virt. eigenvalues --   -0.02335  -0.01423  -0.01255  -0.01190  -0.00209
  Beta virt. eigenvalues --   -0.00006   0.00312   0.00397   0.00763   0.00848

 Mulliken charges and spin densities:
               1          2
     1  Na  -0.137302   0.107997
     2  Na   0.170490  -0.047655
     3  Na  -0.828261   0.529311
     4  Na   0.988614  -0.038251
     5  Na  -0.098789   0.168090
     6  Na  -0.045252  -0.082462
     7  Na  -0.049500   0.362970
 Sum of Mulliken charges =  -0.00000   1.00000

 Dipole moment (field-independent basis, Debye):
    X=             -0.3206    Y=             -0.0087    Z=              0.0784  Tot=              0.3302
 Quadrupole moment (field-independent basis, Debye-Ang):
   XX=            -57.9771   YY=            -61.7678   ZZ=            -72.1185
   XY=              0.5809   XZ=              1.2982   YZ=              1.8001

 Normal termination of Gaussian 16 at Tue Dec  5 16:38:45 2023.
