 Gaussian 16, Revision B.01,
 Gaussian 16:  ES64L-G16RevB.01 20-Dec-2017

 -------------------------
 #P B3LYP/6-311+g(d) force
 -------------------------

 -----
 DPGEN
 -----
 Symbolic Z-matrix:
 Charge =  0 Multiplicity = 2

                         Standard orientation:
 ---------------------------------------------------------------------
 Center     Atomic      Atomic             Coordinates (Angstroms)
 Number     Number       Type             X           Y           Z
 ---------------------------------------------------------------------
      1         11           0        1.381757   -2.496208   -0.784477
      2         11           0        0.634594    3.112782   -0.226600
      3         11           0       -2.464286   -2.228855    0.299472
      4         11           0        0.350185    0.113153    2.185903
      5         11           0       -0.295122    0.447827   -1.354840
      6         11           0        3.426294   -0.114116    0.067813
      7         11           0       -3.033422    1.165417   -0.187273
 ---------------------------------------------------------------------

 SCF Done:  E(UB3LYP) =  -1136.12848094     A.U. after   19 cycles

 The electronic state is 2-A.
 Alpha  occ. eigenvalues --  -38.44655 -38.44594 -38.43887 -38.43836 -38.43612
 Alpha  occ. eigenvalues --  -38.43435 -38.43108  -2.20450  -2.20422  -2.19674
 Alpha  occ. eigenvalues --   -2.19671  -2.19433  -2.19272  -2.19105  -1.14145
 Alpha  occ. eigenvalues --   -1.14121  -1.14119  -1.14088  -1.14076  -1.14031
 Alpha  occ. eigenvalues --   -1.13343  -1.13336  -1.13327  -1.13324  -1.13298
 Alpha  occ. eigenvalues --   -1.13285  -1.13180  -1.13082  -1.13053  -1.12963
 Alpha  occ. eigenvalues --   -1.12922  -1.12904  -1.12782  -1.12749  -1.12720
 Alpha  occ. eigenvalues --   -0.18065  -0.13144  -0.12128  -0.10523
 Alpha virt. eigenvalues --   -0.06177  -0.05381  -0.04588  -0.03217  -0.02753
 Alpha virt. eigenvalues --   -0.02467  -0.01898  -0.01324  -0.00645  -0.00419
 Alpha virt. eigenvalues --   -0.00039   0.00309   0.00727   0.00739   0.00795

  Beta  occ. eigenvalues --  -38.44655 -38.44590 -38.43884 -38.43732 -38.43610
  Beta  occ. eigenvalues --  -38.43414 -38.43064  -2.20452  -2.20416  -2.19669
  Beta  occ. eigenvalues --   -2.19480  -2.19431  -2.19235  -2.19027  -1.14136
  Beta  occ. eigenvalues --   -1.14125  -1.14102  -1.14088  -1.14062  -1.14029
  Beta  occ. eigenvalues --   -1.13328  -1.13325  -1.13323  -1.13207  -1.13172
  Beta  occ. eigenvalues --   -1.13165  -1.13146  -1.13071  -1.13049  -1.12932
  Beta  occ. eigenvalues --   -1.12893  -1.12875  -1.12718  -1.12693  -1.12667
  Beta  occ. eigenvalues --   -0.17395  -0.12938  -0.11903
  Beta virt. eigenvalues --   -0.06661  -0.06124  -0.05296  -0.04494  -0.02514
  Beta virt. eigenvalues --   -0.02089  -0.01822  -0.01424  -0.01245  -0.00677
  Beta virt. eigenvalues --   -0.00397   0.00128   0.00357   0.00739   0.00803

 Mulliken charges and spin densities:
               1          2
     1  Na   0.058628   0.109488
     2  Na  -0.030484  -0.031098
     3  Na  -0.026907   0.063121
     4  Na  -0.466559   0.789433
     5  Na   0.151345   0.053511
     6  Na   0.138262   0.007053
     7  Na   0.175716   0.008492
 Sum of Mulliken charges =  -0.00000   1.00000

 Dipole moment (field-independent basis, Debye):
    X=              0.0039    Y=              0.2497    Z=              0.2503  Tot=              0.3536
 Quadrupole moment (field-independent basis, Debye-Ang):
   XX=            -53.5013   YY=            -63.1987   ZZ=            -76.1181
   XY=              1.1402   XZ=             -0.7419   YZ=              0.5405

 Normal termination of Gaussian 16 at Thu Dec  7 07:04:22 2023.
