 Gaussian 16, Revision B.01,
 Gaussian 16:  ES64L-G16RevB.01 20-Dec-2017

 -------------------------
 #P B3LYP/6-311+g(d) force
 -------------------------

 -----
 DPGEN
 -----
 Symbolic Z-matrix:
 Charge =  0 Multiplicity = 2

                         Standard orientation:
 ---------------------------------------------------------------------
 Center     Atomic      Atomic             Coordinates (Angstroms)
 Number     Number       Type             X           Y           Z
 ---------------------------------------------------------------------
      1         11           0        0.106616   -0.894256   -1.943565
      2         11           0       -0.696341    0.589891    2.049315
      3         11           0        0.533798   -2.350093    0.792344
      4         11           0        2.818240   -0.522189   -0.267971
      5         11           0        1.339507    2.253937    0.460448
      6         11           0       -1.322426    1.906458   -1.154048
      7         11           0       -2.779393   -0.983748    0.063476
 ---------------------------------------------------------------------

 SCF Done:  E(UB3LYP) =  -1136.13182014     A.U. after   19 cycles

 The electronic state is 2-A.
 Alpha  occ. eigenvalues --  -38.44104 -38.43946 -38.43631 -38.43485 -38.43427
 Alpha  occ. eigenvalues --  -38.43381 -38.42913  -2.20056  -2.19916  -2.19558
 Alpha  occ. eigenvalues --   -2.19355  -2.19339  -2.19312  -2.18844  -1.13733
 Alpha  occ. eigenvalues --   -1.13702  -1.13678  -1.13602  -1.13586  -1.13541
 Alpha  occ. eigenvalues --   -1.13247  -1.13203  -1.13186  -1.13083  -1.13035
 Alpha  occ. eigenvalues --   -1.13014  -1.13009  -1.12992  -1.12989  -1.12969
 Alpha  occ. eigenvalues --   -1.12962  -1.12876  -1.12533  -1.12496  -1.12467
 Alpha  occ. eigenvalues --   -0.19386  -0.12927  -0.12462  -0.12152
 Alpha virt. eigenvalues --   -0.05079  -0.04466  -0.04202  -0.03814  -0.03511
 Alpha virt. eigenvalues --   -0.03424  -0.01074  -0.00604  -0.00271   0.00398
 Alpha virt. eigenvalues --    0.00433   0.00483   0.00921   0.00945   0.00972

  Beta  occ. eigenvalues --  -38.44025 -38.43877 -38.43594 -38.43482 -38.43424
  Beta  occ. eigenvalues --  -38.43362 -38.42906  -2.19912  -2.19790  -2.19493
  Beta  occ. eigenvalues --   -2.19353  -2.19336  -2.19280  -2.18835  -1.13638
  Beta  occ. eigenvalues --   -1.13600  -1.13573  -1.13524  -1.13484  -1.13453
  Beta  occ. eigenvalues --   -1.13202  -1.13151  -1.13132  -1.13074  -1.13025
  Beta  occ. eigenvalues --   -1.13004  -1.13000  -1.12982  -1.12973  -1.12948
  Beta  occ. eigenvalues --   -1.12925  -1.12860  -1.12519  -1.12474  -1.12462
  Beta  occ. eigenvalues --   -0.18568  -0.12709  -0.12246
  Beta virt. eigenvalues --   -0.08052  -0.05018  -0.04363  -0.04093  -0.03177
  Beta virt. eigenvalues --   -0.02715  -0.02309  -0.01024  -0.00545  -0.00067
  Beta virt. eigenvalues --    0.00407   0.00463   0.00480   0.00938   0.00985

 Mulliken charges and spin densities:
               1          2
     1  Na  -0.170343   0.331256
     2  Na  -0.320758   0.368768
     3  Na   0.113660   0.153005
     4  Na   0.014570  -0.058445
     5  Na   0.257528   0.155014
     6  Na  -0.064968   0.143106
     7  Na   0.170311  -0.092704
 Sum of Mulliken charges =  -0.00000   1.00000

 Dipole moment (field-independent basis, Debye):
    X=             -0.3041    Y=             -0.1838    Z=             -0.0053  Tot=              0.3553
 Quadrupole moment (field-independent basis, Debye-Ang):
   XX=            -62.3513   YY=            -69.1165   ZZ=            -65.7251
   XY=              0.4942   XZ=              0.5737   YZ=             -1.9163

 Normal termination of Gaussian 16 at Mon Dec  4 05:17:40 2023.
