 Gaussian 16, Revision B.01,
 Gaussian 16:  ES64L-G16RevB.01 20-Dec-2017

 -------------------------
 #P B3LYP/6-311+g(d) force
 -------------------------

 -----
 DPGEN
 -----
 Symbolic Z-matrix:
 Charge =  0 Multiplicity = 2

                         Standard orientation:
 ---------------------------------------------------------------------
 Center     Atomic      Atomic             Coordinates (Angstroms)
 Number     Number       Type             X           Y           Z
 ---------------------------------------------------------------------
      1         11           0        3.380886    0.017942    0.174431
      2         11           0        0.643167    2.989390   -0.049798
      3         11           0        0.379531    0.034264    1.647481
      4         11           0       -2.528477   -2.286779    0.158541
      5         11           0        0.921665   -2.529613   -0.272447
      6         11           0       -3.248641    1.688667   -0.058990
      7         11           0        0.451869    0.086128   -1.599219
 ---------------------------------------------------------------------

 SCF Done:  E(UB3LYP) =  -1136.12523440     A.U. after   22 cycles

 The electronic state is 2-A.
 Alpha  occ. eigenvalues --  -38.44966 -38.44611 -38.44143 -38.43837 -38.43232
 Alpha  occ. eigenvalues --  -38.43222 -38.43047  -2.20682  -2.20449  -2.19910
 Alpha  occ. eigenvalues --   -2.19658  -2.19184  -2.19169  -2.19048  -1.14369
 Alpha  occ. eigenvalues --   -1.14336  -1.14321  -1.14121  -1.14107  -1.14089
 Alpha  occ. eigenvalues --   -1.13587  -1.13564  -1.13559  -1.13355  -1.13337
 Alpha  occ. eigenvalues --   -1.13269  -1.13010  -1.12907  -1.12855  -1.12787
 Alpha  occ. eigenvalues --   -1.12776  -1.12759  -1.12707  -1.12646  -1.12630
 Alpha  occ. eigenvalues --   -0.18494  -0.12774  -0.12481  -0.10073
 Alpha virt. eigenvalues --   -0.06411  -0.05624  -0.04674  -0.02754  -0.02664
 Alpha virt. eigenvalues --   -0.02102  -0.01911  -0.01380  -0.00881  -0.00543
 Alpha virt. eigenvalues --   -0.00010   0.00260   0.00656   0.00780   0.00814

  Beta  occ. eigenvalues --  -38.44973 -38.44598 -38.44144 -38.43829 -38.43214
  Beta  occ. eigenvalues --  -38.43151 -38.42970  -2.20696  -2.20431  -2.19914
  Beta  occ. eigenvalues --   -2.19646  -2.19143  -2.19054  -2.18908  -1.14373
  Beta  occ. eigenvalues --   -1.14346  -1.14331  -1.14103  -1.14082  -1.14067
  Beta  occ. eigenvalues --   -1.13579  -1.13568  -1.13563  -1.13347  -1.13305
  Beta  occ. eigenvalues --   -1.13264  -1.12966  -1.12826  -1.12781  -1.12750
  Beta  occ. eigenvalues --   -1.12700  -1.12684  -1.12611  -1.12551  -1.12534
  Beta  occ. eigenvalues --   -0.17762  -0.12603  -0.12229
  Beta virt. eigenvalues --   -0.06387  -0.06149  -0.05568  -0.04653  -0.02150
  Beta virt. eigenvalues --   -0.01995  -0.01912  -0.01332  -0.00941  -0.00909
  Beta virt. eigenvalues --   -0.00557   0.00153   0.00311   0.00679   0.00798

 Mulliken charges and spin densities:
               1          2
     1  Na   0.392800  -0.034559
     2  Na  -0.200092  -0.202873
     3  Na  -0.172098   0.832078
     4  Na  -0.220982  -0.105841
     5  Na   0.258753   0.026647
     6  Na  -0.173457  -0.111926
     7  Na   0.115075   0.596474
 Sum of Mulliken charges =  -0.00000   1.00000

 Dipole moment (field-independent basis, Debye):
    X=             -0.0203    Y=              0.3443    Z=              0.0551  Tot=              0.3493
 Quadrupole moment (field-independent basis, Debye-Ang):
   XX=            -50.1373   YY=            -61.6419   ZZ=            -78.5313
   XY=              0.3171   XZ=              0.0475   YZ=             -0.0538

 Normal termination of Gaussian 16 at Tue Dec  5 12:52:01 2023.
