 Gaussian 16, Revision B.01,
 Gaussian 16:  ES64L-G16RevB.01 20-Dec-2017

 -------------------------
 #P B3LYP/6-311+g(d) force
 -------------------------

 -----
 DPGEN
 -----
 Symbolic Z-matrix:
 Charge =  0 Multiplicity = 2

                         Standard orientation:
 ---------------------------------------------------------------------
 Center     Atomic      Atomic             Coordinates (Angstroms)
 Number     Number       Type             X           Y           Z
 ---------------------------------------------------------------------
      1         11           0        2.563212   -1.699111    0.409714
      2         11           0        2.539297    1.590732   -0.220931
      3         11           0        0.432773   -0.241766   -1.809621
      4         11           0        0.018582   -0.117968    1.875079
      5         11           0       -0.865526    2.814952    0.032419
      6         11           0       -1.221951   -2.350688   -0.314767
      7         11           0       -3.466386    0.003850    0.028107
 ---------------------------------------------------------------------

 SCF Done:  E(UB3LYP) =  -1136.13444247     A.U. after   20 cycles

 The electronic state is 2-A.
 Alpha  occ. eigenvalues --  -38.44645 -38.43804 -38.43779 -38.43578 -38.43480
 Alpha  occ. eigenvalues --  -38.43190 -38.43173  -2.20435  -2.19678  -2.19652
 Alpha  occ. eigenvalues --   -2.19505  -2.19450  -2.19082  -2.18996  -1.14105
 Alpha  occ. eigenvalues --   -1.14104  -1.14073  -1.13404  -1.13364  -1.13330
 Alpha  occ. eigenvalues --   -1.13319  -1.13303  -1.13264  -1.13190  -1.13151
 Alpha  occ. eigenvalues --   -1.13137  -1.13114  -1.13087  -1.13048  -1.12768
 Alpha  occ. eigenvalues --   -1.12741  -1.12687  -1.12677  -1.12668  -1.12627
 Alpha  occ. eigenvalues --   -0.18773  -0.13318  -0.12135  -0.10867
 Alpha virt. eigenvalues --   -0.06116  -0.05105  -0.04293  -0.03349  -0.02748
 Alpha virt. eigenvalues --   -0.02592  -0.01839  -0.01057  -0.00363  -0.00171
 Alpha virt. eigenvalues --   -0.00016   0.00328   0.00750   0.00857   0.00895

  Beta  occ. eigenvalues --  -38.44649 -38.43795 -38.43766 -38.43496 -38.43400
  Beta  occ. eigenvalues --  -38.43190 -38.43160  -2.20443  -2.19665  -2.19632
  Beta  occ. eigenvalues --   -2.19355  -2.19304  -2.19063  -2.18998  -1.14113
  Beta  occ. eigenvalues --   -1.14098  -1.14078  -1.13390  -1.13334  -1.13306
  Beta  occ. eigenvalues --   -1.13299  -1.13270  -1.13256  -1.13096  -1.13052
  Beta  occ. eigenvalues --   -1.13033  -1.13003  -1.12987  -1.12949  -1.12747
  Beta  occ. eigenvalues --   -1.12697  -1.12677  -1.12672  -1.12661  -1.12629
  Beta  occ. eigenvalues --   -0.18029  -0.13102  -0.11880
  Beta virt. eigenvalues --   -0.06920  -0.06053  -0.05102  -0.04255  -0.02587
  Beta virt. eigenvalues --   -0.01993  -0.01757  -0.01520  -0.00994  -0.00390
  Beta virt. eigenvalues --   -0.00194   0.00109   0.00358   0.00814   0.00883

 Mulliken charges and spin densities:
               1          2
     1  Na   0.312419   0.000098
     2  Na   0.106496  -0.054219
     3  Na  -0.067604   0.609040
     4  Na  -0.360148   0.749947
     5  Na  -0.141068  -0.142668
     6  Na   0.315227  -0.049240
     7  Na  -0.165322  -0.112958
 Sum of Mulliken charges =  -0.00000   1.00000

 Dipole moment (field-independent basis, Debye):
    X=             -0.1623    Y=             -0.0095    Z=              0.0980  Tot=              0.1898
 Quadrupole moment (field-independent basis, Debye-Ang):
   XX=            -52.5543   YY=            -66.8555   ZZ=            -74.0070
   XY=             -0.9093   XZ=              0.5724   YZ=             -0.5789

 Normal termination of Gaussian 16 at Thu Dec  7 02:03:26 2023.
