 Gaussian 16, Revision B.01,
 Gaussian 16:  ES64L-G16RevB.01 20-Dec-2017

 -------------------------
 #P B3LYP/6-311+g(d) force
 -------------------------

 -----
 DPGEN
 -----
 Symbolic Z-matrix:
 Charge =  0 Multiplicity = 2

                         Standard orientation:
 ---------------------------------------------------------------------
 Center     Atomic      Atomic             Coordinates (Angstroms)
 Number     Number       Type             X           Y           Z
 ---------------------------------------------------------------------
      1         11           0        1.270209   -2.586808   -0.538323
      2         11           0        3.170962    0.269885   -0.075014
      3         11           0        0.772555    2.660268    0.012711
      4         11           0       -0.329693   -0.051848   -1.577477
      5         11           0       -2.971813   -1.481181    0.195558
      6         11           0       -2.280264    1.692384   -0.091848
      7         11           0        0.368045   -0.502700    2.074393
 ---------------------------------------------------------------------

 SCF Done:  E(UB3LYP) =  -1136.13321862     A.U. after   21 cycles

 The electronic state is 2-A.
 Alpha  occ. eigenvalues --  -38.44425 -38.44245 -38.43737 -38.43566 -38.43480
 Alpha  occ. eigenvalues --  -38.43200 -38.42806  -2.20258  -2.20060  -2.19608
 Alpha  occ. eigenvalues --   -2.19493  -2.19344  -2.19219  -2.18697  -1.13927
 Alpha  occ. eigenvalues --   -1.13921  -1.13902  -1.13739  -1.13723  -1.13698
 Alpha  occ. eigenvalues --   -1.13277  -1.13262  -1.13244  -1.13221  -1.13140
 Alpha  occ. eigenvalues --   -1.13116  -1.13071  -1.12993  -1.12964  -1.12885
 Alpha  occ. eigenvalues --   -1.12838  -1.12822  -1.12377  -1.12358  -1.12335
 Alpha  occ. eigenvalues --   -0.18788  -0.13402  -0.12251  -0.10771
 Alpha virt. eigenvalues --   -0.06075  -0.05063  -0.04365  -0.03382  -0.02795
 Alpha virt. eigenvalues --   -0.02524  -0.01797  -0.01000  -0.00398  -0.00105
 Alpha virt. eigenvalues --   -0.00026   0.00344   0.00785   0.00840   0.00893

  Beta  occ. eigenvalues --  -38.44422 -38.44242 -38.43646 -38.43561 -38.43463
  Beta  occ. eigenvalues --  -38.43137 -38.42802  -2.20256  -2.20058  -2.19486
  Beta  occ. eigenvalues --   -2.19440  -2.19317  -2.19105  -2.18693  -1.13923
  Beta  occ. eigenvalues --   -1.13908  -1.13897  -1.13740  -1.13707  -1.13696
  Beta  occ. eigenvalues --   -1.13244  -1.13167  -1.13132  -1.13127  -1.13104
  Beta  occ. eigenvalues --   -1.13099  -1.13038  -1.12956  -1.12947  -1.12808
  Beta  occ. eigenvalues --   -1.12761  -1.12743  -1.12375  -1.12353  -1.12314
  Beta  occ. eigenvalues --   -0.18073  -0.13186  -0.12004
  Beta virt. eigenvalues --   -0.06856  -0.06010  -0.05038  -0.04321  -0.02615
  Beta virt. eigenvalues --   -0.02052  -0.01698  -0.01453  -0.00930  -0.00449
  Beta virt. eigenvalues --   -0.00132   0.00132   0.00374   0.00846   0.00853

 Mulliken charges and spin densities:
               1          2
     1  Na   0.209540  -0.034830
     2  Na   0.227656   0.024081
     3  Na   0.041443  -0.006099
     4  Na  -0.224590   0.243671
     5  Na   0.153525  -0.011412
     6  Na   0.245909   0.083013
     7  Na  -0.653483   0.701578
 Sum of Mulliken charges =  -0.00000   1.00000

 Dipole moment (field-independent basis, Debye):
    X=              0.0705    Y=             -0.3939    Z=              0.2384  Tot=              0.4658
 Quadrupole moment (field-independent basis, Debye-Ang):
   XX=            -53.9311   YY=            -65.4570   ZZ=            -74.2219
   XY=              1.2035   XZ=             -1.2938   YZ=              0.6243

 Normal termination of Gaussian 16 at Thu Dec  7 11:38:18 2023.
