 Gaussian 16, Revision B.01,
 Gaussian 16:  ES64L-G16RevB.01 20-Dec-2017

 -------------------------
 #P B3LYP/6-311+g(d) force
 -------------------------

 -----
 DPGEN
 -----
 Symbolic Z-matrix:
 Charge =  0 Multiplicity = 2

                         Standard orientation:
 ---------------------------------------------------------------------
 Center     Atomic      Atomic             Coordinates (Angstroms)
 Number     Number       Type             X           Y           Z
 ---------------------------------------------------------------------
      1         11           0        2.371641   -1.942254   -0.273934
      2         11           0       -0.357713    0.034459   -1.715296
      3         11           0       -1.458244   -2.557230   -0.058058
      4         11           0       -2.737168    0.384270    0.154844
      5         11           0        2.538935    1.219367    0.090869
      6         11           0        0.032283   -0.093154    2.006285
      7         11           0       -0.389734    2.954541   -0.204710
 ---------------------------------------------------------------------

 SCF Done:  E(UB3LYP) =  -1136.13826444     A.U. after   19 cycles

 The electronic state is 2-A.
 Alpha  occ. eigenvalues --  -38.43620 -38.43591 -38.43568 -38.43519 -38.43475
 Alpha  occ. eigenvalues --  -38.43278 -38.43242  -2.19518  -2.19510  -2.19458
 Alpha  occ. eigenvalues --   -2.19399  -2.19364  -2.19288  -2.19110  -1.13286
 Alpha  occ. eigenvalues --   -1.13215  -1.13191  -1.13168  -1.13159  -1.13141
 Alpha  occ. eigenvalues --   -1.13126  -1.13116  -1.13099  -1.13082  -1.13046
 Alpha  occ. eigenvalues --   -1.13029  -1.13026  -1.13011  -1.12981  -1.12951
 Alpha  occ. eigenvalues --   -1.12909  -1.12901  -1.12772  -1.12758  -1.12749
 Alpha  occ. eigenvalues --   -0.19117  -0.13144  -0.12588  -0.11005
 Alpha virt. eigenvalues --   -0.05201  -0.05012  -0.04835  -0.03309  -0.02944
 Alpha virt. eigenvalues --   -0.02665  -0.01161  -0.01155  -0.00175  -0.00101
 Alpha virt. eigenvalues --    0.00005   0.00377   0.00897   0.00919   0.00930

  Beta  occ. eigenvalues --  -38.43617 -38.43557 -38.43513 -38.43498 -38.43470
  Beta  occ. eigenvalues --  -38.43237 -38.43207  -2.19496  -2.19455  -2.19393
  Beta  occ. eigenvalues --   -2.19359  -2.19345  -2.19159  -2.19105  -1.13266
  Beta  occ. eigenvalues --   -1.13177  -1.13156  -1.13145  -1.13108  -1.13100
  Beta  occ. eigenvalues --   -1.13074  -1.13068  -1.13047  -1.13027  -1.13010
  Beta  occ. eigenvalues --   -1.13010  -1.13001  -1.12983  -1.12979  -1.12875
  Beta  occ. eigenvalues --   -1.12832  -1.12812  -1.12752  -1.12748  -1.12732
  Beta  occ. eigenvalues --   -0.18358  -0.12891  -0.12339
  Beta virt. eigenvalues --   -0.07046  -0.05195  -0.04980  -0.04807  -0.02457
  Beta virt. eigenvalues --   -0.02172  -0.01593  -0.01087  -0.01086  -0.00228
  Beta virt. eigenvalues --   -0.00134   0.00124   0.00392   0.00908   0.00925

 Mulliken charges and spin densities:
               1          2
     1  Na  -0.014071  -0.091887
     2  Na  -0.420222   0.596465
     3  Na   0.147754  -0.095674
     4  Na   0.449103   0.020043
     5  Na   0.144862  -0.027151
     6  Na  -0.468964   0.659594
     7  Na   0.161538  -0.061390
 Sum of Mulliken charges =  -0.00000   1.00000

 Dipole moment (field-independent basis, Debye):
    X=              0.0054    Y=             -0.1546    Z=              0.1289  Tot=              0.2013
 Quadrupole moment (field-independent basis, Debye-Ang):
   XX=            -60.9332   YY=            -60.4943   ZZ=            -73.0141
   XY=             -0.1505   XZ=             -0.8028   YZ=              0.4079

 Normal termination of Gaussian 16 at Thu Dec  7 10:36:51 2023.
