 Gaussian 16, Revision B.01,
 Gaussian 16:  ES64L-G16RevB.01 20-Dec-2017

 -------------------------
 #P B3LYP/6-311+g(d) force
 -------------------------

 -----
 DPGEN
 -----
 Symbolic Z-matrix:
 Charge =  0 Multiplicity = 2

                         Standard orientation:
 ---------------------------------------------------------------------
 Center     Atomic      Atomic             Coordinates (Angstroms)
 Number     Number       Type             X           Y           Z
 ---------------------------------------------------------------------
      1         11           0       -0.793641    2.774783    0.250220
      2         11           0       -2.963219    0.356003   -0.447706
      3         11           0       -1.350943   -2.674005    0.264580
      4         11           0        0.371133   -0.224264    1.886640
      5         11           0        2.435253   -1.708267   -0.392082
      6         11           0        0.010160   -0.222106   -1.342398
      7         11           0        2.291257    1.697855   -0.219255
 ---------------------------------------------------------------------

 SCF Done:  E(UB3LYP) =  -1136.13517585     A.U. after   19 cycles

 The electronic state is 2-A.
 Alpha  occ. eigenvalues --  -38.43755 -38.43672 -38.43646 -38.43545 -38.43262
 Alpha  occ. eigenvalues --  -38.43191 -38.42764  -2.19656  -2.19535  -2.19519
 Alpha  occ. eigenvalues --   -2.19459  -2.19158  -2.19143  -2.18895  -1.13399
 Alpha  occ. eigenvalues --   -1.13310  -1.13271  -1.13243  -1.13216  -1.13207
 Alpha  occ. eigenvalues --   -1.13174  -1.13171  -1.13168  -1.13127  -1.13119
 Alpha  occ. eigenvalues --   -1.13086  -1.12862  -1.12813  -1.12805  -1.12785
 Alpha  occ. eigenvalues --   -1.12773  -1.12755  -1.12567  -1.12529  -1.12506
 Alpha  occ. eigenvalues --   -0.19265  -0.13157  -0.12798  -0.10629
 Alpha virt. eigenvalues --   -0.05375  -0.05058  -0.04821  -0.02996  -0.02880
 Alpha virt. eigenvalues --   -0.02215  -0.01366  -0.01243  -0.00272  -0.00108
 Alpha virt. eigenvalues --    0.00062   0.00354   0.00871   0.00901   0.00915

  Beta  occ. eigenvalues --  -38.43740 -38.43665 -38.43636 -38.43537 -38.43258
  Beta  occ. eigenvalues --  -38.43100 -38.42709  -2.19633  -2.19524  -2.19503
  Beta  occ. eigenvalues --   -2.19448  -2.19138  -2.18991  -2.18798  -1.13378
  Beta  occ. eigenvalues --   -1.13282  -1.13249  -1.13233  -1.13203  -1.13177
  Beta  occ. eigenvalues --   -1.13167  -1.13161  -1.13149  -1.13119  -1.13093
  Beta  occ. eigenvalues --   -1.13069  -1.12813  -1.12795  -1.12765  -1.12747
  Beta  occ. eigenvalues --   -1.12660  -1.12635  -1.12488  -1.12452  -1.12441
  Beta  occ. eigenvalues --   -0.18556  -0.12856  -0.12542
  Beta virt. eigenvalues --   -0.06707  -0.05354  -0.05005  -0.04790  -0.02242
  Beta virt. eigenvalues --   -0.02111  -0.01293  -0.01176  -0.01146  -0.00276
  Beta virt. eigenvalues --   -0.00152   0.00178   0.00393   0.00880   0.00914

 Mulliken charges and spin densities:
               1          2
     1  Na   0.085611   0.045411
     2  Na   0.174581   0.029728
     3  Na   0.169470   0.012399
     4  Na  -0.400137   0.694071
     5  Na   0.390065   0.021585
     6  Na  -0.675410   0.143867
     7  Na   0.255821   0.052939
 Sum of Mulliken charges =  -0.00000   1.00000

 Dipole moment (field-independent basis, Debye):
    X=              0.0490    Y=             -0.2214    Z=              0.2350  Tot=              0.3266
 Quadrupole moment (field-independent basis, Debye-Ang):
   XX=            -57.6903   YY=            -59.5359   ZZ=            -75.0513
   XY=              0.0952   XZ=             -0.6101   YZ=              0.0416

 Normal termination of Gaussian 16 at Tue Nov 28 23:18:10 2023.
