 Gaussian 16, Revision B.01,
 Gaussian 16:  ES64L-G16RevB.01 20-Dec-2017

 -------------------------
 #P B3LYP/6-311+g(d) force
 -------------------------

 -----
 DPGEN
 -----
 Symbolic Z-matrix:
 Charge =  0 Multiplicity = 2

                         Standard orientation:
 ---------------------------------------------------------------------
 Center     Atomic      Atomic             Coordinates (Angstroms)
 Number     Number       Type             X           Y           Z
 ---------------------------------------------------------------------
      1         11           0       -1.916399   -1.478912   -1.779288
      2         11           0        0.536612   -2.366918    0.056360
      3         11           0        3.251796   -0.251012   -0.214127
      4         11           0        1.191947    0.626003    2.315022
      5         11           0        1.657860    1.366785   -1.367653
      6         11           0       -1.947247    2.511613   -0.592061
      7         11           0       -2.774570   -0.407559    1.581747
 ---------------------------------------------------------------------

 SCF Done:  E(UB3LYP) =  -1136.11216528     A.U. after   22 cycles

 The electronic state is 2-A.
 Alpha  occ. eigenvalues --  -38.45208 -38.45044 -38.44797 -38.44570 -38.44164
 Alpha  occ. eigenvalues --  -38.43425 -38.42867  -2.20972  -2.20865  -2.20774
 Alpha  occ. eigenvalues --   -2.20478  -2.19982  -2.19183  -2.18716  -1.14953
 Alpha  occ. eigenvalues --   -1.14646  -1.14620  -1.14606  -1.14523  -1.14502
 Alpha  occ. eigenvalues --   -1.14496  -1.14353  -1.14347  -1.14067  -1.14057
 Alpha  occ. eigenvalues --   -1.13924  -1.13665  -1.13627  -1.13606  -1.12861
 Alpha  occ. eigenvalues --   -1.12843  -1.12829  -1.12411  -1.12385  -1.12348
 Alpha  occ. eigenvalues --   -0.17974  -0.13670  -0.11617  -0.11310
 Alpha virt. eigenvalues --   -0.06255  -0.05250  -0.05096  -0.03497  -0.03286
 Alpha virt. eigenvalues --   -0.02824  -0.01631  -0.00818  -0.00615  -0.00274
 Alpha virt. eigenvalues --    0.00011   0.00148   0.00348   0.00432   0.00704

  Beta  occ. eigenvalues --  -38.45189 -38.44960 -38.44790 -38.44531 -38.44134
  Beta  occ. eigenvalues --  -38.43424 -38.42861  -2.20938  -2.20762  -2.20709
  Beta  occ. eigenvalues --   -2.20409  -2.19926  -2.19182  -2.18709  -1.14925
  Beta  occ. eigenvalues --   -1.14611  -1.14598  -1.14586  -1.14425  -1.14398
  Beta  occ. eigenvalues --   -1.14386  -1.14342  -1.14314  -1.14021  -1.14002
  Beta  occ. eigenvalues --   -1.13888  -1.13625  -1.13588  -1.13567  -1.12851
  Beta  occ. eigenvalues --   -1.12844  -1.12829  -1.12402  -1.12358  -1.12348
  Beta  occ. eigenvalues --   -0.17274  -0.13496  -0.11120
  Beta virt. eigenvalues --   -0.07881  -0.05827  -0.05101  -0.04543  -0.03301
  Beta virt. eigenvalues --   -0.02575  -0.02184  -0.01531  -0.00573  -0.00324
  Beta virt. eigenvalues --   -0.00120   0.00150   0.00217   0.00418   0.00532

 Mulliken charges and spin densities:
               1          2
     1  Na   0.258904   0.088668
     2  Na  -0.447989   0.143847
     3  Na   1.364396   0.083588
     4  Na  -0.239777   0.451023
     5  Na  -0.838829   0.140498
     6  Na  -0.107390   0.007957
     7  Na   0.010685   0.084419
 Sum of Mulliken charges =  -0.00000   1.00000

 Dipole moment (field-independent basis, Debye):
    X=             -0.1331    Y=             -0.1961    Z=              0.6032  Tot=              0.6481
 Quadrupole moment (field-independent basis, Debye-Ang):
   XX=            -57.4570   YY=            -77.4358   ZZ=            -64.1342
   XY=              0.2360   XZ=             -0.2977   YZ=             -0.4734

 Normal termination of Gaussian 16 at Tue Dec  5 19:29:57 2023.
