 Gaussian 16, Revision B.01,
 Gaussian 16:  ES64L-G16RevB.01 20-Dec-2017

 -------------------------
 #P B3LYP/6-311+g(d) force
 -------------------------

 -----
 DPGEN
 -----
 Symbolic Z-matrix:
 Charge =  0 Multiplicity = 2

                         Standard orientation:
 ---------------------------------------------------------------------
 Center     Atomic      Atomic             Coordinates (Angstroms)
 Number     Number       Type             X           Y           Z
 ---------------------------------------------------------------------
      1         11           0        0.356279   -0.014087   -1.271250
      2         11           0       -2.657508    0.726593    1.061387
      3         11           0        3.741370   -0.986818   -0.499711
      4         11           0        1.111585    1.142870    1.608978
      5         11           0       -2.413398   -1.787933   -1.424487
      6         11           0       -0.048639    3.046607   -0.879616
      7         11           0       -0.089688   -2.127232    1.404700
 ---------------------------------------------------------------------

 SCF Done:  E(UB3LYP) =  -1136.12815686     A.U. after   22 cycles

 The electronic state is 2-A.
 Alpha  occ. eigenvalues --  -38.44555 -38.44376 -38.43967 -38.43624 -38.43604
 Alpha  occ. eigenvalues --  -38.43062 -38.42918  -2.20352  -2.20123  -2.19803
 Alpha  occ. eigenvalues --   -2.19528  -2.19445  -2.18935  -2.18915  -1.14034
 Alpha  occ. eigenvalues --   -1.14012  -1.13974  -1.13803  -1.13786  -1.13746
 Alpha  occ. eigenvalues --   -1.13508  -1.13465  -1.13401  -1.13254  -1.13183
 Alpha  occ. eigenvalues --   -1.13133  -1.13120  -1.13086  -1.13062  -1.12700
 Alpha  occ. eigenvalues --   -1.12640  -1.12564  -1.12546  -1.12532  -1.12500
 Alpha  occ. eigenvalues --   -0.18283  -0.12620  -0.11854  -0.11208
 Alpha virt. eigenvalues --   -0.06198  -0.04676  -0.04497  -0.03179  -0.02863
 Alpha virt. eigenvalues --   -0.02590  -0.01983  -0.00960  -0.00719   0.00111
 Alpha virt. eigenvalues --    0.00215   0.00276   0.00351   0.00718   0.00749

  Beta  occ. eigenvalues --  -38.44536 -38.44374 -38.43930 -38.43585 -38.43570
  Beta  occ. eigenvalues --  -38.43049 -38.42869  -2.20320  -2.20120  -2.19738
  Beta  occ. eigenvalues --   -2.19458  -2.19382  -2.18896  -2.18847  -1.13996
  Beta  occ. eigenvalues --   -1.13985  -1.13958  -1.13795  -1.13784  -1.13745
  Beta  occ. eigenvalues --   -1.13464  -1.13395  -1.13362  -1.13212  -1.13108
  Beta  occ. eigenvalues --   -1.13079  -1.13073  -1.13044  -1.13021  -1.12661
  Beta  occ. eigenvalues --   -1.12566  -1.12544  -1.12516  -1.12485  -1.12455
  Beta  occ. eigenvalues --   -0.17506  -0.12426  -0.11672
  Beta virt. eigenvalues --   -0.07309  -0.06039  -0.04432  -0.04225  -0.02812
  Beta virt. eigenvalues --   -0.02376  -0.01960  -0.01566  -0.00895  -0.00345
  Beta virt. eigenvalues --    0.00108   0.00275   0.00331   0.00440   0.00737

 Mulliken charges and spin densities:
               1          2
     1  Na  -0.683469   0.499139
     2  Na  -0.163884   0.165074
     3  Na   0.037113  -0.044198
     4  Na   0.298204   0.366158
     5  Na   0.476856  -0.069432
     6  Na   0.166145  -0.106572
     7  Na  -0.130965   0.189831
 Sum of Mulliken charges =  -0.00000   1.00000

 Dipole moment (field-independent basis, Debye):
    X=             -0.1606    Y=             -0.1283    Z=              0.3855  Tot=              0.4369
 Quadrupole moment (field-independent basis, Debye-Ang):
   XX=            -56.7426   YY=            -66.7747   ZZ=            -67.9426
   XY=             -0.8256   XZ=             -0.6734   YZ=              0.0903

 Normal termination of Gaussian 16 at Tue Dec  5 15:25:50 2023.
