 Gaussian 16, Revision B.01,
 Gaussian 16:  ES64L-G16RevB.01 20-Dec-2017

 -------------------------
 #P B3LYP/6-311+g(d) force
 -------------------------

 -----
 DPGEN
 -----
 Symbolic Z-matrix:
 Charge =  0 Multiplicity = 2

                         Standard orientation:
 ---------------------------------------------------------------------
 Center     Atomic      Atomic             Coordinates (Angstroms)
 Number     Number       Type             X           Y           Z
 ---------------------------------------------------------------------
      1         11           0       -1.878894    3.161496   -0.515761
      2         11           0        0.624744   -0.443018   -0.772210
      3         11           0        4.217539   -0.213546   -1.128856
      4         11           0        2.191220    1.056374    1.377534
      5         11           0       -1.416201    0.503906    1.503078
      6         11           0       -0.754062   -2.966252    0.896951
      7         11           0       -2.984346   -1.098960   -1.360735
 ---------------------------------------------------------------------

 SCF Done:  E(UB3LYP) =  -1136.12369893     A.U. after   22 cycles

 The electronic state is 2-A.
 Alpha  occ. eigenvalues --  -38.44516 -38.44262 -38.44055 -38.43895 -38.43551
 Alpha  occ. eigenvalues --  -38.43452 -38.43234  -2.20322  -2.20115  -2.19858
 Alpha  occ. eigenvalues --   -2.19846  -2.19382  -2.19220  -2.19169  -1.14004
 Alpha  occ. eigenvalues --   -1.13967  -1.13920  -1.13881  -1.13766  -1.13720
 Alpha  occ. eigenvalues --   -1.13580  -1.13519  -1.13512  -1.13505  -1.13473
 Alpha  occ. eigenvalues --   -1.13436  -1.13057  -1.13043  -1.13000  -1.12903
 Alpha  occ. eigenvalues --   -1.12891  -1.12871  -1.12870  -1.12814  -1.12755
 Alpha  occ. eigenvalues --   -0.17903  -0.13491  -0.11573  -0.10652
 Alpha virt. eigenvalues --   -0.05876  -0.05707  -0.04656  -0.03226  -0.02643
 Alpha virt. eigenvalues --   -0.02167  -0.01982  -0.01273  -0.01052  -0.00217
 Alpha virt. eigenvalues --    0.00030   0.00185   0.00296   0.00553   0.00714

  Beta  occ. eigenvalues --  -38.44461 -38.44242 -38.44012 -38.43885 -38.43536
  Beta  occ. eigenvalues --  -38.43453 -38.43197  -2.20219  -2.20083  -2.19833
  Beta  occ. eigenvalues --   -2.19777  -2.19355  -2.19222  -2.19106  -1.13930
  Beta  occ. eigenvalues --   -1.13900  -1.13860  -1.13846  -1.13741  -1.13673
  Beta  occ. eigenvalues --   -1.13530  -1.13497  -1.13466  -1.13455  -1.13445
  Beta  occ. eigenvalues --   -1.13411  -1.13042  -1.13015  -1.12977  -1.12903
  Beta  occ. eigenvalues --   -1.12880  -1.12864  -1.12841  -1.12747  -1.12707
  Beta  occ. eigenvalues --   -0.17212  -0.13086  -0.11458
  Beta virt. eigenvalues --   -0.07137  -0.05582  -0.05215  -0.04428  -0.02943
  Beta virt. eigenvalues --   -0.02206  -0.01970  -0.01473  -0.01140  -0.00688
  Beta virt. eigenvalues --   -0.00064   0.00242   0.00286   0.00404   0.00658

 Mulliken charges and spin densities:
               1          2
     1  Na  -0.151202   0.111518
     2  Na  -2.064596  -0.006569
     3  Na   0.754335   0.199263
     4  Na   0.115176   0.043751
     5  Na   0.559054   0.206688
     6  Na   0.189965   0.023720
     7  Na   0.597268   0.421629
 Sum of Mulliken charges =  -0.00000   1.00000

 Dipole moment (field-independent basis, Debye):
    X=              0.4085    Y=             -0.4696    Z=              0.1423  Tot=              0.6385
 Quadrupole moment (field-independent basis, Debye-Ang):
   XX=            -58.9397   YY=            -67.1931   ZZ=            -66.8307
   XY=              1.9407   XZ=              1.1139   YZ=             -1.2286

 Normal termination of Gaussian 16 at Fri Dec  8 05:49:13 2023.
