 Gaussian 16, Revision B.01,
 Gaussian 16:  ES64L-G16RevB.01 20-Dec-2017

 -------------------------
 #P B3LYP/6-311+g(d) force
 -------------------------

 -----
 DPGEN
 -----
 Symbolic Z-matrix:
 Charge =  0 Multiplicity = 2

                         Standard orientation:
 ---------------------------------------------------------------------
 Center     Atomic      Atomic             Coordinates (Angstroms)
 Number     Number       Type             X           Y           Z
 ---------------------------------------------------------------------
      1         11           0       -2.927040    0.924681    0.013116
      2         11           0       -2.192239   -2.295545   -0.240456
      3         11           0        3.083843    0.677349   -0.214996
      4         11           0        0.067686    0.249952   -1.689015
      5         11           0        1.908250   -2.471326    0.174414
      6         11           0       -0.034965   -0.069467    1.770067
      7         11           0        0.094465    2.984356    0.186871
 ---------------------------------------------------------------------

 SCF Done:  E(UB3LYP) =  -1136.13912294     A.U. after   19 cycles

 The electronic state is 2-A.
 Alpha  occ. eigenvalues --  -38.44143 -38.43995 -38.43734 -38.43706 -38.43226
 Alpha  occ. eigenvalues --  -38.43155 -38.43097  -2.19980  -2.19851  -2.19553
 Alpha  occ. eigenvalues --   -2.19528  -2.19109  -2.19080  -2.19037  -1.13662
 Alpha  occ. eigenvalues --   -1.13640  -1.13616  -1.13529  -1.13523  -1.13489
 Alpha  occ. eigenvalues --   -1.13220  -1.13211  -1.13204  -1.13196  -1.13187
 Alpha  occ. eigenvalues --   -1.13167  -1.12835  -1.12778  -1.12760  -1.12733
 Alpha  occ. eigenvalues --   -1.12713  -1.12709  -1.12698  -1.12657  -1.12647
 Alpha  occ. eigenvalues --   -0.18622  -0.13238  -0.12328  -0.10380
 Alpha virt. eigenvalues --   -0.05672  -0.05387  -0.04807  -0.03140  -0.02706
 Alpha virt. eigenvalues --   -0.02197  -0.01639  -0.01235  -0.00570  -0.00450
 Alpha virt. eigenvalues --    0.00019   0.00356   0.00782   0.00850   0.00859

  Beta  occ. eigenvalues --  -38.44136 -38.43989 -38.43730 -38.43702 -38.43219
  Beta  occ. eigenvalues --  -38.43086 -38.43016  -2.19971  -2.19845  -2.19548
  Beta  occ. eigenvalues --   -2.19523  -2.19072  -2.18983  -2.18888  -1.13649
  Beta  occ. eigenvalues --   -1.13618  -1.13614  -1.13528  -1.13500  -1.13479
  Beta  occ. eigenvalues --   -1.13210  -1.13204  -1.13194  -1.13187  -1.13171
  Beta  occ. eigenvalues --   -1.13166  -1.12788  -1.12727  -1.12709  -1.12704
  Beta  occ. eigenvalues --   -1.12640  -1.12626  -1.12612  -1.12553  -1.12540
  Beta  occ. eigenvalues --   -0.17910  -0.12991  -0.12083
  Beta virt. eigenvalues --   -0.06526  -0.05616  -0.05385  -0.04774  -0.02361
  Beta virt. eigenvalues --   -0.01966  -0.01536  -0.01214  -0.01129  -0.00619
  Beta virt. eigenvalues --   -0.00505   0.00154   0.00385   0.00833   0.00853

 Mulliken charges and spin densities:
               1          2
     1  Na   0.209673  -0.044057
     2  Na  -0.052564  -0.078909
     3  Na   0.172736  -0.055513
     4  Na  -0.202616   0.649329
     5  Na  -0.009722  -0.100648
     6  Na  -0.222064   0.730126
     7  Na   0.104556  -0.100328
 Sum of Mulliken charges =  -0.00000   1.00000

 Dipole moment (field-independent basis, Debye):
    X=              0.0703    Y=             -0.0303    Z=             -0.0011  Tot=              0.0766
 Quadrupole moment (field-independent basis, Debye-Ang):
   XX=            -55.1900   YY=            -60.6159   ZZ=            -76.3559
   XY=              0.1059   XZ=              0.0914   YZ=              0.7790

 Normal termination of Gaussian 16 at Fri Dec  8 06:40:17 2023.
