 Gaussian 16, Revision B.01,
 Gaussian 16:  ES64L-G16RevB.01 20-Dec-2017

 -------------------------
 #P B3LYP/6-311+g(d) force
 -------------------------

 -----
 DPGEN
 -----
 Symbolic Z-matrix:
 Charge =  0 Multiplicity = 2

                         Standard orientation:
 ---------------------------------------------------------------------
 Center     Atomic      Atomic             Coordinates (Angstroms)
 Number     Number       Type             X           Y           Z
 ---------------------------------------------------------------------
      1         11           0       -1.715568   -0.210698    1.682430
      2         11           0        1.935194    2.238651   -0.220137
      3         11           0        0.133336   -1.157199   -1.613433
      4         11           0       -3.990267   -1.043151   -0.511119
      5         11           0       -1.625755    2.025373   -0.563418
      6         11           0        3.619908   -1.196084   -0.729475
      7         11           0        1.643151   -0.656892    1.955153
 ---------------------------------------------------------------------

 SCF Done:  E(UB3LYP) =  -1136.12059302     A.U. after   27 cycles

 The electronic state is 2-A.
 Alpha  occ. eigenvalues --  -38.45324 -38.44660 -38.44259 -38.44153 -38.44152
 Alpha  occ. eigenvalues --  -38.43380 -38.43204  -2.21110  -2.20445  -2.20129
 Alpha  occ. eigenvalues --   -2.20063  -2.19962  -2.19183  -2.19057  -1.14804
 Alpha  occ. eigenvalues --   -1.14770  -1.14712  -1.14134  -1.14106  -1.14084
 Alpha  occ. eigenvalues --   -1.13829  -1.13766  -1.13758  -1.13733  -1.13728
 Alpha  occ. eigenvalues --   -1.13664  -1.13628  -1.13619  -1.13597  -1.12865
 Alpha  occ. eigenvalues --   -1.12842  -1.12813  -1.12758  -1.12737  -1.12644
 Alpha  occ. eigenvalues --   -0.18116  -0.14056  -0.11530  -0.10792
 Alpha virt. eigenvalues --   -0.07021  -0.05395  -0.04864  -0.03341  -0.02663
 Alpha virt. eigenvalues --   -0.02560  -0.02283  -0.01472  -0.00865  -0.00279
 Alpha virt. eigenvalues --    0.00077   0.00173   0.00300   0.00444   0.00650

  Beta  occ. eigenvalues --  -38.45276 -38.44670 -38.44183 -38.44153 -38.44098
  Beta  occ. eigenvalues --  -38.43367 -38.43195  -2.21022  -2.20464  -2.19991
  Beta  occ. eigenvalues --   -2.19966  -2.19963  -2.19161  -2.19041  -1.14739
  Beta  occ. eigenvalues --   -1.14706  -1.14647  -1.14144  -1.14119  -1.14093
  Beta  occ. eigenvalues --   -1.13730  -1.13680  -1.13676  -1.13664  -1.13655
  Beta  occ. eigenvalues --   -1.13619  -1.13612  -1.13591  -1.13572  -1.12837
  Beta  occ. eigenvalues --   -1.12829  -1.12802  -1.12744  -1.12720  -1.12634
  Beta  occ. eigenvalues --   -0.17378  -0.14027  -0.10613
  Beta virt. eigenvalues --   -0.07476  -0.06759  -0.05337  -0.04277  -0.02924
  Beta virt. eigenvalues --   -0.02559  -0.01923  -0.01720  -0.01261  -0.00485
  Beta virt. eigenvalues --   -0.00254   0.00098   0.00263   0.00419   0.00539

 Mulliken charges and spin densities:
               1          2
     1  Na  -0.162309   0.150791
     2  Na  -0.204005   0.080071
     3  Na  -0.610456   0.372051
     4  Na   0.599385  -0.057686
     5  Na  -0.137300   0.150302
     6  Na   0.598642   0.081229
     7  Na  -0.083958   0.223242
 Sum of Mulliken charges =  -0.00000   1.00000

 Dipole moment (field-independent basis, Debye):
    X=             -0.1534    Y=             -0.2684    Z=             -0.4516  Tot=              0.5473
 Quadrupole moment (field-independent basis, Debye-Ang):
   XX=            -49.1036   YY=            -78.4252   ZZ=            -69.0748
   XY=              1.1726   XZ=              1.5535   YZ=              0.4927

 Normal termination of Gaussian 16 at Thu Dec  7 07:23:42 2023.
