 Gaussian 16, Revision B.01,
 Gaussian 16:  ES64L-G16RevB.01 20-Dec-2017

 -------------------------
 #P B3LYP/6-311+g(d) force
 -------------------------

 -----
 DPGEN
 -----
 Symbolic Z-matrix:
 Charge =  0 Multiplicity = 2

                         Standard orientation:
 ---------------------------------------------------------------------
 Center     Atomic      Atomic             Coordinates (Angstroms)
 Number     Number       Type             X           Y           Z
 ---------------------------------------------------------------------
      1         11           0       -3.378911    1.663879   -0.280933
      2         11           0        0.020195    1.388873   -1.400965
      3         11           0        1.327213   -1.272179   -0.888379
      4         11           0        7.234576    0.936618    1.092066
      5         11           0        5.083055   -1.189975    0.179812
      6         11           0       -6.055667   -0.051692    1.678544
      7         11           0       -4.230462   -1.475524   -0.380146
 ---------------------------------------------------------------------

 SCF Done:  E(UB3LYP) =  -1136.10800859     A.U. after   19 cycles

 The electronic state is 2-A.
 Alpha  occ. eigenvalues --  -38.46268 -38.45413 -38.44423 -38.43740 -38.43498
 Alpha  occ. eigenvalues --  -38.43323 -38.43167  -2.22099  -2.21235  -2.20282
 Alpha  occ. eigenvalues --   -2.19561  -2.19336  -2.19121  -2.18946  -1.15768
 Alpha  occ. eigenvalues --   -1.15761  -1.15741  -1.14898  -1.14887  -1.14858
 Alpha  occ. eigenvalues --   -1.13966  -1.13941  -1.13867  -1.13314  -1.13229
 Alpha  occ. eigenvalues --   -1.13203  -1.12976  -1.12974  -1.12938  -1.12799
 Alpha  occ. eigenvalues --   -1.12767  -1.12766  -1.12623  -1.12614  -1.12570
 Alpha  occ. eigenvalues --   -0.16595  -0.13996  -0.12265  -0.10448
 Alpha virt. eigenvalues --   -0.06924  -0.05825  -0.04298  -0.03918  -0.02863
 Alpha virt. eigenvalues --   -0.02515  -0.02184  -0.01458  -0.01262  -0.01130
 Alpha virt. eigenvalues --   -0.00303  -0.00205  -0.00137   0.00217   0.00357

  Beta  occ. eigenvalues --  -38.46257 -38.45391 -38.44346 -38.43744 -38.43439
  Beta  occ. eigenvalues --  -38.43282 -38.43177  -2.22081  -2.21194  -2.20140
  Beta  occ. eigenvalues --   -2.19575  -2.19225  -2.19043  -2.18968  -1.15753
  Beta  occ. eigenvalues --   -1.15745  -1.15718  -1.14861  -1.14858  -1.14835
  Beta  occ. eigenvalues --   -1.13872  -1.13846  -1.13762  -1.13299  -1.13243
  Beta  occ. eigenvalues --   -1.13193  -1.12906  -1.12899  -1.12872  -1.12758
  Beta  occ. eigenvalues --   -1.12714  -1.12713  -1.12641  -1.12630  -1.12550
  Beta  occ. eigenvalues --   -0.16121  -0.13505  -0.11757
  Beta virt. eigenvalues --   -0.07259  -0.06757  -0.05312  -0.04109  -0.03520
  Beta virt. eigenvalues --   -0.02627  -0.02296  -0.01803  -0.01312  -0.01157
  Beta virt. eigenvalues --   -0.00776  -0.00158   0.00013   0.00135   0.00361

 Mulliken charges and spin densities:
               1          2
     1  Na  -0.305831   0.262992
     2  Na   0.091726   0.096431
     3  Na  -0.088258   0.266188
     4  Na   0.289514   0.201211
     5  Na  -0.455827  -0.156145
     6  Na   0.665805   0.181507
     7  Na  -0.197128   0.147817
 Sum of Mulliken charges =  -0.00000   1.00000

 Dipole moment (field-independent basis, Debye):
    X=             -5.0661    Y=             -0.0170    Z=              0.5874  Tot=              5.1001
 Quadrupole moment (field-independent basis, Debye-Ang):
   XX=            -62.8589   YY=            -64.2061   ZZ=            -70.1208
   XY=              4.7337   XZ=             -5.4054   YZ=              4.6797

 Normal termination of Gaussian 16 at Mon Dec  4 00:19:49 2023.
