 Gaussian 16, Revision B.01,
 Gaussian 16:  ES64L-G16RevB.01 20-Dec-2017

 -------------------------
 #P B3LYP/6-311+g(d) force
 -------------------------

 -----
 DPGEN
 -----
 Symbolic Z-matrix:
 Charge =  0 Multiplicity = 2

                         Standard orientation:
 ---------------------------------------------------------------------
 Center     Atomic      Atomic             Coordinates (Angstroms)
 Number     Number       Type             X           Y           Z
 ---------------------------------------------------------------------
      1         11           0       -1.059017   -3.416781   -0.076067
      2         11           0        2.127374    3.382159   -0.499043
      3         11           0       -3.954606    1.885253   -0.009725
      4         11           0       -3.697229   -1.950404   -0.469825
      5         11           0        4.190350   -0.059672   -0.611589
      6         11           0        3.009033   -2.819622    0.770939
      7         11           0       -0.615905    2.979067    0.895309
 ---------------------------------------------------------------------

 SCF Done:  E(UB3LYP) =  -1136.10584417     A.U. after   20 cycles

 The electronic state is 2-A.
 Alpha  occ. eigenvalues --  -38.45190 -38.44573 -38.44543 -38.44503 -38.44498
 Alpha  occ. eigenvalues --  -38.44482 -38.44058  -2.20945  -2.20360  -2.20318
 Alpha  occ. eigenvalues --   -2.20309  -2.20295  -2.20271  -2.19876  -1.14622
 Alpha  occ. eigenvalues --   -1.14611  -1.14587  -1.14098  -1.14061  -1.14032
 Alpha  occ. eigenvalues --   -1.14021  -1.13980  -1.13973  -1.13968  -1.13957
 Alpha  occ. eigenvalues --   -1.13953  -1.13944  -1.13928  -1.13919  -1.13900
 Alpha  occ. eigenvalues --   -1.13893  -1.13860  -1.13525  -1.13517  -1.13499
 Alpha  occ. eigenvalues --   -0.15386  -0.13823  -0.13531  -0.11061
 Alpha virt. eigenvalues --   -0.07547  -0.04670  -0.04588  -0.03607  -0.03522
 Alpha virt. eigenvalues --   -0.02408  -0.02186  -0.01835  -0.01453  -0.01034
 Alpha virt. eigenvalues --   -0.00642  -0.00235   0.00159   0.00298   0.00530

  Beta  occ. eigenvalues --  -38.45181 -38.44576 -38.44516 -38.44489 -38.44457
  Beta  occ. eigenvalues --  -38.44391 -38.44003  -2.20932  -2.20372  -2.20288
  Beta  occ. eigenvalues --   -2.20269  -2.20225  -2.20101  -2.19773  -1.14616
  Beta  occ. eigenvalues --   -1.14603  -1.14557  -1.14060  -1.14051  -1.14046
  Beta  occ. eigenvalues --   -1.13997  -1.13962  -1.13948  -1.13938  -1.13927
  Beta  occ. eigenvalues --   -1.13915  -1.13900  -1.13888  -1.13808  -1.13803
  Beta  occ. eigenvalues --   -1.13788  -1.13780  -1.13460  -1.13446  -1.13431
  Beta  occ. eigenvalues --   -0.14830  -0.13075  -0.12772
  Beta virt. eigenvalues --   -0.07942  -0.07684  -0.04234  -0.04104  -0.03368
  Beta virt. eigenvalues --   -0.03275  -0.02134  -0.01973  -0.01646  -0.01281
  Beta virt. eigenvalues --   -0.00624  -0.00478  -0.00030   0.00251   0.00346

 Mulliken charges and spin densities:
               1          2
     1  Na  -0.011497   0.190523
     2  Na   0.461622   0.233262
     3  Na   0.191018   0.441126
     4  Na   0.114994  -0.031886
     5  Na  -0.150575   0.066386
     6  Na   0.145890   0.118810
     7  Na  -0.751452  -0.018221
 Sum of Mulliken charges =  -0.00000   1.00000

 Dipole moment (field-independent basis, Debye):
    X=              0.4535    Y=             -0.2044    Z=             -0.1239  Tot=              0.5126
 Quadrupole moment (field-independent basis, Debye-Ang):
   XX=            -60.5739   YY=            -69.2852   ZZ=            -71.0438
   XY=              1.1156   XZ=             -1.1268   YZ=             -2.8074

 Normal termination of Gaussian 16 at Sun Dec  3 15:46:12 2023.
