 Gaussian 16, Revision B.01,
 Gaussian 16:  ES64L-G16RevB.01 20-Dec-2017

 -------------------------
 #P B3LYP/6-311+g(d) force
 -------------------------

 -----
 DPGEN
 -----
 Symbolic Z-matrix:
 Charge =  0 Multiplicity = 2

                         Standard orientation:
 ---------------------------------------------------------------------
 Center     Atomic      Atomic             Coordinates (Angstroms)
 Number     Number       Type             X           Y           Z
 ---------------------------------------------------------------------
      1         11           0        3.473824   -0.536340   -0.062128
      2         11           0       -0.011843    0.282954    1.919453
      3         11           0       -2.489099   -1.850936    0.054663
      4         11           0       -3.016175    1.533505   -0.063928
      5         11           0        1.412366    2.629867   -0.013120
      6         11           0       -0.138412    0.270527   -1.775836
      7         11           0        0.769338   -2.329577   -0.059104
 ---------------------------------------------------------------------

 SCF Done:  E(UB3LYP) =  -1136.13156986     A.U. after   21 cycles

 The electronic state is 2-A.
 Alpha  occ. eigenvalues --  -38.44999 -38.44634 -38.43761 -38.43460 -38.43457
 Alpha  occ. eigenvalues --  -38.43436 -38.42598  -2.20790  -2.20425  -2.19613
 Alpha  occ. eigenvalues --   -2.19371  -2.19364  -2.19290  -2.18529  -1.14467
 Alpha  occ. eigenvalues --   -1.14456  -1.14420  -1.14098  -1.14085  -1.14065
 Alpha  occ. eigenvalues --   -1.13288  -1.13274  -1.13261  -1.13084  -1.13044
 Alpha  occ. eigenvalues --   -1.13035  -1.13020  -1.12984  -1.12976  -1.12941
 Alpha  occ. eigenvalues --   -1.12932  -1.12909  -1.12225  -1.12188  -1.12160
 Alpha  occ. eigenvalues --   -0.18590  -0.13322  -0.11981  -0.10594
 Alpha virt. eigenvalues --   -0.06571  -0.05359  -0.03926  -0.03272  -0.02656
 Alpha virt. eigenvalues --   -0.02485  -0.02222  -0.01249  -0.00560  -0.00073
 Alpha virt. eigenvalues --   -0.00030   0.00283   0.00699   0.00756   0.00774

  Beta  occ. eigenvalues --  -38.45001 -38.44631 -38.43758 -38.43455 -38.43369
  Beta  occ. eigenvalues --  -38.43362 -38.42587  -2.20795  -2.20423  -2.19611
  Beta  occ. eigenvalues --   -2.19284  -2.19235  -2.19202  -2.18514  -1.14473
  Beta  occ. eigenvalues --   -1.14443  -1.14425  -1.14088  -1.14076  -1.14066
  Beta  occ. eigenvalues --   -1.13288  -1.13264  -1.13247  -1.13015  -1.12968
  Beta  occ. eigenvalues --   -1.12957  -1.12928  -1.12912  -1.12891  -1.12872
  Beta  occ. eigenvalues --   -1.12867  -1.12851  -1.12218  -1.12157  -1.12138
  Beta  occ. eigenvalues --   -0.17843  -0.13136  -0.11721
  Beta virt. eigenvalues --   -0.06688  -0.06522  -0.05349  -0.03933  -0.02524
  Beta virt. eigenvalues --   -0.02143  -0.01866  -0.01405  -0.01179  -0.00624
  Beta virt. eigenvalues --   -0.00062   0.00085   0.00300   0.00740   0.00791

 Mulliken charges and spin densities:
               1          2
     1  Na   0.099992  -0.040421
     2  Na  -0.416418   0.688912
     3  Na   0.170247   0.017053
     4  Na   0.252069  -0.110117
     5  Na   0.121207  -0.180494
     6  Na  -0.326753   0.623872
     7  Na   0.099657   0.001194
 Sum of Mulliken charges =  -0.00000   1.00000

 Dipole moment (field-independent basis, Debye):
    X=              0.0361    Y=              0.3705    Z=              0.0485  Tot=              0.3754
 Quadrupole moment (field-independent basis, Debye-Ang):
   XX=            -48.6743   YY=            -67.8122   ZZ=            -75.3257
   XY=             -0.3488   XZ=             -0.3454   YZ=             -0.1279

 Normal termination of Gaussian 16 at Thu Dec  7 10:35:10 2023.
