 Gaussian 16, Revision B.01,
 Gaussian 16:  ES64L-G16RevB.01 20-Dec-2017

 -------------------------
 #P B3LYP/6-311+g(d) force
 -------------------------

 -----
 DPGEN
 -----
 Symbolic Z-matrix:
 Charge =  0 Multiplicity = 2

                         Standard orientation:
 ---------------------------------------------------------------------
 Center     Atomic      Atomic             Coordinates (Angstroms)
 Number     Number       Type             X           Y           Z
 ---------------------------------------------------------------------
      1         11           0       -2.289350   -1.574546    1.394936
      2         11           0       -3.237614    0.002705   -0.601875
      3         11           0       -0.547504    2.476968   -1.084183
      4         11           0       -0.012296   -0.972008   -1.861098
      5         11           0        3.153172   -2.020822   -0.403548
      6         11           0       -0.079544    0.701743    1.875409
      7         11           0        3.013136    1.385961    0.680359
 ---------------------------------------------------------------------

 SCF Done:  E(UB3LYP) =  -1136.11645987     A.U. after   24 cycles

 The electronic state is 2-A.
 Alpha  occ. eigenvalues --  -38.45079 -38.44724 -38.44594 -38.44286 -38.44165
 Alpha  occ. eigenvalues --  -38.43370 -38.43081  -2.20984  -2.20514  -2.20422
 Alpha  occ. eigenvalues --   -2.20217  -2.20052  -2.19142  -2.18913  -1.14845
 Alpha  occ. eigenvalues --   -1.14620  -1.14583  -1.14213  -1.14165  -1.14129
 Alpha  occ. eigenvalues --   -1.14096  -1.14078  -1.14032  -1.13890  -1.13857
 Alpha  occ. eigenvalues --   -1.13794  -1.13714  -1.13685  -1.13671  -1.12814
 Alpha  occ. eigenvalues --   -1.12804  -1.12792  -1.12598  -1.12576  -1.12532
 Alpha  occ. eigenvalues --   -0.18278  -0.13646  -0.11993  -0.11191
 Alpha virt. eigenvalues --   -0.06534  -0.05347  -0.04423  -0.03359  -0.03123
 Alpha virt. eigenvalues --   -0.02923  -0.02108  -0.01024  -0.00522  -0.00061
 Alpha virt. eigenvalues --   -0.00003   0.00157   0.00304   0.00553   0.00769

  Beta  occ. eigenvalues --  -38.45075 -38.44712 -38.44525 -38.44244 -38.44103
  Beta  occ. eigenvalues --  -38.43375 -38.43059  -2.20981  -2.20492  -2.20295
  Beta  occ. eigenvalues --   -2.20140  -2.19940  -2.19152  -2.18873  -1.14830
  Beta  occ. eigenvalues --   -1.14603  -1.14581  -1.14188  -1.14152  -1.14121
  Beta  occ. eigenvalues --   -1.14014  -1.13988  -1.13930  -1.13821  -1.13815
  Beta  occ. eigenvalues --   -1.13734  -1.13643  -1.13611  -1.13579  -1.12820
  Beta  occ. eigenvalues --   -1.12805  -1.12799  -1.12564  -1.12554  -1.12492
  Beta  occ. eigenvalues --   -0.17467  -0.13498  -0.10998
  Beta virt. eigenvalues --   -0.08008  -0.06273  -0.05130  -0.03938  -0.02988
  Beta virt. eigenvalues --   -0.02599  -0.02160  -0.02014  -0.00855  -0.00267
  Beta virt. eigenvalues --   -0.00040   0.00013   0.00253   0.00451   0.00707

 Mulliken charges and spin densities:
               1          2
     1  Na   0.420631   0.286967
     2  Na   0.262627  -0.097775
     3  Na  -0.392347   0.224595
     4  Na  -0.187283   0.355104
     5  Na  -0.201976  -0.069650
     6  Na  -0.033231   0.297586
     7  Na   0.131579   0.003174
 Sum of Mulliken charges =  -0.00000   1.00000

 Dipole moment (field-independent basis, Debye):
    X=             -0.3616    Y=              0.4136    Z=              0.0447  Tot=              0.5512
 Quadrupole moment (field-independent basis, Debye-Ang):
   XX=            -56.4610   YY=            -73.2015   ZZ=            -68.6569
   XY=              2.3088   XZ=              3.3557   YZ=             -2.5283

 Normal termination of Gaussian 16 at Wed Dec  6 00:59:50 2023.
