 Gaussian 16, Revision B.01,
 Gaussian 16:  ES64L-G16RevB.01 20-Dec-2017

 -------------------------
 #P B3LYP/6-311+g(d) force
 -------------------------

 -----
 DPGEN
 -----
 Symbolic Z-matrix:
 Charge =  0 Multiplicity = 2

                         Standard orientation:
 ---------------------------------------------------------------------
 Center     Atomic      Atomic             Coordinates (Angstroms)
 Number     Number       Type             X           Y           Z
 ---------------------------------------------------------------------
      1         11           0        2.469434   -1.816691    0.140396
      2         11           0       -0.857888   -1.742139   -1.735728
      3         11           0        2.190024    1.064285   -1.308119
      4         11           0       -0.423055   -1.080719    1.939639
      5         11           0       -3.507082   -0.058020    0.384437
      6         11           0        1.154026    1.709544    1.739863
      7         11           0       -1.025459    1.923739   -1.160488
 ---------------------------------------------------------------------

 SCF Done:  E(UB3LYP) =  -1136.13047591     A.U. after   22 cycles

 The electronic state is 2-A.
 Alpha  occ. eigenvalues --  -38.44648 -38.44344 -38.44162 -38.43867 -38.43590
 Alpha  occ. eigenvalues --  -38.43278 -38.42950  -2.20449  -2.20132  -2.20039
 Alpha  occ. eigenvalues --   -2.19748  -2.19483  -2.19114  -2.18805  -1.14130
 Alpha  occ. eigenvalues --   -1.14098  -1.14059  -1.13807  -1.13790  -1.13771
 Alpha  occ. eigenvalues --   -1.13749  -1.13681  -1.13647  -1.13429  -1.13381
 Alpha  occ. eigenvalues --   -1.13363  -1.13157  -1.13154  -1.13116  -1.12794
 Alpha  occ. eigenvalues --   -1.12768  -1.12750  -1.12506  -1.12473  -1.12415
 Alpha  occ. eigenvalues --   -0.18385  -0.13011  -0.12202  -0.11460
 Alpha virt. eigenvalues --   -0.05991  -0.04643  -0.04499  -0.03511  -0.03393
 Alpha virt. eigenvalues --   -0.03160  -0.01596  -0.00624  -0.00549   0.00057
 Alpha virt. eigenvalues --    0.00220   0.00345   0.00407   0.00702   0.00882

  Beta  occ. eigenvalues --  -38.44600 -38.44346 -38.44104 -38.43803 -38.43568
  Beta  occ. eigenvalues --  -38.43276 -38.42935  -2.20361  -2.20139  -2.19934
  Beta  occ. eigenvalues --   -2.19634  -2.19443  -2.19113  -2.18779  -1.14066
  Beta  occ. eigenvalues --   -1.14036  -1.13996  -1.13801  -1.13797  -1.13775
  Beta  occ. eigenvalues --   -1.13663  -1.13610  -1.13571  -1.13349  -1.13290
  Beta  occ. eigenvalues --   -1.13284  -1.13132  -1.13121  -1.13081  -1.12785
  Beta  occ. eigenvalues --   -1.12765  -1.12743  -1.12480  -1.12447  -1.12400
  Beta  occ. eigenvalues --   -0.17546  -0.12877  -0.11308
  Beta virt. eigenvalues --   -0.08152  -0.05698  -0.04544  -0.03951  -0.03217
  Beta virt. eigenvalues --   -0.02764  -0.02321  -0.01501  -0.00536  -0.00280
  Beta virt. eigenvalues --    0.00152   0.00255   0.00432   0.00508   0.00819

 Mulliken charges and spin densities:
               1          2
     1  Na   0.151514  -0.038444
     2  Na  -0.533600   0.267470
     3  Na   0.199934   0.293540
     4  Na   0.147454   0.428408
     5  Na   0.236955  -0.116172
     6  Na  -0.203083   0.032398
     7  Na   0.000826   0.132801
 Sum of Mulliken charges =  -0.00000   1.00000

 Dipole moment (field-independent basis, Debye):
    X=             -0.5213    Y=             -0.2003    Z=             -0.0263  Tot=              0.5591
 Quadrupole moment (field-independent basis, Debye-Ang):
   XX=            -58.0515   YY=            -74.5240   ZZ=            -63.8296
   XY=              0.2379   XZ=             -1.0287   YZ=              3.2764

 Normal termination of Gaussian 16 at Thu Dec  7 13:22:30 2023.
