 Gaussian 16, Revision B.01,
 Gaussian 16:  ES64L-G16RevB.01 20-Dec-2017

 -------------------------
 #P B3LYP/6-311+g(d) force
 -------------------------

 -----
 DPGEN
 -----
 Symbolic Z-matrix:
 Charge =  0 Multiplicity = 2

                         Standard orientation:
 ---------------------------------------------------------------------
 Center     Atomic      Atomic             Coordinates (Angstroms)
 Number     Number       Type             X           Y           Z
 ---------------------------------------------------------------------
      1         11           0       -1.850441   -2.134107   -0.184485
      2         11           0       -3.000687    0.815563    0.008974
      3         11           0        0.019600    0.334771   -1.445155
      4         11           0        2.966968    0.893217   -0.051252
      5         11           0        1.732444   -2.443959   -0.174007
      6         11           0        0.094208   -0.365071    1.730393
      7         11           0        0.037909    2.899588    0.115532
 ---------------------------------------------------------------------

 SCF Done:  E(UB3LYP) =  -1136.13632032     A.U. after   19 cycles

 The electronic state is 2-A.
 Alpha  occ. eigenvalues --  -38.44071 -38.43917 -38.43531 -38.43481 -38.43461
 Alpha  occ. eigenvalues --  -38.42830 -38.42715  -2.19922  -2.19782  -2.19398
 Alpha  occ. eigenvalues --   -2.19376  -2.19361  -2.18828  -2.18792  -1.13606
 Alpha  occ. eigenvalues --   -1.13585  -1.13555  -1.13477  -1.13440  -1.13426
 Alpha  occ. eigenvalues --   -1.13111  -1.13094  -1.13069  -1.13059  -1.13038
 Alpha  occ. eigenvalues --   -1.13035  -1.13013  -1.12990  -1.12972  -1.12568
 Alpha  occ. eigenvalues --   -1.12454  -1.12438  -1.12434  -1.12421  -1.12395
 Alpha  occ. eigenvalues --   -0.19193  -0.13270  -0.12732  -0.10237
 Alpha virt. eigenvalues --   -0.05667  -0.05192  -0.04811  -0.02963  -0.02722
 Alpha virt. eigenvalues --   -0.01892  -0.01618  -0.01198  -0.00377  -0.00303
 Alpha virt. eigenvalues --    0.00053   0.00358   0.00819   0.00888   0.00904

  Beta  occ. eigenvalues --  -38.44066 -38.43913 -38.43524 -38.43475 -38.43452
  Beta  occ. eigenvalues --  -38.42747 -38.42654  -2.19916  -2.19779  -2.19390
  Beta  occ. eigenvalues --   -2.19363  -2.19354  -2.18683  -2.18675  -1.13598
  Beta  occ. eigenvalues --   -1.13559  -1.13556  -1.13476  -1.13431  -1.13409
  Beta  occ. eigenvalues --   -1.13100  -1.13087  -1.13058  -1.13034  -1.13030
  Beta  occ. eigenvalues --   -1.12993  -1.12987  -1.12983  -1.12971  -1.12475
  Beta  occ. eigenvalues --   -1.12358  -1.12342  -1.12332  -1.12326  -1.12313
  Beta  occ. eigenvalues --   -0.18474  -0.13006  -0.12476
  Beta virt. eigenvalues --   -0.06332  -0.05649  -0.05188  -0.04786  -0.02169
  Beta virt. eigenvalues --   -0.01944  -0.01539  -0.01134  -0.00903  -0.00427
  Beta virt. eigenvalues --   -0.00351   0.00192   0.00400   0.00851   0.00898

 Mulliken charges and spin densities:
               1          2
     1  Na   0.285911  -0.015608
     2  Na   0.181990  -0.027795
     3  Na  -0.599184   0.495038
     4  Na   0.181194  -0.068166
     5  Na   0.208542  -0.055969
     6  Na  -0.457889   0.744590
     7  Na   0.199434  -0.072090
 Sum of Mulliken charges =  -0.00000   1.00000

 Dipole moment (field-independent basis, Debye):
    X=              0.1498    Y=              0.0958    Z=              0.1132  Tot=              0.2108
 Quadrupole moment (field-independent basis, Debye-Ang):
   XX=            -53.9564   YY=            -60.1297   ZZ=            -77.0334
   XY=             -0.4976   XZ=             -0.2358   YZ=              1.6499

 Normal termination of Gaussian 16 at Tue Nov 28 21:11:20 2023.
