 Gaussian 16, Revision B.01,
 Gaussian 16:  ES64L-G16RevB.01 20-Dec-2017

 -------------------------
 #P B3LYP/6-311+g(d) force
 -------------------------

 -----
 DPGEN
 -----
 Symbolic Z-matrix:
 Charge =  0 Multiplicity = 2

                         Standard orientation:
 ---------------------------------------------------------------------
 Center     Atomic      Atomic             Coordinates (Angstroms)
 Number     Number       Type             X           Y           Z
 ---------------------------------------------------------------------
      1         11           0       -0.717959   -2.427916    1.853163
      2         11           0        0.336329   -2.352538   -1.297413
      3         11           0       -2.986878   -0.815628   -0.803910
      4         11           0        2.708981    2.771499    0.041126
      5         11           0        3.353678   -0.973414   -0.184650
      6         11           0        0.084685    1.020594    0.335931
      7         11           0       -2.778836    2.777403    0.055753
 ---------------------------------------------------------------------

 SCF Done:  E(UB3LYP) =  -1136.12298138     A.U. after   21 cycles

 The electronic state is 2-A.
 Alpha  occ. eigenvalues --  -38.44755 -38.44489 -38.44364 -38.44282 -38.43551
 Alpha  occ. eigenvalues --  -38.43526 -38.43269  -2.20543  -2.20275  -2.20159
 Alpha  occ. eigenvalues --   -2.20055  -2.19407  -2.19373  -2.19170  -1.14237
 Alpha  occ. eigenvalues --   -1.14206  -1.14156  -1.13950  -1.13937  -1.13897
 Alpha  occ. eigenvalues --   -1.13846  -1.13816  -1.13776  -1.13730  -1.13723
 Alpha  occ. eigenvalues --   -1.13688  -1.13098  -1.13089  -1.13040  -1.13019
 Alpha  occ. eigenvalues --   -1.13006  -1.12966  -1.12881  -1.12839  -1.12792
 Alpha  occ. eigenvalues --   -0.17384  -0.13209  -0.12698  -0.09841
 Alpha virt. eigenvalues --   -0.06762  -0.05773  -0.04984  -0.02780  -0.02631
 Alpha virt. eigenvalues --   -0.02107  -0.01912  -0.01633  -0.01455  -0.00779
 Alpha virt. eigenvalues --   -0.00102   0.00244   0.00337   0.00498   0.00733

  Beta  occ. eigenvalues --  -38.44742 -38.44459 -38.44349 -38.44286 -38.43525
  Beta  occ. eigenvalues --  -38.43437 -38.43259  -2.20520  -2.20221  -2.20131
  Beta  occ. eigenvalues --   -2.20064  -2.19361  -2.19207  -2.19154  -1.14217
  Beta  occ. eigenvalues --   -1.14187  -1.14138  -1.13910  -1.13899  -1.13852
  Beta  occ. eigenvalues --   -1.13825  -1.13795  -1.13759  -1.13735  -1.13729
  Beta  occ. eigenvalues --   -1.13690  -1.13061  -1.13049  -1.12992  -1.12903
  Beta  occ. eigenvalues --   -1.12893  -1.12867  -1.12852  -1.12827  -1.12787
  Beta  occ. eigenvalues --   -0.16942  -0.12913  -0.12361
  Beta virt. eigenvalues --   -0.06597  -0.06282  -0.05447  -0.04794  -0.02390
  Beta virt. eigenvalues --   -0.02232  -0.01916  -0.01755  -0.01360  -0.00933
  Beta virt. eigenvalues --   -0.00649   0.00162   0.00388   0.00493   0.00555

 Mulliken charges and spin densities:
               1          2
     1  Na   0.182297   0.262511
     2  Na   0.429803   0.250831
     3  Na   0.336370   0.145221
     4  Na   0.077620   0.006281
     5  Na   0.276348   0.192573
     6  Na  -1.895184   0.164630
     7  Na   0.592746  -0.022047
 Sum of Mulliken charges =  -0.00000   1.00000

 Dipole moment (field-independent basis, Debye):
    X=              0.0061    Y=              0.5372    Z=             -0.1457  Tot=              0.5567
 Quadrupole moment (field-independent basis, Debye-Ang):
   XX=            -56.1748   YY=            -62.5263   ZZ=            -74.8706
   XY=              1.4311   XZ=              2.4520   YZ=              0.7512

 Normal termination of Gaussian 16 at Tue Dec  5 12:12:49 2023.
