 Gaussian 16, Revision B.01,
 Gaussian 16:  ES64L-G16RevB.01 20-Dec-2017

 -------------------------
 #P B3LYP/6-311+g(d) force
 -------------------------

 -----
 DPGEN
 -----
 Symbolic Z-matrix:
 Charge =  0 Multiplicity = 2

                         Standard orientation:
 ---------------------------------------------------------------------
 Center     Atomic      Atomic             Coordinates (Angstroms)
 Number     Number       Type             X           Y           Z
 ---------------------------------------------------------------------
      1         11           0       -0.274562   -0.066501    2.123483
      2         11           0        3.330464   -0.936193    0.245511
      3         11           0       -2.841707   -1.693616   -0.323679
      4         11           0       -2.284458    2.368100    0.276365
      5         11           0       -0.175505    0.537768   -1.613148
      6         11           0        1.869464    2.591823   -0.361372
      7         11           0        0.376305   -2.801381   -0.347159
 ---------------------------------------------------------------------

 SCF Done:  E(UB3LYP) =  -1136.13261311     A.U. after   19 cycles

 The electronic state is 2-A.
 Alpha  occ. eigenvalues --  -38.44254 -38.44134 -38.44105 -38.44052 -38.43909
 Alpha  occ. eigenvalues --  -38.43339 -38.43333  -2.20046  -2.19908  -2.19901
 Alpha  occ. eigenvalues --   -2.19854  -2.19747  -2.19265  -2.19173  -1.13725
 Alpha  occ. eigenvalues --   -1.13710  -1.13679  -1.13621  -1.13578  -1.13563
 Alpha  occ. eigenvalues --   -1.13560  -1.13545  -1.13525  -1.13518  -1.13515
 Alpha  occ. eigenvalues --   -1.13494  -1.13411  -1.13379  -1.13359  -1.12947
 Alpha  occ. eigenvalues --   -1.12906  -1.12897  -1.12849  -1.12842  -1.12800
 Alpha  occ. eigenvalues --   -0.17932  -0.12610  -0.12494  -0.10584
 Alpha virt. eigenvalues --   -0.05951  -0.05550  -0.04706  -0.03030  -0.02948
 Alpha virt. eigenvalues --   -0.02535  -0.01655  -0.01532  -0.00758  -0.00412
 Alpha virt. eigenvalues --   -0.00054   0.00316   0.00711   0.00741   0.00834

  Beta  occ. eigenvalues --  -38.44247 -38.44134 -38.44095 -38.44045 -38.43814
  Beta  occ. eigenvalues --  -38.43327 -38.43286  -2.20036  -2.19903  -2.19891
  Beta  occ. eigenvalues --   -2.19842  -2.19571  -2.19167  -2.19162  -1.13713
  Beta  occ. eigenvalues --   -1.13690  -1.13673  -1.13601  -1.13575  -1.13556
  Beta  occ. eigenvalues --   -1.13549  -1.13540  -1.13512  -1.13511  -1.13501
  Beta  occ. eigenvalues --   -1.13483  -1.13292  -1.13259  -1.13229  -1.12880
  Beta  occ. eigenvalues --   -1.12857  -1.12830  -1.12826  -1.12813  -1.12786
  Beta  occ. eigenvalues --   -0.17247  -0.12397  -0.12258
  Beta virt. eigenvalues --   -0.06776  -0.05863  -0.05468  -0.04634  -0.02357
  Beta virt. eigenvalues --   -0.02251  -0.01552  -0.01512  -0.01423  -0.00790
  Beta virt. eigenvalues --   -0.00443   0.00101   0.00360   0.00724   0.00810

 Mulliken charges and spin densities:
               1          2
     1  Na  -0.364617   0.772116
     2  Na  -0.059938   0.000260
     3  Na   0.175436  -0.025655
     4  Na   0.056366  -0.059155
     5  Na   0.113890   0.337611
     6  Na   0.114954  -0.050416
     7  Na  -0.036093   0.025240
 Sum of Mulliken charges =  -0.00000   1.00000

 Dipole moment (field-independent basis, Debye):
    X=             -0.2064    Y=              0.3477    Z=              0.1611  Tot=              0.4353
 Quadrupole moment (field-independent basis, Debye-Ang):
   XX=            -55.4556   YY=            -62.4217   ZZ=            -75.4004
   XY=             -0.2000   XZ=              0.6368   YZ=              1.1289

 Normal termination of Gaussian 16 at Thu Dec  7 11:55:07 2023.
