 Gaussian 16, Revision B.01,
 Gaussian 16:  ES64L-G16RevB.01 20-Dec-2017

 -------------------------
 #P B3LYP/6-311+g(d) force
 -------------------------

 -----
 DPGEN
 -----
 Symbolic Z-matrix:
 Charge =  0 Multiplicity = 2

                         Standard orientation:
 ---------------------------------------------------------------------
 Center     Atomic      Atomic             Coordinates (Angstroms)
 Number     Number       Type             X           Y           Z
 ---------------------------------------------------------------------
      1         11           0        0.721566   -0.170619    2.027070
      2         11           0        2.592843    1.603935   -0.096223
      3         11           0       -1.136887   -2.380533    0.230645
      4         11           0       -0.863326    2.646848   -0.021057
      5         11           0        2.134197   -1.846797   -0.589194
      6         11           0       -0.180133   -0.011185   -1.548362
      7         11           0       -3.268260    0.158351   -0.002879
 ---------------------------------------------------------------------

 SCF Done:  E(UB3LYP) =  -1136.13650515     A.U. after   20 cycles

 The electronic state is 2-A.
 Alpha  occ. eigenvalues --  -38.44048 -38.43769 -38.43529 -38.43491 -38.43323
 Alpha  occ. eigenvalues --  -38.43095 -38.43077  -2.19885  -2.19628  -2.19453
 Alpha  occ. eigenvalues --   -2.19408  -2.19186  -2.19138  -2.19019  -1.13556
 Alpha  occ. eigenvalues --   -1.13547  -1.13535  -1.13317  -1.13297  -1.13265
 Alpha  occ. eigenvalues --   -1.13151  -1.13118  -1.13094  -1.13071  -1.13031
 Alpha  occ. eigenvalues --   -1.13026  -1.12944  -1.12864  -1.12844  -1.12797
 Alpha  occ. eigenvalues --   -1.12764  -1.12737  -1.12681  -1.12656  -1.12633
 Alpha  occ. eigenvalues --   -0.19110  -0.13247  -0.12499  -0.10899
 Alpha virt. eigenvalues --   -0.05663  -0.05080  -0.04391  -0.03247  -0.02877
 Alpha virt. eigenvalues --   -0.02548  -0.01546  -0.01006  -0.00201  -0.00098
 Alpha virt. eigenvalues --    0.00029   0.00350   0.00828   0.00915   0.00938

  Beta  occ. eigenvalues --  -38.44049 -38.43763 -38.43471 -38.43437 -38.43319
  Beta  occ. eigenvalues --  -38.43085 -38.43014  -2.19889  -2.19621  -2.19375
  Beta  occ. eigenvalues --   -2.19283  -2.19182  -2.19025  -2.19004  -1.13559
  Beta  occ. eigenvalues --   -1.13540  -1.13536  -1.13307  -1.13269  -1.13262
  Beta  occ. eigenvalues --   -1.13114  -1.13032  -1.13010  -1.12994  -1.12954
  Beta  occ. eigenvalues --   -1.12942  -1.12922  -1.12832  -1.12804  -1.12796
  Beta  occ. eigenvalues --   -1.12699  -1.12659  -1.12647  -1.12627  -1.12606
  Beta  occ. eigenvalues --   -0.18378  -0.13024  -0.12239
  Beta virt. eigenvalues --   -0.06911  -0.05606  -0.05070  -0.04371  -0.02502
  Beta virt. eigenvalues --   -0.02079  -0.01500  -0.01437  -0.00934  -0.00223
  Beta virt. eigenvalues --   -0.00100   0.00145   0.00385   0.00891   0.00920

 Mulliken charges and spin densities:
               1          2
     1  Na  -0.579156   0.698658
     2  Na   0.201321  -0.033619
     3  Na   0.341333   0.070185
     4  Na   0.096843  -0.081256
     5  Na   0.393393   0.044411
     6  Na  -0.431123   0.348534
     7  Na  -0.022611  -0.046912
 Sum of Mulliken charges =  -0.00000   1.00000

 Dipole moment (field-independent basis, Debye):
    X=             -0.0178    Y=              0.1492    Z=              0.2111  Tot=              0.2591
 Quadrupole moment (field-independent basis, Debye-Ang):
   XX=            -54.9683   YY=            -64.9410   ZZ=            -73.5104
   XY=              0.1406   XZ=             -1.7322   YZ=              0.3839

 Normal termination of Gaussian 16 at Fri Dec  8 04:46:47 2023.
