 Gaussian 16, Revision B.01,
 Gaussian 16:  ES64L-G16RevB.01 20-Dec-2017

 -------------------------
 #P B3LYP/6-311+g(d) force
 -------------------------

 -----
 DPGEN
 -----
 Symbolic Z-matrix:
 Charge =  0 Multiplicity = 2

                         Standard orientation:
 ---------------------------------------------------------------------
 Center     Atomic      Atomic             Coordinates (Angstroms)
 Number     Number       Type             X           Y           Z
 ---------------------------------------------------------------------
      1         11           0       -0.794155    1.907633    0.081636
      2         11           0        0.237903   -0.211841    1.923278
      3         11           0        2.066972   -1.314052   -0.214295
      4         11           0        1.916632    1.404905    0.104241
      5         11           0        0.037846    0.109938   -1.910749
      6         11           0       -0.801404   -1.861849   -0.018757
      7         11           0       -2.663793   -0.034733    0.034646
 ---------------------------------------------------------------------

 SCF Done:  E(UB3LYP) =  -1136.07269847     A.U. after   20 cycles

 The electronic state is 2-A.
 Alpha  occ. eigenvalues --  -38.44588 -38.44554 -38.44478 -38.43700 -38.43658
 Alpha  occ. eigenvalues --  -38.43507 -38.43362  -2.20784  -2.20763  -2.20574
 Alpha  occ. eigenvalues --   -2.19870  -2.19777  -2.19728  -2.19566  -1.14620
 Alpha  occ. eigenvalues --   -1.14527  -1.14492  -1.14461  -1.14446  -1.14400
 Alpha  occ. eigenvalues --   -1.14383  -1.14323  -1.14124  -1.13790  -1.13685
 Alpha  occ. eigenvalues --   -1.13540  -1.13472  -1.13385  -1.13338  -1.13317
 Alpha  occ. eigenvalues --   -1.13255  -1.13199  -1.13186  -1.13164  -1.13072
 Alpha  occ. eigenvalues --   -0.21901  -0.14049  -0.12809  -0.12611
 Alpha virt. eigenvalues --   -0.05311  -0.04127  -0.04020  -0.03878  -0.03246
 Alpha virt. eigenvalues --   -0.03106  -0.01058  -0.00345  -0.00199   0.00325
 Alpha virt. eigenvalues --    0.00813   0.00912   0.01063   0.01192   0.01269

  Beta  occ. eigenvalues --  -38.44489 -38.44472 -38.44454 -38.43686 -38.43643
  Beta  occ. eigenvalues --  -38.43489 -38.43345  -2.20604  -2.20582  -2.20567
  Beta  occ. eigenvalues --   -2.19851  -2.19757  -2.19703  -2.19543  -1.14548
  Beta  occ. eigenvalues --   -1.14454  -1.14411  -1.14373  -1.14333  -1.14313
  Beta  occ. eigenvalues --   -1.14252  -1.14230  -1.14075  -1.13784  -1.13673
  Beta  occ. eigenvalues --   -1.13530  -1.13400  -1.13317  -1.13308  -1.13250
  Beta  occ. eigenvalues --   -1.13246  -1.13192  -1.13173  -1.13086  -1.13065
  Beta  occ. eigenvalues --   -0.21008  -0.13664  -0.12269
  Beta virt. eigenvalues --   -0.08536  -0.05327  -0.04121  -0.03726  -0.03023
  Beta virt. eigenvalues --   -0.02336  -0.02130  -0.00979  -0.00305  -0.00028
  Beta virt. eigenvalues --    0.00346   0.00833   0.00892   0.01097   0.01184

 Mulliken charges and spin densities:
               1          2
     1  Na   0.000986   0.032420
     2  Na  -0.026822   0.493650
     3  Na   0.079848  -0.002788
     4  Na   0.153356   0.024562
     5  Na  -0.001138   0.497186
     6  Na  -0.021659   0.018040
     7  Na  -0.184572  -0.063071
 Sum of Mulliken charges =  -0.00000   1.00000

 Dipole moment (field-independent basis, Debye):
    X=              0.0042    Y=             -0.0335    Z=              0.0205  Tot=              0.0395
 Quadrupole moment (field-independent basis, Debye-Ang):
   XX=            -60.5036   YY=            -72.8951   ZZ=            -65.6621
   XY=             -0.3421   XZ=             -0.3345   YZ=              0.7346

 Normal termination of Gaussian 16 at Thu Dec  7 05:37:42 2023.
