 Gaussian 16, Revision B.01,
 Gaussian 16:  ES64L-G16RevB.01 20-Dec-2017

 -------------------------
 #P B3LYP/6-311+g(d) force
 -------------------------

 -----
 DPGEN
 -----
 Symbolic Z-matrix:
 Charge =  0 Multiplicity = 2

                         Standard orientation:
 ---------------------------------------------------------------------
 Center     Atomic      Atomic             Coordinates (Angstroms)
 Number     Number       Type             X           Y           Z
 ---------------------------------------------------------------------
      1         11           0       -0.857564    2.822723    0.235350
      2         11           0        2.091110   -1.967834   -0.598971
      3         11           0        0.162946    0.184428   -1.589542
      4         11           0        3.035144    1.299361   -0.048254
      5         11           0       -1.307571   -2.305026    0.464826
      6         11           0       -3.337147    0.125341   -0.602830
      7         11           0        0.213082   -0.158993    2.139421
 ---------------------------------------------------------------------

 SCF Done:  E(UB3LYP) =  -1136.13354078     A.U. after   20 cycles

 The electronic state is 2-A.
 Alpha  occ. eigenvalues --  -38.44338 -38.44299 -38.43864 -38.43521 -38.43421
 Alpha  occ. eigenvalues --  -38.43385 -38.42912  -2.20145  -2.20108  -2.19766
 Alpha  occ. eigenvalues --   -2.19415  -2.19399  -2.19193  -2.18815  -1.13823
 Alpha  occ. eigenvalues --   -1.13808  -1.13782  -1.13778  -1.13769  -1.13738
 Alpha  occ. eigenvalues --   -1.13449  -1.13389  -1.13377  -1.13222  -1.13090
 Alpha  occ. eigenvalues --   -1.13049  -1.13035  -1.13013  -1.12985  -1.12870
 Alpha  occ. eigenvalues --   -1.12866  -1.12814  -1.12516  -1.12467  -1.12437
 Alpha  occ. eigenvalues --   -0.18614  -0.13161  -0.12053  -0.11108
 Alpha virt. eigenvalues --   -0.06038  -0.04934  -0.04258  -0.03329  -0.02938
 Alpha virt. eigenvalues --   -0.02795  -0.01830  -0.00997  -0.00385  -0.00125
 Alpha virt. eigenvalues --    0.00048   0.00327   0.00785   0.00806   0.00881

  Beta  occ. eigenvalues --  -38.44337 -38.44286 -38.43759 -38.43505 -38.43382
  Beta  occ. eigenvalues --  -38.43369 -38.42900  -2.20146  -2.20085  -2.19574
  Beta  occ. eigenvalues --   -2.19385  -2.19310  -2.19190  -2.18797  -1.13813
  Beta  occ. eigenvalues --   -1.13811  -1.13776  -1.13758  -1.13750  -1.13724
  Beta  occ. eigenvalues --   -1.13320  -1.13254  -1.13241  -1.13180  -1.13035
  Beta  occ. eigenvalues --   -1.13014  -1.12998  -1.12968  -1.12927  -1.12860
  Beta  occ. eigenvalues --   -1.12852  -1.12810  -1.12495  -1.12434  -1.12428
  Beta  occ. eigenvalues --   -0.17889  -0.12888  -0.11817
  Beta virt. eigenvalues --   -0.07187  -0.05966  -0.04899  -0.04182  -0.02636
  Beta virt. eigenvalues --   -0.02162  -0.01793  -0.01684  -0.00932  -0.00370
  Beta virt. eigenvalues --   -0.00077   0.00112   0.00366   0.00830   0.00884

 Mulliken charges and spin densities:
               1          2
     1  Na  -0.107813   0.013945
     2  Na   0.291356   0.046046
     3  Na  -0.179225   0.263505
     4  Na   0.024374  -0.035834
     5  Na   0.295180   0.133542
     6  Na  -0.023150  -0.004739
     7  Na  -0.300723   0.583537
 Sum of Mulliken charges =  -0.00000   1.00000

 Dipole moment (field-independent basis, Debye):
    X=              0.2260    Y=              0.2680    Z=              0.0699  Tot=              0.3575
 Quadrupole moment (field-independent basis, Debye-Ang):
   XX=            -54.1860   YY=            -66.7544   ZZ=            -72.5572
   XY=              0.5197   XZ=              0.9394   YZ=              1.2218

 Normal termination of Gaussian 16 at Thu Dec  7 09:37:10 2023.
