 Gaussian 16, Revision B.01,
 Gaussian 16:  ES64L-G16RevB.01 20-Dec-2017

 -------------------------
 #P B3LYP/6-311+g(d) force
 -------------------------

 -----
 DPGEN
 -----
 Symbolic Z-matrix:
 Charge =  0 Multiplicity = 2

                         Standard orientation:
 ---------------------------------------------------------------------
 Center     Atomic      Atomic             Coordinates (Angstroms)
 Number     Number       Type             X           Y           Z
 ---------------------------------------------------------------------
      1         11           0        1.860403   -1.582202    1.783159
      2         11           0        0.986847    0.456806   -1.168688
      3         11           0       -2.187657    1.601637    0.438284
      4         11           0       -1.392961   -1.847826    0.057922
      5         11           0       -4.389829   -0.813311   -0.492650
      6         11           0        1.291613    3.354088    0.361898
      7         11           0        3.831584   -1.169193   -0.979925
 ---------------------------------------------------------------------

 SCF Done:  E(UB3LYP) =  -1136.12237207     A.U. after   20 cycles

 The electronic state is 2-A.
 Alpha  occ. eigenvalues --  -38.44535 -38.44219 -38.44052 -38.43970 -38.43902
 Alpha  occ. eigenvalues --  -38.43558 -38.43513  -2.20350  -2.20037  -2.19951
 Alpha  occ. eigenvalues --   -2.19841  -2.19750  -2.19363  -2.19341  -1.14053
 Alpha  occ. eigenvalues --   -1.14049  -1.13939  -1.13704  -1.13690  -1.13678
 Alpha  occ. eigenvalues --   -1.13670  -1.13628  -1.13566  -1.13543  -1.13514
 Alpha  occ. eigenvalues --   -1.13490  -1.13398  -1.13393  -1.13341  -1.13022
 Alpha  occ. eigenvalues --   -1.13015  -1.13009  -1.13001  -1.12974  -1.12964
 Alpha  occ. eigenvalues --   -0.17495  -0.14131  -0.11956  -0.10214
 Alpha virt. eigenvalues --   -0.06723  -0.05704  -0.04139  -0.03618  -0.02871
 Alpha virt. eigenvalues --   -0.02404  -0.01755  -0.01440  -0.00916  -0.00652
 Alpha virt. eigenvalues --   -0.00155  -0.00105   0.00392   0.00603   0.00666

  Beta  occ. eigenvalues --  -38.44529 -38.44186 -38.44036 -38.43944 -38.43863
  Beta  occ. eigenvalues --  -38.43563 -38.43440  -2.20342  -2.19978  -2.19927
  Beta  occ. eigenvalues --   -2.19797  -2.19676  -2.19351  -2.19228  -1.14049
  Beta  occ. eigenvalues --   -1.14038  -1.13925  -1.13667  -1.13651  -1.13644
  Beta  occ. eigenvalues --   -1.13617  -1.13590  -1.13544  -1.13518  -1.13483
  Beta  occ. eigenvalues --   -1.13436  -1.13345  -1.13340  -1.13293  -1.13022
  Beta  occ. eigenvalues --   -1.13016  -1.12969  -1.12924  -1.12910  -1.12887
  Beta  occ. eigenvalues --   -0.16972  -0.13614  -0.11760
  Beta virt. eigenvalues --   -0.06612  -0.06496  -0.05615  -0.03680  -0.03358
  Beta virt. eigenvalues --   -0.02548  -0.02107  -0.01573  -0.01138  -0.00524
  Beta virt. eigenvalues --   -0.00275  -0.00034   0.00032   0.00551   0.00688

 Mulliken charges and spin densities:
               1          2
     1  Na  -0.000281   0.111736
     2  Na   0.619699   0.273338
     3  Na  -0.133566   0.105225
     4  Na  -0.533163   0.026831
     5  Na   0.387813   0.257669
     6  Na  -0.164833  -0.061591
     7  Na  -0.175669   0.286792
 Sum of Mulliken charges =  -0.00000   1.00000

 Dipole moment (field-independent basis, Debye):
    X=             -0.5337    Y=              0.0321    Z=              0.9037  Tot=              1.0500
 Quadrupole moment (field-independent basis, Debye-Ang):
   XX=            -61.8761   YY=            -69.4337   ZZ=            -67.7103
   XY=              0.9954   XZ=              4.6007   YZ=              3.2019

 Normal termination of Gaussian 16 at Tue Nov 28 22:58:50 2023.
