 Gaussian 16, Revision B.01,
 Gaussian 16:  ES64L-G16RevB.01 20-Dec-2017

 -------------------------
 #P B3LYP/6-311+g(d) force
 -------------------------

 -----
 DPGEN
 -----
 Symbolic Z-matrix:
 Charge =  0 Multiplicity = 2

                         Standard orientation:
 ---------------------------------------------------------------------
 Center     Atomic      Atomic             Coordinates (Angstroms)
 Number     Number       Type             X           Y           Z
 ---------------------------------------------------------------------
      1         11           0        1.987435   -1.576024   -0.819671
      2         11           0        4.822119   -2.074658    0.799168
      3         11           0        3.836715    1.498883    0.882312
      4         11           0        0.774932    2.600084   -0.022670
      5         11           0       -1.000625    0.945205   -1.737436
      6         11           0       -4.255037   -1.190792   -0.938127
      7         11           0       -6.165538   -0.202699    1.836424
 ---------------------------------------------------------------------

 SCF Done:  E(UB3LYP) =  -1136.11127262     A.U. after   21 cycles

 The electronic state is 2-A.
 Alpha  occ. eigenvalues --  -38.45164 -38.44821 -38.44537 -38.44266 -38.44118
 Alpha  occ. eigenvalues --  -38.43831 -38.43820  -2.20957  -2.20639  -2.20291
 Alpha  occ. eigenvalues --   -2.20001  -2.19915  -2.19682  -2.19663  -1.14644
 Alpha  occ. eigenvalues --   -1.14611  -1.14565  -1.14309  -1.14302  -1.14233
 Alpha  occ. eigenvalues --   -1.13950  -1.13949  -1.13908  -1.13689  -1.13677
 Alpha  occ. eigenvalues --   -1.13636  -1.13582  -1.13579  -1.13548  -1.13500
 Alpha  occ. eigenvalues --   -1.13340  -1.13336  -1.13301  -1.13299  -1.13213
 Alpha  occ. eigenvalues --   -0.16429  -0.13543  -0.12281  -0.11287
 Alpha virt. eigenvalues --   -0.06652  -0.05795  -0.04460  -0.03793  -0.03000
 Alpha virt. eigenvalues --   -0.02440  -0.02234  -0.01437  -0.01095  -0.01051
 Alpha virt. eigenvalues --   -0.00576  -0.00407   0.00022   0.00269   0.00616

  Beta  occ. eigenvalues --  -38.45115 -38.44741 -38.44494 -38.44286 -38.44115
  Beta  occ. eigenvalues --  -38.43809 -38.43804  -2.20865  -2.20493  -2.20211
  Beta  occ. eigenvalues --   -2.20040  -2.19910  -2.19653  -2.19623  -1.14583
  Beta  occ. eigenvalues --   -1.14548  -1.14493  -1.14211  -1.14204  -1.14120
  Beta  occ. eigenvalues --   -1.13895  -1.13894  -1.13858  -1.13718  -1.13705
  Beta  occ. eigenvalues --   -1.13645  -1.13578  -1.13565  -1.13549  -1.13474
  Beta  occ. eigenvalues --   -1.13323  -1.13313  -1.13273  -1.13264  -1.13184
  Beta  occ. eigenvalues --   -0.15740  -0.13362  -0.11919
  Beta virt. eigenvalues --   -0.07786  -0.06162  -0.05557  -0.03981  -0.03518
  Beta virt. eigenvalues --   -0.02426  -0.02285  -0.02172  -0.01302  -0.00984
  Beta virt. eigenvalues --   -0.00694  -0.00209  -0.00164   0.00172   0.00355

 Mulliken charges and spin densities:
               1          2
     1  Na  -0.361539   0.327627
     2  Na   0.793466  -0.023512
     3  Na  -0.125000   0.375637
     4  Na   0.451657   0.097257
     5  Na  -0.857421   0.124262
     6  Na  -0.027624  -0.108053
     7  Na   0.126461   0.206782
 Sum of Mulliken charges =  -0.00000   1.00000

 Dipole moment (field-independent basis, Debye):
    X=              1.1501    Y=             -0.2552    Z=              0.5535  Tot=              1.3016
 Quadrupole moment (field-independent basis, Debye-Ang):
   XX=            -62.0512   YY=            -69.0809   ZZ=            -66.1127
   XY=             -4.8039   XZ=             -0.1927   YZ=              2.5167

 Normal termination of Gaussian 16 at Tue Nov 28 19:12:41 2023.
