 Gaussian 16, Revision B.01,
 Gaussian 16:  ES64L-G16RevB.01 20-Dec-2017

 -------------------------
 #P B3LYP/6-311+g(d) force
 -------------------------

 -----
 DPGEN
 -----
 Symbolic Z-matrix:
 Charge =  0 Multiplicity = 2

                         Standard orientation:
 ---------------------------------------------------------------------
 Center     Atomic      Atomic             Coordinates (Angstroms)
 Number     Number       Type             X           Y           Z
 ---------------------------------------------------------------------
      1         11           0        2.100303    1.729994   -0.911663
      2         11           0        0.810440    1.321452    2.287633
      3         11           0        2.665526   -1.840477    0.090297
      4         11           0       -1.557764    2.140735   -0.755095
      5         11           0       -3.256714   -0.715026    0.031808
      6         11           0       -0.882554   -1.520865    1.159012
      7         11           0        0.120764   -1.115812   -1.901992
 ---------------------------------------------------------------------

 SCF Done:  E(UB3LYP) =  -1136.12745485     A.U. after   21 cycles

 The electronic state is 2-A.
 Alpha  occ. eigenvalues --  -38.44326 -38.44096 -38.44018 -38.43705 -38.43692
 Alpha  occ. eigenvalues --  -38.43554 -38.43549  -2.20155  -2.19990  -2.19914
 Alpha  occ. eigenvalues --   -2.19532  -2.19521  -2.19504  -2.19371  -1.13869
 Alpha  occ. eigenvalues --   -1.13824  -1.13789  -1.13764  -1.13621  -1.13604
 Alpha  occ. eigenvalues --   -1.13598  -1.13557  -1.13530  -1.13216  -1.13198
 Alpha  occ. eigenvalues --   -1.13175  -1.13169  -1.13162  -1.13156  -1.13145
 Alpha  occ. eigenvalues --   -1.13141  -1.13104  -1.13054  -1.13033  -1.12996
 Alpha  occ. eigenvalues --   -0.18461  -0.13133  -0.11829  -0.11734
 Alpha virt. eigenvalues --   -0.05567  -0.05244  -0.04220  -0.03507  -0.03453
 Alpha virt. eigenvalues --   -0.03015  -0.01461  -0.00900  -0.00395   0.00049
 Alpha virt. eigenvalues --    0.00229   0.00360   0.00548   0.00694   0.00899

  Beta  occ. eigenvalues --  -38.44245 -38.44096 -38.43967 -38.43695 -38.43692
  Beta  occ. eigenvalues --  -38.43538 -38.43512  -2.20006  -2.19991  -2.19820
  Beta  occ. eigenvalues --   -2.19516  -2.19508  -2.19454  -2.19343  -1.13860
  Beta  occ. eigenvalues --   -1.13716  -1.13690  -1.13659  -1.13607  -1.13597
  Beta  occ. eigenvalues --   -1.13554  -1.13481  -1.13464  -1.13195  -1.13181
  Beta  occ. eigenvalues --   -1.13165  -1.13163  -1.13155  -1.13139  -1.13121
  Beta  occ. eigenvalues --   -1.13079  -1.13062  -1.13026  -1.13008  -1.12979
  Beta  occ. eigenvalues --   -0.17684  -0.12953  -0.11579
  Beta virt. eigenvalues --   -0.07808  -0.05393  -0.05169  -0.03509  -0.03351
  Beta virt. eigenvalues --   -0.02806  -0.02080  -0.01407  -0.00822  -0.00126
  Beta virt. eigenvalues --    0.00053   0.00254   0.00395   0.00732   0.00802

 Mulliken charges and spin densities:
               1          2
     1  Na  -0.030987   0.028882
     2  Na  -0.279116   0.288458
     3  Na   0.386099  -0.123314
     4  Na  -0.052542   0.089640
     5  Na   0.152474  -0.097441
     6  Na   0.282894   0.225387
     7  Na  -0.458823   0.588389
 Sum of Mulliken charges =  -0.00000   1.00000

 Dipole moment (field-independent basis, Debye):
    X=              0.1705    Y=              0.1159    Z=             -0.1003  Tot=              0.2293
 Quadrupole moment (field-independent basis, Debye-Ang):
   XX=            -57.6423   YY=            -72.7499   ZZ=            -65.9027
   XY=             -0.7012   XZ=              1.4299   YZ=             -0.8517

 Normal termination of Gaussian 16 at Tue Dec  5 12:46:42 2023.
