 Gaussian 16, Revision B.01,
 Gaussian 16:  ES64L-G16RevB.01 20-Dec-2017

 -------------------------
 #P B3LYP/6-311+g(d) force
 -------------------------

 -----
 DPGEN
 -----
 Symbolic Z-matrix:
 Charge =  0 Multiplicity = 2

                         Standard orientation:
 ---------------------------------------------------------------------
 Center     Atomic      Atomic             Coordinates (Angstroms)
 Number     Number       Type             X           Y           Z
 ---------------------------------------------------------------------
      1         11           0        4.803536   -1.039885   -1.005809
      2         11           0        3.350242    2.160754   -0.243764
      3         11           0        2.019773   -2.292260    0.548160
      4         11           0       -5.036926   -1.140556   -0.860750
      5         11           0        0.041809    1.485501    1.403258
      6         11           0       -2.202788   -1.244560    0.801689
      7         11           0       -2.975647    2.071006   -0.642784
 ---------------------------------------------------------------------

 SCF Done:  E(UB3LYP) =  -1136.11158096     A.U. after   27 cycles

 The electronic state is 2-A.
 Alpha  occ. eigenvalues --  -38.45940 -38.45102 -38.44650 -38.44637 -38.43894
 Alpha  occ. eigenvalues --  -38.43684 -38.42792  -2.21692  -2.20873  -2.20462
 Alpha  occ. eigenvalues --   -2.20425  -2.19684  -2.19478  -2.18597  -1.15392
 Alpha  occ. eigenvalues --   -1.15354  -1.15298  -1.14544  -1.14515  -1.14485
 Alpha  occ. eigenvalues --   -1.14162  -1.14121  -1.14102  -1.14093  -1.14073
 Alpha  occ. eigenvalues --   -1.14043  -1.13351  -1.13339  -1.13327  -1.13148
 Alpha  occ. eigenvalues --   -1.13146  -1.13118  -1.12272  -1.12265  -1.12243
 Alpha  occ. eigenvalues --   -0.16377  -0.14341  -0.11361  -0.11069
 Alpha virt. eigenvalues --   -0.07252  -0.05555  -0.04496  -0.03597  -0.03166
 Alpha virt. eigenvalues --   -0.02387  -0.02324  -0.01588  -0.00941  -0.00738
 Alpha virt. eigenvalues --   -0.00491  -0.00153   0.00072   0.00318   0.00546

  Beta  occ. eigenvalues --  -38.45936 -38.45029 -38.44620 -38.44586 -38.43877
  Beta  occ. eigenvalues --  -38.43692 -38.42779  -2.21685  -2.20739  -2.20434
  Beta  occ. eigenvalues --   -2.20306  -2.19653  -2.19493  -2.18576  -1.15387
  Beta  occ. eigenvalues --   -1.15350  -1.15292  -1.14454  -1.14427  -1.14383
  Beta  occ. eigenvalues --   -1.14145  -1.14114  -1.14045  -1.14024  -1.13995
  Beta  occ. eigenvalues --   -1.13943  -1.13332  -1.13313  -1.13298  -1.13167
  Beta  occ. eigenvalues --   -1.13156  -1.13119  -1.12260  -1.12240  -1.12224
  Beta  occ. eigenvalues --   -0.15855  -0.13812  -0.11117
  Beta virt. eigenvalues --   -0.07677  -0.07023  -0.04940  -0.04078  -0.03189
  Beta virt. eigenvalues --   -0.02904  -0.02251  -0.01830  -0.01534  -0.00866
  Beta virt. eigenvalues --   -0.00604  -0.00108   0.00028   0.00218   0.00414

 Mulliken charges and spin densities:
               1          2
     1  Na   0.120692   0.088563
     2  Na   0.115375   0.369247
     3  Na  -0.099820   0.354440
     4  Na   0.561410   0.045031
     5  Na  -0.606432   0.006001
     6  Na  -0.468039   0.080869
     7  Na   0.376814   0.055849
 Sum of Mulliken charges =  -0.00000   1.00000

 Dipole moment (field-independent basis, Debye):
    X=             -0.5656    Y=              0.7662    Z=             -0.7443  Tot=              1.2087
 Quadrupole moment (field-independent basis, Debye-Ang):
   XX=            -60.7590   YY=            -66.8063   ZZ=            -70.3387
   XY=             -1.8091   XZ=              0.4740   YZ=             -4.1042

 Normal termination of Gaussian 16 at Sun Dec  3 16:12:49 2023.
