 Gaussian 16, Revision B.01,
 Gaussian 16:  ES64L-G16RevB.01 20-Dec-2017

 -------------------------
 #P B3LYP/6-311+g(d) force
 -------------------------

 -----
 DPGEN
 -----
 Symbolic Z-matrix:
 Charge =  0 Multiplicity = 2

                         Standard orientation:
 ---------------------------------------------------------------------
 Center     Atomic      Atomic             Coordinates (Angstroms)
 Number     Number       Type             X           Y           Z
 ---------------------------------------------------------------------
      1         11           0       -0.281360   -0.015548   -1.732972
      2         11           0       -0.509268    3.031367    0.157081
      3         11           0        3.102024    1.355745   -0.438839
      4         11           0       -1.173548   -2.417718    0.382511
      5         11           0        2.350375   -2.247110   -0.232284
      6         11           0        0.100565    0.225123    2.341832
      7         11           0       -3.588788    0.068141   -0.477330
 ---------------------------------------------------------------------

 SCF Done:  E(UB3LYP) =  -1136.13180268     A.U. after   20 cycles

 The electronic state is 2-A.
 Alpha  occ. eigenvalues --  -38.44461 -38.44425 -38.44204 -38.43926 -38.43610
 Alpha  occ. eigenvalues --  -38.43588 -38.43225  -2.20239  -2.20186  -2.20036
 Alpha  occ. eigenvalues --   -2.19808  -2.19402  -2.19371  -2.19088  -1.13913
 Alpha  occ. eigenvalues --   -1.13888  -1.13880  -1.13868  -1.13839  -1.13818
 Alpha  occ. eigenvalues --   -1.13689  -1.13662  -1.13652  -1.13507  -1.13458
 Alpha  occ. eigenvalues --   -1.13419  -1.13080  -1.13061  -1.13050  -1.13049
 Alpha  occ. eigenvalues --   -1.13043  -1.13000  -1.12781  -1.12764  -1.12698
 Alpha  occ. eigenvalues --   -0.17804  -0.12704  -0.12042  -0.11046
 Alpha virt. eigenvalues --   -0.06121  -0.05187  -0.04598  -0.03183  -0.03003
 Alpha virt. eigenvalues --   -0.02887  -0.01953  -0.01143  -0.00642  -0.00305
 Alpha virt. eigenvalues --   -0.00131   0.00285   0.00688   0.00766   0.00833

  Beta  occ. eigenvalues --  -38.44452 -38.44417 -38.44093 -38.43879 -38.43610
  Beta  occ. eigenvalues --  -38.43585 -38.43214  -2.20224  -2.20172  -2.19832
  Beta  occ. eigenvalues --   -2.19721  -2.19405  -2.19368  -2.19071  -1.13891
  Beta  occ. eigenvalues --   -1.13880  -1.13872  -1.13851  -1.13831  -1.13809
  Beta  occ. eigenvalues --   -1.13553  -1.13524  -1.13501  -1.13448  -1.13400
  Beta  occ. eigenvalues --   -1.13351  -1.13075  -1.13063  -1.13044  -1.13043
  Beta  occ. eigenvalues --   -1.13027  -1.13001  -1.12773  -1.12726  -1.12687
  Beta  occ. eigenvalues --   -0.17098  -0.12462  -0.11857
  Beta virt. eigenvalues --   -0.07152  -0.06016  -0.05159  -0.04434  -0.02528
  Beta virt. eigenvalues --   -0.02273  -0.01925  -0.01813  -0.01110  -0.00653
  Beta virt. eigenvalues --   -0.00306   0.00032   0.00336   0.00758   0.00812

 Mulliken charges and spin densities:
               1          2
     1  Na  -0.034251   0.424223
     2  Na  -0.047141  -0.068571
     3  Na   0.034149  -0.020518
     4  Na   0.141180   0.118063
     5  Na  -0.008215  -0.045747
     6  Na  -0.271652   0.598124
     7  Na   0.185930  -0.005573
 Sum of Mulliken charges =  -0.00000   1.00000

 Dipole moment (field-independent basis, Debye):
    X=             -0.1342    Y=              0.2437    Z=              0.0035  Tot=              0.2782
 Quadrupole moment (field-independent basis, Debye-Ang):
   XX=            -55.1752   YY=            -66.3943   ZZ=            -72.6895
   XY=             -0.4058   XZ=             -0.3438   YZ=             -0.6333

 Normal termination of Gaussian 16 at Fri Dec  8 01:51:28 2023.
