 Gaussian 16, Revision B.01,
 Gaussian 16:  ES64L-G16RevB.01 20-Dec-2017

 -------------------------
 #P B3LYP/6-311+g(d) force
 -------------------------

 -----
 DPGEN
 -----
 Symbolic Z-matrix:
 Charge =  0 Multiplicity = 2

                         Standard orientation:
 ---------------------------------------------------------------------
 Center     Atomic      Atomic             Coordinates (Angstroms)
 Number     Number       Type             X           Y           Z
 ---------------------------------------------------------------------
      1         11           0        0.654938   -0.261663    2.089981
      2         11           0       -3.261745   -0.467377   -0.129316
      3         11           0        1.991138    2.460366   -0.153968
      4         11           0       -0.253968    0.160966   -1.380077
      5         11           0       -0.694063   -2.957316   -0.023573
      6         11           0       -1.598953    2.442875    0.121009
      7         11           0        3.162651   -1.377852   -0.524055
 ---------------------------------------------------------------------

 SCF Done:  E(UB3LYP) =  -1136.13299348     A.U. after   20 cycles

 The electronic state is 2-A.
 Alpha  occ. eigenvalues --  -38.44536 -38.44014 -38.44013 -38.43814 -38.43519
 Alpha  occ. eigenvalues --  -38.43305 -38.43122  -2.20297  -2.19852  -2.19821
 Alpha  occ. eigenvalues --   -2.19622  -2.19396  -2.19163  -2.19119  -1.13972
 Alpha  occ. eigenvalues --   -1.13942  -1.13937  -1.13535  -1.13518  -1.13503
 Alpha  occ. eigenvalues --   -1.13492  -1.13484  -1.13453  -1.13308  -1.13292
 Alpha  occ. eigenvalues --   -1.13247  -1.13151  -1.13047  -1.13009  -1.12842
 Alpha  occ. eigenvalues --   -1.12799  -1.12786  -1.12778  -1.12752  -1.12732
 Alpha  occ. eigenvalues --   -0.18244  -0.12966  -0.12444  -0.10216
 Alpha virt. eigenvalues --   -0.06094  -0.05410  -0.04776  -0.03070  -0.02739
 Alpha virt. eigenvalues --   -0.02166  -0.01803  -0.01380  -0.00735  -0.00523
 Alpha virt. eigenvalues --   -0.00020   0.00302   0.00701   0.00783   0.00826

  Beta  occ. eigenvalues --  -38.44520 -38.44013 -38.44009 -38.43810 -38.43515
  Beta  occ. eigenvalues --  -38.43207 -38.43080  -2.20269  -2.19852  -2.19817
  Beta  occ. eigenvalues --   -2.19619  -2.19391  -2.19044  -2.18982  -1.13939
  Beta  occ. eigenvalues --   -1.13924  -1.13920  -1.13533  -1.13509  -1.13496
  Beta  occ. eigenvalues --   -1.13491  -1.13468  -1.13451  -1.13305  -1.13270
  Beta  occ. eigenvalues --   -1.13249  -1.13141  -1.13030  -1.13004  -1.12756
  Beta  occ. eigenvalues --   -1.12706  -1.12698  -1.12677  -1.12659  -1.12648
  Beta  occ. eigenvalues --   -0.17591  -0.12726  -0.12244
  Beta virt. eigenvalues --   -0.06395  -0.06011  -0.05365  -0.04716  -0.02374
  Beta virt. eigenvalues --   -0.02023  -0.01684  -0.01327  -0.01176  -0.00750
  Beta virt. eigenvalues --   -0.00553   0.00156   0.00363   0.00745   0.00816

 Mulliken charges and spin densities:
               1          2
     1  Na  -0.489506   0.674582
     2  Na   0.246811   0.011334
     3  Na   0.179138   0.011392
     4  Na  -0.360478   0.294335
     5  Na   0.154997  -0.046415
     6  Na   0.284182   0.030519
     7  Na  -0.015144   0.024254
 Sum of Mulliken charges =  -0.00000   1.00000

 Dipole moment (field-independent basis, Debye):
    X=              0.1693    Y=             -0.0970    Z=              0.0739  Tot=              0.2087
 Quadrupole moment (field-independent basis, Debye-Ang):
   XX=            -54.1886   YY=            -60.8100   ZZ=            -76.9100
   XY=              0.5351   XZ=             -1.6927   YZ=              1.0214

 Normal termination of Gaussian 16 at Thu Dec  7 08:58:37 2023.
