 Gaussian 16, Revision B.01,
 Gaussian 16:  ES64L-G16RevB.01 20-Dec-2017

 -------------------------
 #P B3LYP/6-311+g(d) force
 -------------------------

 -----
 DPGEN
 -----
 Symbolic Z-matrix:
 Charge =  0 Multiplicity = 2

                         Standard orientation:
 ---------------------------------------------------------------------
 Center     Atomic      Atomic             Coordinates (Angstroms)
 Number     Number       Type             X           Y           Z
 ---------------------------------------------------------------------
      1         11           0       -0.378596    3.996808    0.016697
      2         11           0        1.992102    1.013834   -0.233573
      3         11           0        4.546372   -0.863578   -0.598384
      4         11           0        1.408294   -1.962356    1.480306
      5         11           0       -1.344747   -2.398397   -0.867300
      6         11           0       -1.607122    1.310806    0.290695
      7         11           0       -4.616303   -1.097117   -0.088442
 ---------------------------------------------------------------------

 SCF Done:  E(UB3LYP) =  -1136.12410576     A.U. after   21 cycles

 The electronic state is 2-A.
 Alpha  occ. eigenvalues --  -38.44387 -38.44354 -38.43999 -38.43866 -38.43788
 Alpha  occ. eigenvalues --  -38.43768 -38.43741  -2.20197  -2.20131  -2.19855
 Alpha  occ. eigenvalues --   -2.19698  -2.19635  -2.19583  -2.19573  -1.13879
 Alpha  occ. eigenvalues --   -1.13854  -1.13827  -1.13812  -1.13792  -1.13754
 Alpha  occ. eigenvalues --   -1.13567  -1.13557  -1.13486  -1.13416  -1.13342
 Alpha  occ. eigenvalues --   -1.13337  -1.13330  -1.13310  -1.13288  -1.13237
 Alpha  occ. eigenvalues --   -1.13233  -1.13218  -1.13205  -1.13189  -1.13117
 Alpha  occ. eigenvalues --   -0.16832  -0.13608  -0.12805  -0.10480
 Alpha virt. eigenvalues --   -0.05950  -0.05591  -0.04922  -0.03400  -0.02653
 Alpha virt. eigenvalues --   -0.02257  -0.01941  -0.01409  -0.00989  -0.00835
 Alpha virt. eigenvalues --   -0.00610  -0.00194   0.00371   0.00516   0.00581

  Beta  occ. eigenvalues --  -38.44350 -38.44338 -38.43990 -38.43794 -38.43765
  Beta  occ. eigenvalues --  -38.43746 -38.43719  -2.20128  -2.20108  -2.19843
  Beta  occ. eigenvalues --   -2.19633  -2.19581  -2.19564  -2.19453  -1.13829
  Beta  occ. eigenvalues --   -1.13820  -1.13802  -1.13787  -1.13742  -1.13716
  Beta  occ. eigenvalues --   -1.13558  -1.13526  -1.13465  -1.13421  -1.13331
  Beta  occ. eigenvalues --   -1.13294  -1.13251  -1.13241  -1.13223  -1.13213
  Beta  occ. eigenvalues --   -1.13209  -1.13148  -1.13143  -1.13121  -1.13105
  Beta  occ. eigenvalues --   -0.16403  -0.12988  -0.12502
  Beta virt. eigenvalues --   -0.06986  -0.05713  -0.05400  -0.04576  -0.03036
  Beta virt. eigenvalues --   -0.02340  -0.02106  -0.01738  -0.01084  -0.00805
  Beta virt. eigenvalues --   -0.00483  -0.00147   0.00070   0.00428   0.00567

 Mulliken charges and spin densities:
               1          2
     1  Na   0.712715   0.045076
     2  Na  -1.722888   0.305738
     3  Na   1.128116   0.111461
     4  Na   0.208496   0.137066
     5  Na  -0.012527   0.025151
     6  Na  -0.979839   0.033946
     7  Na   0.665926   0.341563
 Sum of Mulliken charges =  -0.00000   1.00000

 Dipole moment (field-independent basis, Debye):
    X=              0.3788    Y=             -0.2629    Z=              0.2220  Tot=              0.5117
 Quadrupole moment (field-independent basis, Debye-Ang):
   XX=            -68.7290   YY=            -60.9658   ZZ=            -68.2697
   XY=             -3.5871   XZ=             -0.5542   YZ=              0.5632

 Normal termination of Gaussian 16 at Thu Nov 30 08:53:44 2023.
