 Gaussian 16, Revision B.01,
 Gaussian 16:  ES64L-G16RevB.01 20-Dec-2017

 -------------------------
 #P B3LYP/6-311+g(d) force
 -------------------------

 -----
 DPGEN
 -----
 Symbolic Z-matrix:
 Charge =  0 Multiplicity = 2

                         Standard orientation:
 ---------------------------------------------------------------------
 Center     Atomic      Atomic             Coordinates (Angstroms)
 Number     Number       Type             X           Y           Z
 ---------------------------------------------------------------------
      1         11           0       -0.005615   -0.115888   -1.648108
      2         11           0        3.025914    0.052928    0.188199
      3         11           0        1.088219    2.945992   -0.329267
      4         11           0       -2.515453    1.805542    0.183698
      5         11           0        1.402852   -2.673055   -0.108223
      6         11           0       -2.724545   -1.784633   -0.349973
      7         11           0       -0.271373   -0.230885    2.063675
 ---------------------------------------------------------------------

 SCF Done:  E(UB3LYP) =  -1136.13765185     A.U. after   19 cycles

 The electronic state is 2-A.
 Alpha  occ. eigenvalues --  -38.44102 -38.44068 -38.43845 -38.43694 -38.43555
 Alpha  occ. eigenvalues --  -38.43304 -38.43215  -2.19911  -2.19871  -2.19705
 Alpha  occ. eigenvalues --   -2.19561  -2.19416  -2.19165  -2.19113  -1.13593
 Alpha  occ. eigenvalues --   -1.13582  -1.13552  -1.13545  -1.13524  -1.13501
 Alpha  occ. eigenvalues --   -1.13396  -1.13369  -1.13355  -1.13228  -1.13191
 Alpha  occ. eigenvalues --   -1.13177  -1.13105  -1.13067  -1.13048  -1.12852
 Alpha  occ. eigenvalues --   -1.12816  -1.12795  -1.12777  -1.12761  -1.12752
 Alpha  occ. eigenvalues --   -0.18389  -0.13099  -0.12251  -0.10667
 Alpha virt. eigenvalues --   -0.05614  -0.05460  -0.04722  -0.03288  -0.02750
 Alpha virt. eigenvalues --   -0.02551  -0.01540  -0.01267  -0.00489  -0.00462
 Alpha virt. eigenvalues --   -0.00016   0.00357   0.00779   0.00813   0.00876

  Beta  occ. eigenvalues --  -38.44098 -38.44060 -38.43841 -38.43600 -38.43551
  Beta  occ. eigenvalues --  -38.43301 -38.43151  -2.19905  -2.19860  -2.19701
  Beta  occ. eigenvalues --   -2.19412  -2.19388  -2.19110  -2.19049  -1.13582
  Beta  occ. eigenvalues --   -1.13564  -1.13547  -1.13526  -1.13515  -1.13495
  Beta  occ. eigenvalues --   -1.13397  -1.13359  -1.13338  -1.13117  -1.13096
  Beta  occ. eigenvalues --   -1.13072  -1.13056  -1.13047  -1.13035  -1.12792
  Beta  occ. eigenvalues --   -1.12770  -1.12766  -1.12752  -1.12715  -1.12691
  Beta  occ. eigenvalues --   -0.17671  -0.12882  -0.12021
  Beta virt. eigenvalues --   -0.06780  -0.05604  -0.05372  -0.04689  -0.02489
  Beta virt. eigenvalues --   -0.02057  -0.01503  -0.01440  -0.01180  -0.00529
  Beta virt. eigenvalues --   -0.00511   0.00129   0.00384   0.00812   0.00852

 Mulliken charges and spin densities:
               1          2
     1  Na  -0.116588   0.528089
     2  Na   0.098488   0.039965
     3  Na  -0.005341  -0.047458
     4  Na   0.052675  -0.022837
     5  Na   0.217141  -0.077006
     6  Na   0.105364  -0.091080
     7  Na  -0.351738   0.670326
 Sum of Mulliken charges =  -0.00000   1.00000

 Dipole moment (field-independent basis, Debye):
    X=             -0.3395    Y=             -0.1635    Z=              0.1374  Tot=              0.4011
 Quadrupole moment (field-independent basis, Debye-Ang):
   XX=            -56.8053   YY=            -61.6458   ZZ=            -74.9591
   XY=             -0.0445   XZ=              0.7090   YZ=              0.3978

 Normal termination of Gaussian 16 at Thu Dec  7 13:53:36 2023.
