 Gaussian 16, Revision B.01,
 Gaussian 16:  ES64L-G16RevB.01 20-Dec-2017

 -------------------------
 #P B3LYP/6-311+g(d) force
 -------------------------

 -----
 DPGEN
 -----
 Symbolic Z-matrix:
 Charge =  0 Multiplicity = 2

                         Standard orientation:
 ---------------------------------------------------------------------
 Center     Atomic      Atomic             Coordinates (Angstroms)
 Number     Number       Type             X           Y           Z
 ---------------------------------------------------------------------
      1         11           0       -3.078667   -1.164670   -0.965080
      2         11           0       -2.317436    2.234637   -0.156184
      3         11           0        0.535546    1.296286    1.744140
      4         11           0        2.248987   -1.958958   -0.069631
      5         11           0        0.024828    0.104675   -1.700386
      6         11           0       -1.182602   -1.460364    1.694753
      7         11           0        3.769344    0.948393   -0.547612
 ---------------------------------------------------------------------

 SCF Done:  E(UB3LYP) =  -1136.12376607     A.U. after   25 cycles

 The electronic state is 2-A.
 Alpha  occ. eigenvalues --  -38.45057 -38.44585 -38.44209 -38.43915 -38.43519
 Alpha  occ. eigenvalues --  -38.43491 -38.43218  -2.20841  -2.20460  -2.20051
 Alpha  occ. eigenvalues --   -2.19738  -2.19392  -2.19372  -2.19037  -1.14513
 Alpha  occ. eigenvalues --   -1.14496  -1.14472  -1.14159  -1.14102  -1.14091
 Alpha  occ. eigenvalues --   -1.13731  -1.13706  -1.13678  -1.13428  -1.13402
 Alpha  occ. eigenvalues --   -1.13366  -1.13140  -1.13039  -1.13014  -1.13008
 Alpha  occ. eigenvalues --   -1.12994  -1.12979  -1.12712  -1.12693  -1.12684
 Alpha  occ. eigenvalues --   -0.18264  -0.13829  -0.11666  -0.10831
 Alpha virt. eigenvalues --   -0.06641  -0.05363  -0.04269  -0.03096  -0.03010
 Alpha virt. eigenvalues --   -0.02760  -0.02324  -0.01117  -0.00654  -0.00252
 Alpha virt. eigenvalues --    0.00174   0.00201   0.00372   0.00604   0.00772

  Beta  occ. eigenvalues --  -38.45046 -38.44545 -38.44190 -38.43911 -38.43450
  Beta  occ. eigenvalues --  -38.43428 -38.43216  -2.20820  -2.20386  -2.20018
  Beta  occ. eigenvalues --   -2.19734  -2.19268  -2.19260  -2.19037  -1.14499
  Beta  occ. eigenvalues --   -1.14477  -1.14459  -1.14105  -1.14052  -1.14030
  Beta  occ. eigenvalues --   -1.13704  -1.13683  -1.13649  -1.13424  -1.13395
  Beta  occ. eigenvalues --   -1.13353  -1.13040  -1.12955  -1.12938  -1.12927
  Beta  occ. eigenvalues --   -1.12913  -1.12883  -1.12709  -1.12696  -1.12668
  Beta  occ. eigenvalues --   -0.17497  -0.13548  -0.10703
  Beta virt. eigenvalues --   -0.07657  -0.06482  -0.05317  -0.03680  -0.02859
  Beta virt. eigenvalues --   -0.02455  -0.02101  -0.01859  -0.01058  -0.00363
  Beta virt. eigenvalues --   -0.00205   0.00169   0.00244   0.00461   0.00702

 Mulliken charges and spin densities:
               1          2
     1  Na   0.256050   0.118898
     2  Na  -0.172567   0.016061
     3  Na  -0.237789   0.357865
     4  Na  -0.049752   0.067696
     5  Na  -0.191770   0.192061
     6  Na   0.125146   0.183494
     7  Na   0.270682   0.063926
 Sum of Mulliken charges =  -0.00000   1.00000

 Dipole moment (field-independent basis, Debye):
    X=              0.7857    Y=              0.0970    Z=             -0.4841  Tot=              0.9279
 Quadrupole moment (field-independent basis, Debye-Ang):
   XX=            -50.1467   YY=            -75.3464   ZZ=            -68.8423
   XY=              1.7253   XZ=              0.4355   YZ=             -0.9612

 Normal termination of Gaussian 16 at Tue Dec  5 20:06:37 2023.
