 Gaussian 16, Revision B.01,
 Gaussian 16:  ES64L-G16RevB.01 20-Dec-2017

 -------------------------
 #P B3LYP/6-311+g(d) force
 -------------------------

 -----
 DPGEN
 -----
 Symbolic Z-matrix:
 Charge =  0 Multiplicity = 2

                         Standard orientation:
 ---------------------------------------------------------------------
 Center     Atomic      Atomic             Coordinates (Angstroms)
 Number     Number       Type             X           Y           Z
 ---------------------------------------------------------------------
      1         11           0        1.728413    2.036840   -0.391520
      2         11           0        1.019702   -1.397910   -1.492041
      3         11           0        3.902928   -0.134526    0.008225
      4         11           0       -1.073178    1.291897   -0.343364
      5         11           0        1.143506   -0.613913    2.176309
      6         11           0       -4.713934    0.685436    0.223896
      7         11           0       -2.007438   -1.867825   -0.181505
 ---------------------------------------------------------------------

 SCF Done:  E(UB3LYP) =  -1136.10855428     A.U. after   28 cycles

 The electronic state is 2-A.
 Alpha  occ. eigenvalues --  -38.46058 -38.45481 -38.44682 -38.43370 -38.43350
 Alpha  occ. eigenvalues --  -38.43348 -38.42965  -2.21856  -2.21335  -2.20452
 Alpha  occ. eigenvalues --   -2.19286  -2.19250  -2.19225  -2.18917  -1.15542
 Alpha  occ. eigenvalues --   -1.15496  -1.15465  -1.15012  -1.14994  -1.14961
 Alpha  occ. eigenvalues --   -1.14114  -1.14108  -1.14067  -1.13062  -1.12994
 Alpha  occ. eigenvalues --   -1.12963  -1.12925  -1.12904  -1.12894  -1.12887
 Alpha  occ. eigenvalues --   -1.12866  -1.12810  -1.12574  -1.12542  -1.12537
 Alpha  occ. eigenvalues --   -0.18633  -0.14129  -0.11139  -0.10884
 Alpha virt. eigenvalues --   -0.08227  -0.05010  -0.04009  -0.03487  -0.03188
 Alpha virt. eigenvalues --   -0.02402  -0.02118  -0.01492  -0.01066  -0.00743
 Alpha virt. eigenvalues --   -0.00167   0.00183   0.00210   0.00580   0.00733

  Beta  occ. eigenvalues --  -38.46011 -38.45467 -38.44639 -38.43363 -38.43314
  Beta  occ. eigenvalues --  -38.43310 -38.42934  -2.21770  -2.21309  -2.20371
  Beta  occ. eigenvalues --   -2.19233  -2.19214  -2.19179  -2.18867  -1.15477
  Beta  occ. eigenvalues --   -1.15438  -1.15401  -1.14997  -1.14973  -1.14934
  Beta  occ. eigenvalues --   -1.14058  -1.14051  -1.14015  -1.13008  -1.12969
  Beta  occ. eigenvalues --   -1.12912  -1.12893  -1.12873  -1.12860  -1.12846
  Beta  occ. eigenvalues --   -1.12821  -1.12785  -1.12539  -1.12517  -1.12468
  Beta  occ. eigenvalues --   -0.17983  -0.13735  -0.10662
  Beta virt. eigenvalues --   -0.07938  -0.07374  -0.04929  -0.03675  -0.03042
  Beta virt. eigenvalues --   -0.02934  -0.01908  -0.01649  -0.01314  -0.00692
  Beta virt. eigenvalues --   -0.00470  -0.00131   0.00217   0.00400   0.00665

 Mulliken charges and spin densities:
               1          2
     1  Na  -0.230960  -0.562083
     2  Na  -0.217508   0.080705
     3  Na   0.647834   0.374752
     4  Na  -1.097237   0.467139
     5  Na  -0.224489   0.217872
     6  Na   0.709935   0.372554
     7  Na   0.412425   0.049060
 Sum of Mulliken charges =  -0.00000   1.00000

 Dipole moment (field-independent basis, Debye):
    X=              0.7495    Y=             -0.8337    Z=              0.3798  Tot=              1.1836
 Quadrupole moment (field-independent basis, Debye-Ang):
   XX=            -50.8134   YY=            -79.7507   ZZ=            -66.4532
   XY=             -0.0519   XZ=             -4.0372   YZ=              1.5233

 Normal termination of Gaussian 16 at Fri Dec  8 07:30:17 2023.
