 Gaussian 16, Revision B.01,
 Gaussian 16:  ES64L-G16RevB.01 20-Dec-2017

 -------------------------
 #P B3LYP/6-311+g(d) force
 -------------------------

 -----
 DPGEN
 -----
 Symbolic Z-matrix:
 Charge =  0 Multiplicity = 2

                         Standard orientation:
 ---------------------------------------------------------------------
 Center     Atomic      Atomic             Coordinates (Angstroms)
 Number     Number       Type             X           Y           Z
 ---------------------------------------------------------------------
      1         11           0        2.082944    2.267570   -0.301008
      2         11           0       -3.575895    0.031906   -1.395445
      3         11           0       -1.961760   -1.508703    1.245988
      4         11           0        3.158604   -1.454097   -1.017268
      5         11           0       -1.119543    1.753083    1.106530
      6         11           0        1.376945   -0.725650    1.882563
      7         11           0        0.038705   -0.364109   -1.521361
 ---------------------------------------------------------------------

 SCF Done:  E(UB3LYP) =  -1136.12967501     A.U. after   25 cycles

 The electronic state is 2-A.
 Alpha  occ. eigenvalues --  -38.44482 -38.44232 -38.44155 -38.44144 -38.43611
 Alpha  occ. eigenvalues --  -38.43129 -38.42710  -2.20361  -2.20040  -2.20027
 Alpha  occ. eigenvalues --   -2.19984  -2.19508  -2.18954  -2.18587  -1.14048
 Alpha  occ. eigenvalues --   -1.14014  -1.13974  -1.13721  -1.13707  -1.13693
 Alpha  occ. eigenvalues --   -1.13671  -1.13668  -1.13663  -1.13636  -1.13615
 Alpha  occ. eigenvalues --   -1.13594  -1.13222  -1.13184  -1.13114  -1.12625
 Alpha  occ. eigenvalues --   -1.12611  -1.12595  -1.12286  -1.12264  -1.12199
 Alpha  occ. eigenvalues --   -0.18488  -0.13705  -0.11869  -0.10903
 Alpha virt. eigenvalues --   -0.06036  -0.05253  -0.04855  -0.03275  -0.02751
 Alpha virt. eigenvalues --   -0.02390  -0.02018  -0.01119  -0.00833  -0.00067
 Alpha virt. eigenvalues --    0.00211   0.00256   0.00470   0.00589   0.00649

  Beta  occ. eigenvalues --  -38.44434 -38.44211 -38.44110 -38.44083 -38.43591
  Beta  occ. eigenvalues --  -38.43129 -38.42705  -2.20275  -2.20000  -2.19919
  Beta  occ. eigenvalues --   -2.19900  -2.19473  -2.18955  -2.18581  -1.13988
  Beta  occ. eigenvalues --   -1.13961  -1.13892  -1.13673  -1.13666  -1.13644
  Beta  occ. eigenvalues --   -1.13639  -1.13604  -1.13587  -1.13560  -1.13557
  Beta  occ. eigenvalues --   -1.13536  -1.13187  -1.13150  -1.13092  -1.12621
  Beta  occ. eigenvalues --   -1.12610  -1.12595  -1.12287  -1.12227  -1.12202
  Beta  occ. eigenvalues --   -0.17726  -0.13504  -0.10690
  Beta virt. eigenvalues --   -0.07913  -0.05816  -0.04776  -0.04588  -0.02830
  Beta virt. eigenvalues --   -0.02236  -0.01946  -0.01820  -0.00744  -0.00622
  Beta virt. eigenvalues --    0.00082   0.00248   0.00410   0.00522   0.00657

 Mulliken charges and spin densities:
               1          2
     1  Na  -0.052772   0.018507
     2  Na   0.453711  -0.010176
     3  Na   0.149297   0.074648
     4  Na   0.192768  -0.096610
     5  Na  -0.178248   0.208176
     6  Na   0.084773   0.314740
     7  Na  -0.649529   0.490716
 Sum of Mulliken charges =  -0.00000   1.00000

 Dipole moment (field-independent basis, Debye):
    X=             -0.3639    Y=              0.2421    Z=              0.2846  Tot=              0.5216
 Quadrupole moment (field-independent basis, Debye-Ang):
   XX=            -53.3156   YY=            -70.6133   ZZ=            -70.8762
   XY=              1.1773   XZ=              1.1003   YZ=             -7.1391

 Normal termination of Gaussian 16 at Tue Dec  5 12:43:17 2023.
