 Gaussian 16, Revision B.01,
 Gaussian 16:  ES64L-G16RevB.01 20-Dec-2017

 -------------------------
 #P B3LYP/6-311+g(d) force
 -------------------------

 -----
 DPGEN
 -----
 Symbolic Z-matrix:
 Charge =  0 Multiplicity = 2

                         Standard orientation:
 ---------------------------------------------------------------------
 Center     Atomic      Atomic             Coordinates (Angstroms)
 Number     Number       Type             X           Y           Z
 ---------------------------------------------------------------------
      1         11           0        3.224409    0.035082    0.334224
      2         11           0        1.068292   -2.552016   -0.549610
      3         11           0       -2.824085    1.765911   -0.189923
      4         11           0       -0.118076   -0.097795   -1.882415
      5         11           0        0.990286    2.976132   -0.072997
      6         11           0       -0.091230   -0.066763    1.915243
      7         11           0       -2.249596   -2.060551    0.445477
 ---------------------------------------------------------------------

 SCF Done:  E(UB3LYP) =  -1136.13584154     A.U. after   19 cycles

 The electronic state is 2-A.
 Alpha  occ. eigenvalues --  -38.44143 -38.43887 -38.43866 -38.43712 -38.43706
 Alpha  occ. eigenvalues --  -38.43645 -38.43241  -2.19912  -2.19673  -2.19666
 Alpha  occ. eigenvalues --   -2.19605  -2.19566  -2.19548  -2.19142  -1.13594
 Alpha  occ. eigenvalues --   -1.13564  -1.13552  -1.13354  -1.13350  -1.13341
 Alpha  occ. eigenvalues --   -1.13331  -1.13318  -1.13315  -1.13289  -1.13282
 Alpha  occ. eigenvalues --   -1.13258  -1.13228  -1.13206  -1.13202  -1.13187
 Alpha  occ. eigenvalues --   -1.13177  -1.13169  -1.12833  -1.12782  -1.12753
 Alpha  occ. eigenvalues --   -0.18329  -0.12664  -0.12432  -0.10912
 Alpha virt. eigenvalues --   -0.05725  -0.05185  -0.04708  -0.03161  -0.03053
 Alpha virt. eigenvalues --   -0.02689  -0.01521  -0.01243  -0.00479  -0.00375
 Alpha virt. eigenvalues --   -0.00006   0.00355   0.00774   0.00845   0.00884

  Beta  occ. eigenvalues --  -38.44141 -38.43887 -38.43862 -38.43693 -38.43633
  Beta  occ. eigenvalues --  -38.43564 -38.43224  -2.19911  -2.19670  -2.19665
  Beta  occ. eigenvalues --   -2.19529  -2.19461  -2.19417  -2.19115  -1.13582
  Beta  occ. eigenvalues --   -1.13565  -1.13551  -1.13347  -1.13340  -1.13336
  Beta  occ. eigenvalues --   -1.13319  -1.13316  -1.13289  -1.13253  -1.13192
  Beta  occ. eigenvalues --   -1.13173  -1.13171  -1.13165  -1.13128  -1.13102
  Beta  occ. eigenvalues --   -1.13092  -1.13074  -1.12799  -1.12744  -1.12738
  Beta  occ. eigenvalues --   -0.17592  -0.12429  -0.12191
  Beta virt. eigenvalues --   -0.07017  -0.05742  -0.05079  -0.04652  -0.02425
  Beta virt. eigenvalues --   -0.02296  -0.01680  -0.01431  -0.01147  -0.00523
  Beta virt. eigenvalues --   -0.00378   0.00107   0.00384   0.00802   0.00888

 Mulliken charges and spin densities:
               1          2
     1  Na  -0.048546  -0.048598
     2  Na   0.316668   0.076729
     3  Na  -0.115915  -0.126716
     4  Na  -0.021612   0.576245
     5  Na  -0.126374  -0.119941
     6  Na  -0.125893   0.662246
     7  Na   0.121671  -0.019965
 Sum of Mulliken charges =  -0.00000   1.00000

 Dipole moment (field-independent basis, Debye):
    X=             -0.1708    Y=              0.2409    Z=              0.0992  Tot=              0.3115
 Quadrupole moment (field-independent basis, Debye-Ang):
   XX=            -57.6004   YY=            -62.3358   ZZ=            -73.7637
   XY=              0.1320   XZ=              0.1938   YZ=             -0.2892

 Normal termination of Gaussian 16 at Thu Dec  7 19:59:08 2023.
