 Gaussian 16, Revision B.01,
 Gaussian 16:  ES64L-G16RevB.01 20-Dec-2017

 -------------------------
 #P B3LYP/6-311+g(d) force
 -------------------------

 -----
 DPGEN
 -----
 Symbolic Z-matrix:
 Charge =  0 Multiplicity = 2

                         Standard orientation:
 ---------------------------------------------------------------------
 Center     Atomic      Atomic             Coordinates (Angstroms)
 Number     Number       Type             X           Y           Z
 ---------------------------------------------------------------------
      1         11           0       -2.255916   -0.402650    1.808987
      2         11           0        3.132122    1.825736   -0.018570
      3         11           0       -0.435505   -2.569267   -0.358509
      4         11           0        2.366454   -2.079921   -1.408449
      5         11           0       -3.042052    0.283098   -1.644862
      6         11           0        0.816664   -0.179002    2.327970
      7         11           0       -0.581766    3.122007   -0.706568
 ---------------------------------------------------------------------

 SCF Done:  E(UB3LYP) =  -1136.11704151     A.U. after   21 cycles

 The electronic state is 2-A.
 Alpha  occ. eigenvalues --  -38.45035 -38.44534 -38.44499 -38.44331 -38.44212
 Alpha  occ. eigenvalues --  -38.43991 -38.43503  -2.20873  -2.20310  -2.20219
 Alpha  occ. eigenvalues --   -2.20189  -2.20021  -2.19730  -2.19354  -1.14577
 Alpha  occ. eigenvalues --   -1.14497  -1.14481  -1.13979  -1.13948  -1.13944
 Alpha  occ. eigenvalues --   -1.13912  -1.13885  -1.13884  -1.13841  -1.13829
 Alpha  occ. eigenvalues --   -1.13799  -1.13734  -1.13669  -1.13631  -1.13412
 Alpha  occ. eigenvalues --   -1.13385  -1.13371  -1.13041  -1.13011  -1.12983
 Alpha  occ. eigenvalues --   -0.17182  -0.12727  -0.12023  -0.11989
 Alpha virt. eigenvalues --   -0.06078  -0.05228  -0.05009  -0.03678  -0.03304
 Alpha virt. eigenvalues --   -0.03004  -0.01300  -0.00932  -0.00796  -0.00608
 Alpha virt. eigenvalues --   -0.00243   0.00193   0.00247   0.00411   0.00548

  Beta  occ. eigenvalues --  -38.44948 -38.44496 -38.44492 -38.44286 -38.44175
  Beta  occ. eigenvalues --  -38.43992 -38.43491  -2.20716  -2.20231  -2.20213
  Beta  occ. eigenvalues --   -2.20113  -2.19953  -2.19731  -2.19335  -1.14462
  Beta  occ. eigenvalues --   -1.14395  -1.14360  -1.13923  -1.13906  -1.13901
  Beta  occ. eigenvalues --   -1.13890  -1.13880  -1.13833  -1.13817  -1.13785
  Beta  occ. eigenvalues --   -1.13725  -1.13684  -1.13624  -1.13585  -1.13408
  Beta  occ. eigenvalues --   -1.13387  -1.13375  -1.13023  -1.12988  -1.12966
  Beta  occ. eigenvalues --   -0.16411  -0.12414  -0.11793
  Beta virt. eigenvalues --   -0.08201  -0.05909  -0.04976  -0.04522  -0.03444
  Beta virt. eigenvalues --   -0.02757  -0.02323  -0.01243  -0.00769  -0.00548
  Beta virt. eigenvalues --   -0.00482  -0.00142   0.00299   0.00459   0.00504

 Mulliken charges and spin densities:
               1          2
     1  Na   0.707904   0.128412
     2  Na   0.131910  -0.004539
     3  Na  -0.245066   0.246917
     4  Na   0.105941   0.032897
     5  Na  -0.053061   0.226790
     6  Na  -0.423022   0.327984
     7  Na  -0.224606   0.041539
 Sum of Mulliken charges =  -0.00000   1.00000

 Dipole moment (field-independent basis, Debye):
    X=             -0.2651    Y=              0.0123    Z=             -0.0706  Tot=              0.2747
 Quadrupole moment (field-independent basis, Debye-Ang):
   XX=            -61.2609   YY=            -72.6783   ZZ=            -65.5963
   XY=              0.5549   XZ=             -0.2547   YZ=              0.3127

 Normal termination of Gaussian 16 at Mon Dec  4 00:06:33 2023.
