 Gaussian 16, Revision B.01,
 Gaussian 16:  ES64L-G16RevB.01 20-Dec-2017

 -------------------------
 #P B3LYP/6-311+g(d) force
 -------------------------

 -----
 DPGEN
 -----
 Symbolic Z-matrix:
 Charge =  0 Multiplicity = 2

                         Standard orientation:
 ---------------------------------------------------------------------
 Center     Atomic      Atomic             Coordinates (Angstroms)
 Number     Number       Type             X           Y           Z
 ---------------------------------------------------------------------
      1         11           0       -3.396324   -1.618083   -0.112710
      2         11           0        3.582013    0.499040    0.008359
      3         11           0        1.858148   -2.123439   -0.073079
      4         11           0        0.843991    2.462350   -0.200590
      5         11           0        0.061538   -0.685799   -1.613997
      6         11           0       -0.078986   -0.417589    2.045398
      7         11           0       -2.870380    1.883520   -0.053381
 ---------------------------------------------------------------------

 SCF Done:  E(UB3LYP) =  -1136.11593326     A.U. after   25 cycles

 The electronic state is 2-A.
 Alpha  occ. eigenvalues --  -38.45496 -38.45124 -38.44555 -38.44210 -38.43678
 Alpha  occ. eigenvalues --  -38.43585 -38.42713  -2.21318  -2.20874  -2.20323
 Alpha  occ. eigenvalues --   -2.20142  -2.19543  -2.19540  -2.18546  -1.14996
 Alpha  occ. eigenvalues --   -1.14971  -1.14961  -1.14549  -1.14535  -1.14514
 Alpha  occ. eigenvalues --   -1.14004  -1.13983  -1.13975  -1.13964  -1.13790
 Alpha  occ. eigenvalues --   -1.13722  -1.13241  -1.13201  -1.13183  -1.13159
 Alpha  occ. eigenvalues --   -1.13148  -1.13122  -1.12241  -1.12216  -1.12177
 Alpha  occ. eigenvalues --   -0.18330  -0.13729  -0.11533  -0.10493
 Alpha virt. eigenvalues --   -0.07187  -0.05905  -0.03607  -0.03500  -0.02829
 Alpha virt. eigenvalues --   -0.02382  -0.02304  -0.01676  -0.00704  -0.00185
 Alpha virt. eigenvalues --   -0.00048   0.00115   0.00555   0.00576   0.00660

  Beta  occ. eigenvalues --  -38.45492 -38.45128 -38.44556 -38.44155 -38.43572
  Beta  occ. eigenvalues --  -38.43569 -38.42708  -2.21313  -2.20883  -2.20326
  Beta  occ. eigenvalues --   -2.20041  -2.19518  -2.19348  -2.18540  -1.14997
  Beta  occ. eigenvalues --   -1.14960  -1.14948  -1.14546  -1.14542  -1.14521
  Beta  occ. eigenvalues --   -1.13996  -1.13979  -1.13971  -1.13917  -1.13713
  Beta  occ. eigenvalues --   -1.13645  -1.13191  -1.13151  -1.13118  -1.13067
  Beta  occ. eigenvalues --   -1.13018  -1.13009  -1.12238  -1.12192  -1.12173
  Beta  occ. eigenvalues --   -0.17597  -0.13588  -0.11303
  Beta virt. eigenvalues --   -0.07082  -0.06545  -0.05915  -0.03585  -0.02808
  Beta virt. eigenvalues --   -0.02641  -0.01714  -0.01577  -0.01305  -0.00755
  Beta virt. eigenvalues --   -0.00053   0.00023   0.00156   0.00642   0.00684

 Mulliken charges and spin densities:
               1          2
     1  Na   0.258752   0.021457
     2  Na  -0.041943  -0.024086
     3  Na   0.956628   0.412952
     4  Na  -0.175438   0.039494
     5  Na  -0.414252   0.103958
     6  Na  -0.477885   0.483904
     7  Na  -0.105863  -0.037679
 Sum of Mulliken charges =  -0.00000   1.00000

 Dipole moment (field-independent basis, Debye):
    X=             -0.3154    Y=             -0.2181    Z=              0.1869  Tot=              0.4266
 Quadrupole moment (field-independent basis, Debye-Ang):
   XX=            -44.6654   YY=            -71.7945   ZZ=            -76.1739
   XY=              0.7103   XZ=              0.5060   YZ=             -0.3889

 Normal termination of Gaussian 16 at Fri Dec  8 01:03:42 2023.
