 Gaussian 16, Revision B.01,
 Gaussian 16:  ES64L-G16RevB.01 20-Dec-2017

 -------------------------
 #P B3LYP/6-311+g(d) force
 -------------------------

 -----
 DPGEN
 -----
 Symbolic Z-matrix:
 Charge =  0 Multiplicity = 2

                         Standard orientation:
 ---------------------------------------------------------------------
 Center     Atomic      Atomic             Coordinates (Angstroms)
 Number     Number       Type             X           Y           Z
 ---------------------------------------------------------------------
      1         11           0       -1.903753    1.299259    0.931528
      2         11           0        0.369953   -0.980317   -1.576157
      3         11           0        0.545126    2.243713   -1.821290
      4         11           0        3.026617   -1.821170   -0.401902
      5         11           0       -3.248611   -1.017712   -0.856697
      6         11           0        1.651551    1.883285    1.636726
      7         11           0       -0.440882   -1.607058    2.087791
 ---------------------------------------------------------------------

 SCF Done:  E(UB3LYP) =  -1136.12380135     A.U. after   22 cycles

 The electronic state is 2-A.
 Alpha  occ. eigenvalues --  -38.45161 -38.44206 -38.44058 -38.44031 -38.43502
 Alpha  occ. eigenvalues --  -38.43486 -38.43263  -2.20956  -2.19989  -2.19882
 Alpha  occ. eigenvalues --   -2.19843  -2.19372  -2.19289  -2.19187  -1.14635
 Alpha  occ. eigenvalues --   -1.14593  -1.14566  -1.13661  -1.13639  -1.13622
 Alpha  occ. eigenvalues --   -1.13585  -1.13524  -1.13516  -1.13504  -1.13485
 Alpha  occ. eigenvalues --   -1.13470  -1.13075  -1.13062  -1.13047  -1.12975
 Alpha  occ. eigenvalues --   -1.12934  -1.12926  -1.12848  -1.12831  -1.12778
 Alpha  occ. eigenvalues --   -0.17951  -0.12539  -0.12139  -0.11569
 Alpha virt. eigenvalues --   -0.05877  -0.05068  -0.04485  -0.03437  -0.03324
 Alpha virt. eigenvalues --   -0.03063  -0.01491  -0.01049  -0.00775   0.00088
 Alpha virt. eigenvalues --    0.00189   0.00300   0.00469   0.00532   0.00823

  Beta  occ. eigenvalues --  -38.45097 -38.44178 -38.44019 -38.44014 -38.43492
  Beta  occ. eigenvalues --  -38.43491 -38.43219  -2.20837  -2.19938  -2.19819
  Beta  occ. eigenvalues --   -2.19802  -2.19355  -2.19300  -2.19111  -1.14552
  Beta  occ. eigenvalues --   -1.14504  -1.14484  -1.13616  -1.13605  -1.13586
  Beta  occ. eigenvalues --   -1.13518  -1.13510  -1.13479  -1.13462  -1.13454
  Beta  occ. eigenvalues --   -1.13433  -1.13055  -1.13053  -1.13015  -1.12971
  Beta  occ. eigenvalues --   -1.12941  -1.12928  -1.12799  -1.12767  -1.12733
  Beta  occ. eigenvalues --   -0.17096  -0.12382  -0.11455
  Beta virt. eigenvalues --   -0.08213  -0.05412  -0.04874  -0.04056  -0.03017
  Beta virt. eigenvalues --   -0.02879  -0.02396  -0.01377  -0.00912  -0.00459
  Beta virt. eigenvalues --    0.00160   0.00299   0.00377   0.00529   0.00634

 Mulliken charges and spin densities:
               1          2
     1  Na   0.367728   0.095824
     2  Na   0.261505   0.025194
     3  Na  -0.289924   0.226024
     4  Na   0.029083   0.037497
     5  Na   0.133234   0.000203
     6  Na   0.033946   0.105170
     7  Na  -0.535572   0.510088
 Sum of Mulliken charges =  -0.00000   1.00000

 Dipole moment (field-independent basis, Debye):
    X=             -0.1773    Y=              0.0372    Z=              0.5354  Tot=              0.5652
 Quadrupole moment (field-independent basis, Debye-Ang):
   XX=            -61.1418   YY=            -72.0925   ZZ=            -62.7901
   XY=              2.1302   XZ=              4.1293   YZ=             -2.8823

 Normal termination of Gaussian 16 at Sun Dec  3 19:59:37 2023.
