 Gaussian 16, Revision B.01,
 Gaussian 16:  ES64L-G16RevB.01 20-Dec-2017

 -------------------------
 #P B3LYP/6-311+g(d) force
 -------------------------

 -----
 DPGEN
 -----
 Symbolic Z-matrix:
 Charge =  0 Multiplicity = 2

                         Standard orientation:
 ---------------------------------------------------------------------
 Center     Atomic      Atomic             Coordinates (Angstroms)
 Number     Number       Type             X           Y           Z
 ---------------------------------------------------------------------
      1         11           0        3.442277   -1.311930    0.845300
      2         11           0       -0.229809    0.051921    1.543316
      3         11           0        1.687890    0.788363   -1.156597
      4         11           0        0.112926   -2.169377   -1.274602
      5         11           0        0.014138    3.264200    0.342499
      6         11           0       -1.774004    0.925137   -0.973046
      7         11           0       -3.253419   -1.548314    0.673129
 ---------------------------------------------------------------------

 SCF Done:  E(UB3LYP) =  -1136.13343852     A.U. after   20 cycles

 The electronic state is 2-A.
 Alpha  occ. eigenvalues --  -38.43995 -38.43825 -38.43758 -38.43639 -38.43313
 Alpha  occ. eigenvalues --  -38.43121 -38.43107  -2.19785  -2.19674  -2.19598
 Alpha  occ. eigenvalues --   -2.19578  -2.19296  -2.19076  -2.18982  -1.13459
 Alpha  occ. eigenvalues --   -1.13440  -1.13409  -1.13388  -1.13355  -1.13332
 Alpha  occ. eigenvalues --   -1.13267  -1.13259  -1.13252  -1.13230  -1.13214
 Alpha  occ. eigenvalues --   -1.13186  -1.13000  -1.12956  -1.12901  -1.12784
 Alpha  occ. eigenvalues --   -1.12749  -1.12692  -1.12636  -1.12632  -1.12602
 Alpha  occ. eigenvalues --   -0.18688  -0.12958  -0.12398  -0.10682
 Alpha virt. eigenvalues --   -0.05863  -0.04834  -0.04679  -0.03265  -0.02741
 Alpha virt. eigenvalues --   -0.02155  -0.01731  -0.01291  -0.00627  -0.00049
 Alpha virt. eigenvalues --    0.00255   0.00321   0.00600   0.00761   0.00830

  Beta  occ. eigenvalues --  -38.43973 -38.43780 -38.43748 -38.43587 -38.43290
  Beta  occ. eigenvalues --  -38.43105 -38.43092  -2.19743  -2.19595  -2.19562
  Beta  occ. eigenvalues --   -2.19503  -2.19258  -2.19028  -2.18981  -1.13432
  Beta  occ. eigenvalues --   -1.13403  -1.13384  -1.13331  -1.13287  -1.13260
  Beta  occ. eigenvalues --   -1.13248  -1.13223  -1.13217  -1.13195  -1.13163
  Beta  occ. eigenvalues --   -1.13129  -1.12973  -1.12892  -1.12877  -1.12754
  Beta  occ. eigenvalues --   -1.12696  -1.12654  -1.12632  -1.12621  -1.12592
  Beta  occ. eigenvalues --   -0.17946  -0.12708  -0.12205
  Beta virt. eigenvalues --   -0.06857  -0.05638  -0.04713  -0.04545  -0.02732
  Beta virt. eigenvalues --   -0.02233  -0.01588  -0.01331  -0.01206  -0.00235
  Beta virt. eigenvalues --   -0.00054   0.00283   0.00413   0.00697   0.00816

 Mulliken charges and spin densities:
               1          2
     1  Na  -0.133617  -0.078298
     2  Na  -0.582264   0.666421
     3  Na   0.259593   0.363355
     4  Na  -0.361296   0.023884
     5  Na   0.365237  -0.182304
     6  Na   0.127273   0.276442
     7  Na   0.325074  -0.069500
 Sum of Mulliken charges =  -0.00000   1.00000

 Dipole moment (field-independent basis, Debye):
    X=             -0.0686    Y=             -0.2754    Z=              0.0602  Tot=              0.2902
 Quadrupole moment (field-independent basis, Debye-Ang):
   XX=            -58.0257   YY=            -61.9912   ZZ=            -71.4563
   XY=              1.0437   XZ=              0.9720   YZ=             -0.1846

 Normal termination of Gaussian 16 at Tue Dec  5 20:10:30 2023.
