 Gaussian 16, Revision B.01,
 Gaussian 16:  ES64L-G16RevB.01 20-Dec-2017

 -------------------------
 #P B3LYP/6-311+g(d) force
 -------------------------

 -----
 DPGEN
 -----
 Symbolic Z-matrix:
 Charge =  0 Multiplicity = 2

                         Standard orientation:
 ---------------------------------------------------------------------
 Center     Atomic      Atomic             Coordinates (Angstroms)
 Number     Number       Type             X           Y           Z
 ---------------------------------------------------------------------
      1         11           0       -2.130945    1.863439    1.137009
      2         11           0       -0.534859   -0.407423    1.682102
      3         11           0       -3.873389   -0.943308   -0.659978
      4         11           0        1.122870    1.728611   -0.911645
      5         11           0       -0.784348   -0.720813   -1.783630
      6         11           0        2.061262   -1.870316    0.879821
      7         11           0        4.139409    0.349811   -0.343679
 ---------------------------------------------------------------------

 SCF Done:  E(UB3LYP) =  -1136.10481026     A.U. after   36 cycles

 The electronic state is 2-A.
 Alpha  occ. eigenvalues --  -38.45678 -38.45176 -38.44788 -38.44338 -38.43901
 Alpha  occ. eigenvalues --  -38.43589 -38.42497  -2.21466  -2.20975  -2.20681
 Alpha  occ. eigenvalues --   -2.20198  -2.19776  -2.19466  -2.18459  -1.15147
 Alpha  occ. eigenvalues --   -1.15127  -1.15107  -1.14645  -1.14619  -1.14605
 Alpha  occ. eigenvalues --   -1.14424  -1.14307  -1.14266  -1.13905  -1.13861
 Alpha  occ. eigenvalues --   -1.13816  -1.13470  -1.13410  -1.13383  -1.13161
 Alpha  occ. eigenvalues --   -1.13114  -1.13085  -1.12179  -1.12126  -1.12069
 Alpha  occ. eigenvalues --   -0.18527  -0.14234  -0.11694  -0.10816
 Alpha virt. eigenvalues --   -0.07913  -0.04987  -0.04234  -0.03469  -0.03169
 Alpha virt. eigenvalues --   -0.02669  -0.02111  -0.01490  -0.00825  -0.00441
 Alpha virt. eigenvalues --    0.00001   0.00180   0.00314   0.00578   0.00731

  Beta  occ. eigenvalues --  -38.45688 -38.45142 -38.44723 -38.44314 -38.43840
  Beta  occ. eigenvalues --  -38.43551 -38.42498  -2.21486  -2.20913  -2.20565
  Beta  occ. eigenvalues --   -2.20156  -2.19665  -2.19394  -2.18466  -1.15153
  Beta  occ. eigenvalues --   -1.15140  -1.15120  -1.14592  -1.14578  -1.14566
  Beta  occ. eigenvalues --   -1.14349  -1.14208  -1.14191  -1.13868  -1.13818
  Beta  occ. eigenvalues --   -1.13788  -1.13397  -1.13338  -1.13294  -1.13117
  Beta  occ. eigenvalues --   -1.13064  -1.13038  -1.12144  -1.12135  -1.12072
  Beta  occ. eigenvalues --   -0.17838  -0.13973  -0.10411
  Beta virt. eigenvalues --   -0.07986  -0.07761  -0.04442  -0.03895  -0.03268
  Beta virt. eigenvalues --   -0.02832  -0.02193  -0.01565  -0.01105  -0.00730
  Beta virt. eigenvalues --   -0.00358   0.00153   0.00261   0.00336   0.00672

 Mulliken charges and spin densities:
               1          2
     1  Na   0.914997   0.015382
     2  Na  -0.786965   0.311567
     3  Na  -0.035144   0.061545
     4  Na   0.106149   0.403236
     5  Na  -0.298674   0.219216
     6  Na   0.285644   0.034125
     7  Na  -0.186006  -0.045071
 Sum of Mulliken charges =  -0.00000   1.00000

 Dipole moment (field-independent basis, Debye):
    X=              0.0376    Y=              0.2970    Z=              0.0406  Tot=              0.3021
 Quadrupole moment (field-independent basis, Debye-Ang):
   XX=            -42.6354   YY=            -68.2905   ZZ=            -83.1693
   XY=             -1.8545   XZ=             -2.6260   YZ=              3.5639

 Normal termination of Gaussian 16 at Tue Dec  5 20:29:39 2023.
