 Gaussian 16, Revision B.01,
 Gaussian 16:  ES64L-G16RevB.01 20-Dec-2017

 -------------------------
 #P B3LYP/6-311+g(d) force
 -------------------------

 -----
 DPGEN
 -----
 Symbolic Z-matrix:
 Charge =  0 Multiplicity = 2

                         Standard orientation:
 ---------------------------------------------------------------------
 Center     Atomic      Atomic             Coordinates (Angstroms)
 Number     Number       Type             X           Y           Z
 ---------------------------------------------------------------------
      1         11           0       -1.339394   -2.146088    0.484239
      2         11           0       -0.714300    1.036551   -1.049213
      3         11           0        1.990221    2.392471   -0.327309
      4         11           0       -4.863424   -0.653878   -0.724623
      5         11           0        5.440244   -0.296928    0.558346
      6         11           0       -3.228020    1.271932    1.495076
      7         11           0        2.714674   -1.604060   -0.436516
 ---------------------------------------------------------------------

 SCF Done:  E(UB3LYP) =  -1136.11095260     A.U. after   24 cycles

 The electronic state is 2-A.
 Alpha  occ. eigenvalues --  -38.45915 -38.45129 -38.44917 -38.43980 -38.43736
 Alpha  occ. eigenvalues --  -38.43044 -38.42821  -2.21712  -2.20903  -2.20728
 Alpha  occ. eigenvalues --   -2.19777  -2.19524  -2.18845  -2.18691  -1.15389
 Alpha  occ. eigenvalues --   -1.15357  -1.15328  -1.14575  -1.14567  -1.14530
 Alpha  occ. eigenvalues --   -1.14396  -1.14373  -1.14316  -1.13463  -1.13444
 Alpha  occ. eigenvalues --   -1.13393  -1.13217  -1.13191  -1.13170  -1.12499
 Alpha  occ. eigenvalues --   -1.12495  -1.12484  -1.12366  -1.12355  -1.12338
 Alpha  occ. eigenvalues --   -0.16960  -0.13965  -0.11330  -0.10862
 Alpha virt. eigenvalues --   -0.06915  -0.05568  -0.05070  -0.03194  -0.02994
 Alpha virt. eigenvalues --   -0.02325  -0.01849  -0.01769  -0.01015  -0.00938
 Alpha virt. eigenvalues --   -0.00612  -0.00046   0.00258   0.00341   0.00433

  Beta  occ. eigenvalues --  -38.45879 -38.45120 -38.44814 -38.43967 -38.43737
  Beta  occ. eigenvalues --  -38.43019 -38.42816  -2.21646  -2.20888  -2.20537
  Beta  occ. eigenvalues --   -2.19752  -2.19528  -2.18798  -2.18686  -1.15337
  Beta  occ. eigenvalues --   -1.15314  -1.15282  -1.14567  -1.14542  -1.14524
  Beta  occ. eigenvalues --   -1.14266  -1.14242  -1.14179  -1.13447  -1.13427
  Beta  occ. eigenvalues --   -1.13375  -1.13224  -1.13191  -1.13149  -1.12467
  Beta  occ. eigenvalues --   -1.12466  -1.12452  -1.12366  -1.12345  -1.12321
  Beta  occ. eigenvalues --   -0.16297  -0.13641  -0.10719
  Beta virt. eigenvalues --   -0.07580  -0.06758  -0.05189  -0.04646  -0.02881
  Beta virt. eigenvalues --   -0.02674  -0.01819  -0.01691  -0.01482  -0.00801
  Beta virt. eigenvalues --   -0.00622  -0.00462   0.00094   0.00298   0.00389

 Mulliken charges and spin densities:
               1          2
     1  Na  -0.147966   0.427524
     2  Na  -0.657942   0.068122
     3  Na   0.205090   0.030752
     4  Na   0.514727   0.173448
     5  Na   0.281180   0.145751
     6  Na   0.201263   0.136196
     7  Na  -0.396352   0.018206
 Sum of Mulliken charges =  -0.00000   1.00000

 Dipole moment (field-independent basis, Debye):
    X=             -2.6610    Y=              0.5072    Z=              0.6505  Tot=              2.7859
 Quadrupole moment (field-independent basis, Debye-Ang):
   XX=            -64.3846   YY=            -71.6220   ZZ=            -65.1637
   XY=              6.9550   XZ=              2.6356   YZ=              5.4035

 Normal termination of Gaussian 16 at Mon Dec  4 04:09:10 2023.
