 Gaussian 16, Revision B.01,
 Gaussian 16:  ES64L-G16RevB.01 20-Dec-2017

 -------------------------
 #P B3LYP/6-311+g(d) force
 -------------------------

 -----
 DPGEN
 -----
 Symbolic Z-matrix:
 Charge =  0 Multiplicity = 2

                         Standard orientation:
 ---------------------------------------------------------------------
 Center     Atomic      Atomic             Coordinates (Angstroms)
 Number     Number       Type             X           Y           Z
 ---------------------------------------------------------------------
      1         11           0       -3.156529   -2.334273   -0.971311
      2         11           0       -0.030091   -3.077556    1.217598
      3         11           0        3.458325   -2.523664    0.149075
      4         11           0       -1.774453    2.849170    0.830032
      5         11           0        2.061422    3.330178    0.229314
      6         11           0        3.662534    0.871504   -1.101682
      7         11           0       -4.221207    0.884642   -0.353027
 ---------------------------------------------------------------------

 SCF Done:  E(UB3LYP) =  -1136.10505571     A.U. after   24 cycles

 The electronic state is 2-A.
 Alpha  occ. eigenvalues --  -38.45668 -38.44895 -38.44775 -38.44374 -38.44324
 Alpha  occ. eigenvalues --  -38.44216 -38.44050  -2.21385  -2.20679  -2.20567
 Alpha  occ. eigenvalues --   -2.20158  -2.20097  -2.20003  -2.19845  -1.15076
 Alpha  occ. eigenvalues --   -1.15062  -1.15009  -1.14356  -1.14349  -1.14330
 Alpha  occ. eigenvalues --   -1.14241  -1.14234  -1.14207  -1.13823  -1.13819
 Alpha  occ. eigenvalues --   -1.13796  -1.13762  -1.13748  -1.13728  -1.13664
 Alpha  occ. eigenvalues --   -1.13655  -1.13625  -1.13497  -1.13482  -1.13476
 Alpha  occ. eigenvalues --   -0.15438  -0.13997  -0.13146  -0.10649
 Alpha virt. eigenvalues --   -0.07912  -0.04971  -0.04615  -0.03572  -0.03473
 Alpha virt. eigenvalues --   -0.02215  -0.01995  -0.01902  -0.01343  -0.01232
 Alpha virt. eigenvalues --   -0.00843  -0.00098   0.00086   0.00183   0.00665

  Beta  occ. eigenvalues --  -38.45668 -38.44888 -38.44749 -38.44356 -38.44285
  Beta  occ. eigenvalues --  -38.44156 -38.43979  -2.21388  -2.20672  -2.20523
  Beta  occ. eigenvalues --   -2.20129  -2.20025  -2.19893  -2.19712  -1.15082
  Beta  occ. eigenvalues --   -1.15067  -1.14986  -1.14358  -1.14347  -1.14282
  Beta  occ. eigenvalues --   -1.14208  -1.14207  -1.14163  -1.13806  -1.13801
  Beta  occ. eigenvalues --   -1.13758  -1.13714  -1.13702  -1.13676  -1.13590
  Beta  occ. eigenvalues --   -1.13583  -1.13546  -1.13406  -1.13396  -1.13387
  Beta  occ. eigenvalues --   -0.14919  -0.13263  -0.12441
  Beta virt. eigenvalues --   -0.08116  -0.07534  -0.04435  -0.04206  -0.03382
  Beta virt. eigenvalues --   -0.03222  -0.01930  -0.01866  -0.01658  -0.01108
  Beta virt. eigenvalues --   -0.00907  -0.00681   0.00047   0.00165   0.00303

 Mulliken charges and spin densities:
               1          2
     1  Na  -0.076079   0.358246
     2  Na  -0.228962  -0.001868
     3  Na   0.222572   0.182582
     4  Na  -0.114919   0.300599
     5  Na   0.153492   0.071143
     6  Na  -0.187594   0.118799
     7  Na   0.231490  -0.029501
 Sum of Mulliken charges =  -0.00000   1.00000

 Dipole moment (field-independent basis, Debye):
    X=              0.2071    Y=             -0.2355    Z=              0.0791  Tot=              0.3235
 Quadrupole moment (field-independent basis, Debye-Ang):
   XX=            -62.2460   YY=            -70.4792   ZZ=            -69.2882
   XY=             -1.1553   XZ=             -0.8728   YZ=              0.4322

 Normal termination of Gaussian 16 at Mon Dec  4 05:42:02 2023.
