 Gaussian 16, Revision B.01,
 Gaussian 16:  ES64L-G16RevB.01 20-Dec-2017

 -------------------------
 #P B3LYP/6-311+g(d) force
 -------------------------

 -----
 DPGEN
 -----
 Symbolic Z-matrix:
 Charge =  0 Multiplicity = 2

                         Standard orientation:
 ---------------------------------------------------------------------
 Center     Atomic      Atomic             Coordinates (Angstroms)
 Number     Number       Type             X           Y           Z
 ---------------------------------------------------------------------
      1         11           0       -0.976419    0.032228   -1.754529
      2         11           0       -1.344717   -2.081773    0.079771
      3         11           0       -2.893619    0.625326    0.248571
      4         11           0       -0.147620    2.090528   -0.008629
      5         11           0       -0.281918   -0.092072    1.792171
      6         11           0        1.406782   -0.620870   -0.399729
      7         11           0        4.237511    0.046632    0.042371
 ---------------------------------------------------------------------

 SCF Done:  E(UB3LYP) =  -1136.07498116     A.U. after   28 cycles

 The electronic state is 2-A.
 Alpha  occ. eigenvalues --  -38.46250 -38.45008 -38.44508 -38.44315 -38.43381
 Alpha  occ. eigenvalues --  -38.42666 -38.42409  -2.22021  -2.21054  -2.20691
 Alpha  occ. eigenvalues --   -2.20556  -2.19547  -2.18754  -2.18513  -1.15733
 Alpha  occ. eigenvalues --   -1.15667  -1.15652  -1.14874  -1.14747  -1.14638
 Alpha  occ. eigenvalues --   -1.14483  -1.14340  -1.14323  -1.14276  -1.14175
 Alpha  occ. eigenvalues --   -1.14139  -1.13270  -1.13211  -1.13085  -1.12489
 Alpha  occ. eigenvalues --   -1.12422  -1.12302  -1.12223  -1.12169  -1.12107
 Alpha  occ. eigenvalues --   -0.20971  -0.13855  -0.11898  -0.11683
 Alpha virt. eigenvalues --   -0.07729  -0.03613  -0.03462  -0.03439  -0.02799
 Alpha virt. eigenvalues --   -0.02429  -0.02397  -0.00694  -0.00476  -0.00091
 Alpha virt. eigenvalues --    0.00254   0.00353   0.00417   0.00818   0.01112

  Beta  occ. eigenvalues --  -38.46272 -38.44983 -38.44412 -38.44217 -38.43354
  Beta  occ. eigenvalues --  -38.42647 -38.42394  -2.22062  -2.21017  -2.20518
  Beta  occ. eigenvalues --   -2.20380  -2.19504  -2.18729  -2.18493  -1.15762
  Beta  occ. eigenvalues --   -1.15692  -1.15680  -1.14837  -1.14671  -1.14618
  Beta  occ. eigenvalues --   -1.14374  -1.14210  -1.14201  -1.14152  -1.14052
  Beta  occ. eigenvalues --   -1.14017  -1.13253  -1.13116  -1.13064  -1.12479
  Beta  occ. eigenvalues --   -1.12345  -1.12287  -1.12219  -1.12110  -1.12079
  Beta  occ. eigenvalues --   -0.20078  -0.13745  -0.11298
  Beta virt. eigenvalues --   -0.07637  -0.07535  -0.03474  -0.03325  -0.02882
  Beta virt. eigenvalues --   -0.02682  -0.01548  -0.01461  -0.00660  -0.00228
  Beta virt. eigenvalues --   -0.00027   0.00253   0.00386   0.00584   0.00878

 Mulliken charges and spin densities:
               1          2
     1  Na  -0.633986   0.295896
     2  Na  -0.204968  -0.021639
     3  Na   0.423200   0.106931
     4  Na  -0.194076  -0.062827
     5  Na  -0.325957   0.557360
     6  Na   0.442767   0.205111
     7  Na   0.493021  -0.080832
 Sum of Mulliken charges =  -0.00000   1.00000

 Dipole moment (field-independent basis, Debye):
    X=              1.0469    Y=              0.3316    Z=              0.3031  Tot=              1.1392
 Quadrupole moment (field-independent basis, Debye-Ang):
   XX=            -42.5864   YY=            -77.1848   ZZ=            -70.0259
   XY=              1.2399   XZ=              0.3647   YZ=              0.2973

 Normal termination of Gaussian 16 at Fri Dec  8 19:21:56 2023.
