 Gaussian 16, Revision B.01,
 Gaussian 16:  ES64L-G16RevB.01 20-Dec-2017

 -------------------------
 #P B3LYP/6-311+g(d) force
 -------------------------

 -----
 DPGEN
 -----
 Symbolic Z-matrix:
 Charge =  0 Multiplicity = 2

                         Standard orientation:
 ---------------------------------------------------------------------
 Center     Atomic      Atomic             Coordinates (Angstroms)
 Number     Number       Type             X           Y           Z
 ---------------------------------------------------------------------
      1         11           0       -0.092878    0.218950    0.894314
      2         11           0       -2.403789   -2.211931   -0.566997
      3         11           0        1.280646   -2.581740   -0.663512
      4         11           0        3.631145   -0.743996    0.473665
      5         11           0        2.363862    2.347180   -0.100258
      6         11           0       -3.337663    0.292299    1.037125
      7         11           0       -1.441322    2.679237   -1.074338
 ---------------------------------------------------------------------

 SCF Done:  E(UB3LYP) =  -1136.12332109     A.U. after   26 cycles

 The electronic state is 2-A.
 Alpha  occ. eigenvalues --  -38.44513 -38.44425 -38.44242 -38.43925 -38.43819
 Alpha  occ. eigenvalues --  -38.43581 -38.43173  -2.20342  -2.20233  -2.20165
 Alpha  occ. eigenvalues --   -2.19779  -2.19633  -2.19484  -2.19027  -1.14029
 Alpha  occ. eigenvalues --   -1.14013  -1.13987  -1.13935  -1.13914  -1.13881
 Alpha  occ. eigenvalues --   -1.13858  -1.13822  -1.13794  -1.13449  -1.13438
 Alpha  occ. eigenvalues --   -1.13413  -1.13294  -1.13276  -1.13259  -1.13147
 Alpha  occ. eigenvalues --   -1.13131  -1.13092  -1.12690  -1.12680  -1.12662
 Alpha  occ. eigenvalues --   -0.17697  -0.14215  -0.12641  -0.09629
 Alpha virt. eigenvalues --   -0.06501  -0.06231  -0.04100  -0.03573  -0.02766
 Alpha virt. eigenvalues --   -0.02455  -0.01878  -0.01222  -0.00782  -0.00448
 Alpha virt. eigenvalues --   -0.00199   0.00145   0.00425   0.00575   0.00671

  Beta  occ. eigenvalues --  -38.44503 -38.44417 -38.44246 -38.43896 -38.43768
  Beta  occ. eigenvalues --  -38.43524 -38.43139  -2.20331  -2.20223  -2.20173
  Beta  occ. eigenvalues --   -2.19727  -2.19540  -2.19379  -2.18964  -1.14021
  Beta  occ. eigenvalues --   -1.14009  -1.13938  -1.13935  -1.13912  -1.13864
  Beta  occ. eigenvalues --   -1.13834  -1.13819  -1.13800  -1.13411  -1.13400
  Beta  occ. eigenvalues --   -1.13374  -1.13228  -1.13216  -1.13194  -1.13077
  Beta  occ. eigenvalues --   -1.13065  -1.13012  -1.12650  -1.12638  -1.12612
  Beta  occ. eigenvalues --   -0.17329  -0.13681  -0.12079
  Beta virt. eigenvalues --   -0.06532  -0.06366  -0.05970  -0.03790  -0.03126
  Beta virt. eigenvalues --   -0.02245  -0.02215  -0.01614  -0.01062  -0.00545
  Beta virt. eigenvalues --   -0.00335   0.00129   0.00351   0.00479   0.00652

 Mulliken charges and spin densities:
               1          2
     1  Na  -2.029607   0.060334
     2  Na  -0.083613   0.040170
     3  Na  -0.187276   0.058794
     4  Na   0.794176   0.236215
     5  Na   0.261460   0.148600
     6  Na   1.245427   0.295419
     7  Na  -0.000567   0.160469
 Sum of Mulliken charges =  -0.00000   1.00000

 Dipole moment (field-independent basis, Debye):
    X=             -0.0526    Y=              0.2659    Z=             -0.6298  Tot=              0.6857
 Quadrupole moment (field-independent basis, Debye-Ang):
   XX=            -61.1105   YY=            -67.0272   ZZ=            -70.5440
   XY=             -0.6633   XZ=              2.4568   YZ=              0.3752

 Normal termination of Gaussian 16 at Wed Nov 29 15:46:57 2023.
