 Gaussian 16, Revision B.01,
 Gaussian 16:  ES64L-G16RevB.01 20-Dec-2017

 -------------------------
 #P B3LYP/6-311+g(d) force
 -------------------------

 -----
 DPGEN
 -----
 Symbolic Z-matrix:
 Charge =  0 Multiplicity = 2

                         Standard orientation:
 ---------------------------------------------------------------------
 Center     Atomic      Atomic             Coordinates (Angstroms)
 Number     Number       Type             X           Y           Z
 ---------------------------------------------------------------------
      1         11           0        2.423896    1.944370    0.172248
      2         11           0       -3.388653   -0.429403    0.122950
      3         11           0       -0.267488   -0.442198    1.969203
      4         11           0        0.335738    0.398793   -1.749457
      5         11           0       -1.540819    2.302028   -0.046210
      6         11           0        2.873426   -1.365414    0.253089
      7         11           0       -0.436100   -2.408177   -0.721823
 ---------------------------------------------------------------------

 SCF Done:  E(UB3LYP) =  -1136.13348597     A.U. after   19 cycles

 The electronic state is 2-A.
 Alpha  occ. eigenvalues --  -38.44648 -38.44125 -38.43905 -38.43695 -38.43293
 Alpha  occ. eigenvalues --  -38.43252 -38.42845  -2.20463  -2.19960  -2.19791
 Alpha  occ. eigenvalues --   -2.19536  -2.19284  -2.19121  -2.18751  -1.14130
 Alpha  occ. eigenvalues --   -1.14128  -1.14103  -1.13633  -1.13626  -1.13602
 Alpha  occ. eigenvalues --   -1.13472  -1.13432  -1.13399  -1.13236  -1.13192
 Alpha  occ. eigenvalues --   -1.13170  -1.12982  -1.12966  -1.12899  -1.12785
 Alpha  occ. eigenvalues --   -1.12784  -1.12736  -1.12452  -1.12404  -1.12351
 Alpha  occ. eigenvalues --   -0.18750  -0.13446  -0.11935  -0.10961
 Alpha virt. eigenvalues --   -0.06200  -0.05218  -0.03884  -0.03468  -0.02859
 Alpha virt. eigenvalues --   -0.02600  -0.01985  -0.01042  -0.00258  -0.00108
 Alpha virt. eigenvalues --    0.00015   0.00340   0.00720   0.00814   0.00877

  Beta  occ. eigenvalues --  -38.44647 -38.44119 -38.43832 -38.43691 -38.43246
  Beta  occ. eigenvalues --  -38.43215 -38.42818  -2.20464  -2.19953  -2.19655
  Beta  occ. eigenvalues --   -2.19532  -2.19143  -2.19113  -2.18706  -1.14133
  Beta  occ. eigenvalues --   -1.14112  -1.14106  -1.13628  -1.13606  -1.13595
  Beta  occ. eigenvalues --   -1.13382  -1.13337  -1.13297  -1.13227  -1.13179
  Beta  occ. eigenvalues --   -1.13165  -1.12906  -1.12870  -1.12802  -1.12767
  Beta  occ. eigenvalues --   -1.12752  -1.12722  -1.12417  -1.12346  -1.12326
  Beta  occ. eigenvalues --   -0.18010  -0.13224  -0.11693
  Beta virt. eigenvalues --   -0.07041  -0.06078  -0.05237  -0.03835  -0.02730
  Beta virt. eigenvalues --   -0.02112  -0.01860  -0.01542  -0.01013  -0.00265
  Beta virt. eigenvalues --   -0.00059   0.00095   0.00367   0.00794   0.00876

 Mulliken charges and spin densities:
               1          2
     1  Na   0.002936  -0.069332
     2  Na   0.145631  -0.021965
     3  Na  -0.516060   0.701739
     4  Na  -0.001921   0.454960
     5  Na   0.049830  -0.115079
     6  Na   0.131951   0.030274
     7  Na   0.187633   0.019402
 Sum of Mulliken charges =  -0.00000   1.00000

 Dipole moment (field-independent basis, Debye):
    X=             -0.1530    Y=             -0.1184    Z=              0.3520  Tot=              0.4017
 Quadrupole moment (field-independent basis, Debye-Ang):
   XX=            -51.4470   YY=            -68.9272   ZZ=            -72.9708
   XY=              0.3081   XZ=              1.1141   YZ=              1.3535

 Normal termination of Gaussian 16 at Tue Dec  5 14:33:53 2023.
