 Gaussian 16, Revision B.01,
 Gaussian 16:  ES64L-G16RevB.01 20-Dec-2017

 -------------------------
 #P B3LYP/6-311+g(d) force
 -------------------------

 -----
 DPGEN
 -----
 Symbolic Z-matrix:
 Charge =  0 Multiplicity = 2

                         Standard orientation:
 ---------------------------------------------------------------------
 Center     Atomic      Atomic             Coordinates (Angstroms)
 Number     Number       Type             X           Y           Z
 ---------------------------------------------------------------------
      1         11           0       -0.870343    2.809348    0.051740
      2         11           0       -0.910184   -2.734313    0.397055
      3         11           0        2.272021   -1.709119   -0.557506
      4         11           0        0.746477    0.244898    2.191426
      5         11           0        2.478756    1.485394   -0.476086
      6         11           0       -3.353550    0.020118   -0.211963
      7         11           0       -0.363178   -0.116326   -1.394666
 ---------------------------------------------------------------------

 SCF Done:  E(UB3LYP) =  -1136.13667059     A.U. after   19 cycles

 The electronic state is 2-A.
 Alpha  occ. eigenvalues --  -38.44136 -38.43747 -38.43572 -38.43528 -38.43442
 Alpha  occ. eigenvalues --  -38.43437 -38.42919  -2.19946  -2.19621  -2.19468
 Alpha  occ. eigenvalues --   -2.19360  -2.19345  -2.19291  -2.18966  -1.13639
 Alpha  occ. eigenvalues --   -1.13602  -1.13573  -1.13282  -1.13265  -1.13234
 Alpha  occ. eigenvalues --   -1.13177  -1.13130  -1.13107  -1.13059  -1.13048
 Alpha  occ. eigenvalues --   -1.13030  -1.13001  -1.12980  -1.12977  -1.12963
 Alpha  occ. eigenvalues --   -1.12952  -1.12905  -1.12645  -1.12601  -1.12596
 Alpha  occ. eigenvalues --   -0.18752  -0.13044  -0.12482  -0.10880
 Alpha virt. eigenvalues --   -0.05649  -0.04940  -0.04732  -0.03142  -0.02938
 Alpha virt. eigenvalues --   -0.02621  -0.01501  -0.01039  -0.00362  -0.00212
 Alpha virt. eigenvalues --   -0.00022   0.00342   0.00810   0.00874   0.00914

  Beta  occ. eigenvalues --  -38.44136 -38.43646 -38.43558 -38.43525 -38.43434
  Beta  occ. eigenvalues --  -38.43421 -38.42874  -2.19947  -2.19447  -2.19434
  Beta  occ. eigenvalues --   -2.19357  -2.19319  -2.19279  -2.18886  -1.13633
  Beta  occ. eigenvalues --   -1.13600  -1.13577  -1.13189  -1.13145  -1.13129
  Beta  occ. eigenvalues --   -1.13113  -1.13101  -1.13061  -1.13050  -1.13032
  Beta  occ. eigenvalues --   -1.13012  -1.12981  -1.12976  -1.12956  -1.12940
  Beta  occ. eigenvalues --   -1.12924  -1.12895  -1.12586  -1.12544  -1.12532
  Beta  occ. eigenvalues --   -0.18036  -0.12805  -0.12273
  Beta virt. eigenvalues --   -0.06893  -0.05592  -0.04935  -0.04638  -0.02450
  Beta virt. eigenvalues --   -0.02187  -0.01573  -0.01372  -0.00976  -0.00353
  Beta virt. eigenvalues --   -0.00245   0.00146   0.00391   0.00858   0.00902

 Mulliken charges and spin densities:
               1          2
     1  Na   0.001744  -0.028932
     2  Na  -0.011630   0.085699
     3  Na   0.356084   0.088998
     4  Na  -0.655004   0.721833
     5  Na   0.321267   0.048566
     6  Na   0.100711  -0.021556
     7  Na  -0.113173   0.105394
 Sum of Mulliken charges =  -0.00000   1.00000

 Dipole moment (field-independent basis, Debye):
    X=             -0.2884    Y=              0.0869    Z=              0.2914  Tot=              0.4190
 Quadrupole moment (field-independent basis, Debye-Ang):
   XX=            -57.0468   YY=            -62.8538   ZZ=            -73.4494
   XY=              0.1005   XZ=             -1.9431   YZ=             -0.7597

 Normal termination of Gaussian 16 at Thu Dec  7 09:40:34 2023.
