 Gaussian 16, Revision B.01,
 Gaussian 16:  ES64L-G16RevB.01 20-Dec-2017

 -------------------------
 #P B3LYP/6-311+g(d) force
 -------------------------

 -----
 DPGEN
 -----
 Symbolic Z-matrix:
 Charge =  0 Multiplicity = 2

                         Standard orientation:
 ---------------------------------------------------------------------
 Center     Atomic      Atomic             Coordinates (Angstroms)
 Number     Number       Type             X           Y           Z
 ---------------------------------------------------------------------
      1         11           0       -2.423922   -0.199713    0.810543
      2         11           0       -3.926478   -2.731712   -0.588846
      3         11           0        2.809503    0.186526    1.236537
      4         11           0       -2.862083    2.769848   -0.752126
      5         11           0        5.955190   -0.356438   -1.014972
      6         11           0        0.594576   -2.205782    0.155913
      7         11           0       -0.146788    2.537271    0.152952
 ---------------------------------------------------------------------

 SCF Done:  E(UB3LYP) =  -1136.11361999     A.U. after   18 cycles

 The electronic state is 2-A.
 Alpha  occ. eigenvalues --  -38.44910 -38.44814 -38.44201 -38.44148 -38.44083
 Alpha  occ. eigenvalues --  -38.43821 -38.43797  -2.20680  -2.20598  -2.20068
 Alpha  occ. eigenvalues --   -2.20017  -2.19859  -2.19687  -2.19575  -1.14363
 Alpha  occ. eigenvalues --   -1.14353  -1.14278  -1.14229  -1.14229  -1.14196
 Alpha  occ. eigenvalues --   -1.13925  -1.13733  -1.13717  -1.13653  -1.13646
 Alpha  occ. eigenvalues --   -1.13541  -1.13538  -1.13520  -1.13493  -1.13379
 Alpha  occ. eigenvalues --   -1.13374  -1.13282  -1.13257  -1.13249  -1.13221
 Alpha  occ. eigenvalues --   -0.16605  -0.13658  -0.12399  -0.11087
 Alpha virt. eigenvalues --   -0.06241  -0.05444  -0.05023  -0.03789  -0.02574
 Alpha virt. eigenvalues --   -0.02260  -0.01987  -0.01759  -0.01155  -0.00728
 Alpha virt. eigenvalues --   -0.00588  -0.00280  -0.00017   0.00259   0.00574

  Beta  occ. eigenvalues --  -38.44879 -38.44674 -38.44197 -38.44140 -38.44065
  Beta  occ. eigenvalues --  -38.43818 -38.43803  -2.20625  -2.20336  -2.20061
  Beta  occ. eigenvalues --   -2.20003  -2.19826  -2.19684  -2.19592  -1.14324
  Beta  occ. eigenvalues --   -1.14310  -1.14245  -1.14052  -1.14051  -1.14022
  Beta  occ. eigenvalues --   -1.13918  -1.13728  -1.13709  -1.13642  -1.13636
  Beta  occ. eigenvalues --   -1.13533  -1.13515  -1.13498  -1.13473  -1.13379
  Beta  occ. eigenvalues --   -1.13351  -1.13282  -1.13274  -1.13265  -1.13195
  Beta  occ. eigenvalues --   -0.16304  -0.12879  -0.12223
  Beta virt. eigenvalues --   -0.07359  -0.05958  -0.05325  -0.04553  -0.03655
  Beta virt. eigenvalues --   -0.02372  -0.01997  -0.01626  -0.01333  -0.00873
  Beta virt. eigenvalues --   -0.00550  -0.00157   0.00028   0.00129   0.00449

 Mulliken charges and spin densities:
               1          2
     1  Na  -0.557767  -0.019575
     2  Na   0.180332   0.112597
     3  Na  -0.055990  -0.142316
     4  Na   0.706270   0.124497
     5  Na  -0.009918   0.736741
     6  Na   0.011349   0.160084
     7  Na  -0.274276   0.027971
 Sum of Mulliken charges =  -0.00000   1.00000

 Dipole moment (field-independent basis, Debye):
    X=             -1.0318    Y=              0.0327    Z=             -0.6153  Tot=              1.2018
 Quadrupole moment (field-independent basis, Debye-Ang):
   XX=            -68.1269   YY=            -64.7184   ZZ=            -68.9880
   XY=             -0.4592   XZ=              3.4779   YZ=              2.2717

 Normal termination of Gaussian 16 at Tue Nov 28 22:17:20 2023.
