 Gaussian 16, Revision B.01,
 Gaussian 16:  ES64L-G16RevB.01 20-Dec-2017

 -------------------------
 #P B3LYP/6-311+g(d) force
 -------------------------

 -----
 DPGEN
 -----
 Symbolic Z-matrix:
 Charge =  0 Multiplicity = 2

                         Standard orientation:
 ---------------------------------------------------------------------
 Center     Atomic      Atomic             Coordinates (Angstroms)
 Number     Number       Type             X           Y           Z
 ---------------------------------------------------------------------
      1         11           0       -2.063562   -1.605233   -0.885758
      2         11           0       -4.317320    0.133458    0.796231
      3         11           0       -0.291296    0.101868    1.664254
      4         11           0        3.623954   -1.358427    0.836125
      5         11           0        2.640361    1.729534   -0.016707
      6         11           0        1.085351   -0.949427   -1.425775
      7         11           0       -0.677488    1.948226   -0.968370
 ---------------------------------------------------------------------

 SCF Done:  E(UB3LYP) =  -1136.12003467     A.U. after   31 cycles

 The electronic state is 2-A.
 Alpha  occ. eigenvalues --  -38.45904 -38.44768 -38.44130 -38.43776 -38.43610
 Alpha  occ. eigenvalues --  -38.42995 -38.42391  -2.21745  -2.20571  -2.20003
 Alpha  occ. eigenvalues --   -2.19667  -2.19576  -2.18830  -2.18287  -1.15455
 Alpha  occ. eigenvalues --   -1.15399  -1.15348  -1.14233  -1.14216  -1.14184
 Alpha  occ. eigenvalues --   -1.13705  -1.13675  -1.13609  -1.13387  -1.13322
 Alpha  occ. eigenvalues --   -1.13299  -1.13253  -1.13207  -1.13184  -1.12493
 Alpha  occ. eigenvalues --   -1.12489  -1.12467  -1.11984  -1.11962  -1.11900
 Alpha  occ. eigenvalues --   -0.18598  -0.14255  -0.11431  -0.10787
 Alpha virt. eigenvalues --   -0.07226  -0.05029  -0.04527  -0.03109  -0.03057
 Alpha virt. eigenvalues --   -0.02422  -0.01960  -0.01363  -0.01029  -0.00292
 Alpha virt. eigenvalues --   -0.00100   0.00213   0.00315   0.00629   0.00687

  Beta  occ. eigenvalues --  -38.45882 -38.44707 -38.44125 -38.43734 -38.43541
  Beta  occ. eigenvalues --  -38.42977 -38.42391  -2.21707  -2.20454  -2.19996
  Beta  occ. eigenvalues --   -2.19597  -2.19454  -2.18797  -2.18292  -1.15417
  Beta  occ. eigenvalues --   -1.15372  -1.15324  -1.14153  -1.14136  -1.14107
  Beta  occ. eigenvalues --   -1.13700  -1.13669  -1.13596  -1.13318  -1.13274
  Beta  occ. eigenvalues --   -1.13232  -1.13174  -1.13125  -1.13075  -1.12470
  Beta  occ. eigenvalues --   -1.12458  -1.12452  -1.11983  -1.11944  -1.11912
  Beta  occ. eigenvalues --   -0.17951  -0.13737  -0.10769
  Beta virt. eigenvalues --   -0.07490  -0.06968  -0.04820  -0.04082  -0.02869
  Beta virt. eigenvalues --   -0.02744  -0.01851  -0.01590  -0.00997  -0.00808
  Beta virt. eigenvalues --   -0.00143   0.00026   0.00323   0.00422   0.00677

 Mulliken charges and spin densities:
               1          2
     1  Na  -0.239696   0.125379
     2  Na   0.397873   0.370238
     3  Na  -0.436081   0.095938
     4  Na   0.187542   0.217164
     5  Na   0.445800   0.235188
     6  Na  -0.014546   0.072723
     7  Na  -0.340891  -0.116630
 Sum of Mulliken charges =  -0.00000   1.00000

 Dipole moment (field-independent basis, Debye):
    X=             -0.6475    Y=              0.7561    Z=              0.4105  Tot=              1.0768
 Quadrupole moment (field-independent basis, Debye-Ang):
   XX=            -59.0213   YY=            -74.5749   ZZ=            -66.3558
   XY=              0.9615   XZ=              0.2979   YZ=              0.4822

 Normal termination of Gaussian 16 at Fri Dec  8 03:42:40 2023.
