 Gaussian 16, Revision B.01,
 Gaussian 16:  ES64L-G16RevB.01 20-Dec-2017

 -------------------------
 #P B3LYP/6-311+g(d) force
 -------------------------

 -----
 DPGEN
 -----
 Symbolic Z-matrix:
 Charge =  0 Multiplicity = 2

                         Standard orientation:
 ---------------------------------------------------------------------
 Center     Atomic      Atomic             Coordinates (Angstroms)
 Number     Number       Type             X           Y           Z
 ---------------------------------------------------------------------
      1         11           0        0.214298   -2.062287   -0.054192
      2         11           0       -0.099857    0.159953   -1.601926
      3         11           0       -1.710874    1.746099    0.043100
      4         11           0        1.493981    1.914523   -0.055461
      5         11           0       -2.523648   -1.062636   -0.030806
      6         11           0       -0.049019    0.086544    1.694220
      7         11           0        2.675120   -0.782195    0.005065
 ---------------------------------------------------------------------

 SCF Done:  E(UB3LYP) =  -1136.08917638     A.U. after   19 cycles

 The electronic state is 2-A.
 Alpha  occ. eigenvalues --  -38.44045 -38.43836 -38.43784 -38.43730 -38.43513
 Alpha  occ. eigenvalues --  -38.43404 -38.43317  -2.20137  -2.20077  -2.19972
 Alpha  occ. eigenvalues --   -2.19833  -2.19620  -2.19595  -2.19402  -1.14051
 Alpha  occ. eigenvalues --   -1.13966  -1.13919  -1.13828  -1.13785  -1.13735
 Alpha  occ. eigenvalues --   -1.13708  -1.13680  -1.13605  -1.13562  -1.13509
 Alpha  occ. eigenvalues --   -1.13433  -1.13241  -1.13225  -1.13172  -1.13161
 Alpha  occ. eigenvalues --   -1.13143  -1.13103  -1.13059  -1.13027  -1.12972
 Alpha  occ. eigenvalues --   -0.21397  -0.14143  -0.12787  -0.11731
 Alpha virt. eigenvalues --   -0.05460  -0.04596  -0.03941  -0.03584  -0.02878
 Alpha virt. eigenvalues --   -0.02422  -0.01418  -0.00613  -0.00010   0.00337
 Alpha virt. eigenvalues --    0.00594   0.00643   0.00928   0.01092   0.01109

  Beta  occ. eigenvalues --  -38.44038 -38.43775 -38.43748 -38.43638 -38.43499
  Beta  occ. eigenvalues --  -38.43384 -38.43304  -2.20071  -2.19981  -2.19824
  Beta  occ. eigenvalues --   -2.19806  -2.19600  -2.19567  -2.19385  -1.13989
  Beta  occ. eigenvalues --   -1.13903  -1.13855  -1.13797  -1.13700  -1.13667
  Beta  occ. eigenvalues --   -1.13628  -1.13609  -1.13556  -1.13529  -1.13449
  Beta  occ. eigenvalues --   -1.13374  -1.13208  -1.13162  -1.13154  -1.13132
  Beta  occ. eigenvalues --   -1.13096  -1.13054  -1.13042  -1.12970  -1.12960
  Beta  occ. eigenvalues --   -0.20602  -0.13779  -0.12429
  Beta virt. eigenvalues --   -0.07565  -0.05487  -0.04580  -0.03924  -0.02625
  Beta virt. eigenvalues --   -0.01974  -0.01366  -0.01322  -0.00575   0.00127
  Beta virt. eigenvalues --    0.00370   0.00556   0.00621   0.00955   0.01093

 Mulliken charges and spin densities:
               1          2
     1  Na   0.391103   0.130996
     2  Na  -0.531012   0.404959
     3  Na   0.298725   0.034772
     4  Na   0.299252   0.024689
     5  Na   0.111957  -0.029797
     6  Na  -0.477589   0.499559
     7  Na  -0.092436  -0.065179
 Sum of Mulliken charges =  -0.00000   1.00000

 Dipole moment (field-independent basis, Debye):
    X=              0.0380    Y=              0.0935    Z=              0.1243  Tot=              0.1601
 Quadrupole moment (field-independent basis, Debye-Ang):
   XX=            -55.5233   YY=            -68.9933   ZZ=            -71.3182
   XY=              0.3486   XZ=             -0.0570   YZ=              0.1237

 Normal termination of Gaussian 16 at Thu Dec  7 06:59:29 2023.
