 Gaussian 16, Revision B.01,
 Gaussian 16:  ES64L-G16RevB.01 20-Dec-2017

 -------------------------
 #P B3LYP/6-311+g(d) force
 -------------------------

 -----
 DPGEN
 -----
 Symbolic Z-matrix:
 Charge =  0 Multiplicity = 2

                         Standard orientation:
 ---------------------------------------------------------------------
 Center     Atomic      Atomic             Coordinates (Angstroms)
 Number     Number       Type             X           Y           Z
 ---------------------------------------------------------------------
      1         11           0        2.234863   -2.450835   -1.430968
      2         11           0       -0.269320   -2.448465    1.514731
      3         11           0       -3.095430   -2.075931   -0.315868
      4         11           0       -4.346097    1.248373   -0.261193
      5         11           0       -1.377541    2.875090    0.101788
      6         11           0        3.971834   -0.403483    0.463294
      7         11           0        2.881691    3.255252   -0.071784
 ---------------------------------------------------------------------

 SCF Done:  E(UB3LYP) =  -1136.10638007     A.U. after   23 cycles

 The electronic state is 2-A.
 Alpha  occ. eigenvalues --  -38.45086 -38.44853 -38.44728 -38.44700 -38.44557
 Alpha  occ. eigenvalues --  -38.44002 -38.43823  -2.20812  -2.20625  -2.20504
 Alpha  occ. eigenvalues --   -2.20495  -2.20340  -2.19807  -2.19587  -1.14508
 Alpha  occ. eigenvalues --   -1.14497  -1.14435  -1.14320  -1.14297  -1.14264
 Alpha  occ. eigenvalues --   -1.14177  -1.14167  -1.14152  -1.14136  -1.14123
 Alpha  occ. eigenvalues --   -1.14116  -1.14014  -1.13996  -1.13972  -1.13465
 Alpha  occ. eigenvalues --   -1.13448  -1.13447  -1.13245  -1.13221  -1.13218
 Alpha  occ. eigenvalues --   -0.15642  -0.13911  -0.12691  -0.10458
 Alpha virt. eigenvalues --   -0.07164  -0.05856  -0.04150  -0.03445  -0.03066
 Alpha virt. eigenvalues --   -0.02787  -0.02322  -0.01951  -0.01347  -0.00726
 Alpha virt. eigenvalues --   -0.00309  -0.00187   0.00201   0.00408   0.00451

  Beta  occ. eigenvalues --  -38.45089 -38.44842 -38.44696 -38.44650 -38.44539
  Beta  occ. eigenvalues --  -38.43961 -38.43752  -2.20822  -2.20609  -2.20447
  Beta  occ. eigenvalues --   -2.20405  -2.20311  -2.19732  -2.19454  -1.14519
  Beta  occ. eigenvalues --   -1.14508  -1.14414  -1.14303  -1.14290  -1.14226
  Beta  occ. eigenvalues --   -1.14140  -1.14129  -1.14092  -1.14083  -1.14064
  Beta  occ. eigenvalues --   -1.14050  -1.13997  -1.13978  -1.13933  -1.13414
  Beta  occ. eigenvalues --   -1.13400  -1.13394  -1.13154  -1.13134  -1.13129
  Beta  occ. eigenvalues --   -0.15188  -0.13277  -0.11850
  Beta virt. eigenvalues --   -0.07371  -0.07338  -0.05542  -0.03694  -0.03199
  Beta virt. eigenvalues --   -0.02864  -0.02455  -0.02065  -0.01688  -0.01079
  Beta virt. eigenvalues --   -0.00591  -0.00007   0.00075   0.00201   0.00424

 Mulliken charges and spin densities:
               1          2
     1  Na   0.224844   0.217893
     2  Na   0.070749   0.151409
     3  Na  -0.295604   0.065741
     4  Na   0.623065   0.132936
     5  Na  -0.480293   0.026028
     6  Na  -0.233704   0.022051
     7  Na   0.090943   0.383943
 Sum of Mulliken charges =  -0.00000   1.00000

 Dipole moment (field-independent basis, Debye):
    X=             -0.2640    Y=             -1.2197    Z=             -0.1285  Tot=              1.2545
 Quadrupole moment (field-independent basis, Debye-Ang):
   XX=            -62.3749   YY=            -74.6131   ZZ=            -66.8971
   XY=              0.4269   XZ=              3.8525   YZ=              2.2453

 Normal termination of Gaussian 16 at Mon Dec  4 00:31:36 2023.
