 Gaussian 16, Revision B.01,
 Gaussian 16:  ES64L-G16RevB.01 20-Dec-2017

 -------------------------
 #P B3LYP/6-311+g(d) force
 -------------------------

 -----
 DPGEN
 -----
 Symbolic Z-matrix:
 Charge =  0 Multiplicity = 2

                         Standard orientation:
 ---------------------------------------------------------------------
 Center     Atomic      Atomic             Coordinates (Angstroms)
 Number     Number       Type             X           Y           Z
 ---------------------------------------------------------------------
      1         11           0        2.460313   -2.016354    2.150940
      2         11           0       -3.409674   -2.089916   -0.617303
      3         11           0        2.098565    2.618952   -0.897426
      4         11           0       -0.699211    3.300033    0.314772
      5         11           0       -0.307982   -2.236530   -1.357903
      6         11           0       -3.789811    1.020287    0.967510
      7         11           0        3.647801   -0.596471   -0.560590
 ---------------------------------------------------------------------

 SCF Done:  E(UB3LYP) =  -1136.10979387     A.U. after   21 cycles

 The electronic state is 2-A.
 Alpha  occ. eigenvalues --  -38.44961 -38.44941 -38.44894 -38.44478 -38.44124
 Alpha  occ. eigenvalues --  -38.44025 -38.43634  -2.20746  -2.20733  -2.20681
 Alpha  occ. eigenvalues --   -2.20257  -2.19896  -2.19832  -2.19455  -1.14415
 Alpha  occ. eigenvalues --   -1.14412  -1.14404  -1.14379  -1.14370  -1.14364
 Alpha  occ. eigenvalues --   -1.14351  -1.14342  -1.14292  -1.13919  -1.13897
 Alpha  occ. eigenvalues --   -1.13883  -1.13596  -1.13576  -1.13548  -1.13507
 Alpha  occ. eigenvalues --   -1.13497  -1.13474  -1.13108  -1.13106  -1.13086
 Alpha  occ. eigenvalues --   -0.15926  -0.13853  -0.12825  -0.10798
 Alpha virt. eigenvalues --   -0.07117  -0.06004  -0.04068  -0.03364  -0.03186
 Alpha virt. eigenvalues --   -0.02706  -0.02101  -0.01542  -0.01314  -0.00720
 Alpha virt. eigenvalues --   -0.00556  -0.00124   0.00054   0.00352   0.00524

  Beta  occ. eigenvalues --  -38.44903 -38.44900 -38.44870 -38.44412 -38.44144
  Beta  occ. eigenvalues --  -38.44021 -38.43604  -2.20695  -2.20640  -2.20601
  Beta  occ. eigenvalues --   -2.20132  -2.19934  -2.19831  -2.19396  -1.14382
  Beta  occ. eigenvalues --   -1.14362  -1.14343  -1.14337  -1.14334  -1.14288
  Beta  occ. eigenvalues --   -1.14282  -1.14277  -1.14238  -1.13833  -1.13814
  Beta  occ. eigenvalues --   -1.13801  -1.13616  -1.13604  -1.13560  -1.13501
  Beta  occ. eigenvalues --   -1.13497  -1.13453  -1.13075  -1.13065  -1.13051
  Beta  occ. eigenvalues --   -0.15464  -0.13272  -0.12411
  Beta virt. eigenvalues --   -0.07560  -0.06875  -0.05515  -0.03843  -0.03021
  Beta virt. eigenvalues --   -0.02936  -0.02263  -0.01958  -0.01348  -0.01055
  Beta virt. eigenvalues --   -0.00617  -0.00338   0.00111   0.00265   0.00477

 Mulliken charges and spin densities:
               1          2
     1  Na   0.027701   0.279330
     2  Na   0.463732  -0.156611
     3  Na  -0.008947   0.114281
     4  Na   0.057046  -0.070567
     5  Na  -0.527031   0.360640
     6  Na  -0.168978   0.360974
     7  Na   0.156477   0.111954
 Sum of Mulliken charges =  -0.00000   1.00000

 Dipole moment (field-independent basis, Debye):
    X=              0.5091    Y=             -0.9406    Z=              0.3356  Tot=              1.1210
 Quadrupole moment (field-independent basis, Debye-Ang):
   XX=            -61.4258   YY=            -73.1514   ZZ=            -67.9373
   XY=              1.1681   XZ=             -4.1675   YZ=             -0.4631

 Normal termination of Gaussian 16 at Mon Dec  4 02:31:29 2023.
