 Gaussian 16, Revision B.01,
 Gaussian 16:  ES64L-G16RevB.01 20-Dec-2017

 -------------------------
 #P B3LYP/6-311+g(d) force
 -------------------------

 -----
 DPGEN
 -----
 Symbolic Z-matrix:
 Charge =  0 Multiplicity = 2

                         Standard orientation:
 ---------------------------------------------------------------------
 Center     Atomic      Atomic             Coordinates (Angstroms)
 Number     Number       Type             X           Y           Z
 ---------------------------------------------------------------------
      1         11           0        0.965045    0.002506    2.146289
      2         11           0       -1.442989    1.905776    0.677702
      3         11           0        1.266345   -2.898965    0.711324
      4         11           0       -0.960324   -1.638335   -1.399229
      5         11           0       -4.224677   -0.360046   -0.307578
      6         11           0        1.241317    3.190792   -0.591547
      7         11           0        3.155282   -0.201728   -1.236962
 ---------------------------------------------------------------------

 SCF Done:  E(UB3LYP) =  -1136.12337204     A.U. after   21 cycles

 The electronic state is 2-A.
 Alpha  occ. eigenvalues --  -38.44916 -38.44402 -38.44265 -38.44136 -38.43970
 Alpha  occ. eigenvalues --  -38.43848 -38.43503  -2.20687  -2.20191  -2.20123
 Alpha  occ. eigenvalues --   -2.19892  -2.19756  -2.19693  -2.19344  -1.14360
 Alpha  occ. eigenvalues --   -1.14329  -1.14300  -1.13887  -1.13871  -1.13797
 Alpha  occ. eigenvalues --   -1.13796  -1.13767  -1.13741  -1.13565  -1.13556
 Alpha  occ. eigenvalues --   -1.13526  -1.13449  -1.13411  -1.13397  -1.13363
 Alpha  occ. eigenvalues --   -1.13356  -1.13318  -1.13045  -1.13026  -1.12938
 Alpha  occ. eigenvalues --   -0.17344  -0.12849  -0.12460  -0.11033
 Alpha virt. eigenvalues --   -0.06547  -0.05201  -0.04906  -0.03377  -0.03175
 Alpha virt. eigenvalues --   -0.02597  -0.01974  -0.01190  -0.00812  -0.00356
 Alpha virt. eigenvalues --   -0.00238   0.00239   0.00312   0.00566   0.00780

  Beta  occ. eigenvalues --  -38.44851 -38.44384 -38.44179 -38.44142 -38.43968
  Beta  occ. eigenvalues --  -38.43835 -38.43491  -2.20565  -2.20157  -2.19966
  Beta  occ. eigenvalues --   -2.19902  -2.19753  -2.19673  -2.19324  -1.14272
  Beta  occ. eigenvalues --   -1.14249  -1.14213  -1.13860  -1.13847  -1.13774
  Beta  occ. eigenvalues --   -1.13690  -1.13659  -1.13626  -1.13571  -1.13562
  Beta  occ. eigenvalues --   -1.13532  -1.13449  -1.13401  -1.13391  -1.13349
  Beta  occ. eigenvalues --   -1.13325  -1.13298  -1.13020  -1.13010  -1.12929
  Beta  occ. eigenvalues --   -0.16686  -0.12709  -0.12186
  Beta virt. eigenvalues --   -0.07329  -0.06317  -0.04943  -0.04596  -0.02887
  Beta virt. eigenvalues --   -0.02672  -0.02153  -0.01512  -0.01132  -0.00686
  Beta virt. eigenvalues --   -0.00210  -0.00062   0.00330   0.00391   0.00653

 Mulliken charges and spin densities:
               1          2
     1  Na   0.031450   0.341651
     2  Na  -0.304731   0.110749
     3  Na   0.428886   0.111818
     4  Na  -0.258828   0.152069
     5  Na   0.278902  -0.095755
     6  Na   0.067565  -0.014191
     7  Na  -0.243245   0.393659
 Sum of Mulliken charges =  -0.00000   1.00000

 Dipole moment (field-independent basis, Debye):
    X=              0.2545    Y=             -0.3485    Z=             -0.0348  Tot=              0.4330
 Quadrupole moment (field-independent basis, Debye-Ang):
   XX=            -59.8607   YY=            -65.3962   ZZ=            -71.3410
   XY=             -1.1525   XZ=             -1.3764   YZ=             -1.1852

 Normal termination of Gaussian 16 at Sun Dec  3 19:28:32 2023.
