 Gaussian 16, Revision B.01,
 Gaussian 16:  ES64L-G16RevB.01 20-Dec-2017

 -------------------------
 #P B3LYP/6-311+g(d) force
 -------------------------

 -----
 DPGEN
 -----
 Symbolic Z-matrix:
 Charge =  0 Multiplicity = 2

                         Standard orientation:
 ---------------------------------------------------------------------
 Center     Atomic      Atomic             Coordinates (Angstroms)
 Number     Number       Type             X           Y           Z
 ---------------------------------------------------------------------
      1         11           0        2.982319    2.417485   -0.508554
      2         11           0       -0.184884    0.801116   -0.618017
      3         11           0       -3.095192    2.363725    0.379000
      4         11           0       -2.970245   -0.957541   -0.662497
      5         11           0        3.154087   -0.593707    0.455167
      6         11           0        0.356935   -2.827833   -0.993188
      7         11           0       -0.243020   -1.203245    1.948089
 ---------------------------------------------------------------------

 SCF Done:  E(UB3LYP) =  -1136.12643146     A.U. after   21 cycles

 The electronic state is 2-A.
 Alpha  occ. eigenvalues --  -38.44464 -38.44421 -38.44276 -38.43663 -38.43612
 Alpha  occ. eigenvalues --  -38.43391 -38.43361  -2.20295  -2.20266  -2.20067
 Alpha  occ. eigenvalues --   -2.19597  -2.19431  -2.19250  -2.19223  -1.13975
 Alpha  occ. eigenvalues --   -1.13965  -1.13963  -1.13937  -1.13932  -1.13871
 Alpha  occ. eigenvalues --   -1.13738  -1.13723  -1.13697  -1.13339  -1.13268
 Alpha  occ. eigenvalues --   -1.13209  -1.13093  -1.13079  -1.13073  -1.12935
 Alpha  occ. eigenvalues --   -1.12903  -1.12896  -1.12871  -1.12862  -1.12823
 Alpha  occ. eigenvalues --   -0.17970  -0.13671  -0.12084  -0.09993
 Alpha virt. eigenvalues --   -0.06252  -0.05982  -0.04696  -0.03064  -0.02554
 Alpha virt. eigenvalues --   -0.02207  -0.01851  -0.01526  -0.01074  -0.00447
 Alpha virt. eigenvalues --   -0.00132   0.00232   0.00477   0.00589   0.00762

  Beta  occ. eigenvalues --  -38.44458 -38.44395 -38.44270 -38.43647 -38.43602
  Beta  occ. eigenvalues --  -38.43366 -38.43283  -2.20286  -2.20220  -2.20057
  Beta  occ. eigenvalues --   -2.19573  -2.19413  -2.19179  -2.19105  -1.13969
  Beta  occ. eigenvalues --   -1.13957  -1.13932  -1.13912  -1.13900  -1.13830
  Beta  occ. eigenvalues --   -1.13732  -1.13710  -1.13691  -1.13298  -1.13240
  Beta  occ. eigenvalues --   -1.13196  -1.13082  -1.13064  -1.13060  -1.12869
  Beta  occ. eigenvalues --   -1.12861  -1.12832  -1.12814  -1.12764  -1.12739
  Beta  occ. eigenvalues --   -0.17363  -0.13483  -0.11832
  Beta virt. eigenvalues --   -0.06399  -0.06043  -0.05776  -0.04457  -0.02551
  Beta virt. eigenvalues --   -0.02144  -0.02054  -0.01556  -0.01064  -0.00800
  Beta virt. eigenvalues --   -0.00406   0.00117   0.00308   0.00599   0.00636

 Mulliken charges and spin densities:
               1          2
     1  Na   0.393198  -0.048845
     2  Na  -1.917344   0.182225
     3  Na   0.279222   0.004633
     4  Na   1.020111   0.191729
     5  Na   0.309301   0.090814
     6  Na   0.149173   0.241503
     7  Na  -0.233660   0.337941
 Sum of Mulliken charges =  -0.00000   1.00000

 Dipole moment (field-independent basis, Debye):
    X=             -0.3722    Y=              0.0321    Z=              0.2291  Tot=              0.4382
 Quadrupole moment (field-independent basis, Debye-Ang):
   XX=            -53.9847   YY=            -62.9040   ZZ=            -75.8154
   XY=             -3.1347   XZ=             -0.9784   YZ=              1.1745

 Normal termination of Gaussian 16 at Tue Dec  5 10:43:25 2023.
