 Gaussian 16, Revision B.01,
 Gaussian 16:  ES64L-G16RevB.01 20-Dec-2017

 -------------------------
 #P B3LYP/6-311+g(d) force
 -------------------------

 -----
 DPGEN
 -----
 Symbolic Z-matrix:
 Charge =  0 Multiplicity = 2

                         Standard orientation:
 ---------------------------------------------------------------------
 Center     Atomic      Atomic             Coordinates (Angstroms)
 Number     Number       Type             X           Y           Z
 ---------------------------------------------------------------------
      1         11           0       -2.970507    1.396198   -0.554118
      2         11           0        0.818111   -2.347966    1.152779
      3         11           0        1.566215    3.665244    0.557072
      4         11           0        0.670201    0.595288   -0.288966
      5         11           0       -2.062552   -0.900213    1.584493
      6         11           0        3.537097   -1.115033   -0.749715
      7         11           0       -1.558566   -1.293518   -1.701546
 ---------------------------------------------------------------------

 SCF Done:  E(UB3LYP) =  -1136.11943852     A.U. after   23 cycles

 The electronic state is 2-A.
 Alpha  occ. eigenvalues --  -38.44987 -38.44758 -38.44526 -38.43751 -38.43432
 Alpha  occ. eigenvalues --  -38.43347 -38.42528  -2.20772  -2.20599  -2.20435
 Alpha  occ. eigenvalues --   -2.19683  -2.19232  -2.19199  -2.18510  -1.14437
 Alpha  occ. eigenvalues --   -1.14423  -1.14399  -1.14286  -1.14280  -1.14227
 Alpha  occ. eigenvalues --   -1.14128  -1.14064  -1.14029  -1.13359  -1.13326
 Alpha  occ. eigenvalues --   -1.13308  -1.12939  -1.12883  -1.12860  -1.12854
 Alpha  occ. eigenvalues --   -1.12850  -1.12840  -1.12230  -1.12181  -1.12130
 Alpha  occ. eigenvalues --   -0.18393  -0.13419  -0.11779  -0.10697
 Alpha virt. eigenvalues --   -0.06816  -0.05267  -0.04534  -0.03111  -0.02728
 Alpha virt. eigenvalues --   -0.02225  -0.02051  -0.01120  -0.00807  -0.00208
 Alpha virt. eigenvalues --   -0.00106   0.00105   0.00248   0.00591   0.00774

  Beta  occ. eigenvalues --  -38.44967 -38.44750 -38.44470 -38.43694 -38.43413
  Beta  occ. eigenvalues --  -38.43321 -38.42518  -2.20733  -2.20588  -2.20332
  Beta  occ. eigenvalues --   -2.19579  -2.19191  -2.19162  -2.18496  -1.14408
  Beta  occ. eigenvalues --   -1.14398  -1.14374  -1.14277  -1.14253  -1.14217
  Beta  occ. eigenvalues --   -1.14059  -1.13989  -1.13954  -1.13285  -1.13257
  Beta  occ. eigenvalues --   -1.13223  -1.12911  -1.12860  -1.12834  -1.12830
  Beta  occ. eigenvalues --   -1.12815  -1.12789  -1.12183  -1.12182  -1.12120
  Beta  occ. eigenvalues --   -0.17773  -0.13180  -0.11320
  Beta virt. eigenvalues --   -0.07172  -0.06481  -0.04973  -0.04373  -0.02744
  Beta virt. eigenvalues --   -0.02200  -0.02015  -0.01442  -0.00913  -0.00559
  Beta virt. eigenvalues --   -0.00149   0.00042   0.00282   0.00309   0.00636

 Mulliken charges and spin densities:
               1          2
     1  Na   0.870629   0.172900
     2  Na   0.098255   0.016332
     3  Na   0.288788  -0.037419
     4  Na  -2.747689   0.548071
     5  Na   0.002657   0.219109
     6  Na   0.944988  -0.022706
     7  Na   0.542371   0.103713
 Sum of Mulliken charges =  -0.00000   1.00000

 Dipole moment (field-independent basis, Debye):
    X=             -0.3573    Y=             -0.8212    Z=             -0.3799  Tot=              0.9728
 Quadrupole moment (field-independent basis, Debye-Ang):
   XX=            -52.6738   YY=            -67.5375   ZZ=            -71.3241
   XY=             -5.6261   XZ=             -1.4056   YZ=              2.1399

 Normal termination of Gaussian 16 at Tue Dec  5 22:14:53 2023.
