 Gaussian 16, Revision B.01,
 Gaussian 16:  ES64L-G16RevB.01 20-Dec-2017

 -------------------------
 #P B3LYP/6-311+g(d) force
 -------------------------

 -----
 DPGEN
 -----
 Symbolic Z-matrix:
 Charge =  0 Multiplicity = 2

                         Standard orientation:
 ---------------------------------------------------------------------
 Center     Atomic      Atomic             Coordinates (Angstroms)
 Number     Number       Type             X           Y           Z
 ---------------------------------------------------------------------
      1         11           0       -2.830871   -1.331834   -0.292518
      2         11           0       -2.272450    1.954104    0.227455
      3         11           0        1.112841    2.820928   -0.137833
      4         11           0        0.221601   -0.293047    2.029374
      5         11           0        0.252496   -2.626270   -0.015380
      6         11           0        3.459742   -0.502823   -0.147236
      7         11           0        0.056642   -0.021058   -1.663861
 ---------------------------------------------------------------------

 SCF Done:  E(UB3LYP) =  -1136.13490727     A.U. after   20 cycles

 The electronic state is 2-A.
 Alpha  occ. eigenvalues --  -38.44646 -38.43723 -38.43608 -38.43591 -38.43568
 Alpha  occ. eigenvalues --  -38.43284 -38.43270  -2.20408  -2.19581  -2.19509
 Alpha  occ. eigenvalues --   -2.19407  -2.19404  -2.19256  -2.19198  -1.14086
 Alpha  occ. eigenvalues --   -1.14060  -1.14047  -1.13261  -1.13248  -1.13238
 Alpha  occ. eigenvalues --   -1.13217  -1.13146  -1.13110  -1.13106  -1.13079
 Alpha  occ. eigenvalues --   -1.13073  -1.13064  -1.13053  -1.13022  -1.13012
 Alpha  occ. eigenvalues --   -1.12911  -1.12867  -1.12857  -1.12818  -1.12782
 Alpha  occ. eigenvalues --   -0.18616  -0.12843  -0.12492  -0.10703
 Alpha virt. eigenvalues --   -0.06049  -0.05032  -0.04561  -0.03074  -0.02908
 Alpha virt. eigenvalues --   -0.02531  -0.01889  -0.01077  -0.00389  -0.00252
 Alpha virt. eigenvalues --   -0.00025   0.00324   0.00761   0.00854   0.00895

  Beta  occ. eigenvalues --  -38.44646 -38.43718 -38.43589 -38.43563 -38.43511
  Beta  occ. eigenvalues --  -38.43257 -38.43218  -2.20410  -2.19573  -2.19403
  Beta  occ. eigenvalues --   -2.19401  -2.19332  -2.19182  -2.19136  -1.14075
  Beta  occ. eigenvalues --   -1.14061  -1.14051  -1.13255  -1.13242  -1.13211
  Beta  occ. eigenvalues --   -1.13115  -1.13102  -1.13069  -1.13061  -1.13056
  Beta  occ. eigenvalues --   -1.13048  -1.13014  -1.13012  -1.12983  -1.12966
  Beta  occ. eigenvalues --   -1.12831  -1.12821  -1.12784  -1.12761  -1.12756
  Beta  occ. eigenvalues --   -0.17875  -0.12636  -0.12242
  Beta virt. eigenvalues --   -0.06774  -0.06023  -0.05024  -0.04508  -0.02345
  Beta virt. eigenvalues --   -0.02110  -0.01813  -0.01459  -0.01014  -0.00433
  Beta virt. eigenvalues --   -0.00291   0.00114   0.00350   0.00800   0.00860

 Mulliken charges and spin densities:
               1          2
     1  Na   0.205552   0.013018
     2  Na   0.062104  -0.005851
     3  Na  -0.034435  -0.119198
     4  Na  -0.466131   0.727344
     5  Na   0.473833  -0.032404
     6  Na   0.034919  -0.131173
     7  Na  -0.275843   0.548265
 Sum of Mulliken charges =  -0.00000   1.00000

 Dipole moment (field-independent basis, Debye):
    X=              0.4322    Y=              0.0466    Z=              0.0867  Tot=              0.4433
 Quadrupole moment (field-independent basis, Debye-Ang):
   XX=            -53.4843   YY=            -64.5276   ZZ=            -74.7101
   XY=              0.3952   XZ=             -0.3119   YZ=              0.8075

 Normal termination of Gaussian 16 at Thu Dec  7 05:42:59 2023.
