 Gaussian 16, Revision B.01,
 Gaussian 16:  ES64L-G16RevB.01 20-Dec-2017

 -------------------------
 #P B3LYP/6-311+g(d) force
 -------------------------

 -----
 DPGEN
 -----
 Symbolic Z-matrix:
 Charge =  0 Multiplicity = 2

                         Standard orientation:
 ---------------------------------------------------------------------
 Center     Atomic      Atomic             Coordinates (Angstroms)
 Number     Number       Type             X           Y           Z
 ---------------------------------------------------------------------
      1         11           0       -2.843789   -1.824441   -0.570920
      2         11           0        1.367434   -1.474755    1.743114
      3         11           0       -1.254551    0.528390    1.887969
      4         11           0        1.179953    2.182767   -0.239999
      5         11           0        3.678563   -0.238628   -0.622632
      6         11           0        0.070081   -1.053809   -1.717339
      7         11           0       -2.197691    1.880476   -0.480193
 ---------------------------------------------------------------------

 SCF Done:  E(UB3LYP) =  -1136.12803070     A.U. after   21 cycles

 The electronic state is 2-A.
 Alpha  occ. eigenvalues --  -38.44598 -38.44372 -38.43921 -38.43887 -38.43586
 Alpha  occ. eigenvalues --  -38.43449 -38.43128  -2.20398  -2.20220  -2.19867
 Alpha  occ. eigenvalues --   -2.19745  -2.19488  -2.19270  -2.18980  -1.14068
 Alpha  occ. eigenvalues --   -1.14058  -1.14035  -1.13916  -1.13851  -1.13827
 Alpha  occ. eigenvalues --   -1.13643  -1.13530  -1.13452  -1.13428  -1.13411
 Alpha  occ. eigenvalues --   -1.13371  -1.13156  -1.13135  -1.13074  -1.12943
 Alpha  occ. eigenvalues --   -1.12918  -1.12913  -1.12679  -1.12655  -1.12586
 Alpha  occ. eigenvalues --   -0.18447  -0.13533  -0.11787  -0.11429
 Alpha virt. eigenvalues --   -0.06231  -0.05023  -0.04482  -0.03364  -0.02937
 Alpha virt. eigenvalues --   -0.02838  -0.01968  -0.00919  -0.00642   0.00007
 Alpha virt. eigenvalues --    0.00172   0.00284   0.00431   0.00750   0.00810

  Beta  occ. eigenvalues --  -38.44593 -38.44296 -38.43858 -38.43848 -38.43579
  Beta  occ. eigenvalues --  -38.43446 -38.43116  -2.20390  -2.20083  -2.19754
  Beta  occ. eigenvalues --   -2.19674  -2.19476  -2.19267  -2.18960  -1.14057
  Beta  occ. eigenvalues --   -1.14049  -1.14030  -1.13812  -1.13756  -1.13728
  Beta  occ. eigenvalues --   -1.13561  -1.13452  -1.13384  -1.13379  -1.13354
  Beta  occ. eigenvalues --   -1.13316  -1.13129  -1.13120  -1.13066  -1.12929
  Beta  occ. eigenvalues --   -1.12914  -1.12913  -1.12663  -1.12631  -1.12572
  Beta  occ. eigenvalues --   -0.17703  -0.13381  -0.11252
  Beta virt. eigenvalues --   -0.07686  -0.06055  -0.04916  -0.03925  -0.03102
  Beta virt. eigenvalues --   -0.02291  -0.02002  -0.01876  -0.00861  -0.00258
  Beta virt. eigenvalues --    0.00075   0.00205   0.00321   0.00588   0.00820

 Mulliken charges and spin densities:
               1          2
     1  Na   0.042147  -0.044076
     2  Na  -0.212706   0.142648
     3  Na   0.184768   0.228380
     4  Na  -0.539643   0.098691
     5  Na   0.665368   0.026232
     6  Na  -0.551053   0.351524
     7  Na   0.411120   0.196601
 Sum of Mulliken charges =  -0.00000   1.00000

 Dipole moment (field-independent basis, Debye):
    X=              0.6736    Y=             -0.1901    Z=             -0.1322  Tot=              0.7123
 Quadrupole moment (field-independent basis, Debye-Ang):
   XX=            -52.1744   YY=            -74.5790   ZZ=            -68.7689
   XY=             -1.0821   XZ=             -1.2391   YZ=             -3.2662

 Normal termination of Gaussian 16 at Fri Dec  8 00:00:49 2023.
