 Gaussian 16, Revision B.01,
 Gaussian 16:  ES64L-G16RevB.01 20-Dec-2017

 -------------------------
 #P B3LYP/6-311+g(d) force
 -------------------------

 -----
 DPGEN
 -----
 Symbolic Z-matrix:
 Charge =  0 Multiplicity = 2

                         Standard orientation:
 ---------------------------------------------------------------------
 Center     Atomic      Atomic             Coordinates (Angstroms)
 Number     Number       Type             X           Y           Z
 ---------------------------------------------------------------------
      1         11           0        1.212666   -0.203627   -1.907140
      2         11           0        3.183356    2.180595    0.581408
      3         11           0       -4.665029    0.583597   -0.388170
      4         11           0       -2.764800   -1.633308    0.242960
      5         11           0        0.605722   -0.832984    2.262326
      6         11           0        3.505419   -1.764214   -0.632833
      7         11           0       -1.077334    1.669941   -0.158550
 ---------------------------------------------------------------------

 SCF Done:  E(UB3LYP) =  -1136.10014679     A.U. after   32 cycles

 The electronic state is 2-A.
 Alpha  occ. eigenvalues --  -38.45473 -38.45337 -38.44851 -38.44838 -38.44772
 Alpha  occ. eigenvalues --  -38.43749 -38.42779  -2.21190  -2.21165  -2.20706
 Alpha  occ. eigenvalues --   -2.20636  -2.20604  -2.19560  -2.18603  -1.14880
 Alpha  occ. eigenvalues --   -1.14880  -1.14850  -1.14814  -1.14809  -1.14786
 Alpha  occ. eigenvalues --   -1.14395  -1.14366  -1.14317  -1.14291  -1.14273
 Alpha  occ. eigenvalues --   -1.14256  -1.14252  -1.14248  -1.14246  -1.13299
 Alpha  occ. eigenvalues --   -1.13246  -1.13134  -1.12294  -1.12256  -1.12241
 Alpha  occ. eigenvalues --   -0.17414  -0.14364  -0.11310  -0.10281
 Alpha virt. eigenvalues --   -0.07851  -0.06010  -0.04098  -0.03727  -0.03112
 Alpha virt. eigenvalues --   -0.02310  -0.02220  -0.02164  -0.01063  -0.00665
 Alpha virt. eigenvalues --   -0.00526   0.00103   0.00177   0.00478   0.00495

  Beta  occ. eigenvalues --  -38.45475 -38.45313 -38.44819 -38.44761 -38.44721
  Beta  occ. eigenvalues --  -38.43742 -38.42777  -2.21196  -2.21118  -2.20647
  Beta  occ. eigenvalues --   -2.20586  -2.20421  -2.19549  -2.18602  -1.14880
  Beta  occ. eigenvalues --   -1.14852  -1.14851  -1.14818  -1.14776  -1.14752
  Beta  occ. eigenvalues --   -1.14348  -1.14327  -1.14275  -1.14265  -1.14241
  Beta  occ. eigenvalues --   -1.14205  -1.14140  -1.14111  -1.14096  -1.13294
  Beta  occ. eigenvalues --   -1.13218  -1.13128  -1.12286  -1.12257  -1.12236
  Beta  occ. eigenvalues --   -0.16772  -0.14095  -0.10145
  Beta virt. eigenvalues --   -0.07712  -0.07373  -0.05727  -0.03745  -0.03379
  Beta virt. eigenvalues --   -0.02624  -0.02176  -0.01864  -0.01594  -0.00703
  Beta virt. eigenvalues --   -0.00559  -0.00434   0.00108   0.00343   0.00498

 Mulliken charges and spin densities:
               1          2
     1  Na   0.177370   0.294422
     2  Na   0.023292  -0.033693
     3  Na   0.559544   0.082285
     4  Na  -0.216567   0.075301
     5  Na  -0.090435   0.581690
     6  Na  -0.056224  -0.110677
     7  Na  -0.396981   0.110673
 Sum of Mulliken charges =  -0.00000   1.00000

 Dipole moment (field-independent basis, Debye):
    X=             -1.1823    Y=              0.8170    Z=              0.4587  Tot=              1.5086
 Quadrupole moment (field-independent basis, Debye-Ang):
   XX=            -49.4551   YY=            -78.6444   ZZ=            -70.6944
   XY=              2.7401   XZ=              7.1560   YZ=             -2.6702

 Normal termination of Gaussian 16 at Mon Dec  4 03:46:48 2023.
