 Gaussian 16, Revision B.01,
 Gaussian 16:  ES64L-G16RevB.01 20-Dec-2017

 -------------------------
 #P B3LYP/6-311+g(d) force
 -------------------------

 -----
 DPGEN
 -----
 Symbolic Z-matrix:
 Charge =  0 Multiplicity = 2

                         Standard orientation:
 ---------------------------------------------------------------------
 Center     Atomic      Atomic             Coordinates (Angstroms)
 Number     Number       Type             X           Y           Z
 ---------------------------------------------------------------------
      1         11           0        0.272891    3.325357   -0.342999
      2         11           0        0.046589    0.044521    1.592556
      3         11           0        0.257870   -0.169051   -1.327849
      4         11           0       -3.103133    1.109001    0.138849
      5         11           0       -2.170969   -2.243547   -0.164475
      6         11           0        3.103487    0.660101    0.178813
      7         11           0        1.593264   -2.726383   -0.074895
 ---------------------------------------------------------------------

 SCF Done:  E(UB3LYP) =  -1136.13175970     A.U. after   23 cycles

 The electronic state is 2-A.
 Alpha  occ. eigenvalues --  -38.44200 -38.44189 -38.43949 -38.43837 -38.43827
 Alpha  occ. eigenvalues --  -38.42874 -38.42826  -2.20036  -2.19983  -2.19729
 Alpha  occ. eigenvalues --   -2.19689  -2.19662  -2.18880  -2.18849  -1.13718
 Alpha  occ. eigenvalues --   -1.13708  -1.13658  -1.13657  -1.13641  -1.13626
 Alpha  occ. eigenvalues --   -1.13404  -1.13394  -1.13380  -1.13370  -1.13351
 Alpha  occ. eigenvalues --   -1.13344  -1.13328  -1.13313  -1.13287  -1.12777
 Alpha  occ. eigenvalues --   -1.12495  -1.12482  -1.12465  -1.12443  -1.12438
 Alpha  occ. eigenvalues --   -0.18563  -0.13025  -0.12597  -0.09663
 Alpha virt. eigenvalues --   -0.05806  -0.05427  -0.05320  -0.02727  -0.02528
 Alpha virt. eigenvalues --   -0.01739  -0.01612  -0.01522  -0.00851  -0.00717
 Alpha virt. eigenvalues --    0.00053   0.00321   0.00751   0.00764   0.00811

  Beta  occ. eigenvalues --  -38.44191 -38.44187 -38.43937 -38.43830 -38.43821
  Beta  occ. eigenvalues --  -38.42799 -38.42774  -2.20023  -2.19980  -2.19709
  Beta  occ. eigenvalues --   -2.19680  -2.19655  -2.18782  -2.18718  -1.13711
  Beta  occ. eigenvalues --   -1.13676  -1.13647  -1.13644  -1.13638  -1.13624
  Beta  occ. eigenvalues --   -1.13385  -1.13375  -1.13366  -1.13358  -1.13339
  Beta  occ. eigenvalues --   -1.13330  -1.13312  -1.13296  -1.13276  -1.12690
  Beta  occ. eigenvalues --   -1.12429  -1.12405  -1.12374  -1.12355  -1.12336
  Beta  occ. eigenvalues --   -0.17902  -0.12783  -0.12306
  Beta virt. eigenvalues --   -0.05995  -0.05687  -0.05423  -0.05216  -0.02014
  Beta virt. eigenvalues --   -0.01875  -0.01646  -0.01483  -0.00885  -0.00769
  Beta virt. eigenvalues --   -0.00647   0.00202   0.00387   0.00775   0.00791

 Mulliken charges and spin densities:
               1          2
     1  Na  -0.096531  -0.001670
     2  Na  -0.137688   0.588901
     3  Na  -0.591395   0.539155
     4  Na   0.036134  -0.035940
     5  Na   0.144501  -0.056122
     6  Na   0.285696   0.005951
     7  Na   0.359282  -0.040275
 Sum of Mulliken charges =  -0.00000   1.00000

 Dipole moment (field-independent basis, Debye):
    X=              0.0429    Y=              0.0237    Z=              0.1286  Tot=              0.1376
 Quadrupole moment (field-independent basis, Debye-Ang):
   XX=            -53.0881   YY=            -56.2091   ZZ=            -79.5754
   XY=             -0.5356   XZ=              0.4607   YZ=             -0.3997

 Normal termination of Gaussian 16 at Wed Dec  6 00:12:13 2023.
