 Gaussian 16, Revision B.01,
 Gaussian 16:  ES64L-G16RevB.01 20-Dec-2017

 -------------------------
 #P B3LYP/6-311+g(d) force
 -------------------------

 -----
 DPGEN
 -----
 Symbolic Z-matrix:
 Charge =  0 Multiplicity = 2

                         Standard orientation:
 ---------------------------------------------------------------------
 Center     Atomic      Atomic             Coordinates (Angstroms)
 Number     Number       Type             X           Y           Z
 ---------------------------------------------------------------------
      1         11           0       -0.696578    2.942822   -0.964789
      2         11           0       -5.330639   -0.212998    1.790290
      3         11           0       -3.116886    0.405624   -0.876712
      4         11           0       -0.733947   -2.794957   -1.575464
      5         11           0        0.433869   -0.118082    0.218838
      6         11           0        3.426887   -0.585603    1.383528
      7         11           0        6.017294    0.363195    0.024309
 ---------------------------------------------------------------------

 SCF Done:  E(UB3LYP) =  -1136.10228254     A.U. after   24 cycles

 The electronic state is 2-A.
 Alpha  occ. eigenvalues --  -38.45486 -38.44642 -38.44443 -38.44190 -38.43954
 Alpha  occ. eigenvalues --  -38.43874 -38.43858  -2.21306  -2.20435  -2.20210
 Alpha  occ. eigenvalues --   -2.19966  -2.19803  -2.19701  -2.19672  -1.14945
 Alpha  occ. eigenvalues --   -1.14933  -1.14917  -1.14082  -1.14073  -1.14056
 Alpha  occ. eigenvalues --   -1.13910  -1.13875  -1.13873  -1.13613  -1.13611
 Alpha  occ. eigenvalues --   -1.13586  -1.13507  -1.13495  -1.13466  -1.13371
 Alpha  occ. eigenvalues --   -1.13361  -1.13354  -1.13349  -1.13313  -1.13300
 Alpha  occ. eigenvalues --   -0.16619  -0.13504  -0.12109  -0.11558
 Alpha virt. eigenvalues --   -0.07166  -0.05299  -0.04373  -0.03498  -0.03187
 Alpha virt. eigenvalues --   -0.02349  -0.02214  -0.01541  -0.01205  -0.00885
 Alpha virt. eigenvalues --   -0.00706  -0.00573   0.00206   0.00302   0.00455

  Beta  occ. eigenvalues --  -38.45378 -38.44564 -38.44481 -38.44113 -38.43973
  Beta  occ. eigenvalues --  -38.43885 -38.43852  -2.21105  -2.20289  -2.20282
  Beta  occ. eigenvalues --   -2.19843  -2.19822  -2.19699  -2.19686  -1.14807
  Beta  occ. eigenvalues --   -1.14796  -1.14786  -1.13982  -1.13973  -1.13962
  Beta  occ. eigenvalues --   -1.13955  -1.13925  -1.13922  -1.13535  -1.13522
  Beta  occ. eigenvalues --   -1.13516  -1.13512  -1.13492  -1.13456  -1.13394
  Beta  occ. eigenvalues --   -1.13357  -1.13348  -1.13337  -1.13324  -1.13299
  Beta  occ. eigenvalues --   -0.16002  -0.13529  -0.10795
  Beta virt. eigenvalues --   -0.08325  -0.07158  -0.04576  -0.04226  -0.03233
  Beta virt. eigenvalues --   -0.02913  -0.02161  -0.01720  -0.01484  -0.00978
  Beta virt. eigenvalues --   -0.00725  -0.00410  -0.00280   0.00291   0.00523

 Mulliken charges and spin densities:
               1          2
     1  Na   0.741645   0.426140
     2  Na   0.245231   0.417829
     3  Na   0.558747  -0.068982
     4  Na   0.482771   0.442447
     5  Na  -1.304406   0.002958
     6  Na  -0.845217  -0.016519
     7  Na   0.121229  -0.203873
 Sum of Mulliken charges =  -0.00000   1.00000

 Dipole moment (field-independent basis, Debye):
    X=              0.7944    Y=              0.3774    Z=             -0.8141  Tot=              1.1985
 Quadrupole moment (field-independent basis, Debye-Ang):
   XX=            -70.9740   YY=            -64.3708   ZZ=            -65.7334
   XY=              5.4491   XZ=             -4.3243   YZ=             -1.6576

 Normal termination of Gaussian 16 at Tue Nov 28 22:17:02 2023.
