 Gaussian 16, Revision B.01,
 Gaussian 16:  ES64L-G16RevB.01 20-Dec-2017

 -------------------------
 #P B3LYP/6-311+g(d) force
 -------------------------

 -----
 DPGEN
 -----
 Symbolic Z-matrix:
 Charge =  0 Multiplicity = 2

                         Standard orientation:
 ---------------------------------------------------------------------
 Center     Atomic      Atomic             Coordinates (Angstroms)
 Number     Number       Type             X           Y           Z
 ---------------------------------------------------------------------
      1         11           0        2.222679   -2.324307    0.000091
      2         11           0        0.043251    0.420917   -1.552467
      3         11           0        0.045640    3.005669    0.086651
      4         11           0        2.837918    0.784321   -0.141912
      5         11           0       -2.116380   -2.405981   -0.490748
      6         11           0       -2.790653    0.855928    0.025164
      7         11           0       -0.242453   -0.336548    2.073221
 ---------------------------------------------------------------------

 SCF Done:  E(UB3LYP) =  -1136.13520746     A.U. after   19 cycles

 The electronic state is 2-A.
 Alpha  occ. eigenvalues --  -38.43864 -38.43862 -38.43844 -38.43751 -38.43589
 Alpha  occ. eigenvalues --  -38.43274 -38.43201  -2.19727  -2.19679  -2.19669
 Alpha  occ. eigenvalues --   -2.19639  -2.19461  -2.19209  -2.19148  -1.13432
 Alpha  occ. eigenvalues --   -1.13414  -1.13400  -1.13374  -1.13349  -1.13338
 Alpha  occ. eigenvalues --   -1.13336  -1.13322  -1.13314  -1.13293  -1.13287
 Alpha  occ. eigenvalues --   -1.13229  -1.13127  -1.13083  -1.13079  -1.12970
 Alpha  occ. eigenvalues --   -1.12863  -1.12844  -1.12794  -1.12776  -1.12746
 Alpha  occ. eigenvalues --   -0.18635  -0.13238  -0.12372  -0.10643
 Alpha virt. eigenvalues --   -0.05550  -0.05263  -0.04851  -0.03231  -0.02899
 Alpha virt. eigenvalues --   -0.02405  -0.01397  -0.01241  -0.00546  -0.00301
 Alpha virt. eigenvalues --   -0.00006   0.00358   0.00821   0.00833   0.00870

  Beta  occ. eigenvalues --  -38.43864 -38.43851 -38.43836 -38.43745 -38.43493
  Beta  occ. eigenvalues --  -38.43270 -38.43146  -2.19717  -2.19682  -2.19651
  Beta  occ. eigenvalues --   -2.19632  -2.19284  -2.19146  -2.19107  -1.13425
  Beta  occ. eigenvalues --   -1.13416  -1.13375  -1.13357  -1.13339  -1.13325
  Beta  occ. eigenvalues --   -1.13320  -1.13311  -1.13298  -1.13285  -1.13266
  Beta  occ. eigenvalues --   -1.13230  -1.13011  -1.12960  -1.12951  -1.12932
  Beta  occ. eigenvalues --   -1.12800  -1.12788  -1.12769  -1.12760  -1.12699
  Beta  occ. eigenvalues --   -0.17920  -0.12996  -0.12162
  Beta virt. eigenvalues --   -0.06743  -0.05528  -0.05189  -0.04802  -0.02454
  Beta virt. eigenvalues --   -0.02145  -0.01417  -0.01291  -0.01155  -0.00589
  Beta virt. eigenvalues --   -0.00338   0.00147   0.00391   0.00845   0.00863

 Mulliken charges and spin densities:
               1          2
     1  Na  -0.001404  -0.073679
     2  Na  -0.236296   0.327175
     3  Na   0.242988   0.014188
     4  Na   0.226543  -0.014481
     5  Na  -0.054188  -0.020813
     6  Na   0.369157   0.077380
     7  Na  -0.546800   0.690230
 Sum of Mulliken charges =  -0.00000   1.00000

 Dipole moment (field-independent basis, Debye):
    X=             -0.0622    Y=             -0.2001    Z=              0.1465  Tot=              0.2556
 Quadrupole moment (field-independent basis, Debye-Ang):
   XX=            -58.9291   YY=            -59.9957   ZZ=            -74.8687
   XY=             -0.1615   XZ=              0.4784   YZ=              1.8151

 Normal termination of Gaussian 16 at Thu Dec  7 11:04:17 2023.
