 Gaussian 16, Revision B.01,
 Gaussian 16:  ES64L-G16RevB.01 20-Dec-2017

 -------------------------
 #P B3LYP/6-311+g(d) force
 -------------------------

 -----
 DPGEN
 -----
 Symbolic Z-matrix:
 Charge =  0 Multiplicity = 2

                         Standard orientation:
 ---------------------------------------------------------------------
 Center     Atomic      Atomic             Coordinates (Angstroms)
 Number     Number       Type             X           Y           Z
 ---------------------------------------------------------------------
      1         11           0       -0.319758   -0.109754   -1.665343
      2         11           0       -0.762272   -1.449949    1.067857
      3         11           0       -2.935359   -0.194627   -0.399243
      4         11           0       -1.021240    1.612953    0.839357
      5         11           0        1.652160    1.622826   -0.736343
      6         11           0        1.545443    0.061627    1.562957
      7         11           0        1.841027   -1.543076   -0.669243
 ---------------------------------------------------------------------

 SCF Done:  E(UB3LYP) =  -1136.08321932     A.U. after   22 cycles

 The electronic state is 2-A.
 Alpha  occ. eigenvalues --  -38.44539 -38.44410 -38.44408 -38.43586 -38.43355
 Alpha  occ. eigenvalues --  -38.43239 -38.43025  -2.20748  -2.20676  -2.20425
 Alpha  occ. eigenvalues --   -2.19694  -2.19465  -2.19412  -2.19152  -1.14560
 Alpha  occ. eigenvalues --   -1.14505  -1.14488  -1.14391  -1.14370  -1.14311
 Alpha  occ. eigenvalues --   -1.14133  -1.14046  -1.14035  -1.13377  -1.13340
 Alpha  occ. eigenvalues --   -1.13269  -1.13155  -1.13142  -1.13120  -1.13050
 Alpha  occ. eigenvalues --   -1.13028  -1.12984  -1.12831  -1.12793  -1.12726
 Alpha  occ. eigenvalues --   -0.21501  -0.14234  -0.12882  -0.11958
 Alpha virt. eigenvalues --   -0.05608  -0.04311  -0.03947  -0.03773  -0.02998
 Alpha virt. eigenvalues --   -0.02821  -0.01207  -0.00378  -0.00296   0.00305
 Alpha virt. eigenvalues --    0.00706   0.00946   0.01003   0.01051   0.01083

  Beta  occ. eigenvalues --  -38.44471 -38.44404 -38.44321 -38.43564 -38.43334
  Beta  occ. eigenvalues --  -38.43199 -38.42995  -2.20629  -2.20522  -2.20414
  Beta  occ. eigenvalues --   -2.19659  -2.19433  -2.19346  -2.19104  -1.14483
  Beta  occ. eigenvalues --   -1.14408  -1.14378  -1.14311  -1.14284  -1.14202
  Beta  occ. eigenvalues --   -1.14111  -1.14042  -1.13987  -1.13351  -1.13285
  Beta  occ. eigenvalues --   -1.13235  -1.13135  -1.13092  -1.13069  -1.12999
  Beta  occ. eigenvalues --   -1.12981  -1.12931  -1.12800  -1.12732  -1.12685
  Beta  occ. eigenvalues --   -0.20648  -0.13977  -0.11700
  Beta virt. eigenvalues --   -0.08448  -0.05542  -0.03970  -0.03512  -0.03263
  Beta virt. eigenvalues --   -0.02216  -0.01972  -0.01156  -0.00321  -0.00083
  Beta virt. eigenvalues --    0.00339   0.00790   0.00976   0.01047   0.01100

 Mulliken charges and spin densities:
               1          2
     1  Na  -0.082071   0.412716
     2  Na  -0.695759   0.209071
     3  Na   1.014189  -0.001168
     4  Na  -0.811276   0.123663
     5  Na   0.030919  -0.029219
     6  Na   0.674164   0.323198
     7  Na  -0.130165  -0.038261
 Sum of Mulliken charges =  -0.00000   1.00000

 Dipole moment (field-independent basis, Debye):
    X=             -0.3570    Y=              0.0292    Z=             -0.0762  Tot=              0.3662
 Quadrupole moment (field-independent basis, Debye-Ang):
   XX=            -57.3924   YY=            -74.9092   ZZ=            -64.8912
   XY=              0.0174   XZ=              0.1022   YZ=              0.8522

 Normal termination of Gaussian 16 at Sat Dec  9 06:05:52 2023.
