 Gaussian 16, Revision B.01,
 Gaussian 16:  ES64L-G16RevB.01 20-Dec-2017

 -------------------------
 #P B3LYP/6-311+g(d) force
 -------------------------

 -----
 DPGEN
 -----
 Symbolic Z-matrix:
 Charge =  0 Multiplicity = 2

                         Standard orientation:
 ---------------------------------------------------------------------
 Center     Atomic      Atomic             Coordinates (Angstroms)
 Number     Number       Type             X           Y           Z
 ---------------------------------------------------------------------
      1         11           0        1.946336    0.947274   -1.064731
      2         11           0       -3.368111   -1.399670    0.749026
      3         11           0        0.254607   -2.045324   -1.126915
      4         11           0        0.243665    0.073121    1.603146
      5         11           0       -0.046547    3.598527    0.293547
      6         11           0       -2.243279    0.387659   -1.093018
      7         11           0        3.213329   -1.561587    0.638943
 ---------------------------------------------------------------------

 SCF Done:  E(UB3LYP) =  -1136.12739079     A.U. after   20 cycles

 The electronic state is 2-A.
 Alpha  occ. eigenvalues --  -38.44360 -38.44064 -38.43960 -38.43757 -38.43733
 Alpha  occ. eigenvalues --  -38.43683 -38.43111  -2.20214  -2.19915  -2.19871
 Alpha  occ. eigenvalues --   -2.19644  -2.19640  -2.19590  -2.18890  -1.14064
 Alpha  occ. eigenvalues --   -1.13837  -1.13829  -1.13598  -1.13569  -1.13554
 Alpha  occ. eigenvalues --   -1.13537  -1.13506  -1.13451  -1.13396  -1.13337
 Alpha  occ. eigenvalues --   -1.13321  -1.13290  -1.13266  -1.13246  -1.13237
 Alpha  occ. eigenvalues --   -1.13228  -1.13175  -1.12561  -1.12557  -1.12524
 Alpha  occ. eigenvalues --   -0.18407  -0.13656  -0.11933  -0.10412
 Alpha virt. eigenvalues --   -0.06219  -0.05048  -0.04784  -0.03560  -0.02530
 Alpha virt. eigenvalues --   -0.02158  -0.02003  -0.01251  -0.00732  -0.00186
 Alpha virt. eigenvalues --    0.00249   0.00285   0.00520   0.00695   0.00796

  Beta  occ. eigenvalues --  -38.44349 -38.44051 -38.43943 -38.43711 -38.43675
  Beta  occ. eigenvalues --  -38.43658 -38.43114  -2.20195  -2.19892  -2.19843
  Beta  occ. eigenvalues --   -2.19563  -2.19548  -2.19534  -2.18896  -1.14051
  Beta  occ. eigenvalues --   -1.13817  -1.13813  -1.13584  -1.13545  -1.13528
  Beta  occ. eigenvalues --   -1.13514  -1.13463  -1.13437  -1.13342  -1.13282
  Beta  occ. eigenvalues --   -1.13250  -1.13216  -1.13206  -1.13184  -1.13175
  Beta  occ. eigenvalues --   -1.13165  -1.13144  -1.12564  -1.12557  -1.12529
  Beta  occ. eigenvalues --   -0.17673  -0.13451  -0.11807
  Beta virt. eigenvalues --   -0.06589  -0.06044  -0.04960  -0.04576  -0.02985
  Beta virt. eigenvalues --   -0.02074  -0.01880  -0.01375  -0.01110  -0.00460
  Beta virt. eigenvalues --   -0.00064   0.00276   0.00366   0.00674   0.00781

 Mulliken charges and spin densities:
               1          2
     1  Na  -0.012626   0.219403
     2  Na   0.020100  -0.126790
     3  Na  -0.292314   0.150855
     4  Na  -0.530207   0.644698
     5  Na   0.118722  -0.134532
     6  Na   0.151405   0.233434
     7  Na   0.544921   0.012931
 Sum of Mulliken charges =  -0.00000   1.00000

 Dipole moment (field-independent basis, Debye):
    X=              0.1049    Y=             -0.6115    Z=              0.0609  Tot=              0.6235
 Quadrupole moment (field-independent basis, Debye-Ang):
   XX=            -55.0530   YY=            -64.6428   ZZ=            -73.0798
   XY=             -1.2405   XZ=             -0.9534   YZ=             -1.7301

 Normal termination of Gaussian 16 at Tue Dec  5 17:52:56 2023.
