 Gaussian 16, Revision B.01,
 Gaussian 16:  ES64L-G16RevB.01 20-Dec-2017

 -------------------------
 #P B3LYP/6-311+g(d) force
 -------------------------

 -----
 DPGEN
 -----
 Symbolic Z-matrix:
 Charge =  0 Multiplicity = 2

                         Standard orientation:
 ---------------------------------------------------------------------
 Center     Atomic      Atomic             Coordinates (Angstroms)
 Number     Number       Type             X           Y           Z
 ---------------------------------------------------------------------
      1         11           0       -0.497613   -2.217765    0.824978
      2         11           0        3.488893   -1.629476    1.054891
      3         11           0       -2.686397    0.559691   -0.768398
      4         11           0        4.115339    0.314826   -1.038749
      5         11           0       -3.177259   -2.903803   -0.623151
      6         11           0        0.475765    2.580748   -0.953831
      7         11           0       -1.718727    3.295780    1.504259
 ---------------------------------------------------------------------

 SCF Done:  E(UB3LYP) =  -1136.11409484     A.U. after   21 cycles

 The electronic state is 2-A.
 Alpha  occ. eigenvalues --  -38.45141 -38.44931 -38.44366 -38.44358 -38.44062
 Alpha  occ. eigenvalues --  -38.43747 -38.43690  -2.20942  -2.20708  -2.20179
 Alpha  occ. eigenvalues --   -2.20165  -2.19897  -2.19570  -2.19510  -1.14655
 Alpha  occ. eigenvalues --   -1.14635  -1.14522  -1.14407  -1.14388  -1.14308
 Alpha  occ. eigenvalues --   -1.13872  -1.13855  -1.13834  -1.13818  -1.13813
 Alpha  occ. eigenvalues --   -1.13773  -1.13556  -1.13547  -1.13520  -1.13402
 Alpha  occ. eigenvalues --   -1.13228  -1.13207  -1.13154  -1.13134  -1.13073
 Alpha  occ. eigenvalues --   -0.16425  -0.13492  -0.13386  -0.09797
 Alpha virt. eigenvalues --   -0.06748  -0.06182  -0.04661  -0.03485  -0.03042
 Alpha virt. eigenvalues --   -0.02505  -0.02016  -0.01362  -0.01255  -0.00899
 Alpha virt. eigenvalues --   -0.00464  -0.00029   0.00240   0.00375   0.00530

  Beta  occ. eigenvalues --  -38.45127 -38.44912 -38.44330 -38.44317 -38.44054
  Beta  occ. eigenvalues --  -38.43738 -38.43671  -2.20916  -2.20673  -2.20113
  Beta  occ. eigenvalues --   -2.20088  -2.19883  -2.19553  -2.19474  -1.14637
  Beta  occ. eigenvalues --   -1.14614  -1.14497  -1.14381  -1.14366  -1.14268
  Beta  occ. eigenvalues --   -1.13830  -1.13811  -1.13780  -1.13764  -1.13757
  Beta  occ. eigenvalues --   -1.13725  -1.13542  -1.13531  -1.13507  -1.13388
  Beta  occ. eigenvalues --   -1.13217  -1.13187  -1.13129  -1.13105  -1.13051
  Beta  occ. eigenvalues --   -0.16074  -0.13278  -0.13077
  Beta virt. eigenvalues --   -0.06598  -0.06317  -0.05716  -0.04203  -0.03282
  Beta virt. eigenvalues --   -0.02810  -0.02091  -0.01895  -0.01336  -0.01036
  Beta virt. eigenvalues --   -0.00520  -0.00149   0.00201   0.00358   0.00540

 Mulliken charges and spin densities:
               1          2
     1  Na  -0.983699   0.197025
     2  Na  -0.271892   0.031289
     3  Na  -0.160673   0.121672
     4  Na   0.168929   0.165642
     5  Na   1.132512   0.105994
     6  Na  -0.322953   0.181262
     7  Na   0.437777   0.197116
 Sum of Mulliken charges =  -0.00000   1.00000

 Dipole moment (field-independent basis, Debye):
    X=             -1.8639    Y=              0.4711    Z=              0.0207  Tot=              1.9227
 Quadrupole moment (field-independent basis, Debye-Ang):
   XX=            -63.4551   YY=            -65.2195   ZZ=            -70.4542
   XY=              1.6972   XZ=              0.6139   YZ=              2.3696

 Normal termination of Gaussian 16 at Sun Dec  3 20:00:57 2023.
