 Gaussian 16, Revision B.01,
 Gaussian 16:  ES64L-G16RevB.01 20-Dec-2017

 -------------------------
 #P B3LYP/6-311+g(d) force
 -------------------------

 -----
 DPGEN
 -----
 Symbolic Z-matrix:
 Charge =  0 Multiplicity = 2

                         Standard orientation:
 ---------------------------------------------------------------------
 Center     Atomic      Atomic             Coordinates (Angstroms)
 Number     Number       Type             X           Y           Z
 ---------------------------------------------------------------------
      1         11           0       -1.380883    2.738884   -0.831549
      2         11           0        3.526249   -0.425310   -0.577866
      3         11           0        0.121481    0.108384   -1.589945
      4         11           0       -2.138250   -2.071191   -0.879736
      5         11           0        0.413399   -2.050195    0.965896
      6         11           0       -2.239818    0.304203    1.560304
      7         11           0        1.697822    1.395225    1.352896
 ---------------------------------------------------------------------

 SCF Done:  E(UB3LYP) =  -1136.13299325     A.U. after   20 cycles

 The electronic state is 2-A.
 Alpha  occ. eigenvalues --  -38.44218 -38.44040 -38.44009 -38.43480 -38.43402
 Alpha  occ. eigenvalues --  -38.43189 -38.42958  -2.20039  -2.19895  -2.19859
 Alpha  occ. eigenvalues --   -2.19376  -2.19305  -2.19185  -2.18797  -1.13726
 Alpha  occ. eigenvalues --   -1.13703  -1.13677  -1.13572  -1.13553  -1.13540
 Alpha  occ. eigenvalues --   -1.13516  -1.13509  -1.13461  -1.13115  -1.13048
 Alpha  occ. eigenvalues --   -1.13016  -1.12998  -1.12963  -1.12881  -1.12857
 Alpha  occ. eigenvalues --   -1.12843  -1.12805  -1.12478  -1.12438  -1.12423
 Alpha  occ. eigenvalues --   -0.18589  -0.13244  -0.11955  -0.11155
 Alpha virt. eigenvalues --   -0.05752  -0.04971  -0.04372  -0.03414  -0.03045
 Alpha virt. eigenvalues --   -0.02657  -0.01671  -0.00922  -0.00559   0.00186
 Alpha virt. eigenvalues --    0.00265   0.00348   0.00562   0.00769   0.00841

  Beta  occ. eigenvalues --  -38.44217 -38.43994 -38.43981 -38.43466 -38.43383
  Beta  occ. eigenvalues --  -38.43118 -38.42947  -2.20037  -2.19813  -2.19808
  Beta  occ. eigenvalues --   -2.19352  -2.19274  -2.19058  -2.18780  -1.13722
  Beta  occ. eigenvalues --   -1.13692  -1.13677  -1.13511  -1.13502  -1.13494
  Beta  occ. eigenvalues --   -1.13468  -1.13453  -1.13430  -1.13095  -1.13016
  Beta  occ. eigenvalues --   -1.12992  -1.12979  -1.12911  -1.12863  -1.12771
  Beta  occ. eigenvalues --   -1.12754  -1.12714  -1.12449  -1.12429  -1.12407
  Beta  occ. eigenvalues --   -0.17838  -0.13067  -0.11742
  Beta virt. eigenvalues --   -0.07255  -0.05592  -0.04767  -0.04198  -0.02984
  Beta virt. eigenvalues --   -0.02402  -0.01753  -0.01529  -0.00822  -0.00238
  Beta virt. eigenvalues --    0.00182   0.00347   0.00380   0.00701   0.00818

 Mulliken charges and spin densities:
               1          2
     1  Na   0.013871  -0.103452
     2  Na   0.459265  -0.072237
     3  Na  -0.234826   0.442206
     4  Na   0.410941  -0.078177
     5  Na  -0.246939   0.266054
     6  Na  -0.108788   0.325389
     7  Na  -0.293523   0.220217
 Sum of Mulliken charges =  -0.00000   1.00000

 Dipole moment (field-independent basis, Debye):
    X=              0.4495    Y=             -0.1997    Z=              0.2580  Tot=              0.5554
 Quadrupole moment (field-independent basis, Debye-Ang):
   XX=            -55.6581   YY=            -69.0521   ZZ=            -68.7488
   XY=              0.1159   XZ=             -0.9028   YZ=              1.4799

 Normal termination of Gaussian 16 at Wed Dec  6 01:22:30 2023.
