 Gaussian 16, Revision B.01,
 Gaussian 16:  ES64L-G16RevB.01 20-Dec-2017

 -------------------------
 #P B3LYP/6-311+g(d) force
 -------------------------

 -----
 DPGEN
 -----
 Symbolic Z-matrix:
 Charge =  0 Multiplicity = 2

                         Standard orientation:
 ---------------------------------------------------------------------
 Center     Atomic      Atomic             Coordinates (Angstroms)
 Number     Number       Type             X           Y           Z
 ---------------------------------------------------------------------
      1         11           0       -0.698642    3.155058   -0.159017
      2         11           0        1.198256    0.778113    1.845275
      3         11           0        3.187852    0.116038   -0.858867
      4         11           0        0.167363    0.011918   -1.593224
      5         11           0       -2.119930   -2.334924   -0.405211
      6         11           0        0.893181   -2.438474    0.823841
      7         11           0       -2.628080    0.712270    0.347204
 ---------------------------------------------------------------------

 SCF Done:  E(UB3LYP) =  -1136.13422009     A.U. after   19 cycles

 The electronic state is 2-A.
 Alpha  occ. eigenvalues --  -38.44017 -38.43811 -38.43768 -38.43687 -38.43613
 Alpha  occ. eigenvalues --  -38.43280 -38.43261  -2.19873  -2.19680  -2.19654
 Alpha  occ. eigenvalues --   -2.19528  -2.19496  -2.19260  -2.19136  -1.13582
 Alpha  occ. eigenvalues --   -1.13519  -1.13494  -1.13373  -1.13363  -1.13347
 Alpha  occ. eigenvalues --   -1.13338  -1.13311  -1.13305  -1.13188  -1.13179
 Alpha  occ. eigenvalues --   -1.13169  -1.13158  -1.13134  -1.13099  -1.12934
 Alpha  occ. eigenvalues --   -1.12905  -1.12887  -1.12798  -1.12783  -1.12782
 Alpha  occ. eigenvalues --   -0.18588  -0.13136  -0.12669  -0.10864
 Alpha virt. eigenvalues --   -0.05632  -0.05081  -0.04756  -0.03410  -0.02971
 Alpha virt. eigenvalues --   -0.02504  -0.01453  -0.01196  -0.00348  -0.00168
 Alpha virt. eigenvalues --    0.00097   0.00350   0.00764   0.00830   0.00856

  Beta  occ. eigenvalues --  -38.43989 -38.43785 -38.43766 -38.43687 -38.43547
  Beta  occ. eigenvalues --  -38.43261 -38.43214  -2.19824  -2.19652  -2.19635
  Beta  occ. eigenvalues --   -2.19529  -2.19374  -2.19141  -2.19136  -1.13535
  Beta  occ. eigenvalues --   -1.13483  -1.13454  -1.13366  -1.13342  -1.13335
  Beta  occ. eigenvalues --   -1.13294  -1.13293  -1.13278  -1.13179  -1.13170
  Beta  occ. eigenvalues --   -1.13160  -1.13088  -1.13048  -1.13014  -1.12852
  Beta  occ. eigenvalues --   -1.12825  -1.12806  -1.12799  -1.12777  -1.12761
  Beta  occ. eigenvalues --   -0.17925  -0.12864  -0.12491
  Beta virt. eigenvalues --   -0.06940  -0.05583  -0.04931  -0.04683  -0.02716
  Beta virt. eigenvalues --   -0.02363  -0.01549  -0.01292  -0.01134  -0.00206
  Beta virt. eigenvalues --   -0.00145   0.00191   0.00410   0.00821   0.00870

 Mulliken charges and spin densities:
               1          2
     1  Na   0.182468   0.038842
     2  Na   0.016386   0.403728
     3  Na   0.074540   0.029649
     4  Na  -0.141365   0.326750
     5  Na   0.457125  -0.029477
     6  Na  -0.322794   0.174238
     7  Na  -0.266362   0.056269
 Sum of Mulliken charges =  -0.00000   1.00000

 Dipole moment (field-independent basis, Debye):
    X=              0.2946    Y=              0.2042    Z=              0.1334  Tot=              0.3824
 Quadrupole moment (field-independent basis, Debye-Ang):
   XX=            -59.8838   YY=            -61.7577   ZZ=            -72.9886
   XY=              0.5967   XZ=             -0.8821   YZ=             -0.5310

 Normal termination of Gaussian 16 at Sun Dec  3 18:25:54 2023.
