 Gaussian 16, Revision B.01,
 Gaussian 16:  ES64L-G16RevB.01 20-Dec-2017

 -------------------------
 #P B3LYP/6-311+g(d) force
 -------------------------

 -----
 DPGEN
 -----
 Symbolic Z-matrix:
 Charge =  0 Multiplicity = 2

                         Standard orientation:
 ---------------------------------------------------------------------
 Center     Atomic      Atomic             Coordinates (Angstroms)
 Number     Number       Type             X           Y           Z
 ---------------------------------------------------------------------
      1         11           0       -0.966409    2.958565    0.016387
      2         11           0        0.061779    0.307587   -1.657871
      3         11           0       -3.428540   -0.393318    0.266913
      4         11           0        2.567619   -1.778363    0.270115
      5         11           0       -0.873129   -2.194423   -0.786820
      6         11           0        2.810391    1.452229   -0.007516
      7         11           0       -0.171710   -0.352277    1.898791
 ---------------------------------------------------------------------

 SCF Done:  E(UB3LYP) =  -1136.12895637     A.U. after   20 cycles

 The electronic state is 2-A.
 Alpha  occ. eigenvalues --  -38.44778 -38.44296 -38.43797 -38.43595 -38.43362
 Alpha  occ. eigenvalues --  -38.43311 -38.43122  -2.20577  -2.20120  -2.19697
 Alpha  occ. eigenvalues --   -2.19453  -2.19325  -2.19157  -2.19092  -1.14248
 Alpha  occ. eigenvalues --   -1.14239  -1.14211  -1.13808  -1.13785  -1.13751
 Alpha  occ. eigenvalues --   -1.13395  -1.13330  -1.13310  -1.13205  -1.13117
 Alpha  occ. eigenvalues --   -1.13113  -1.13096  -1.12975  -1.12924  -1.12834
 Alpha  occ. eigenvalues --   -1.12816  -1.12784  -1.12721  -1.12701  -1.12671
 Alpha  occ. eigenvalues --   -0.18714  -0.13271  -0.12012  -0.10852
 Alpha virt. eigenvalues --   -0.06283  -0.05078  -0.04134  -0.03361  -0.02720
 Alpha virt. eigenvalues --   -0.02570  -0.02031  -0.01070  -0.00410  -0.00149
 Alpha virt. eigenvalues --    0.00047   0.00320   0.00743   0.00762   0.00840

  Beta  occ. eigenvalues --  -38.44773 -38.44294 -38.43722 -38.43590 -38.43363
  Beta  occ. eigenvalues --  -38.43233 -38.43088  -2.20570  -2.20118  -2.19559
  Beta  occ. eigenvalues --   -2.19445  -2.19185  -2.19161  -2.19035  -1.14240
  Beta  occ. eigenvalues --   -1.14222  -1.14209  -1.13805  -1.13771  -1.13752
  Beta  occ. eigenvalues --   -1.13304  -1.13234  -1.13208  -1.13116  -1.13111
  Beta  occ. eigenvalues --   -1.13096  -1.13076  -1.12893  -1.12841  -1.12817
  Beta  occ. eigenvalues --   -1.12792  -1.12784  -1.12678  -1.12638  -1.12613
  Beta  occ. eigenvalues --   -0.17980  -0.13040  -0.11785
  Beta virt. eigenvalues --   -0.06907  -0.06206  -0.05066  -0.04094  -0.02629
  Beta virt. eigenvalues --   -0.02031  -0.01895  -0.01488  -0.01022  -0.00442
  Beta virt. eigenvalues --   -0.00072   0.00119   0.00347   0.00801   0.00812

 Mulliken charges and spin densities:
               1          2
     1  Na  -0.206176  -0.113827
     2  Na   0.094414   0.306720
     3  Na  -0.037823  -0.015638
     4  Na   0.176557   0.038059
     5  Na   0.439859   0.118764
     6  Na  -0.046951  -0.082490
     7  Na  -0.419879   0.748412
 Sum of Mulliken charges =  -0.00000   1.00000

 Dipole moment (field-independent basis, Debye):
    X=             -0.2148    Y=              0.1376    Z=              0.4077  Tot=              0.4809
 Quadrupole moment (field-independent basis, Debye-Ang):
   XX=            -51.4527   YY=            -66.8143   ZZ=            -74.2703
   XY=             -0.1681   XZ=             -0.2113   YZ=              1.0884

 Normal termination of Gaussian 16 at Tue Dec  5 15:23:58 2023.
