 Gaussian 16, Revision B.01,
 Gaussian 16:  ES64L-G16RevB.01 20-Dec-2017

 -------------------------
 #P B3LYP/6-311+g(d) force
 -------------------------

 -----
 DPGEN
 -----
 Symbolic Z-matrix:
 Charge =  0 Multiplicity = 2

                         Standard orientation:
 ---------------------------------------------------------------------
 Center     Atomic      Atomic             Coordinates (Angstroms)
 Number     Number       Type             X           Y           Z
 ---------------------------------------------------------------------
      1         11           0       -4.534641   -0.556636    1.184422
      2         11           0        1.233429   -1.854405   -0.912876
      3         11           0        2.608762    1.328715    1.248368
      4         11           0       -2.617928   -1.702912   -1.028342
      5         11           0        4.074065   -2.056869    0.438478
      6         11           0        0.748221    3.335813   -1.170050
      7         11           0       -1.511909    1.506293    0.239999
 ---------------------------------------------------------------------

 SCF Done:  E(UB3LYP) =  -1136.12323587     A.U. after   21 cycles

 The electronic state is 2-A.
 Alpha  occ. eigenvalues --  -38.45141 -38.44469 -38.44031 -38.43914 -38.43757
 Alpha  occ. eigenvalues --  -38.43691 -38.43527  -2.20907  -2.20284  -2.19868
 Alpha  occ. eigenvalues --   -2.19720  -2.19566  -2.19532  -2.19355  -1.14611
 Alpha  occ. eigenvalues --   -1.14577  -1.14494  -1.14003  -1.13978  -1.13882
 Alpha  occ. eigenvalues --   -1.13554  -1.13533  -1.13524  -1.13395  -1.13377
 Alpha  occ. eigenvalues --   -1.13346  -1.13268  -1.13227  -1.13199  -1.13182
 Alpha  occ. eigenvalues --   -1.13172  -1.13141  -1.13033  -1.13018  -1.12955
 Alpha  occ. eigenvalues --   -0.16612  -0.14011  -0.12521  -0.10347
 Alpha virt. eigenvalues --   -0.06323  -0.05646  -0.04646  -0.03619  -0.02724
 Alpha virt. eigenvalues --   -0.02297  -0.02159  -0.01626  -0.00994  -0.00447
 Alpha virt. eigenvalues --   -0.00220  -0.00090   0.00238   0.00455   0.00596

  Beta  occ. eigenvalues --  -38.45109 -38.44463 -38.44010 -38.43912 -38.43753
  Beta  occ. eigenvalues --  -38.43629 -38.43481  -2.20849  -2.20276  -2.19836
  Beta  occ. eigenvalues --   -2.19716  -2.19558  -2.19416  -2.19272  -1.14572
  Beta  occ. eigenvalues --   -1.14538  -1.14447  -1.13995  -1.13959  -1.13879
  Beta  occ. eigenvalues --   -1.13532  -1.13518  -1.13456  -1.13388  -1.13373
  Beta  occ. eigenvalues --   -1.13345  -1.13262  -1.13222  -1.13185  -1.13104
  Beta  occ. eigenvalues --   -1.13092  -1.13068  -1.12980  -1.12965  -1.12879
  Beta  occ. eigenvalues --   -0.16080  -0.13617  -0.12337
  Beta virt. eigenvalues --   -0.06822  -0.05959  -0.05549  -0.04051  -0.03419
  Beta virt. eigenvalues --   -0.02424  -0.02149  -0.01845  -0.01247  -0.00875
  Beta virt. eigenvalues --   -0.00141   0.00000   0.00081   0.00371   0.00595

 Mulliken charges and spin densities:
               1          2
     1  Na   0.110402   0.260823
     2  Na  -0.903120   0.165078
     3  Na   0.087389   0.179074
     4  Na   0.137196  -0.010702
     5  Na   0.882051   0.238450
     6  Na   1.357995   0.067682
     7  Na  -1.671913   0.099595
 Sum of Mulliken charges =  -0.00000   1.00000

 Dipole moment (field-independent basis, Debye):
    X=              0.4720    Y=              0.6592    Z=              0.0529  Tot=              0.8124
 Quadrupole moment (field-independent basis, Debye-Ang):
   XX=            -63.0895   YY=            -66.6952   ZZ=            -67.4007
   XY=              1.5313   XZ=              0.5841   YZ=             -1.3684

 Normal termination of Gaussian 16 at Mon Dec  4 02:00:32 2023.
