 Gaussian 16, Revision B.01,
 Gaussian 16:  ES64L-G16RevB.01 20-Dec-2017

 -------------------------
 #P B3LYP/6-311+g(d) force
 -------------------------

 -----
 DPGEN
 -----
 Symbolic Z-matrix:
 Charge =  0 Multiplicity = 2

                         Standard orientation:
 ---------------------------------------------------------------------
 Center     Atomic      Atomic             Coordinates (Angstroms)
 Number     Number       Type             X           Y           Z
 ---------------------------------------------------------------------
      1         11           0        3.356956   -1.523393    0.389496
      2         11           0       -0.277319   -1.851042   -0.366763
      3         11           0       -0.903975    1.582409   -1.082130
      4         11           0        2.591392    0.465751   -1.319330
      5         11           0       -1.774529   -0.728757    1.851302
      6         11           0       -3.848253   -0.376788   -0.821710
      7         11           0        0.855727    2.431819    1.349135
 ---------------------------------------------------------------------

 SCF Done:  E(UB3LYP) =  -1136.11613554     A.U. after   21 cycles

 The electronic state is 2-A.
 Alpha  occ. eigenvalues --  -38.44813 -38.44452 -38.44396 -38.44247 -38.44056
 Alpha  occ. eigenvalues --  -38.43101 -38.43055  -2.20632  -2.20332  -2.20262
 Alpha  occ. eigenvalues --   -2.20152  -2.19964  -2.18960  -2.18935  -1.14302
 Alpha  occ. eigenvalues --   -1.14286  -1.14251  -1.14248  -1.14144  -1.14016
 Alpha  occ. eigenvalues --   -1.13917  -1.13885  -1.13870  -1.13793  -1.13750
 Alpha  occ. eigenvalues --   -1.13653  -1.13635  -1.13570  -1.13550  -1.12708
 Alpha  occ. eigenvalues --   -1.12662  -1.12596  -1.12582  -1.12571  -1.12509
 Alpha  occ. eigenvalues --   -0.18243  -0.14110  -0.11592  -0.10815
 Alpha virt. eigenvalues --   -0.06896  -0.05029  -0.04421  -0.03284  -0.02866
 Alpha virt. eigenvalues --   -0.02762  -0.02264  -0.01018  -0.00689  -0.00143
 Alpha virt. eigenvalues --    0.00106   0.00198   0.00449   0.00724   0.00822

  Beta  occ. eigenvalues --  -38.44772 -38.44433 -38.44404 -38.44231 -38.43990
  Beta  occ. eigenvalues --  -38.43077 -38.43033  -2.20557  -2.20303  -2.20276
  Beta  occ. eigenvalues --   -2.20123  -2.19844  -2.18921  -2.18890  -1.14250
  Beta  occ. eigenvalues --   -1.14249  -1.14221  -1.14202  -1.14093  -1.13986
  Beta  occ. eigenvalues --   -1.13904  -1.13891  -1.13869  -1.13775  -1.13731
  Beta  occ. eigenvalues --   -1.13645  -1.13555  -1.13486  -1.13461  -1.12670
  Beta  occ. eigenvalues --   -1.12637  -1.12571  -1.12552  -1.12528  -1.12471
  Beta  occ. eigenvalues --   -0.17632  -0.13868  -0.11410
  Beta virt. eigenvalues --   -0.07081  -0.06626  -0.04694  -0.04064  -0.03156
  Beta virt. eigenvalues --   -0.02611  -0.02316  -0.01518  -0.00725  -0.00368
  Beta virt. eigenvalues --   -0.00064   0.00208   0.00251   0.00561   0.00838

 Mulliken charges and spin densities:
               1          2
     1  Na   0.258617   0.002995
     2  Na  -0.208658   0.469872
     3  Na  -0.518511   0.062686
     4  Na   0.039519  -0.088126
     5  Na  -0.164909   0.082603
     6  Na   0.594024   0.183136
     7  Na  -0.000081   0.286834
 Sum of Mulliken charges =  -0.00000   1.00000

 Dipole moment (field-independent basis, Debye):
    X=             -0.4103    Y=             -0.2600    Z=              0.4030  Tot=              0.6312
 Quadrupole moment (field-independent basis, Debye-Ang):
   XX=            -53.4091   YY=            -75.8501   ZZ=            -67.5165
   XY=              1.2997   XZ=              2.2020   YZ=              0.6207

 Normal termination of Gaussian 16 at Tue Dec  5 23:48:48 2023.
