 Gaussian 16, Revision B.01,
 Gaussian 16:  ES64L-G16RevB.01 20-Dec-2017

 -------------------------
 #P B3LYP/6-311+g(d) force
 -------------------------

 -----
 DPGEN
 -----
 Symbolic Z-matrix:
 Charge =  0 Multiplicity = 2

                         Standard orientation:
 ---------------------------------------------------------------------
 Center     Atomic      Atomic             Coordinates (Angstroms)
 Number     Number       Type             X           Y           Z
 ---------------------------------------------------------------------
      1         11           0       -4.494332   -2.845079   -1.585334
      2         11           0        3.776723   -1.063559   -0.471329
      3         11           0       -2.874074    1.361208    1.634306
      4         11           0       -4.004289   -1.660742    1.186786
      5         11           0        6.728891   -1.860842    0.518125
      6         11           0       -1.089611    3.565512   -1.026678
      7         11           0        1.956692    2.503502   -0.255877
 ---------------------------------------------------------------------

 SCF Done:  E(UB3LYP) =  -1136.10455230     A.U. after   19 cycles

 The electronic state is 2-A.
 Alpha  occ. eigenvalues --  -38.44801 -38.44798 -38.44719 -38.44440 -38.44386
 Alpha  occ. eigenvalues --  -38.44320 -38.43583  -2.20575  -2.20557  -2.20499
 Alpha  occ. eigenvalues --   -2.20252  -2.20210  -2.20091  -2.19421  -1.14240
 Alpha  occ. eigenvalues --   -1.14235  -1.14229  -1.14229  -1.14222  -1.14217
 Alpha  occ. eigenvalues --   -1.14161  -1.14157  -1.14093  -1.13905  -1.13897
 Alpha  occ. eigenvalues --   -1.13878  -1.13863  -1.13838  -1.13835  -1.13764
 Alpha  occ. eigenvalues --   -1.13757  -1.13731  -1.13101  -1.13083  -1.13080
 Alpha  occ. eigenvalues --   -0.15228  -0.14034  -0.12855  -0.10957
 Alpha virt. eigenvalues --   -0.07298  -0.05196  -0.04317  -0.03380  -0.03154
 Alpha virt. eigenvalues --   -0.02640  -0.02171  -0.02001  -0.01746  -0.01117
 Alpha virt. eigenvalues --   -0.00634  -0.00237   0.00003   0.00144   0.00234

  Beta  occ. eigenvalues --  -38.44817 -38.44778 -38.44675 -38.44346 -38.44326
  Beta  occ. eigenvalues --  -38.44303 -38.43587  -2.20595  -2.20532  -2.20416
  Beta  occ. eigenvalues --   -2.20105  -2.20077  -2.20054  -2.19437  -1.14263
  Beta  occ. eigenvalues --   -1.14253  -1.14230  -1.14200  -1.14200  -1.14196
  Beta  occ. eigenvalues --   -1.14103  -1.14101  -1.14051  -1.13789  -1.13781
  Beta  occ. eigenvalues --   -1.13776  -1.13775  -1.13768  -1.13747  -1.13731
  Beta  occ. eigenvalues --   -1.13728  -1.13727  -1.13102  -1.13100  -1.13046
  Beta  occ. eigenvalues --   -0.14619  -0.13498  -0.12529
  Beta virt. eigenvalues --   -0.07746  -0.06762  -0.04881  -0.03996  -0.03149
  Beta virt. eigenvalues --   -0.02999  -0.02449  -0.02002  -0.01643  -0.01536
  Beta virt. eigenvalues --   -0.00849  -0.00325  -0.00022   0.00156   0.00279

 Mulliken charges and spin densities:
               1          2
     1  Na   0.208978   0.361698
     2  Na  -0.214638  -0.031747
     3  Na  -0.082384   0.430379
     4  Na  -0.159289   0.008545
     5  Na   0.308845   0.089792
     6  Na   0.050542  -0.099305
     7  Na  -0.112054   0.240637
 Sum of Mulliken charges =  -0.00000   1.00000

 Dipole moment (field-independent basis, Debye):
    X=              1.0408    Y=              0.4148    Z=             -0.4339  Tot=              1.2014
 Quadrupole moment (field-independent basis, Debye-Ang):
   XX=            -60.9424   YY=            -67.9207   ZZ=            -67.5972
   XY=             -6.3697   XZ=              7.7880   YZ=             -0.9102

 Normal termination of Gaussian 16 at Mon Dec  4 03:40:12 2023.
