 Gaussian 16, Revision B.01,
 Gaussian 16:  ES64L-G16RevB.01 20-Dec-2017

 -------------------------
 #P B3LYP/6-311+g(d) force
 -------------------------

 -----
 DPGEN
 -----
 Symbolic Z-matrix:
 Charge =  0 Multiplicity = 2

                         Standard orientation:
 ---------------------------------------------------------------------
 Center     Atomic      Atomic             Coordinates (Angstroms)
 Number     Number       Type             X           Y           Z
 ---------------------------------------------------------------------
      1         11           0       -2.181770    0.441504    1.656904
      2         11           0        2.741337    1.303391   -1.212786
      3         11           0        1.387943    0.275307    1.835546
      4         11           0       -4.279599   -1.001895   -0.670837
      5         11           0       -0.390165    2.343161   -0.581855
      6         11           0       -0.506211   -1.201445   -1.234275
      7         11           0        3.228465   -2.160022    0.207302
 ---------------------------------------------------------------------

 SCF Done:  E(UB3LYP) =  -1136.12490317     A.U. after   24 cycles

 The electronic state is 2-A.
 Alpha  occ. eigenvalues --  -38.45256 -38.44642 -38.44486 -38.44006 -38.43885
 Alpha  occ. eigenvalues --  -38.43193 -38.42709  -2.21039  -2.20480  -2.20258
 Alpha  occ. eigenvalues --   -2.19873  -2.19775  -2.18988  -2.18580  -1.14745
 Alpha  occ. eigenvalues --   -1.14719  -1.14626  -1.14162  -1.14137  -1.14086
 Alpha  occ. eigenvalues --   -1.13932  -1.13924  -1.13886  -1.13563  -1.13536
 Alpha  occ. eigenvalues --   -1.13483  -1.13462  -1.13430  -1.13368  -1.12661
 Alpha  occ. eigenvalues --   -1.12652  -1.12629  -1.12267  -1.12233  -1.12225
 Alpha  occ. eigenvalues --   -0.18042  -0.13757  -0.11249  -0.11203
 Alpha virt. eigenvalues --   -0.06893  -0.05184  -0.04701  -0.03178  -0.02728
 Alpha virt. eigenvalues --   -0.02618  -0.02334  -0.01318  -0.00904  -0.00276
 Alpha virt. eigenvalues --    0.00051   0.00125   0.00264   0.00467   0.00664

  Beta  occ. eigenvalues --  -38.45227 -38.44603 -38.44482 -38.43963 -38.43822
  Beta  occ. eigenvalues --  -38.43191 -38.42700  -2.20988  -2.20408  -2.20250
  Beta  occ. eigenvalues --   -2.19796  -2.19660  -2.18987  -2.18569  -1.14702
  Beta  occ. eigenvalues --   -1.14679  -1.14590  -1.14109  -1.14087  -1.14032
  Beta  occ. eigenvalues --   -1.13925  -1.13918  -1.13879  -1.13505  -1.13490
  Beta  occ. eigenvalues --   -1.13411  -1.13385  -1.13346  -1.13279  -1.12652
  Beta  occ. eigenvalues --   -1.12650  -1.12630  -1.12260  -1.12224  -1.12193
  Beta  occ. eigenvalues --   -0.17345  -0.13592  -0.10960
  Beta virt. eigenvalues --   -0.07390  -0.06705  -0.05024  -0.04193  -0.02901
  Beta virt. eigenvalues --   -0.02560  -0.02084  -0.01688  -0.01051  -0.00558
  Beta virt. eigenvalues --   -0.00271   0.00094   0.00229   0.00372   0.00565

 Mulliken charges and spin densities:
               1          2
     1  Na   0.364677   0.096385
     2  Na   0.239716   0.196250
     3  Na  -0.337585   0.403867
     4  Na   0.144586   0.029572
     5  Na  -0.010665   0.100313
     6  Na  -0.771928   0.269971
     7  Na   0.371199  -0.096358
 Sum of Mulliken charges =  -0.00000   1.00000

 Dipole moment (field-independent basis, Debye):
    X=             -0.4377    Y=              0.2995    Z=             -0.3522  Tot=              0.6367
 Quadrupole moment (field-independent basis, Debye-Ang):
   XX=            -52.9627   YY=            -73.8078   ZZ=            -69.3019
   XY=              1.0470   XZ=             -1.5939   YZ=              0.4258

 Normal termination of Gaussian 16 at Wed Dec  6 00:36:35 2023.
