 Gaussian 16, Revision B.01,
 Gaussian 16:  ES64L-G16RevB.01 20-Dec-2017

 -------------------------
 #P B3LYP/6-311+g(d) force
 -------------------------

 -----
 DPGEN
 -----
 Symbolic Z-matrix:
 Charge =  0 Multiplicity = 2

                         Standard orientation:
 ---------------------------------------------------------------------
 Center     Atomic      Atomic             Coordinates (Angstroms)
 Number     Number       Type             X           Y           Z
 ---------------------------------------------------------------------
      1         11           0        4.185012   -0.310735    1.661697
      2         11           0       -3.933866    0.648969    0.061070
      3         11           0        2.698997   -3.119952   -0.064527
      4         11           0        1.120064    1.027621   -1.568870
      5         11           0        3.505432    3.217324    0.067259
      6         11           0       -6.992451    0.157321    0.797237
      7         11           0       -0.583187   -1.620547   -0.953865
 ---------------------------------------------------------------------

 SCF Done:  E(UB3LYP) =  -1136.10888943     A.U. after   22 cycles

 The electronic state is 2-A.
 Alpha  occ. eigenvalues --  -38.45574 -38.45261 -38.45080 -38.44275 -38.44029
 Alpha  occ. eigenvalues --  -38.43873 -38.43569  -2.21329  -2.21071  -2.20856
 Alpha  occ. eigenvalues --   -2.20061  -2.19798  -2.19687  -2.19333  -1.15010
 Alpha  occ. eigenvalues --   -1.14988  -1.14930  -1.14752  -1.14725  -1.14681
 Alpha  occ. eigenvalues --   -1.14528  -1.14512  -1.14469  -1.13723  -1.13711
 Alpha  occ. eigenvalues --   -1.13710  -1.13474  -1.13471  -1.13422  -1.13383
 Alpha  occ. eigenvalues --   -1.13352  -1.13294  -1.13006  -1.12998  -1.12966
 Alpha  occ. eigenvalues --   -0.16198  -0.13521  -0.12235  -0.11814
 Alpha virt. eigenvalues --   -0.06565  -0.05479  -0.04870  -0.03679  -0.03132
 Alpha virt. eigenvalues --   -0.02473  -0.02097  -0.01714  -0.01520  -0.01045
 Alpha virt. eigenvalues --   -0.00545  -0.00170  -0.00117   0.00207   0.00511

  Beta  occ. eigenvalues --  -38.45519 -38.45196 -38.45030 -38.44244 -38.44038
  Beta  occ. eigenvalues --  -38.43855 -38.43561  -2.21228  -2.20953  -2.20764
  Beta  occ. eigenvalues --   -2.20003  -2.19818  -2.19654  -2.19318  -1.14943
  Beta  occ. eigenvalues --   -1.14920  -1.14847  -1.14672  -1.14649  -1.14584
  Beta  occ. eigenvalues --   -1.14467  -1.14444  -1.14401  -1.13687  -1.13671
  Beta  occ. eigenvalues --   -1.13671  -1.13490  -1.13487  -1.13414  -1.13347
  Beta  occ. eigenvalues --   -1.13331  -1.13278  -1.12997  -1.12979  -1.12960
  Beta  occ. eigenvalues --   -0.15340  -0.13002  -0.11698
  Beta virt. eigenvalues --   -0.08669  -0.06132  -0.05106  -0.04433  -0.03430
  Beta virt. eigenvalues --   -0.02681  -0.02359  -0.01966  -0.01362  -0.01253
  Beta virt. eigenvalues --   -0.00923  -0.00283   0.00009   0.00087   0.00307

 Mulliken charges and spin densities:
               1          2
     1  Na  -0.101882   0.271663
     2  Na  -0.601124   0.076339
     3  Na   0.205131   0.293939
     4  Na  -0.322182   0.303622
     5  Na   0.220257   0.010379
     6  Na   0.739745   0.083883
     7  Na  -0.139944  -0.039824
 Sum of Mulliken charges =  -0.00000   1.00000

 Dipole moment (field-independent basis, Debye):
    X=              0.6477    Y=             -0.7662    Z=              0.2656  Tot=              1.0378
 Quadrupole moment (field-independent basis, Debye-Ang):
   XX=            -59.5966   YY=            -66.3471   ZZ=            -69.9883
   XY=             -1.4653   XZ=              0.5481   YZ=             -1.2690

 Normal termination of Gaussian 16 at Sun Dec  3 14:14:45 2023.
