 Gaussian 16, Revision B.01,
 Gaussian 16:  ES64L-G16RevB.01 20-Dec-2017

 -------------------------
 #P B3LYP/6-311+g(d) force
 -------------------------

 -----
 DPGEN
 -----
 Symbolic Z-matrix:
 Charge =  0 Multiplicity = 2

                         Standard orientation:
 ---------------------------------------------------------------------
 Center     Atomic      Atomic             Coordinates (Angstroms)
 Number     Number       Type             X           Y           Z
 ---------------------------------------------------------------------
      1         11           0        2.213910    2.055905   -0.348090
      2         11           0        2.766917   -1.296073    0.084488
      3         11           0       -0.287634   -2.890944   -0.196767
      4         11           0       -3.301853   -0.510807   -0.082587
      5         11           0       -0.205507    0.161336   -1.714144
      6         11           0        0.122429   -0.143423    1.962824
      7         11           0       -1.308263    2.624006    0.294276
 ---------------------------------------------------------------------

 SCF Done:  E(UB3LYP) =  -1136.14030578     A.U. after   18 cycles

 The electronic state is 2-A.
 Alpha  occ. eigenvalues --  -38.44252 -38.43693 -38.43561 -38.43495 -38.43461
 Alpha  occ. eigenvalues --  -38.43405 -38.43212  -2.20038  -2.19546  -2.19404
 Alpha  occ. eigenvalues --   -2.19366  -2.19344  -2.19252  -2.19165  -1.13716
 Alpha  occ. eigenvalues --   -1.13689  -1.13683  -1.13229  -1.13210  -1.13197
 Alpha  occ. eigenvalues --   -1.13101  -1.13084  -1.13038  -1.13036  -1.13027
 Alpha  occ. eigenvalues --   -1.13002  -1.12988  -1.12981  -1.12973  -1.12947
 Alpha  occ. eigenvalues --   -1.12914  -1.12873  -1.12841  -1.12792  -1.12777
 Alpha  occ. eigenvalues --   -0.18588  -0.12871  -0.12516  -0.10683
 Alpha virt. eigenvalues --   -0.05727  -0.05077  -0.04770  -0.03111  -0.02931
 Alpha virt. eigenvalues --   -0.02501  -0.01606  -0.01130  -0.00392  -0.00369
 Alpha virt. eigenvalues --   -0.00007   0.00359   0.00797   0.00872   0.00890

  Beta  occ. eigenvalues --  -38.44252 -38.43689 -38.43553 -38.43487 -38.43400
  Beta  occ. eigenvalues --  -38.43372 -38.43144  -2.20040  -2.19542  -2.19392
  Beta  occ. eigenvalues --   -2.19332  -2.19245  -2.19202  -2.19041  -1.13704
  Beta  occ. eigenvalues --   -1.13691  -1.13684  -1.13222  -1.13200  -1.13183
  Beta  occ. eigenvalues --   -1.13090  -1.13048  -1.13029  -1.13011  -1.12978
  Beta  occ. eigenvalues --   -1.12967  -1.12951  -1.12919  -1.12904  -1.12872
  Beta  occ. eigenvalues --   -1.12868  -1.12855  -1.12759  -1.12707  -1.12686
  Beta  occ. eigenvalues --   -0.17855  -0.12650  -0.12264
  Beta virt. eigenvalues --   -0.06785  -0.05710  -0.05063  -0.04713  -0.02342
  Beta virt. eigenvalues --   -0.02159  -0.01540  -0.01438  -0.01050  -0.00440
  Beta virt. eigenvalues --   -0.00414   0.00124   0.00377   0.00831   0.00880

 Mulliken charges and spin densities:
               1          2
     1  Na   0.164372  -0.026998
     2  Na   0.189803  -0.027604
     3  Na   0.046967  -0.127436
     4  Na   0.016093  -0.124488
     5  Na  -0.171807   0.616592
     6  Na  -0.317780   0.738754
     7  Na   0.072354  -0.048820
 Sum of Mulliken charges =  -0.00000   1.00000

 Dipole moment (field-independent basis, Debye):
    X=             -0.2691    Y=             -0.0323    Z=              0.0821  Tot=              0.2832
 Quadrupole moment (field-independent basis, Debye-Ang):
   XX=            -55.8448   YY=            -62.3653   ZZ=            -74.6785
   XY=              0.1655   XZ=             -0.6861   YZ=              0.6030

 Normal termination of Gaussian 16 at Fri Dec  8 02:55:32 2023.
