 Gaussian 16, Revision B.01,
 Gaussian 16:  ES64L-G16RevB.01 20-Dec-2017

 -------------------------
 #P B3LYP/6-311+g(d) force
 -------------------------

 -----
 DPGEN
 -----
 Symbolic Z-matrix:
 Charge =  0 Multiplicity = 2

                         Standard orientation:
 ---------------------------------------------------------------------
 Center     Atomic      Atomic             Coordinates (Angstroms)
 Number     Number       Type             X           Y           Z
 ---------------------------------------------------------------------
      1         11           0       -1.035740   -1.466871   -0.956267
      2         11           0       -3.834557   -0.945186    0.728620
      3         11           0        2.411142   -1.938130   -1.019936
      4         11           0       -2.227712    2.119473   -0.407113
      5         11           0        1.013628    1.892853   -1.121871
      6         11           0        3.566690    0.663664    1.212983
      7         11           0        0.106550   -0.325804    1.563583
 ---------------------------------------------------------------------

 SCF Done:  E(UB3LYP) =  -1136.12426076     A.U. after   23 cycles

 The electronic state is 2-A.
 Alpha  occ. eigenvalues --  -38.45389 -38.44515 -38.44415 -38.44043 -38.43336
 Alpha  occ. eigenvalues --  -38.43335 -38.42800  -2.21252  -2.20331  -2.20238
 Alpha  occ. eigenvalues --   -2.19862  -2.19267  -2.19164  -2.18653  -1.15016
 Alpha  occ. eigenvalues --   -1.14891  -1.14849  -1.14002  -1.13977  -1.13957
 Alpha  occ. eigenvalues --   -1.13899  -1.13875  -1.13860  -1.13531  -1.13517
 Alpha  occ. eigenvalues --   -1.13495  -1.13018  -1.12897  -1.12868  -1.12845
 Alpha  occ. eigenvalues --   -1.12834  -1.12798  -1.12339  -1.12316  -1.12277
 Alpha  occ. eigenvalues --   -0.18245  -0.14099  -0.11364  -0.10775
 Alpha virt. eigenvalues --   -0.06960  -0.05339  -0.04525  -0.03234  -0.02864
 Alpha virt. eigenvalues --   -0.02477  -0.01902  -0.01383  -0.00975  -0.00244
 Alpha virt. eigenvalues --    0.00019   0.00224   0.00335   0.00598   0.00625

  Beta  occ. eigenvalues --  -38.45373 -38.44485 -38.44353 -38.44013 -38.43334
  Beta  occ. eigenvalues --  -38.43306 -38.42779  -2.21226  -2.20273  -2.20122
  Beta  occ. eigenvalues --   -2.19810  -2.19217  -2.19162  -2.18619  -1.14977
  Beta  occ. eigenvalues --   -1.14879  -1.14830  -1.13963  -1.13939  -1.13918
  Beta  occ. eigenvalues --   -1.13813  -1.13797  -1.13787  -1.13491  -1.13475
  Beta  occ. eigenvalues --   -1.13452  -1.12992  -1.12856  -1.12842  -1.12828
  Beta  occ. eigenvalues --   -1.12806  -1.12790  -1.12317  -1.12276  -1.12252
  Beta  occ. eigenvalues --   -0.17676  -0.13678  -0.10993
  Beta virt. eigenvalues --   -0.07250  -0.06700  -0.05308  -0.03891  -0.03067
  Beta virt. eigenvalues --   -0.02601  -0.01906  -0.01302  -0.01227  -0.00598
  Beta virt. eigenvalues --   -0.00189   0.00102   0.00271   0.00456   0.00678

 Mulliken charges and spin densities:
               1          2
     1  Na  -0.433603   0.184698
     2  Na   1.137658   0.259309
     3  Na  -0.085987   0.054201
     4  Na  -0.157291  -0.047066
     5  Na  -0.461217   0.093899
     6  Na   0.827602   0.275451
     7  Na  -0.827161   0.179507
 Sum of Mulliken charges =  -0.00000   1.00000

 Dipole moment (field-independent basis, Debye):
    X=             -0.0534    Y=             -0.2679    Z=              0.2034  Tot=              0.3406
 Quadrupole moment (field-independent basis, Debye-Ang):
   XX=            -48.6776   YY=            -77.1252   ZZ=            -69.1548
   XY=             -1.1005   XZ=             -2.5931   YZ=              1.4926

 Normal termination of Gaussian 16 at Thu Dec  7 09:41:16 2023.
