 Gaussian 16, Revision B.01,
 Gaussian 16:  ES64L-G16RevB.01 20-Dec-2017

 -------------------------
 #P B3LYP/6-311+g(d) force
 -------------------------

 -----
 DPGEN
 -----
 Symbolic Z-matrix:
 Charge =  0 Multiplicity = 2

                         Standard orientation:
 ---------------------------------------------------------------------
 Center     Atomic      Atomic             Coordinates (Angstroms)
 Number     Number       Type             X           Y           Z
 ---------------------------------------------------------------------
      1         11           0        0.043498    2.615000    0.068652
      2         11           0       -2.892768    1.027493    0.018039
      3         11           0       -0.016795   -0.448725    2.167880
      4         11           0       -0.096183    0.059778   -2.064265
      5         11           0       -1.778657   -2.171510   -0.014328
      6         11           0        2.901071    0.928307    0.174648
      7         11           0        1.839832   -2.010342   -0.350626
 ---------------------------------------------------------------------

 SCF Done:  E(UB3LYP) =  -1136.13857229     A.U. after   18 cycles

 The electronic state is 2-A.
 Alpha  occ. eigenvalues --  -38.44166 -38.44001 -38.43788 -38.43716 -38.43287
 Alpha  occ. eigenvalues --  -38.43225 -38.42820  -2.20055  -2.19928  -2.19636
 Alpha  occ. eigenvalues --   -2.19579  -2.19184  -2.19105  -2.18707  -1.13720
 Alpha  occ. eigenvalues --   -1.13687  -1.13676  -1.13600  -1.13567  -1.13548
 Alpha  occ. eigenvalues --   -1.13303  -1.13299  -1.13286  -1.13267  -1.13241
 Alpha  occ. eigenvalues --   -1.13229  -1.12866  -1.12843  -1.12813  -1.12784
 Alpha  occ. eigenvalues --   -1.12773  -1.12728  -1.12393  -1.12372  -1.12340
 Alpha  occ. eigenvalues --   -0.18941  -0.13095  -0.12264  -0.11546
 Alpha virt. eigenvalues --   -0.05458  -0.04981  -0.04162  -0.03521  -0.03340
 Alpha virt. eigenvalues --   -0.03086  -0.01332  -0.00825  -0.00149   0.00044
 Alpha virt. eigenvalues --    0.00073   0.00401   0.00804   0.00864   0.00965

  Beta  occ. eigenvalues --  -38.44077 -38.43915 -38.43787 -38.43714 -38.43277
  Beta  occ. eigenvalues --  -38.43219 -38.42814  -2.19891  -2.19771  -2.19636
  Beta  occ. eigenvalues --   -2.19578  -2.19170  -2.19099  -2.18701  -1.13614
  Beta  occ. eigenvalues --   -1.13567  -1.13559  -1.13500  -1.13450  -1.13437
  Beta  occ. eigenvalues --   -1.13302  -1.13297  -1.13275  -1.13270  -1.13240
  Beta  occ. eigenvalues --   -1.13209  -1.12854  -1.12812  -1.12804  -1.12778
  Beta  occ. eigenvalues --   -1.12742  -1.12727  -1.12389  -1.12347  -1.12336
  Beta  occ. eigenvalues --   -0.18140  -0.12880  -0.12016
  Beta virt. eigenvalues --   -0.07579  -0.05383  -0.04991  -0.04094  -0.02700
  Beta virt. eigenvalues --   -0.02437  -0.02123  -0.01251  -0.00770  -0.00037
  Beta virt. eigenvalues --    0.00014   0.00054   0.00412   0.00900   0.00937

 Mulliken charges and spin densities:
               1          2
     1  Na   0.151848   0.002454
     2  Na   0.135209  -0.071459
     3  Na  -0.655931   0.606646
     4  Na  -0.489957   0.537396
     5  Na   0.389992  -0.036931
     6  Na   0.058707  -0.046696
     7  Na   0.410132   0.008590
 Sum of Mulliken charges =  -0.00000   1.00000

 Dipole moment (field-independent basis, Debye):
    X=             -0.1030    Y=             -0.0864    Z=              0.1098  Tot=              0.1736
 Quadrupole moment (field-independent basis, Debye-Ang):
   XX=            -58.7406   YY=            -68.4132   ZZ=            -68.9524
   XY=              0.0764   XZ=              0.0918   YZ=              1.0466

 Normal termination of Gaussian 16 at Thu Dec  7 02:19:05 2023.
