 Gaussian 16, Revision B.01,
 Gaussian 16:  ES64L-G16RevB.01 20-Dec-2017

 -------------------------
 #P B3LYP/6-311+g(d) force
 -------------------------

 -----
 DPGEN
 -----
 Symbolic Z-matrix:
 Charge =  0 Multiplicity = 2

                         Standard orientation:
 ---------------------------------------------------------------------
 Center     Atomic      Atomic             Coordinates (Angstroms)
 Number     Number       Type             X           Y           Z
 ---------------------------------------------------------------------
      1         11           0        2.409749    0.378019   -0.435644
      2         11           0        6.208929   -0.687002   -0.589065
      3         11           0       -0.842152    1.339990    0.513854
      4         11           0       -4.085158    1.722481   -0.581277
      5         11           0        9.113299   -0.389112    0.654349
      6         11           0       -6.272832   -1.459128   -1.306397
      7         11           0       -6.531835   -0.905247    1.744179
 ---------------------------------------------------------------------

 SCF Done:  E(UB3LYP) =  -1136.10637850     A.U. after   19 cycles

 The electronic state is 2-A.
 Alpha  occ. eigenvalues --  -38.45950 -38.45744 -38.44656 -38.43881 -38.43875
 Alpha  occ. eigenvalues --  -38.43403 -38.43379  -2.21741  -2.21538  -2.20458
 Alpha  occ. eigenvalues --   -2.19677  -2.19661  -2.19179  -2.19149  -1.15432
 Alpha  occ. eigenvalues --   -1.15395  -1.15378  -1.15198  -1.15187  -1.15155
 Alpha  occ. eigenvalues --   -1.14126  -1.14107  -1.14057  -1.13329  -1.13321
 Alpha  occ. eigenvalues --   -1.13320  -1.13316  -1.13315  -1.13265  -1.12855
 Alpha  occ. eigenvalues --   -1.12853  -1.12836  -1.12832  -1.12823  -1.12801
 Alpha  occ. eigenvalues --   -0.15760  -0.13752  -0.12557  -0.10896
 Alpha virt. eigenvalues --   -0.07012  -0.06199  -0.04101  -0.03577  -0.02912
 Alpha virt. eigenvalues --   -0.02393  -0.02224  -0.01816  -0.01742  -0.01228
 Alpha virt. eigenvalues --   -0.00977  -0.00376  -0.00066   0.00092   0.00216

  Beta  occ. eigenvalues --  -38.45926 -38.45738 -38.44575 -38.43832 -38.43792
  Beta  occ. eigenvalues --  -38.43414 -38.43397  -2.21696  -2.21529  -2.20310
  Beta  occ. eigenvalues --   -2.19586  -2.19506  -2.19205  -2.19188  -1.15401
  Beta  occ. eigenvalues --   -1.15366  -1.15344  -1.15193  -1.15168  -1.15147
  Beta  occ. eigenvalues --   -1.14025  -1.14007  -1.13957  -1.13272  -1.13258
  Beta  occ. eigenvalues --   -1.13257  -1.13210  -1.13209  -1.13171  -1.12877
  Beta  occ. eigenvalues --   -1.12874  -1.12869  -1.12865  -1.12805  -1.12783
  Beta  occ. eigenvalues --   -0.15283  -0.13078  -0.12018
  Beta virt. eigenvalues --   -0.07782  -0.06842  -0.05722  -0.03823  -0.03263
  Beta virt. eigenvalues --   -0.02655  -0.02215  -0.02027  -0.01674  -0.01365
  Beta virt. eigenvalues --   -0.00992  -0.00671  -0.00169   0.00097   0.00154

 Mulliken charges and spin densities:
               1          2
     1  Na   0.208183   0.367720
     2  Na   0.296156  -0.116152
     3  Na  -0.804360   0.002463
     4  Na  -0.144851   0.374977
     5  Na   0.114774   0.213500
     6  Na   0.161898   0.044273
     7  Na   0.168201   0.113219
 Sum of Mulliken charges =  -0.00000   1.00000

 Dipole moment (field-independent basis, Debye):
    X=             -5.0971    Y=             -0.8962    Z=              0.3512  Tot=              5.1872
 Quadrupole moment (field-independent basis, Debye-Ang):
   XX=            -48.0594   YY=            -74.1681   ZZ=            -61.1589
   XY=              3.6018   XZ=              2.5153   YZ=              2.5258

 Normal termination of Gaussian 16 at Sun Dec  3 17:32:04 2023.
