 Gaussian 16, Revision B.01,
 Gaussian 16:  ES64L-G16RevB.01 20-Dec-2017

 -------------------------
 #P B3LYP/6-311+g(d) force
 -------------------------

 -----
 DPGEN
 -----
 Symbolic Z-matrix:
 Charge =  0 Multiplicity = 2

                         Standard orientation:
 ---------------------------------------------------------------------
 Center     Atomic      Atomic             Coordinates (Angstroms)
 Number     Number       Type             X           Y           Z
 ---------------------------------------------------------------------
      1         11           0        1.188928   -2.838836   -0.097958
      2         11           0        0.266889   -0.012110    2.049479
      3         11           0       -2.896128    1.306829    0.299682
      4         11           0       -0.296315    0.318700   -1.607201
      5         11           0        0.915557    3.308576   -0.205231
      6         11           0        3.471260   -0.211123   -0.165609
      7         11           0       -2.650191   -1.872037   -0.273163
 ---------------------------------------------------------------------

 SCF Done:  E(UB3LYP) =  -1136.13116089     A.U. after   19 cycles

 The electronic state is 2-A.
 Alpha  occ. eigenvalues --  -38.44921 -38.44397 -38.43833 -38.43752 -38.43614
 Alpha  occ. eigenvalues --  -38.43598 -38.43362  -2.20682  -2.20227  -2.19662
 Alpha  occ. eigenvalues --   -2.19514  -2.19441  -2.19419  -2.19265  -1.14362
 Alpha  occ. eigenvalues --   -1.14333  -1.14324  -1.13911  -1.13891  -1.13865
 Alpha  occ. eigenvalues --   -1.13332  -1.13321  -1.13305  -1.13193  -1.13169
 Alpha  occ. eigenvalues --   -1.13163  -1.13120  -1.13095  -1.13089  -1.13065
 Alpha  occ. eigenvalues --   -1.13057  -1.13049  -1.12959  -1.12906  -1.12880
 Alpha  occ. eigenvalues --   -0.17893  -0.13095  -0.12026  -0.10283
 Alpha virt. eigenvalues --   -0.06263  -0.05344  -0.04985  -0.03216  -0.02620
 Alpha virt. eigenvalues --   -0.02343  -0.01895  -0.01382  -0.00846  -0.00692
 Alpha virt. eigenvalues --   -0.00039   0.00323   0.00690   0.00741   0.00800

  Beta  occ. eigenvalues --  -38.44921 -38.44390 -38.43828 -38.43751 -38.43610
  Beta  occ. eigenvalues --  -38.43501 -38.43308  -2.20684  -2.20218  -2.19655
  Beta  occ. eigenvalues --   -2.19515  -2.19415  -2.19264  -2.19166  -1.14350
  Beta  occ. eigenvalues --   -1.14334  -1.14327  -1.13905  -1.13869  -1.13854
  Beta  occ. eigenvalues --   -1.13324  -1.13307  -1.13296  -1.13181  -1.13169
  Beta  occ. eigenvalues --   -1.13163  -1.13091  -1.13073  -1.13053  -1.12994
  Beta  occ. eigenvalues --   -1.12942  -1.12926  -1.12886  -1.12836  -1.12805
  Beta  occ. eigenvalues --   -0.17194  -0.12927  -0.11822
  Beta virt. eigenvalues --   -0.06443  -0.06200  -0.05310  -0.04907  -0.02479
  Beta virt. eigenvalues --   -0.01958  -0.01791  -0.01394  -0.01246  -0.00866
  Beta virt. eigenvalues --   -0.00729   0.00123   0.00365   0.00717   0.00783

 Mulliken charges and spin densities:
               1          2
     1  Na   0.030998  -0.040569
     2  Na  -0.278637   0.726130
     3  Na   0.216564   0.016750
     4  Na  -0.049796   0.521176
     5  Na  -0.071326  -0.126784
     6  Na   0.021457  -0.094217
     7  Na   0.130740  -0.002486
 Sum of Mulliken charges =  -0.00000   1.00000

 Dipole moment (field-independent basis, Debye):
    X=              0.2038    Y=              0.0657    Z=              0.0536  Tot=              0.2208
 Quadrupole moment (field-independent basis, Debye-Ang):
   XX=            -53.4383   YY=            -61.9589   ZZ=            -77.1619
   XY=              0.3346   XZ=             -1.1576   YZ=              1.1392

 Normal termination of Gaussian 16 at Thu Dec  7 05:10:55 2023.
