 Gaussian 16, Revision B.01,
 Gaussian 16:  ES64L-G16RevB.01 20-Dec-2017

 -------------------------
 #P B3LYP/6-311+g(d) force
 -------------------------

 -----
 DPGEN
 -----
 Symbolic Z-matrix:
 Charge =  0 Multiplicity = 2

                         Standard orientation:
 ---------------------------------------------------------------------
 Center     Atomic      Atomic             Coordinates (Angstroms)
 Number     Number       Type             X           Y           Z
 ---------------------------------------------------------------------
      1         11           0       -0.079552   -0.004119    1.906298
      2         11           0       -0.595438    2.152723   -0.093546
      3         11           0       -2.842415    0.143260   -0.073563
      4         11           0        0.180434   -0.111973   -1.796398
      5         11           0        2.130821    1.469923    0.030318
      6         11           0        2.082408   -1.561998    0.057439
      7         11           0       -0.876259   -2.087816   -0.030548
 ---------------------------------------------------------------------

 SCF Done:  E(UB3LYP) =  -1136.10798310     A.U. after   19 cycles

 The electronic state is 2-A.
 Alpha  occ. eigenvalues --  -38.43924 -38.43901 -38.43764 -38.43435 -38.43314
 Alpha  occ. eigenvalues --  -38.43126 -38.43093  -2.20073  -2.20033  -2.19735
 Alpha  occ. eigenvalues --   -2.19487  -2.19348  -2.19229  -2.19200  -1.13839
 Alpha  occ. eigenvalues --   -1.13789  -1.13736  -1.13714  -1.13703  -1.13639
 Alpha  occ. eigenvalues --   -1.13446  -1.13436  -1.13360  -1.13300  -1.13196
 Alpha  occ. eigenvalues --   -1.13105  -1.13084  -1.12984  -1.12942  -1.12884
 Alpha  occ. eigenvalues --   -1.12870  -1.12848  -1.12827  -1.12773  -1.12744
 Alpha  occ. eigenvalues --   -0.20985  -0.13654  -0.12823  -0.12006
 Alpha virt. eigenvalues --   -0.05189  -0.04414  -0.04081  -0.03561  -0.03201
 Alpha virt. eigenvalues --   -0.02941  -0.01207  -0.00546  -0.00091   0.00369
 Alpha virt. eigenvalues --    0.00623   0.00662   0.00980   0.01106   0.01138

  Beta  occ. eigenvalues --  -38.43828 -38.43811 -38.43759 -38.43425 -38.43304
  Beta  occ. eigenvalues --  -38.43112 -38.43078  -2.19910  -2.19859  -2.19731
  Beta  occ. eigenvalues --   -2.19475  -2.19336  -2.19209  -2.19180  -1.13744
  Beta  occ. eigenvalues --   -1.13674  -1.13629  -1.13590  -1.13587  -1.13519
  Beta  occ. eigenvalues --   -1.13446  -1.13426  -1.13324  -1.13293  -1.13190
  Beta  occ. eigenvalues --   -1.13076  -1.13050  -1.12945  -1.12926  -1.12872
  Beta  occ. eigenvalues --   -1.12839  -1.12800  -1.12768  -1.12756  -1.12740
  Beta  occ. eigenvalues --   -0.20155  -0.13326  -0.12466
  Beta virt. eigenvalues --   -0.07872  -0.05200  -0.04412  -0.04079  -0.02643
  Beta virt. eigenvalues --   -0.02269  -0.01837  -0.01136  -0.00503   0.00058
  Beta virt. eigenvalues --    0.00393   0.00599   0.00617   0.01024   0.01093

 Mulliken charges and spin densities:
               1          2
     1  Na  -0.352203   0.517849
     2  Na   0.170501   0.077974
     3  Na  -0.063435  -0.082816
     4  Na  -0.235231   0.426165
     5  Na   0.136244   0.001765
     6  Na   0.176210   0.004048
     7  Na   0.167914   0.055015
 Sum of Mulliken charges =  -0.00000   1.00000

 Dipole moment (field-independent basis, Debye):
    X=             -0.1116    Y=             -0.0439    Z=              0.1491  Tot=              0.1914
 Quadrupole moment (field-independent basis, Debye-Ang):
   XX=            -58.5557   YY=            -69.3812   ZZ=            -68.8137
   XY=             -0.3000   XZ=              0.5468   YZ=             -0.1990

 Normal termination of Gaussian 16 at Sat Dec  9 06:51:32 2023.
