 Gaussian 16, Revision B.01,
 Gaussian 16:  ES64L-G16RevB.01 20-Dec-2017

 -------------------------
 #P B3LYP/6-311+g(d) force
 -------------------------

 -----
 DPGEN
 -----
 Symbolic Z-matrix:
 Charge =  0 Multiplicity = 2

                         Standard orientation:
 ---------------------------------------------------------------------
 Center     Atomic      Atomic             Coordinates (Angstroms)
 Number     Number       Type             X           Y           Z
 ---------------------------------------------------------------------
      1         11           0        2.774570   -1.512872    0.024396
      2         11           0       -1.113157   -2.695218   -0.193077
      3         11           0       -2.885609   -0.049411   -0.242338
      4         11           0        0.183652   -0.476074    1.986373
      5         11           0        0.064095    0.135331   -1.760503
      6         11           0        2.161682    1.967046   -0.303091
      7         11           0       -1.185234    2.631197    0.488240
 ---------------------------------------------------------------------

 SCF Done:  E(UB3LYP) =  -1136.13857419     A.U. after   19 cycles

 The electronic state is 2-A.
 Alpha  occ. eigenvalues --  -38.43926 -38.43650 -38.43603 -38.43566 -38.43460
 Alpha  occ. eigenvalues --  -38.43359 -38.43220  -2.19746  -2.19516  -2.19508
 Alpha  occ. eigenvalues --   -2.19468  -2.19336  -2.19334  -2.19084  -1.13431
 Alpha  occ. eigenvalues --   -1.13410  -1.13385  -1.13252  -1.13197  -1.13173
 Alpha  occ. eigenvalues --   -1.13167  -1.13151  -1.13142  -1.13132  -1.13132
 Alpha  occ. eigenvalues --   -1.13115  -1.13019  -1.12994  -1.12987  -1.12952
 Alpha  occ. eigenvalues --   -1.12950  -1.12940  -1.12749  -1.12740  -1.12724
 Alpha  occ. eigenvalues --   -0.18861  -0.13080  -0.12514  -0.10984
 Alpha virt. eigenvalues --   -0.05477  -0.05064  -0.04603  -0.03284  -0.03103
 Alpha virt. eigenvalues --   -0.02647  -0.01356  -0.01094  -0.00211  -0.00167
 Alpha virt. eigenvalues --    0.00018   0.00375   0.00845   0.00891   0.00935

  Beta  occ. eigenvalues --  -38.43924 -38.43642 -38.43559 -38.43518 -38.43453
  Beta  occ. eigenvalues --  -38.43287 -38.43209  -2.19745  -2.19504  -2.19460
  Beta  occ. eigenvalues --   -2.19351  -2.19327  -2.19204  -2.19066  -1.13420
  Beta  occ. eigenvalues --   -1.13401  -1.13383  -1.13229  -1.13175  -1.13148
  Beta  occ. eigenvalues --   -1.13146  -1.13130  -1.13095  -1.13077  -1.13041
  Beta  occ. eigenvalues --   -1.13012  -1.12989  -1.12967  -1.12938  -1.12912
  Beta  occ. eigenvalues --   -1.12859  -1.12858  -1.12738  -1.12722  -1.12700
  Beta  occ. eigenvalues --   -0.18122  -0.12812  -0.12274
  Beta virt. eigenvalues --   -0.07076  -0.05473  -0.05007  -0.04553  -0.02478
  Beta virt. eigenvalues --   -0.02321  -0.01618  -0.01268  -0.01016  -0.00255
  Beta virt. eigenvalues --   -0.00179   0.00125   0.00396   0.00868   0.00926

 Mulliken charges and spin densities:
               1          2
     1  Na   0.076353  -0.134819
     2  Na   0.175283  -0.109412
     3  Na   0.181492   0.027341
     4  Na  -0.444559   0.731994
     5  Na  -0.166198   0.460915
     6  Na   0.152068  -0.022113
     7  Na   0.025561   0.046094
 Sum of Mulliken charges =  -0.00000   1.00000

 Dipole moment (field-independent basis, Debye):
    X=              0.3092    Y=             -0.1975    Z=              0.0853  Tot=              0.3766
 Quadrupole moment (field-independent basis, Debye-Ang):
   XX=            -58.9061   YY=            -62.5024   ZZ=            -72.9470
   XY=             -0.3829   XZ=             -0.2593   YZ=              1.3505

 Normal termination of Gaussian 16 at Tue Dec  5 12:38:05 2023.
