 Gaussian 16, Revision B.01,
 Gaussian 16:  ES64L-G16RevB.01 20-Dec-2017

 -------------------------
 #P B3LYP/6-311+g(d) force
 -------------------------

 -----
 DPGEN
 -----
 Symbolic Z-matrix:
 Charge =  0 Multiplicity = 2

                         Standard orientation:
 ---------------------------------------------------------------------
 Center     Atomic      Atomic             Coordinates (Angstroms)
 Number     Number       Type             X           Y           Z
 ---------------------------------------------------------------------
      1         11           0        0.101939   -1.880888   -0.169574
      2         11           0        3.001668   -3.284616   -0.129662
      3         11           0        3.424049    0.845308    0.174346
      4         11           0        1.698041    3.432571   -0.600673
      5         11           0        0.066023    1.040246    1.257188
      6         11           0       -2.547334    0.119688   -0.721720
      7         11           0       -5.744386   -0.272309    0.190095
 ---------------------------------------------------------------------

 SCF Done:  E(UB3LYP) =  -1136.12078280     A.U. after   20 cycles

 The electronic state is 2-A.
 Alpha  occ. eigenvalues --  -38.44600 -38.44572 -38.44393 -38.44368 -38.43494
 Alpha  occ. eigenvalues --  -38.43419 -38.43237  -2.20496  -2.20395  -2.20214
 Alpha  occ. eigenvalues --   -2.20176  -2.19308  -2.19290  -2.19090  -1.14192
 Alpha  occ. eigenvalues --   -1.14167  -1.14111  -1.14092  -1.14057  -1.14011
 Alpha  occ. eigenvalues --   -1.13874  -1.13863  -1.13830  -1.13805  -1.13805
 Alpha  occ. eigenvalues --   -1.13796  -1.13015  -1.13007  -1.12980  -1.12948
 Alpha  occ. eigenvalues --   -1.12928  -1.12874  -1.12773  -1.12756  -1.12742
 Alpha  occ. eigenvalues --   -0.17257  -0.13768  -0.12472  -0.10975
 Alpha virt. eigenvalues --   -0.06153  -0.05541  -0.04616  -0.03740  -0.02818
 Alpha virt. eigenvalues --   -0.02160  -0.01777  -0.01399  -0.01149  -0.00850
 Alpha virt. eigenvalues --   -0.00504  -0.00038   0.00375   0.00425   0.00499

  Beta  occ. eigenvalues --  -38.44560 -38.44544 -38.44387 -38.44253 -38.43480
  Beta  occ. eigenvalues --  -38.43400 -38.43236  -2.20426  -2.20343  -2.20205
  Beta  occ. eigenvalues --   -2.19961  -2.19277  -2.19262  -2.19098  -1.14149
  Beta  occ. eigenvalues --   -1.14118  -1.14060  -1.14056  -1.14016  -1.13973
  Beta  occ. eigenvalues --   -1.13868  -1.13849  -1.13820  -1.13659  -1.13658
  Beta  occ. eigenvalues --   -1.13656  -1.12995  -1.12981  -1.12962  -1.12928
  Beta  occ. eigenvalues --   -1.12904  -1.12850  -1.12786  -1.12768  -1.12680
  Beta  occ. eigenvalues --   -0.16749  -0.12955  -0.12223
  Beta virt. eigenvalues --   -0.07508  -0.06009  -0.05221  -0.04232  -0.03368
  Beta virt. eigenvalues --   -0.02563  -0.02037  -0.01471  -0.01184  -0.00740
  Beta virt. eigenvalues --   -0.00462  -0.00272   0.00150   0.00487   0.00516

 Mulliken charges and spin densities:
               1          2
     1  Na  -0.867573  -0.022100
     2  Na   0.621245   0.124893
     3  Na   0.000250   0.271472
     4  Na   0.263044   0.005261
     5  Na  -0.579408   0.174668
     6  Na   0.657561  -0.135129
     7  Na  -0.095119   0.580934
 Sum of Mulliken charges =  -0.00000   1.00000

 Dipole moment (field-independent basis, Debye):
    X=              0.7910    Y=              1.1797    Z=              0.1380  Tot=              1.4270
 Quadrupole moment (field-independent basis, Debye-Ang):
   XX=            -68.6882   YY=            -64.4193   ZZ=            -67.6897
   XY=             -0.1210   XZ=             -1.7020   YZ=             -1.9741

 Normal termination of Gaussian 16 at Wed Nov 29 00:33:37 2023.
