 Gaussian 16, Revision B.01,
 Gaussian 16:  ES64L-G16RevB.01 20-Dec-2017

 -------------------------
 #P B3LYP/6-311+g(d) force
 -------------------------

 -----
 DPGEN
 -----
 Symbolic Z-matrix:
 Charge =  0 Multiplicity = 2

                         Standard orientation:
 ---------------------------------------------------------------------
 Center     Atomic      Atomic             Coordinates (Angstroms)
 Number     Number       Type             X           Y           Z
 ---------------------------------------------------------------------
      1         11           0       -0.582634    1.526584   -0.504894
      2         11           0        0.100626    0.495249    2.093641
      3         11           0       -3.105369    0.192630   -0.233223
      4         11           0       -0.907315   -1.547526    0.399440
      5         11           0        0.610152   -0.752152   -1.978914
      6         11           0        1.823974   -1.340001    0.510146
      7         11           0        2.060566    1.425216   -0.286195
 ---------------------------------------------------------------------

 SCF Done:  E(UB3LYP) =  -1136.07850286     A.U. after   31 cycles

 The electronic state is 2-A.
 Alpha  occ. eigenvalues --  -38.44508 -38.44353 -38.43901 -38.43880 -38.43763
 Alpha  occ. eigenvalues --  -38.43534 -38.43364  -2.20470  -2.20446  -2.20079
 Alpha  occ. eigenvalues --   -2.20013  -2.19895  -2.19778  -2.19604  -1.14338
 Alpha  occ. eigenvalues --   -1.14245  -1.14179  -1.14138  -1.14079  -1.14030
 Alpha  occ. eigenvalues --   -1.14025  -1.13924  -1.13873  -1.13748  -1.13719
 Alpha  occ. eigenvalues --   -1.13634  -1.13494  -1.13451  -1.13419  -1.13378
 Alpha  occ. eigenvalues --   -1.13340  -1.13238  -1.13204  -1.13189  -1.13128
 Alpha  occ. eigenvalues --   -0.21533  -0.13883  -0.13312  -0.11772
 Alpha virt. eigenvalues --   -0.05626  -0.04206  -0.03996  -0.03527  -0.03134
 Alpha virt. eigenvalues --   -0.02932  -0.01358  -0.00461  -0.00215   0.00301
 Alpha virt. eigenvalues --    0.00676   0.00836   0.00973   0.01016   0.01115

  Beta  occ. eigenvalues --  -38.44507 -38.44270 -38.43845 -38.43840 -38.43740
  Beta  occ. eigenvalues --  -38.43490 -38.43326  -2.20446  -2.20324  -2.20019
  Beta  occ. eigenvalues --   -2.19909  -2.19853  -2.19709  -2.19544  -1.14246
  Beta  occ. eigenvalues --   -1.14233  -1.14164  -1.14032  -1.14027  -1.14001
  Beta  occ. eigenvalues --   -1.13959  -1.13871  -1.13819  -1.13669  -1.13659
  Beta  occ. eigenvalues --   -1.13552  -1.13426  -1.13404  -1.13366  -1.13335
  Beta  occ. eigenvalues --   -1.13251  -1.13193  -1.13165  -1.13101  -1.13094
  Beta  occ. eigenvalues --   -0.20591  -0.13628  -0.11631
  Beta virt. eigenvalues --   -0.08707  -0.05546  -0.03717  -0.03459  -0.03149
  Beta virt. eigenvalues --   -0.02523  -0.02065  -0.01301  -0.00221  -0.00162
  Beta virt. eigenvalues --    0.00336   0.00724   0.00912   0.01017   0.01109

 Mulliken charges and spin densities:
               1          2
     1  Na   0.582735   0.272803
     2  Na  -1.155331   0.375837
     3  Na  -0.518808  -0.084631
     4  Na   0.389794   0.066319
     5  Na  -1.081014   0.402618
     6  Na   1.109061  -0.027414
     7  Na   0.673564  -0.005532
 Sum of Mulliken charges =  -0.00000   1.00000

 Dipole moment (field-independent basis, Debye):
    X=             -0.3890    Y=              0.1068    Z=             -0.0402  Tot=              0.4054
 Quadrupole moment (field-independent basis, Debye-Ang):
   XX=            -57.1334   YY=            -75.9834   ZZ=            -63.6835
   XY=              0.0015   XZ=              0.5410   YZ=             -4.2757

 Normal termination of Gaussian 16 at Thu Dec  7 23:23:16 2023.
