 Gaussian 16, Revision B.01,
 Gaussian 16:  ES64L-G16RevB.01 20-Dec-2017

 -------------------------
 #P B3LYP/6-311+g(d) force
 -------------------------

 -----
 DPGEN
 -----
 Symbolic Z-matrix:
 Charge =  0 Multiplicity = 2

                         Standard orientation:
 ---------------------------------------------------------------------
 Center     Atomic      Atomic             Coordinates (Angstroms)
 Number     Number       Type             X           Y           Z
 ---------------------------------------------------------------------
      1         11           0       -2.608353   -1.520041   -0.699394
      2         11           0        0.108351   -2.725964    0.375628
      3         11           0        0.103991    0.169170   -1.381322
      4         11           0       -2.095835    2.476791   -0.316785
      5         11           0       -0.715936    0.253385    2.252960
      6         11           0        3.128708   -1.061778   -0.278030
      7         11           0        2.079073    2.408437    0.046943
 ---------------------------------------------------------------------

 SCF Done:  E(UB3LYP) =  -1136.13421317     A.U. after   19 cycles

 The electronic state is 2-A.
 Alpha  occ. eigenvalues --  -38.44267 -38.44003 -38.43862 -38.43818 -38.43773
 Alpha  occ. eigenvalues --  -38.43176 -38.42946  -2.20060  -2.19799  -2.19726
 Alpha  occ. eigenvalues --   -2.19629  -2.19621  -2.19067  -2.18951  -1.13750
 Alpha  occ. eigenvalues --   -1.13728  -1.13679  -1.13483  -1.13461  -1.13434
 Alpha  occ. eigenvalues --   -1.13424  -1.13384  -1.13351  -1.13308  -1.13291
 Alpha  occ. eigenvalues --   -1.13278  -1.13265  -1.13246  -1.13234  -1.12759
 Alpha  occ. eigenvalues --   -1.12724  -1.12704  -1.12639  -1.12596  -1.12577
 Alpha  occ. eigenvalues --   -0.18321  -0.12814  -0.12470  -0.10743
 Alpha virt. eigenvalues --   -0.05867  -0.05154  -0.04717  -0.03037  -0.02975
 Alpha virt. eigenvalues --   -0.02585  -0.01504  -0.01393  -0.00519  -0.00334
 Alpha virt. eigenvalues --   -0.00019   0.00331   0.00747   0.00851   0.00874

  Beta  occ. eigenvalues --  -38.44267 -38.43999 -38.43843 -38.43819 -38.43667
  Beta  occ. eigenvalues --  -38.43168 -38.42902  -2.20060  -2.19795  -2.19693
  Beta  occ. eigenvalues --   -2.19630  -2.19425  -2.19054  -2.18872  -1.13746
  Beta  occ. eigenvalues --   -1.13722  -1.13681  -1.13471  -1.13451  -1.13429
  Beta  occ. eigenvalues --   -1.13402  -1.13345  -1.13328  -1.13304  -1.13288
  Beta  occ. eigenvalues --   -1.13268  -1.13145  -1.13114  -1.13093  -1.12751
  Beta  occ. eigenvalues --   -1.12704  -1.12681  -1.12580  -1.12537  -1.12518
  Beta  occ. eigenvalues --   -0.17629  -0.12602  -0.12281
  Beta virt. eigenvalues --   -0.06754  -0.05879  -0.05052  -0.04646  -0.02336
  Beta virt. eigenvalues --   -0.02260  -0.01552  -0.01436  -0.01300  -0.00522
  Beta virt. eigenvalues --   -0.00323   0.00144   0.00386   0.00763   0.00897

 Mulliken charges and spin densities:
               1          2
     1  Na   0.273044   0.071324
     2  Na   0.203024   0.168257
     3  Na  -0.072533   0.114305
     4  Na   0.026544  -0.036132
     5  Na  -0.511571   0.685630
     6  Na   0.038726   0.003150
     7  Na   0.042767  -0.006534
 Sum of Mulliken charges =  -0.00000   1.00000

 Dipole moment (field-independent basis, Debye):
    X=              0.0258    Y=              0.4482    Z=              0.1266  Tot=              0.4665
 Quadrupole moment (field-independent basis, Debye-Ang):
   XX=            -57.2808   YY=            -61.1071   ZZ=            -74.5772
   XY=             -0.1809   XZ=              1.7876   YZ=              0.1733

 Normal termination of Gaussian 16 at Thu Dec  7 05:33:37 2023.
