 Gaussian 16, Revision B.01,
 Gaussian 16:  ES64L-G16RevB.01 20-Dec-2017

 -------------------------
 #P B3LYP/6-311+g(d) force
 -------------------------

 -----
 DPGEN
 -----
 Symbolic Z-matrix:
 Charge =  0 Multiplicity = 2

                         Standard orientation:
 ---------------------------------------------------------------------
 Center     Atomic      Atomic             Coordinates (Angstroms)
 Number     Number       Type             X           Y           Z
 ---------------------------------------------------------------------
      1         11           0        2.616880   -2.171890   -0.340858
      2         11           0        2.838228    1.214391    0.485920
      3         11           0       -3.031801    1.156229    0.082499
      4         11           0        0.215387   -0.027617    1.929365
      5         11           0       -2.449956   -2.063379    0.468360
      6         11           0        0.133299    2.860422   -0.769944
      7         11           0       -0.322036   -0.968155   -1.855343
 ---------------------------------------------------------------------

 SCF Done:  E(UB3LYP) =  -1136.13134135     A.U. after   20 cycles

 The electronic state is 2-A.
 Alpha  occ. eigenvalues --  -38.44522 -38.44074 -38.44000 -38.44000 -38.43979
 Alpha  occ. eigenvalues --  -38.43787 -38.43012  -2.20328  -2.19940  -2.19845
 Alpha  occ. eigenvalues --   -2.19830  -2.19792  -2.19643  -2.18825  -1.14003
 Alpha  occ. eigenvalues --   -1.13991  -1.13977  -1.13636  -1.13603  -1.13565
 Alpha  occ. eigenvalues --   -1.13521  -1.13502  -1.13493  -1.13487  -1.13481
 Alpha  occ. eigenvalues --   -1.13476  -1.13463  -1.13447  -1.13418  -1.13308
 Alpha  occ. eigenvalues --   -1.13286  -1.13254  -1.12497  -1.12477  -1.12472
 Alpha  occ. eigenvalues --   -0.18024  -0.13462  -0.11916  -0.10828
 Alpha virt. eigenvalues --   -0.06032  -0.05665  -0.04435  -0.03498  -0.02994
 Alpha virt. eigenvalues --   -0.02520  -0.01779  -0.01269  -0.00592  -0.00237
 Alpha virt. eigenvalues --   -0.00043   0.00338   0.00620   0.00715   0.00749

  Beta  occ. eigenvalues --  -38.44519 -38.44000 -38.43997 -38.43990 -38.43971
  Beta  occ. eigenvalues --  -38.43719 -38.42996  -2.20326  -2.19828  -2.19818
  Beta  occ. eigenvalues --   -2.19803  -2.19789  -2.19517  -2.18796  -1.13994
  Beta  occ. eigenvalues --   -1.13991  -1.13965  -1.13565  -1.13520  -1.13500
  Beta  occ. eigenvalues --   -1.13486  -1.13482  -1.13474  -1.13467  -1.13465
  Beta  occ. eigenvalues --   -1.13445  -1.13444  -1.13426  -1.13413  -1.13225
  Beta  occ. eigenvalues --   -1.13198  -1.13162  -1.12475  -1.12459  -1.12444
  Beta  occ. eigenvalues --   -0.17334  -0.13256  -0.11652
  Beta virt. eigenvalues --   -0.07075  -0.05998  -0.05538  -0.04152  -0.02865
  Beta virt. eigenvalues --   -0.02324  -0.01720  -0.01581  -0.01178  -0.00615
  Beta virt. eigenvalues --   -0.00204   0.00105   0.00382   0.00730   0.00773

 Mulliken charges and spin densities:
               1          2
     1  Na  -0.212865  -0.077954
     2  Na   0.277600   0.120059
     3  Na  -0.024652   0.068160
     4  Na   0.159841   0.333659
     5  Na   0.125222   0.001817
     6  Na  -0.422947   0.039573
     7  Na   0.097799   0.514685
 Sum of Mulliken charges =  -0.00000   1.00000

 Dipole moment (field-independent basis, Debye):
    X=             -0.2688    Y=             -0.3699    Z=              0.1804  Tot=              0.4916
 Quadrupole moment (field-independent basis, Debye-Ang):
   XX=            -54.5837   YY=            -67.2785   ZZ=            -73.3458
   XY=             -0.2705   XZ=             -0.6002   YZ=             -1.4168

 Normal termination of Gaussian 16 at Tue Dec  5 15:30:23 2023.
