 Gaussian 16, Revision B.01,
 Gaussian 16:  ES64L-G16RevB.01 20-Dec-2017

 -------------------------
 #P B3LYP/6-311+g(d) force
 -------------------------

 -----
 DPGEN
 -----
 Symbolic Z-matrix:
 Charge =  0 Multiplicity = 2

                         Standard orientation:
 ---------------------------------------------------------------------
 Center     Atomic      Atomic             Coordinates (Angstroms)
 Number     Number       Type             X           Y           Z
 ---------------------------------------------------------------------
      1         11           0       -1.029545   -2.696002   -0.010580
      2         11           0       -1.013175    2.828369   -0.020582
      3         11           0       -3.554862   -0.063044   -0.261901
      4         11           0        0.107750    0.170812   -1.552001
      5         11           0       -0.013510   -0.100498    2.134658
      6         11           0        2.665929   -1.413009   -0.320716
      7         11           0        2.837413    1.273372    0.031122
 ---------------------------------------------------------------------

 SCF Done:  E(UB3LYP) =  -1136.12588908     A.U. after   20 cycles

 The electronic state is 2-A.
 Alpha  occ. eigenvalues --  -38.45242 -38.44434 -38.44104 -38.43644 -38.43467
 Alpha  occ. eigenvalues --  -38.43151 -38.43042  -2.20999  -2.20351  -2.20033
 Alpha  occ. eigenvalues --   -2.19514  -2.19440  -2.18966  -2.18873  -1.14681
 Alpha  occ. eigenvalues --   -1.14642  -1.14637  -1.14291  -1.13981  -1.13959
 Alpha  occ. eigenvalues --   -1.13679  -1.13633  -1.13601  -1.13184  -1.13136
 Alpha  occ. eigenvalues --   -1.13133  -1.13128  -1.13094  -1.13063  -1.12654
 Alpha  occ. eigenvalues --   -1.12628  -1.12591  -1.12555  -1.12546  -1.12501
 Alpha  occ. eigenvalues --   -0.18573  -0.13518  -0.11860  -0.10722
 Alpha virt. eigenvalues --   -0.06573  -0.04939  -0.04341  -0.03435  -0.02606
 Alpha virt. eigenvalues --   -0.02548  -0.02236  -0.00996  -0.00440  -0.00334
 Alpha virt. eigenvalues --   -0.00064   0.00289   0.00710   0.00745   0.00865

  Beta  occ. eigenvalues --  -38.45238 -38.44428 -38.44094 -38.43537 -38.43418
  Beta  occ. eigenvalues --  -38.43150 -38.43038  -2.20992  -2.20345  -2.20018
  Beta  occ. eigenvalues --   -2.19351  -2.19317  -2.18966  -2.18869  -1.14666
  Beta  occ. eigenvalues --   -1.14640  -1.14633  -1.14289  -1.13971  -1.13933
  Beta  occ. eigenvalues --   -1.13661  -1.13610  -1.13588  -1.13080  -1.13038
  Beta  occ. eigenvalues --   -1.13031  -1.13000  -1.12994  -1.12988  -1.12650
  Beta  occ. eigenvalues --   -1.12616  -1.12591  -1.12554  -1.12520  -1.12500
  Beta  occ. eigenvalues --   -0.17843  -0.13279  -0.11649
  Beta virt. eigenvalues --   -0.06813  -0.06471  -0.04942  -0.04312  -0.02665
  Beta virt. eigenvalues --   -0.02123  -0.01847  -0.01507  -0.00944  -0.00478
  Beta virt. eigenvalues --   -0.00355   0.00102   0.00341   0.00769   0.00867

 Mulliken charges and spin densities:
               1          2
     1  Na   0.095856  -0.030056
     2  Na   0.001655  -0.051670
     3  Na  -0.005901  -0.046047
     4  Na  -0.266086   0.252383
     5  Na  -0.521991   0.722733
     6  Na   0.370732   0.085604
     7  Na   0.325735   0.067053
 Sum of Mulliken charges =  -0.00000   1.00000

 Dipole moment (field-independent basis, Debye):
    X=             -0.5245    Y=              0.0604    Z=              0.1472  Tot=              0.5481
 Quadrupole moment (field-independent basis, Debye-Ang):
   XX=            -51.5058   YY=            -67.2512   ZZ=            -74.7553
   XY=              0.2577   XZ=              0.4098   YZ=              0.9543

 Normal termination of Gaussian 16 at Wed Dec  6 00:08:59 2023.
