 Gaussian 16, Revision B.01,
 Gaussian 16:  ES64L-G16RevB.01 20-Dec-2017

 -------------------------
 #P B3LYP/6-311+g(d) force
 -------------------------

 -----
 DPGEN
 -----
 Symbolic Z-matrix:
 Charge =  0 Multiplicity = 2

                         Standard orientation:
 ---------------------------------------------------------------------
 Center     Atomic      Atomic             Coordinates (Angstroms)
 Number     Number       Type             X           Y           Z
 ---------------------------------------------------------------------
      1         11           0        3.066406    0.756942    0.393582
      2         11           0       -0.149010    0.308344    1.876556
      3         11           0       -0.134822   -0.042928   -1.774622
      4         11           0       -1.636690   -2.324250    0.148283
      5         11           0       -0.051133    2.836433   -0.471174
      6         11           0       -2.982485    0.624852    0.127724
      7         11           0        1.887734   -2.159393   -0.300348
 ---------------------------------------------------------------------

 SCF Done:  E(UB3LYP) =  -1136.13825141     A.U. after   19 cycles

 The electronic state is 2-A.
 Alpha  occ. eigenvalues --  -38.44047 -38.44010 -38.43547 -38.43296 -38.43264
 Alpha  occ. eigenvalues --  -38.43210 -38.43203  -2.19888  -2.19878  -2.19483
 Alpha  occ. eigenvalues --   -2.19256  -2.19172  -2.19103  -2.19068  -1.13574
 Alpha  occ. eigenvalues --   -1.13559  -1.13557  -1.13545  -1.13518  -1.13512
 Alpha  occ. eigenvalues --   -1.13162  -1.13116  -1.13102  -1.12957  -1.12947
 Alpha  occ. eigenvalues --   -1.12899  -1.12827  -1.12822  -1.12812  -1.12770
 Alpha  occ. eigenvalues --   -1.12765  -1.12733  -1.12726  -1.12721  -1.12681
 Alpha  occ. eigenvalues --   -0.18981  -0.13230  -0.12388  -0.10977
 Alpha virt. eigenvalues --   -0.05704  -0.04895  -0.04513  -0.03319  -0.02941
 Alpha virt. eigenvalues --   -0.02606  -0.01567  -0.00964  -0.00272  -0.00076
 Alpha virt. eigenvalues --    0.00014   0.00369   0.00843   0.00899   0.00949

  Beta  occ. eigenvalues --  -38.44040 -38.44003 -38.43470 -38.43291 -38.43204
  Beta  occ. eigenvalues --  -38.43189 -38.43183  -2.19879  -2.19867  -2.19341
  Beta  occ. eigenvalues --   -2.19165  -2.19109  -2.19096  -2.19047  -1.13569
  Beta  occ. eigenvalues --   -1.13552  -1.13536  -1.13521  -1.13506  -1.13505
  Beta  occ. eigenvalues --   -1.13070  -1.13020  -1.12995  -1.12891  -1.12861
  Beta  occ. eigenvalues --   -1.12834  -1.12811  -1.12803  -1.12760  -1.12751
  Beta  occ. eigenvalues --   -1.12744  -1.12712  -1.12699  -1.12680  -1.12665
  Beta  occ. eigenvalues --   -0.18246  -0.12975  -0.12106
  Beta virt. eigenvalues --   -0.07065  -0.05644  -0.04892  -0.04476  -0.02540
  Beta virt. eigenvalues --   -0.02161  -0.01555  -0.01456  -0.00897  -0.00288
  Beta virt. eigenvalues --   -0.00122   0.00123   0.00391   0.00883   0.00896

 Mulliken charges and spin densities:
               1          2
     1  Na   0.018292  -0.010814
     2  Na  -0.368463   0.642660
     3  Na  -0.168960   0.577270
     4  Na   0.052235  -0.047464
     5  Na   0.071144  -0.064686
     6  Na   0.305459  -0.044370
     7  Na   0.090293  -0.052596
 Sum of Mulliken charges =  -0.00000   1.00000

 Dipole moment (field-independent basis, Debye):
    X=             -0.0500    Y=              0.1909    Z=              0.1602  Tot=              0.2542
 Quadrupole moment (field-independent basis, Debye-Ang):
   XX=            -56.2097   YY=            -64.4340   ZZ=            -73.2415
   XY=              0.2719   XZ=              0.2270   YZ=             -0.4417

 Normal termination of Gaussian 16 at Fri Dec  8 04:17:10 2023.
