 Gaussian 16, Revision B.01,
 Gaussian 16:  ES64L-G16RevB.01 20-Dec-2017

 -------------------------
 #P B3LYP/6-311+g(d) force
 -------------------------

 -----
 DPGEN
 -----
 Symbolic Z-matrix:
 Charge =  0 Multiplicity = 2

                         Standard orientation:
 ---------------------------------------------------------------------
 Center     Atomic      Atomic             Coordinates (Angstroms)
 Number     Number       Type             X           Y           Z
 ---------------------------------------------------------------------
      1         11           0        3.043136    0.352454   -0.071596
      2         11           0        0.549959    3.095673   -0.166735
      3         11           0       -0.002675   -0.279426   -1.670447
      4         11           0       -2.751771    1.397069   -0.082351
      5         11           0        1.320116   -2.584664   -0.142856
      6         11           0       -2.326919   -1.929321    0.036777
      7         11           0        0.168154   -0.051786    2.097208
 ---------------------------------------------------------------------

 SCF Done:  E(UB3LYP) =  -1136.13910784     A.U. after   19 cycles

 The electronic state is 2-A.
 Alpha  occ. eigenvalues --  -38.43894 -38.43818 -38.43662 -38.43600 -38.43589
 Alpha  occ. eigenvalues --  -38.43455 -38.43252  -2.19734  -2.19640  -2.19537
 Alpha  occ. eigenvalues --   -2.19455  -2.19381  -2.19347  -2.19230  -1.13412
 Alpha  occ. eigenvalues --   -1.13405  -1.13372  -1.13319  -1.13311  -1.13284
 Alpha  occ. eigenvalues --   -1.13205  -1.13163  -1.13160  -1.13147  -1.13114
 Alpha  occ. eigenvalues --   -1.13107  -1.13085  -1.13058  -1.13040  -1.13023
 Alpha  occ. eigenvalues --   -1.12997  -1.12963  -1.12893  -1.12843  -1.12837
 Alpha  occ. eigenvalues --   -0.18610  -0.12980  -0.12452  -0.10763
 Alpha virt. eigenvalues --   -0.05491  -0.05188  -0.04909  -0.03163  -0.02898
 Alpha virt. eigenvalues --   -0.02619  -0.01386  -0.01156  -0.00481  -0.00384
 Alpha virt. eigenvalues --   -0.00016   0.00367   0.00819   0.00882   0.00893

  Beta  occ. eigenvalues --  -38.43890 -38.43816 -38.43596 -38.43588 -38.43563
  Beta  occ. eigenvalues --  -38.43446 -38.43187  -2.19730  -2.19639  -2.19451
  Beta  occ. eigenvalues --   -2.19382  -2.19355  -2.19336  -2.19112  -1.13409
  Beta  occ. eigenvalues --   -1.13378  -1.13372  -1.13319  -1.13293  -1.13286
  Beta  occ. eigenvalues --   -1.13141  -1.13100  -1.13093  -1.13083  -1.13071
  Beta  occ. eigenvalues --   -1.13046  -1.13043  -1.13030  -1.13027  -1.13022
  Beta  occ. eigenvalues --   -1.12963  -1.12958  -1.12817  -1.12759  -1.12757
  Beta  occ. eigenvalues --   -0.17870  -0.12757  -0.12232
  Beta virt. eigenvalues --   -0.06818  -0.05485  -0.05204  -0.04822  -0.02361
  Beta virt. eigenvalues --   -0.02125  -0.01554  -0.01300  -0.01084  -0.00534
  Beta virt. eigenvalues --   -0.00453   0.00131   0.00392   0.00864   0.00870

 Mulliken charges and spin densities:
               1          2
     1  Na   0.144990  -0.061336
     2  Na  -0.070087  -0.104001
     3  Na  -0.208961   0.509221
     4  Na  -0.016452  -0.085342
     5  Na   0.440068  -0.016136
     6  Na   0.232041  -0.037166
     7  Na  -0.521599   0.794760
 Sum of Mulliken charges =  -0.00000   1.00000

 Dipole moment (field-independent basis, Debye):
    X=              0.0314    Y=              0.0228    Z=              0.1385  Tot=              0.1438
 Quadrupole moment (field-independent basis, Debye-Ang):
   XX=            -57.9608   YY=            -61.3807   ZZ=            -74.4192
   XY=              0.1409   XZ=             -0.3775   YZ=             -0.5146

 Normal termination of Gaussian 16 at Thu Dec  7 17:47:24 2023.
