 Gaussian 16, Revision B.01,
 Gaussian 16:  ES64L-G16RevB.01 20-Dec-2017

 -------------------------
 #P B3LYP/6-311+g(d) force
 -------------------------

 -----
 DPGEN
 -----
 Symbolic Z-matrix:
 Charge =  0 Multiplicity = 2

                         Standard orientation:
 ---------------------------------------------------------------------
 Center     Atomic      Atomic             Coordinates (Angstroms)
 Number     Number       Type             X           Y           Z
 ---------------------------------------------------------------------
      1         11           0        4.004355   -1.447282   -1.115252
      2         11           0       -2.137208   -2.130789    1.488447
      3         11           0        3.719682    2.105324    0.121909
      4         11           0        1.025898   -2.932475    0.318178
      5         11           0        0.333826    2.829744    1.017013
      6         11           0       -3.155322    2.275684   -0.647066
      7         11           0       -3.791232   -0.700207   -1.183229
 ---------------------------------------------------------------------

 SCF Done:  E(UB3LYP) =  -1136.10803739     A.U. after   22 cycles

 The electronic state is 2-A.
 Alpha  occ. eigenvalues --  -38.45144 -38.44994 -38.44641 -38.44523 -38.44227
 Alpha  occ. eigenvalues --  -38.44200 -38.44064  -2.20879  -2.20820  -2.20443
 Alpha  occ. eigenvalues --   -2.20277  -2.20004  -2.19987  -2.19850  -1.14567
 Alpha  occ. eigenvalues --   -1.14545  -1.14520  -1.14518  -1.14478  -1.14454
 Alpha  occ. eigenvalues --   -1.14107  -1.14091  -1.14076  -1.13967  -1.13959
 Alpha  occ. eigenvalues --   -1.13912  -1.13666  -1.13654  -1.13651  -1.13647
 Alpha  occ. eigenvalues --   -1.13630  -1.13607  -1.13506  -1.13487  -1.13478
 Alpha  occ. eigenvalues --   -0.15823  -0.13951  -0.12790  -0.10814
 Alpha virt. eigenvalues --   -0.07465  -0.05156  -0.04558  -0.03609  -0.03468
 Alpha virt. eigenvalues --   -0.02187  -0.02110  -0.01653  -0.01373  -0.00809
 Alpha virt. eigenvalues --   -0.00624  -0.00398  -0.00023   0.00446   0.00589

  Beta  occ. eigenvalues --  -38.45146 -38.44964 -38.44617 -38.44519 -38.44180
  Beta  occ. eigenvalues --  -38.44153 -38.43994  -2.20888  -2.20770  -2.20402
  Beta  occ. eigenvalues --   -2.20275  -2.19920  -2.19901  -2.19720  -1.14576
  Beta  occ. eigenvalues --   -1.14554  -1.14498  -1.14474  -1.14447  -1.14408
  Beta  occ. eigenvalues --   -1.14079  -1.14067  -1.14030  -1.13969  -1.13962
  Beta  occ. eigenvalues --   -1.13875  -1.13610  -1.13596  -1.13595  -1.13589
  Beta  occ. eigenvalues --   -1.13567  -1.13547  -1.13417  -1.13402  -1.13392
  Beta  occ. eigenvalues --   -0.15313  -0.13250  -0.12121
  Beta virt. eigenvalues --   -0.07685  -0.07651  -0.04649  -0.04035  -0.03351
  Beta virt. eigenvalues --   -0.03239  -0.01997  -0.01880  -0.01376  -0.01104
  Beta virt. eigenvalues --   -0.00676  -0.00499  -0.00109   0.00200   0.00472

 Mulliken charges and spin densities:
               1          2
     1  Na   0.157331   0.345595
     2  Na  -0.216033   0.195147
     3  Na   0.163104  -0.015159
     4  Na  -0.167694   0.034665
     5  Na  -0.274210   0.216601
     6  Na   0.118927   0.081537
     7  Na   0.218575   0.141614
 Sum of Mulliken charges =  -0.00000   1.00000

 Dipole moment (field-independent basis, Debye):
    X=             -0.6019    Y=              0.1541    Z=             -0.2648  Tot=              0.6754
 Quadrupole moment (field-independent basis, Debye-Ang):
   XX=            -59.7676   YY=            -70.3068   ZZ=            -70.2199
   XY=              3.5015   XZ=             -0.9253   YZ=              1.6270

 Normal termination of Gaussian 16 at Sun Dec  3 12:09:31 2023.
