 Gaussian 16, Revision B.01,
 Gaussian 16:  ES64L-G16RevB.01 20-Dec-2017

 -------------------------
 #P B3LYP/6-311+g(d) force
 -------------------------

 -----
 DPGEN
 -----
 Symbolic Z-matrix:
 Charge =  0 Multiplicity = 2

                         Standard orientation:
 ---------------------------------------------------------------------
 Center     Atomic      Atomic             Coordinates (Angstroms)
 Number     Number       Type             X           Y           Z
 ---------------------------------------------------------------------
      1         11           0       -3.489864   -1.099430   -1.334354
      2         11           0       -0.046566   -1.223910   -0.437098
      3         11           0        0.825248    0.143753    2.270418
      4         11           0       -2.883412    0.073837    1.438572
      5         11           0        3.957917   -1.459432   -0.324826
      6         11           0        2.496380    1.502266   -0.745974
      7         11           0       -0.859704    2.062916   -0.866738
 ---------------------------------------------------------------------

 SCF Done:  E(UB3LYP) =  -1136.11911594     A.U. after   30 cycles

 The electronic state is 2-A.
 Alpha  occ. eigenvalues --  -38.45001 -38.44882 -38.44237 -38.44168 -38.43530
 Alpha  occ. eigenvalues --  -38.43444 -38.43221  -2.20867  -2.20772  -2.20100
 Alpha  occ. eigenvalues --   -2.20037  -2.19379  -2.19225  -2.19093  -1.14547
 Alpha  occ. eigenvalues --   -1.14543  -1.14521  -1.14492  -1.14448  -1.14353
 Alpha  occ. eigenvalues --   -1.13810  -1.13732  -1.13722  -1.13690  -1.13685
 Alpha  occ. eigenvalues --   -1.13650  -1.13059  -1.13025  -1.13019  -1.12909
 Alpha  occ. eigenvalues --   -1.12896  -1.12863  -1.12789  -1.12731  -1.12702
 Alpha  occ. eigenvalues --   -0.18445  -0.14123  -0.11580  -0.10782
 Alpha virt. eigenvalues --   -0.06903  -0.05272  -0.04805  -0.03317  -0.02841
 Alpha virt. eigenvalues --   -0.02488  -0.02096  -0.01235  -0.00999  -0.00310
 Alpha virt. eigenvalues --    0.00020   0.00180   0.00313   0.00413   0.00712

  Beta  occ. eigenvalues --  -38.44984 -38.44853 -38.44162 -38.44138 -38.43523
  Beta  occ. eigenvalues --  -38.43462 -38.43174  -2.20838  -2.20726  -2.19982
  Beta  occ. eigenvalues --   -2.19964  -2.19367  -2.19260  -2.19006  -1.14522
  Beta  occ. eigenvalues --   -1.14512  -1.14472  -1.14445  -1.14421  -1.14323
  Beta  occ. eigenvalues --   -1.13712  -1.13683  -1.13665  -1.13612  -1.13611
  Beta  occ. eigenvalues --   -1.13592  -1.13055  -1.13014  -1.13005  -1.12932
  Beta  occ. eigenvalues --   -1.12918  -1.12884  -1.12728  -1.12661  -1.12644
  Beta  occ. eigenvalues --   -0.17704  -0.14064  -0.10527
  Beta virt. eigenvalues --   -0.07575  -0.06728  -0.05181  -0.04204  -0.02789
  Beta virt. eigenvalues --   -0.02713  -0.01965  -0.01627  -0.01023  -0.00557
  Beta virt. eigenvalues --   -0.00264   0.00026   0.00230   0.00410   0.00541

 Mulliken charges and spin densities:
               1          2
     1  Na   1.066299  -0.101753
     2  Na  -1.643829   0.578578
     3  Na  -0.067346   0.315082
     4  Na   0.515940   0.040402
     5  Na   0.405855  -0.113754
     6  Na   0.059085   0.057173
     7  Na  -0.336005   0.224272
 Sum of Mulliken charges =  -0.00000   1.00000

 Dipole moment (field-independent basis, Debye):
    X=             -0.5593    Y=              0.7002    Z=              0.7085  Tot=              1.1424
 Quadrupole moment (field-independent basis, Debye-Ang):
   XX=            -58.5593   YY=            -73.8552   ZZ=            -67.2899
   XY=             -0.2839   XZ=             -0.1046   YZ=             -0.8051

 Normal termination of Gaussian 16 at Thu Dec  7 04:55:14 2023.
