 Gaussian 16, Revision B.01,
 Gaussian 16:  ES64L-G16RevB.01 20-Dec-2017

 -------------------------
 #P B3LYP/6-311+g(d) force
 -------------------------

 -----
 DPGEN
 -----
 Symbolic Z-matrix:
 Charge =  0 Multiplicity = 2

                         Standard orientation:
 ---------------------------------------------------------------------
 Center     Atomic      Atomic             Coordinates (Angstroms)
 Number     Number       Type             X           Y           Z
 ---------------------------------------------------------------------
      1         11           0       -1.797423    2.864913   -0.597580
      2         11           0        0.771759   -2.940905   -0.092913
      3         11           0        3.718726   -0.918751   -1.034051
      4         11           0        1.135356    2.833161   -0.446074
      5         11           0        3.485843    0.386266    1.686915
      6         11           0       -4.315255    0.303310    0.820728
      7         11           0       -2.999007   -2.527993   -0.337025
 ---------------------------------------------------------------------

 SCF Done:  E(UB3LYP) =  -1136.10827488     A.U. after   21 cycles

 The electronic state is 2-A.
 Alpha  occ. eigenvalues --  -38.45437 -38.45262 -38.44306 -38.44096 -38.44053
 Alpha  occ. eigenvalues --  -38.43750 -38.43676  -2.21248  -2.21087  -2.20063
 Alpha  occ. eigenvalues --   -2.19878  -2.19854  -2.19579  -2.19496  -1.14998
 Alpha  occ. eigenvalues --   -1.14904  -1.14888  -1.14724  -1.14714  -1.14692
 Alpha  occ. eigenvalues --   -1.13750  -1.13742  -1.13719  -1.13543  -1.13528
 Alpha  occ. eigenvalues --   -1.13505  -1.13487  -1.13482  -1.13479  -1.13395
 Alpha  occ. eigenvalues --   -1.13238  -1.13213  -1.13145  -1.13128  -1.13067
 Alpha  occ. eigenvalues --   -0.16090  -0.13995  -0.12770  -0.10513
 Alpha virt. eigenvalues --   -0.06998  -0.05812  -0.04363  -0.03482  -0.02912
 Alpha virt. eigenvalues --   -0.02624  -0.02042  -0.01621  -0.01139  -0.00788
 Alpha virt. eigenvalues --   -0.00576  -0.00060   0.00154   0.00294   0.00548

  Beta  occ. eigenvalues --  -38.45436 -38.45211 -38.44317 -38.44017 -38.43989
  Beta  occ. eigenvalues --  -38.43727 -38.43662  -2.21252  -2.20993  -2.20089
  Beta  occ. eigenvalues --   -2.19734  -2.19730  -2.19540  -2.19476  -1.14978
  Beta  occ. eigenvalues --   -1.14910  -1.14875  -1.14654  -1.14651  -1.14641
  Beta  occ. eigenvalues --   -1.13773  -1.13763  -1.13698  -1.13441  -1.13429
  Beta  occ. eigenvalues --   -1.13423  -1.13409  -1.13403  -1.13385  -1.13355
  Beta  occ. eigenvalues --   -1.13214  -1.13187  -1.13134  -1.13116  -1.13028
  Beta  occ. eigenvalues --   -0.15606  -0.13411  -0.12064
  Beta virt. eigenvalues --   -0.07340  -0.06927  -0.05635  -0.03952  -0.03192
  Beta virt. eigenvalues --   -0.02403  -0.02306  -0.01831  -0.01525  -0.00964
  Beta virt. eigenvalues --   -0.00652  -0.00219   0.00115   0.00309   0.00352

 Mulliken charges and spin densities:
               1          2
     1  Na   0.017194   0.044633
     2  Na  -0.457060   0.381988
     3  Na   0.468045   0.075933
     4  Na  -0.270990  -0.001171
     5  Na   0.344229   0.275016
     6  Na  -0.114839   0.313235
     7  Na   0.013421  -0.089635
 Sum of Mulliken charges =  -0.00000   1.00000

 Dipole moment (field-independent basis, Debye):
    X=              1.7477    Y=             -0.2357    Z=              0.2894  Tot=              1.7871
 Quadrupole moment (field-independent basis, Debye-Ang):
   XX=            -61.6461   YY=            -75.6925   ZZ=            -64.8943
   XY=             -1.9047   XZ=             -1.8007   YZ=              2.7832

 Normal termination of Gaussian 16 at Sun Dec  3 21:18:49 2023.
