 Gaussian 16, Revision B.01,
 Gaussian 16:  ES64L-G16RevB.01 20-Dec-2017

 -------------------------
 #P B3LYP/6-311+g(d) force
 -------------------------

 -----
 DPGEN
 -----
 Symbolic Z-matrix:
 Charge =  0 Multiplicity = 2

                         Standard orientation:
 ---------------------------------------------------------------------
 Center     Atomic      Atomic             Coordinates (Angstroms)
 Number     Number       Type             X           Y           Z
 ---------------------------------------------------------------------
      1         11           0       -2.730867    2.145472   -0.353119
      2         11           0        2.806114    2.037910    0.256406
      3         11           0       -2.036710   -3.344188    1.024269
      4         11           0        1.619927   -2.831275    0.078648
      5         11           0        4.485263   -0.935310   -0.642143
      6         11           0       -0.468007    4.012545    0.566418
      7         11           0       -3.675720   -1.085154   -0.930479
 ---------------------------------------------------------------------

 SCF Done:  E(UB3LYP) =  -1136.11092627     A.U. after   23 cycles

 The electronic state is 2-A.
 Alpha  occ. eigenvalues --  -38.46173 -38.45582 -38.44411 -38.44153 -38.44038
 Alpha  occ. eigenvalues --  -38.43927 -38.43526  -2.21906  -2.21329  -2.20230
 Alpha  occ. eigenvalues --   -2.19933  -2.19849  -2.19735  -2.19348  -1.15603
 Alpha  occ. eigenvalues --   -1.15585  -1.15512  -1.15022  -1.15009  -1.14932
 Alpha  occ. eigenvalues --   -1.13910  -1.13898  -1.13894  -1.13606  -1.13599
 Alpha  occ. eigenvalues --   -1.13575  -1.13513  -1.13508  -1.13465  -1.13391
 Alpha  occ. eigenvalues --   -1.13390  -1.13368  -1.13019  -1.12997  -1.12977
 Alpha  occ. eigenvalues --   -0.15650  -0.13970  -0.13429  -0.10595
 Alpha virt. eigenvalues --   -0.07703  -0.05082  -0.04343  -0.03603  -0.03299
 Alpha virt. eigenvalues --   -0.02203  -0.02166  -0.02031  -0.01580  -0.00899
 Alpha virt. eigenvalues --   -0.00434  -0.00034   0.00065   0.00451   0.00650

  Beta  occ. eigenvalues --  -38.46150 -38.45550 -38.44394 -38.44132 -38.43999
  Beta  occ. eigenvalues --  -38.43893 -38.43503  -2.21867  -2.21273  -2.20202
  Beta  occ. eigenvalues --   -2.19895  -2.19779  -2.19671  -2.19304  -1.15581
  Beta  occ. eigenvalues --   -1.15563  -1.15454  -1.14987  -1.14975  -1.14865
  Beta  occ. eigenvalues --   -1.13888  -1.13881  -1.13854  -1.13584  -1.13576
  Beta  occ. eigenvalues --   -1.13533  -1.13467  -1.13458  -1.13408  -1.13348
  Beta  occ. eigenvalues --   -1.13345  -1.13327  -1.12998  -1.12967  -1.12940
  Beta  occ. eigenvalues --   -0.15147  -0.13452  -0.12911
  Beta virt. eigenvalues --   -0.07777  -0.07172  -0.04666  -0.03926  -0.03363
  Beta virt. eigenvalues --   -0.02877  -0.02049  -0.01978  -0.01867  -0.01420
  Beta virt. eigenvalues --   -0.00605  -0.00163   0.00217   0.00296   0.00435

 Mulliken charges and spin densities:
               1          2
     1  Na  -0.352753   0.053327
     2  Na  -0.344654   0.243299
     3  Na  -0.094983  -0.013914
     4  Na  -0.373318   0.260796
     5  Na   0.745422   0.210903
     6  Na   0.623772   0.232089
     7  Na  -0.203486   0.013500
 Sum of Mulliken charges =  -0.00000   1.00000

 Dipole moment (field-independent basis, Debye):
    X=              1.1493    Y=             -0.2200    Z=              0.0264  Tot=              1.1705
 Quadrupole moment (field-independent basis, Debye-Ang):
   XX=            -62.2163   YY=            -66.0447   ZZ=            -71.7624
   XY=              1.8690   XZ=             -1.1803   YZ=              1.1302

 Normal termination of Gaussian 16 at Mon Dec  4 01:49:31 2023.
