 Gaussian 16, Revision B.01,
 Gaussian 16:  ES64L-G16RevB.01 20-Dec-2017

 -------------------------
 #P B3LYP/6-311+g(d) force
 -------------------------

 -----
 DPGEN
 -----
 Symbolic Z-matrix:
 Charge =  0 Multiplicity = 2

                         Standard orientation:
 ---------------------------------------------------------------------
 Center     Atomic      Atomic             Coordinates (Angstroms)
 Number     Number       Type             X           Y           Z
 ---------------------------------------------------------------------
      1         11           0        3.551184   -1.532858   -1.148537
      2         11           0        2.518354    1.668984   -1.241552
      3         11           0        0.988529   -1.609812    0.998503
      4         11           0       -2.154580   -1.666700    1.451491
      5         11           0        0.626749    1.879251    2.319512
      6         11           0       -1.935967    1.565283   -0.398224
      7         11           0       -3.594270   -0.304148   -1.981192
 ---------------------------------------------------------------------

 SCF Done:  E(UB3LYP) =  -1136.11511153     A.U. after   26 cycles

 The electronic state is 2-A.
 Alpha  occ. eigenvalues --  -38.45000 -38.44726 -38.44441 -38.44037 -38.43980
 Alpha  occ. eigenvalues --  -38.43744 -38.43146  -2.20764  -2.20546  -2.20231
 Alpha  occ. eigenvalues --   -2.19900  -2.19801  -2.19614  -2.18976  -1.14445
 Alpha  occ. eigenvalues --   -1.14419  -1.14404  -1.14253  -1.14186  -1.14148
 Alpha  occ. eigenvalues --   -1.13902  -1.13883  -1.13842  -1.13603  -1.13563
 Alpha  occ. eigenvalues --   -1.13535  -1.13484  -1.13451  -1.13424  -1.13305
 Alpha  occ. eigenvalues --   -1.13257  -1.13231  -1.12657  -1.12620  -1.12607
 Alpha  occ. eigenvalues --   -0.17198  -0.13664  -0.12229  -0.11134
 Alpha virt. eigenvalues --   -0.06274  -0.05222  -0.04945  -0.03516  -0.03191
 Alpha virt. eigenvalues --   -0.02703  -0.01595  -0.01273  -0.00935  -0.00526
 Alpha virt. eigenvalues --   -0.00163   0.00077   0.00312   0.00458   0.00564

  Beta  occ. eigenvalues --  -38.44991 -38.44681 -38.44384 -38.44014 -38.43953
  Beta  occ. eigenvalues --  -38.43700 -38.43147  -2.20749  -2.20464  -2.20127
  Beta  occ. eigenvalues --   -2.19860  -2.19751  -2.19536  -2.18979  -1.14436
  Beta  occ. eigenvalues --   -1.14411  -1.14379  -1.14188  -1.14134  -1.14090
  Beta  occ. eigenvalues --   -1.13828  -1.13807  -1.13771  -1.13567  -1.13528
  Beta  occ. eigenvalues --   -1.13512  -1.13440  -1.13418  -1.13396  -1.13251
  Beta  occ. eigenvalues --   -1.13196  -1.13172  -1.12657  -1.12622  -1.12606
  Beta  occ. eigenvalues --   -0.16442  -0.13453  -0.10971
  Beta virt. eigenvalues --   -0.08425  -0.05665  -0.04819  -0.04715  -0.02955
  Beta virt. eigenvalues --   -0.02842  -0.02416  -0.01511  -0.00917  -0.00750
  Beta virt. eigenvalues --   -0.00272   0.00054   0.00206   0.00362   0.00525

 Mulliken charges and spin densities:
               1          2
     1  Na   0.572355   0.029241
     2  Na  -0.061965  -0.005558
     3  Na  -0.630684   0.346965
     4  Na   0.124553   0.189591
     5  Na   0.275870   0.286547
     6  Na  -0.510193   0.134007
     7  Na   0.230064   0.019207
 Sum of Mulliken charges =  -0.00000   1.00000

 Dipole moment (field-independent basis, Debye):
    X=              0.4882    Y=             -0.0141    Z=              0.3822  Tot=              0.6202
 Quadrupole moment (field-independent basis, Debye-Ang):
   XX=            -66.1128   YY=            -61.8630   ZZ=            -71.6816
   XY=              4.3864   XZ=             -2.3490   YZ=              2.5683

 Normal termination of Gaussian 16 at Sun Dec  3 22:48:57 2023.
