 Gaussian 16, Revision B.01,
 Gaussian 16:  ES64L-G16RevB.01 20-Dec-2017

 -------------------------
 #P B3LYP/6-311+g(d) force
 -------------------------

 -----
 DPGEN
 -----
 Symbolic Z-matrix:
 Charge =  0 Multiplicity = 2

                         Standard orientation:
 ---------------------------------------------------------------------
 Center     Atomic      Atomic             Coordinates (Angstroms)
 Number     Number       Type             X           Y           Z
 ---------------------------------------------------------------------
      1         11           0       -3.377103    0.479548   -0.070367
      2         11           0        0.008701   -0.277894   -1.804569
      3         11           0        2.030152   -2.294234    0.150408
      4         11           0       -1.574886   -2.157837    0.135488
      5         11           0       -0.052209    0.394803    1.837762
      6         11           0        3.149807    1.083604   -0.079130
      7         11           0       -0.184463    2.772009   -0.169592
 ---------------------------------------------------------------------

 SCF Done:  E(UB3LYP) =  -1136.13503145     A.U. after   19 cycles

 The electronic state is 2-A.
 Alpha  occ. eigenvalues --  -38.44602 -38.44578 -38.43432 -38.43339 -38.43330
 Alpha  occ. eigenvalues --  -38.43185 -38.43175  -2.20413  -2.20367  -2.19284
 Alpha  occ. eigenvalues --   -2.19266  -2.19261  -2.19094  -2.19045  -1.14096
 Alpha  occ. eigenvalues --   -1.14073  -1.14044  -1.14044  -1.14022  -1.14005
 Alpha  occ. eigenvalues --   -1.13019  -1.12981  -1.12946  -1.12941  -1.12930
 Alpha  occ. eigenvalues --   -1.12919  -1.12907  -1.12875  -1.12865  -1.12761
 Alpha  occ. eigenvalues --   -1.12748  -1.12717  -1.12711  -1.12709  -1.12648
 Alpha  occ. eigenvalues --   -0.18669  -0.13183  -0.12229  -0.10566
 Alpha virt. eigenvalues --   -0.06278  -0.05100  -0.04313  -0.03188  -0.02798
 Alpha virt. eigenvalues --   -0.02362  -0.02032  -0.01129  -0.00384  -0.00189
 Alpha virt. eigenvalues --   -0.00036   0.00328   0.00752   0.00860   0.00880

  Beta  occ. eigenvalues --  -38.44601 -38.44577 -38.43429 -38.43262 -38.43251
  Beta  occ. eigenvalues --  -38.43177 -38.43164  -2.20414  -2.20368  -2.19261
  Beta  occ. eigenvalues --   -2.19142  -2.19118  -2.19079  -2.19034  -1.14100
  Beta  occ. eigenvalues --   -1.14054  -1.14048  -1.14028  -1.14024  -1.14009
  Beta  occ. eigenvalues --   -1.12955  -1.12918  -1.12909  -1.12908  -1.12892
  Beta  occ. eigenvalues --   -1.12838  -1.12828  -1.12784  -1.12764  -1.12735
  Beta  occ. eigenvalues --   -1.12705  -1.12696  -1.12693  -1.12664  -1.12645
  Beta  occ. eigenvalues --   -0.17923  -0.12984  -0.11979
  Beta virt. eigenvalues --   -0.06658  -0.06236  -0.05112  -0.04277  -0.02434
  Beta virt. eigenvalues --   -0.02006  -0.01933  -0.01318  -0.01084  -0.00434
  Beta virt. eigenvalues --   -0.00228   0.00110   0.00345   0.00792   0.00863

 Mulliken charges and spin densities:
               1          2
     1  Na   0.153870  -0.072171
     2  Na  -0.317361   0.724891
     3  Na   0.081036  -0.082189
     4  Na   0.272249  -0.013014
     5  Na  -0.339019   0.726082
     6  Na   0.072161  -0.105726
     7  Na   0.077064  -0.177872
 Sum of Mulliken charges =  -0.00000   1.00000

 Dipole moment (field-independent basis, Debye):
    X=              0.0698    Y=              0.2628    Z=             -0.0176  Tot=              0.2725
 Quadrupole moment (field-independent basis, Debye-Ang):
   XX=            -50.7488   YY=            -66.1316   ZZ=            -75.1827
   XY=             -0.6182   XZ=              0.2305   YZ=             -1.5759

 Normal termination of Gaussian 16 at Thu Dec  7 03:30:13 2023.
