 Gaussian 16, Revision B.01,
 Gaussian 16:  ES64L-G16RevB.01 20-Dec-2017

 -------------------------
 #P B3LYP/6-311+g(d) force
 -------------------------

 -----
 DPGEN
 -----
 Symbolic Z-matrix:
 Charge =  0 Multiplicity = 2

                         Standard orientation:
 ---------------------------------------------------------------------
 Center     Atomic      Atomic             Coordinates (Angstroms)
 Number     Number       Type             X           Y           Z
 ---------------------------------------------------------------------
      1         11           0        4.327102    0.084231    0.330692
      2         11           0       -4.176875   -0.048051   -0.215261
      3         11           0        1.916946   -1.937980   -0.410860
      4         11           0       -1.506268   -0.616280   -1.780952
      5         11           0       -0.885880   -1.361534    1.711986
      6         11           0       -1.152858    1.793459    1.234259
      7         11           0        1.477833    2.086156   -0.869862
 ---------------------------------------------------------------------

 SCF Done:  E(UB3LYP) =  -1136.11251028     A.U. after   30 cycles

 The electronic state is 2-A.
 Alpha  occ. eigenvalues --  -38.45659 -38.45625 -38.45082 -38.43849 -38.43108
 Alpha  occ. eigenvalues --  -38.43046 -38.42963  -2.21441  -2.21436  -2.20922
 Alpha  occ. eigenvalues --   -2.19728  -2.18933  -2.18846  -2.18835  -1.15127
 Alpha  occ. eigenvalues --   -1.15102  -1.15098  -1.15080  -1.15065  -1.15063
 Alpha  occ. eigenvalues --   -1.14594  -1.14573  -1.14546  -1.13411  -1.13352
 Alpha  occ. eigenvalues --   -1.13345  -1.12621  -1.12608  -1.12569  -1.12552
 Alpha  occ. eigenvalues --   -1.12537  -1.12520  -1.12485  -1.12464  -1.12434
 Alpha  occ. eigenvalues --   -0.17869  -0.14105  -0.11211  -0.10848
 Alpha virt. eigenvalues --   -0.07942  -0.04831  -0.04259  -0.03672  -0.02991
 Alpha virt. eigenvalues --   -0.02476  -0.02369  -0.01305  -0.00990  -0.00620
 Alpha virt. eigenvalues --   -0.00073   0.00094   0.00182   0.00663   0.00806

  Beta  occ. eigenvalues --  -38.45649 -38.45576 -38.45047 -38.43764 -38.43108
  Beta  occ. eigenvalues --  -38.43045 -38.42925  -2.21417  -2.21354  -2.20862
  Beta  occ. eigenvalues --   -2.19572  -2.18934  -2.18845  -2.18770  -1.15089
  Beta  occ. eigenvalues --   -1.15084  -1.15055  -1.15052  -1.15023  -1.14997
  Beta  occ. eigenvalues --   -1.14546  -1.14527  -1.14497  -1.13299  -1.13244
  Beta  occ. eigenvalues --   -1.13237  -1.12624  -1.12607  -1.12558  -1.12546
  Beta  occ. eigenvalues --   -1.12528  -1.12478  -1.12462  -1.12422  -1.12402
  Beta  occ. eigenvalues --   -0.17239  -0.13694  -0.10716
  Beta virt. eigenvalues --   -0.07798  -0.07286  -0.04696  -0.03975  -0.03122
  Beta virt. eigenvalues --   -0.02806  -0.02088  -0.01727  -0.01107  -0.00734
  Beta virt. eigenvalues --   -0.00335   0.00001   0.00126   0.00320   0.00750

 Mulliken charges and spin densities:
               1          2
     1  Na   0.266526  -0.012217
     2  Na   0.376213  -0.013174
     3  Na  -0.283881   0.119049
     4  Na  -0.177080   0.365170
     5  Na   0.149875   0.333092
     6  Na  -0.230197   0.237708
     7  Na  -0.101455  -0.029628
 Sum of Mulliken charges =  -0.00000   1.00000

 Dipole moment (field-independent basis, Debye):
    X=             -0.2559    Y=             -0.1561    Z=              0.4707  Tot=              0.5580
 Quadrupole moment (field-independent basis, Debye-Ang):
   XX=            -44.7848   YY=            -82.1503   ZZ=            -67.7089
   XY=             -0.2325   XZ=             -1.3779   YZ=             -0.3592

 Normal termination of Gaussian 16 at Sun Dec  3 20:15:39 2023.
