 Gaussian 16, Revision B.01,
 Gaussian 16:  ES64L-G16RevB.01 20-Dec-2017

 -------------------------
 #P B3LYP/6-311+g(d) force
 -------------------------

 -----
 DPGEN
 -----
 Symbolic Z-matrix:
 Charge =  0 Multiplicity = 2

                         Standard orientation:
 ---------------------------------------------------------------------
 Center     Atomic      Atomic             Coordinates (Angstroms)
 Number     Number       Type             X           Y           Z
 ---------------------------------------------------------------------
      1         11           0       -1.402892   -2.432996    0.025829
      2         11           0        2.548256   -2.645728   -0.324031
      3         11           0        3.563059    0.287804   -0.144032
      4         11           0       -4.106593   -0.707475    0.186341
      5         11           0        0.733794    3.640110    0.172845
      6         11           0        0.590593    0.121727    0.863595
      7         11           0       -1.926218    1.736559   -0.780548
 ---------------------------------------------------------------------

 SCF Done:  E(UB3LYP) =  -1136.12496857     A.U. after   21 cycles

 The electronic state is 2-A.
 Alpha  occ. eigenvalues --  -38.44473 -38.44428 -38.44026 -38.43866 -38.43565
 Alpha  occ. eigenvalues --  -38.43464 -38.43282  -2.20310  -2.20257  -2.19826
 Alpha  occ. eigenvalues --   -2.19806  -2.19454  -2.19326  -2.19138  -1.14010
 Alpha  occ. eigenvalues --   -1.14003  -1.13950  -1.13931  -1.13917  -1.13889
 Alpha  occ. eigenvalues --   -1.13528  -1.13514  -1.13497  -1.13482  -1.13464
 Alpha  occ. eigenvalues --   -1.13385  -1.13106  -1.13094  -1.13066  -1.13004
 Alpha  occ. eigenvalues --   -1.12995  -1.12971  -1.12788  -1.12780  -1.12751
 Alpha  occ. eigenvalues --   -0.17509  -0.14032  -0.12982  -0.09720
 Alpha virt. eigenvalues --   -0.06366  -0.05798  -0.04653  -0.03062  -0.02722
 Alpha virt. eigenvalues --   -0.02195  -0.01914  -0.01659  -0.01219  -0.00364
 Alpha virt. eigenvalues --    0.00067   0.00295   0.00524   0.00574   0.00689

  Beta  occ. eigenvalues --  -38.44462 -38.44418 -38.44023 -38.43844 -38.43504
  Beta  occ. eigenvalues --  -38.43430 -38.43225  -2.20292  -2.20247  -2.19821
  Beta  occ. eigenvalues --   -2.19768  -2.19341  -2.19267  -2.19032  -1.13995
  Beta  occ. eigenvalues --   -1.13994  -1.13941  -1.13930  -1.13881  -1.13838
  Beta  occ. eigenvalues --   -1.13496  -1.13494  -1.13489  -1.13478  -1.13458
  Beta  occ. eigenvalues --   -1.13354  -1.13036  -1.13017  -1.12981  -1.12967
  Beta  occ. eigenvalues --   -1.12954  -1.12907  -1.12713  -1.12702  -1.12686
  Beta  occ. eigenvalues --   -0.17057  -0.13362  -0.12658
  Beta virt. eigenvalues --   -0.06308  -0.06187  -0.05685  -0.04443  -0.02471
  Beta virt. eigenvalues --   -0.02270  -0.02068  -0.01767  -0.01225  -0.01099
  Beta virt. eigenvalues --   -0.00199   0.00334   0.00436   0.00578   0.00765

 Mulliken charges and spin densities:
               1          2
     1  Na   0.053897  -0.038943
     2  Na   0.233693  -0.026277
     3  Na   0.382452   0.338404
     4  Na   0.300479   0.552366
     5  Na   0.362423  -0.015897
     6  Na  -1.384467   0.178463
     7  Na   0.051524   0.011885
 Sum of Mulliken charges =  -0.00000   1.00000

 Dipole moment (field-independent basis, Debye):
    X=              0.5364    Y=              0.2684    Z=             -0.1764  Tot=              0.6252
 Quadrupole moment (field-independent basis, Debye-Ang):
   XX=            -74.5484   YY=            -55.6948   ZZ=            -69.8176
   XY=              1.5875   XZ=             -0.7647   YZ=              0.9537

 Normal termination of Gaussian 16 at Tue Nov 28 21:35:38 2023.
