 Gaussian 16, Revision B.01,
 Gaussian 16:  ES64L-G16RevB.01 20-Dec-2017

 -------------------------
 #P B3LYP/6-311+g(d) force
 -------------------------

 -----
 DPGEN
 -----
 Symbolic Z-matrix:
 Charge =  0 Multiplicity = 2

                         Standard orientation:
 ---------------------------------------------------------------------
 Center     Atomic      Atomic             Coordinates (Angstroms)
 Number     Number       Type             X           Y           Z
 ---------------------------------------------------------------------
      1         11           0       -2.640022   -1.548873   -0.583965
      2         11           0       -2.791631    1.839000    0.188512
      3         11           0        0.139515   -0.189499    2.133140
      4         11           0        2.941224   -0.727131   -0.292717
      5         11           0        1.526775    2.929833   -0.001926
      6         11           0        0.503808   -2.864233    0.071450
      7         11           0        0.320331    0.560902   -1.514493
 ---------------------------------------------------------------------

 SCF Done:  E(UB3LYP) =  -1136.13286105     A.U. after   20 cycles

 The electronic state is 2-A.
 Alpha  occ. eigenvalues --  -38.44363 -38.44094 -38.44057 -38.43726 -38.43667
 Alpha  occ. eigenvalues --  -38.43242 -38.43217  -2.20134  -2.19961  -2.19869
 Alpha  occ. eigenvalues --   -2.19544  -2.19532  -2.19182  -2.19116  -1.13809
 Alpha  occ. eigenvalues --   -1.13792  -1.13779  -1.13672  -1.13614  -1.13596
 Alpha  occ. eigenvalues --   -1.13583  -1.13518  -1.13493  -1.13217  -1.13205
 Alpha  occ. eigenvalues --   -1.13194  -1.13184  -1.13159  -1.13149  -1.12863
 Alpha  occ. eigenvalues --   -1.12826  -1.12806  -1.12784  -1.12773  -1.12764
 Alpha  occ. eigenvalues --   -0.18322  -0.12886  -0.12493  -0.10604
 Alpha virt. eigenvalues --   -0.05995  -0.05142  -0.04837  -0.03075  -0.02975
 Alpha virt. eigenvalues --   -0.02517  -0.01547  -0.01352  -0.00591  -0.00407
 Alpha virt. eigenvalues --   -0.00012   0.00339   0.00758   0.00840   0.00862

  Beta  occ. eigenvalues --  -38.44364 -38.44084 -38.44057 -38.43713 -38.43564
  Beta  occ. eigenvalues --  -38.43236 -38.43169  -2.20137  -2.19946  -2.19872
  Beta  occ. eigenvalues --   -2.19521  -2.19342  -2.19110  -2.19096  -1.13800
  Beta  occ. eigenvalues --   -1.13795  -1.13780  -1.13657  -1.13592  -1.13581
  Beta  occ. eigenvalues --   -1.13578  -1.13511  -1.13493  -1.13196  -1.13181
  Beta  occ. eigenvalues --   -1.13171  -1.13070  -1.13027  -1.13013  -1.12805
  Beta  occ. eigenvalues --   -1.12782  -1.12767  -1.12758  -1.12740  -1.12735
  Beta  occ. eigenvalues --   -0.17611  -0.12670  -0.12291
  Beta virt. eigenvalues --   -0.06713  -0.05973  -0.05023  -0.04796  -0.02380
  Beta virt. eigenvalues --   -0.02228  -0.01532  -0.01437  -0.01245  -0.00606
  Beta virt. eigenvalues --   -0.00430   0.00142   0.00387   0.00767   0.00878

 Mulliken charges and spin densities:
               1          2
     1  Na   0.027955   0.027685
     2  Na  -0.026098  -0.017696
     3  Na  -0.464232   0.738367
     4  Na   0.267633  -0.033539
     5  Na   0.023879  -0.081561
     6  Na   0.209787   0.094412
     7  Na  -0.038924   0.272332
 Sum of Mulliken charges =  -0.00000   1.00000

 Dipole moment (field-independent basis, Debye):
    X=              0.0525    Y=              0.4492    Z=              0.1647  Tot=              0.4813
 Quadrupole moment (field-independent basis, Debye-Ang):
   XX=            -58.0871   YY=            -60.1855   ZZ=            -75.2557
   XY=             -0.5804   XZ=              0.2195   YZ=              2.1027

 Normal termination of Gaussian 16 at Fri Dec  8 07:54:56 2023.
