 Gaussian 16, Revision B.01,
 Gaussian 16:  ES64L-G16RevB.01 20-Dec-2017

 -------------------------
 #P B3LYP/6-311+g(d) force
 -------------------------

 -----
 DPGEN
 -----
 Symbolic Z-matrix:
 Charge =  0 Multiplicity = 2

                         Standard orientation:
 ---------------------------------------------------------------------
 Center     Atomic      Atomic             Coordinates (Angstroms)
 Number     Number       Type             X           Y           Z
 ---------------------------------------------------------------------
      1         11           0        1.467610   -1.737015   -0.640059
      2         11           0        0.124992    0.236541   -1.813452
      3         11           0       -2.904293    0.240284   -0.668700
      4         11           0        3.756849    0.627503   -0.192212
      5         11           0       -1.925434   -2.270490    0.686153
      6         11           0       -1.265417    2.822542    0.344440
      7         11           0        0.745693    0.080636    2.283829
 ---------------------------------------------------------------------

 SCF Done:  E(UB3LYP) =  -1136.11625196     A.U. after   23 cycles

 The electronic state is 2-A.
 Alpha  occ. eigenvalues --  -38.45247 -38.44727 -38.44633 -38.44066 -38.43889
 Alpha  occ. eigenvalues --  -38.43103 -38.42832  -2.21019  -2.20606  -2.20550
 Alpha  occ. eigenvalues --   -2.19982  -2.19857  -2.18955  -2.18654  -1.14691
 Alpha  occ. eigenvalues --   -1.14682  -1.14657  -1.14526  -1.14220  -1.14206
 Alpha  occ. eigenvalues --   -1.14186  -1.14181  -1.14164  -1.13672  -1.13659
 Alpha  occ. eigenvalues --   -1.13611  -1.13541  -1.13480  -1.13391  -1.12655
 Alpha  occ. eigenvalues --   -1.12600  -1.12577  -1.12328  -1.12310  -1.12303
 Alpha  occ. eigenvalues --   -0.18504  -0.13574  -0.11617  -0.11440
 Alpha virt. eigenvalues --   -0.06645  -0.04602  -0.04260  -0.03446  -0.03307
 Alpha virt. eigenvalues --   -0.02857  -0.02279  -0.00763  -0.00341  -0.00037
 Alpha virt. eigenvalues --    0.00155   0.00295   0.00398   0.00790   0.00834

  Beta  occ. eigenvalues --  -38.45251 -38.44626 -38.44562 -38.44060 -38.43863
  Beta  occ. eigenvalues --  -38.43098 -38.42833  -2.21029  -2.20478  -2.20363
  Beta  occ. eigenvalues --   -2.19973  -2.19815  -2.18946  -2.18657  -1.14700
  Beta  occ. eigenvalues --   -1.14673  -1.14665  -1.14440  -1.14125  -1.14096
  Beta  occ. eigenvalues --   -1.14083  -1.14050  -1.14029  -1.13664  -1.13639
  Beta  occ. eigenvalues --   -1.13610  -1.13498  -1.13423  -1.13365  -1.12651
  Beta  occ. eigenvalues --   -1.12580  -1.12570  -1.12331  -1.12313  -1.12292
  Beta  occ. eigenvalues --   -0.17733  -0.13409  -0.11269
  Beta virt. eigenvalues --   -0.07598  -0.06532  -0.04421  -0.03936  -0.03030
  Beta virt. eigenvalues --   -0.02365  -0.02173  -0.02075  -0.00701  -0.00161
  Beta virt. eigenvalues --   -0.00048   0.00193   0.00328   0.00600   0.00832

 Mulliken charges and spin densities:
               1          2
     1  Na   0.220867   0.251153
     2  Na   0.166627   0.084403
     3  Na   0.570436   0.088777
     4  Na  -0.031998  -0.047504
     5  Na  -0.253766  -0.013811
     6  Na  -0.429655  -0.035416
     7  Na  -0.242510   0.672399
 Sum of Mulliken charges =  -0.00000   1.00000

 Dipole moment (field-independent basis, Debye):
    X=              1.2848    Y=              0.2379    Z=              0.2818  Tot=              1.3367
 Quadrupole moment (field-independent basis, Debye-Ang):
   XX=            -53.1659   YY=            -72.6533   ZZ=            -69.6386
   XY=              3.2353   XZ=              0.0573   YZ=              0.2976

 Normal termination of Gaussian 16 at Thu Dec  7 14:12:47 2023.
