 Gaussian 16, Revision B.01,
 Gaussian 16:  ES64L-G16RevB.01 20-Dec-2017

 -------------------------
 #P B3LYP/6-311+g(d) force
 -------------------------

 -----
 DPGEN
 -----
 Symbolic Z-matrix:
 Charge =  0 Multiplicity = 2

                         Standard orientation:
 ---------------------------------------------------------------------
 Center     Atomic      Atomic             Coordinates (Angstroms)
 Number     Number       Type             X           Y           Z
 ---------------------------------------------------------------------
      1         11           0        3.321599    1.956782    0.527487
      2         11           0       -0.094635    1.074080   -0.220198
      3         11           0       -2.705450    2.482072   -0.404235
      4         11           0       -2.977862   -0.758502    0.587018
      5         11           0        0.720175   -1.575154    1.967360
      6         11           0       -0.725395   -2.202348   -1.102547
      7         11           0        2.461567   -0.976930   -1.354885
 ---------------------------------------------------------------------

 SCF Done:  E(UB3LYP) =  -1136.12561843     A.U. after   21 cycles

 The electronic state is 2-A.
 Alpha  occ. eigenvalues --  -38.44572 -38.44477 -38.43959 -38.43896 -38.43636
 Alpha  occ. eigenvalues --  -38.43123 -38.43100  -2.20433  -2.20249  -2.19802
 Alpha  occ. eigenvalues --   -2.19758  -2.19485  -2.19105  -2.19016  -1.14137
 Alpha  occ. eigenvalues --   -1.14098  -1.14044  -1.13917  -1.13908  -1.13880
 Alpha  occ. eigenvalues --   -1.13480  -1.13449  -1.13443  -1.13409  -1.13402
 Alpha  occ. eigenvalues --   -1.13369  -1.13239  -1.13124  -1.13109  -1.12806
 Alpha  occ. eigenvalues --   -1.12789  -1.12709  -1.12683  -1.12674  -1.12642
 Alpha  occ. eigenvalues --   -0.18281  -0.13582  -0.12002  -0.10522
 Alpha virt. eigenvalues --   -0.06500  -0.05526  -0.04343  -0.03221  -0.02636
 Alpha virt. eigenvalues --   -0.02202  -0.02084  -0.01315  -0.00722  -0.00162
 Alpha virt. eigenvalues --   -0.00124   0.00230   0.00347   0.00623   0.00787

  Beta  occ. eigenvalues --  -38.44567 -38.44467 -38.43884 -38.43850 -38.43639
  Beta  occ. eigenvalues --  -38.43109 -38.43074  -2.20424  -2.20231  -2.19676
  Beta  occ. eigenvalues --   -2.19661  -2.19489  -2.19084  -2.18971  -1.14134
  Beta  occ. eigenvalues --   -1.14088  -1.14030  -1.13904  -1.13890  -1.13869
  Beta  occ. eigenvalues --   -1.13390  -1.13380  -1.13363  -1.13336  -1.13306
  Beta  occ. eigenvalues --   -1.13295  -1.13241  -1.13124  -1.13113  -1.12783
  Beta  occ. eigenvalues --   -1.12749  -1.12699  -1.12659  -1.12639  -1.12585
  Beta  occ. eigenvalues --   -0.17646  -0.13393  -0.11803
  Beta virt. eigenvalues --   -0.06712  -0.06295  -0.05337  -0.04124  -0.02767
  Beta virt. eigenvalues --   -0.02149  -0.01969  -0.01511  -0.01028  -0.00530
  Beta virt. eigenvalues --   -0.00092   0.00075   0.00281   0.00487   0.00659

 Mulliken charges and spin densities:
               1          2
     1  Na   0.704360   0.046878
     2  Na  -2.098820   0.409389
     3  Na   0.388327  -0.296171
     4  Na   0.588220   0.146982
     5  Na  -0.357954   0.396875
     6  Na   0.339400   0.148122
     7  Na   0.436467   0.147926
 Sum of Mulliken charges =  -0.00000   1.00000

 Dipole moment (field-independent basis, Debye):
    X=              0.0536    Y=             -0.0563    Z=              0.3116  Tot=              0.3212
 Quadrupole moment (field-independent basis, Debye-Ang):
   XX=            -51.9781   YY=            -67.0965   ZZ=            -72.8857
   XY=              2.1073   XZ=              0.2900   YZ=              0.6023

 Normal termination of Gaussian 16 at Tue Dec  5 20:39:49 2023.
