 Gaussian 16, Revision B.01,
 Gaussian 16:  ES64L-G16RevB.01 20-Dec-2017

 -------------------------
 #P B3LYP/6-311+g(d) force
 -------------------------

 -----
 DPGEN
 -----
 Symbolic Z-matrix:
 Charge =  0 Multiplicity = 2

                         Standard orientation:
 ---------------------------------------------------------------------
 Center     Atomic      Atomic             Coordinates (Angstroms)
 Number     Number       Type             X           Y           Z
 ---------------------------------------------------------------------
      1         11           0       -2.796776    2.229504    0.214784
      2         11           0        2.018232    2.800946   -0.577662
      3         11           0       -1.094481    0.152996   -1.535089
      4         11           0        0.955486   -2.695113   -0.690184
      5         11           0       -2.677527   -2.064151    0.350257
      6         11           0        3.335629   -0.679968    0.358600
      7         11           0        0.259437    0.255786    1.879294
 ---------------------------------------------------------------------

 SCF Done:  E(UB3LYP) =  -1136.12371788     A.U. after   22 cycles

 The electronic state is 2-A.
 Alpha  occ. eigenvalues --  -38.44787 -38.44767 -38.44583 -38.44255 -38.43549
 Alpha  occ. eigenvalues --  -38.43443 -38.43315  -2.20561  -2.20548  -2.20323
 Alpha  occ. eigenvalues --   -2.20060  -2.19394  -2.19266  -2.19223  -1.14255
 Alpha  occ. eigenvalues --   -1.14230  -1.14211  -1.14208  -1.14198  -1.14180
 Alpha  occ. eigenvalues --   -1.13998  -1.13970  -1.13965  -1.13739  -1.13731
 Alpha  occ. eigenvalues --   -1.13694  -1.13079  -1.13024  -1.13010  -1.12953
 Alpha  occ. eigenvalues --   -1.12925  -1.12909  -1.12899  -1.12875  -1.12840
 Alpha  occ. eigenvalues --   -0.17643  -0.13139  -0.12035  -0.10017
 Alpha virt. eigenvalues --   -0.06677  -0.05755  -0.04726  -0.03203  -0.02742
 Alpha virt. eigenvalues --   -0.02087  -0.01887  -0.01767  -0.00992  -0.00523
 Alpha virt. eigenvalues --   -0.00045   0.00319   0.00445   0.00595   0.00718

  Beta  occ. eigenvalues --  -38.44787 -38.44766 -38.44565 -38.44253 -38.43468
  Beta  occ. eigenvalues --  -38.43429 -38.43269  -2.20565  -2.20549  -2.20290
  Beta  occ. eigenvalues --   -2.20059  -2.19246  -2.19241  -2.19139  -1.14252
  Beta  occ. eigenvalues --   -1.14224  -1.14209  -1.14205  -1.14196  -1.14177
  Beta  occ. eigenvalues --   -1.13967  -1.13949  -1.13942  -1.13740  -1.13712
  Beta  occ. eigenvalues --   -1.13696  -1.12977  -1.12933  -1.12920  -1.12901
  Beta  occ. eigenvalues --   -1.12893  -1.12889  -1.12842  -1.12813  -1.12779
  Beta  occ. eigenvalues --   -0.17000  -0.12982  -0.11795
  Beta virt. eigenvalues --   -0.06651  -0.06334  -0.05576  -0.04577  -0.02581
  Beta virt. eigenvalues --   -0.02139  -0.01805  -0.01674  -0.01176  -0.00975
  Beta virt. eigenvalues --   -0.00505   0.00119   0.00363   0.00542   0.00616

 Mulliken charges and spin densities:
               1          2
     1  Na   0.032530  -0.065720
     2  Na  -0.267605   0.005831
     3  Na   0.304263   0.385378
     4  Na  -0.298124  -0.006046
     5  Na   0.040277   0.041490
     6  Na   0.270426   0.059059
     7  Na  -0.081766   0.580007
 Sum of Mulliken charges =  -0.00000   1.00000

 Dipole moment (field-independent basis, Debye):
    X=             -0.5360    Y=              0.2211    Z=              0.2370  Tot=              0.6264
 Quadrupole moment (field-independent basis, Debye-Ang):
   XX=            -52.5717   YY=            -62.0292   ZZ=            -77.4389
   XY=             -0.0165   XZ=             -2.5202   YZ=             -0.5755

 Normal termination of Gaussian 16 at Thu Dec  7 17:16:39 2023.
