 Gaussian 16, Revision B.01,
 Gaussian 16:  ES64L-G16RevB.01 20-Dec-2017

 -------------------------
 #P B3LYP/6-311+g(d) force
 -------------------------

 -----
 DPGEN
 -----
 Symbolic Z-matrix:
 Charge =  0 Multiplicity = 2

                         Standard orientation:
 ---------------------------------------------------------------------
 Center     Atomic      Atomic             Coordinates (Angstroms)
 Number     Number       Type             X           Y           Z
 ---------------------------------------------------------------------
      1         11           0       -3.088612    0.389532   -0.597324
      2         11           0        2.826826   -1.666622   -0.360985
      3         11           0        0.226521   -0.317631   -1.694304
      4         11           0        2.252163    1.899475    0.126920
      5         11           0       -0.163702   -0.472901    2.180381
      6         11           0       -1.331661   -2.872024    0.197371
      7         11           0       -0.721535    3.040172    0.147941
 ---------------------------------------------------------------------

 SCF Done:  E(UB3LYP) =  -1136.13520609     A.U. after   19 cycles

 The electronic state is 2-A.
 Alpha  occ. eigenvalues --  -38.44071 -38.44049 -38.43921 -38.43885 -38.43618
 Alpha  occ. eigenvalues --  -38.43469 -38.43421  -2.19917  -2.19864  -2.19722
 Alpha  occ. eigenvalues --   -2.19699  -2.19467  -2.19394  -2.19246  -1.13606
 Alpha  occ. eigenvalues --   -1.13559  -1.13543  -1.13527  -1.13499  -1.13493
 Alpha  occ. eigenvalues --   -1.13405  -1.13398  -1.13379  -1.13350  -1.13350
 Alpha  occ. eigenvalues --   -1.13332  -1.13174  -1.13135  -1.13110  -1.13068
 Alpha  occ. eigenvalues --   -1.13030  -1.13013  -1.12909  -1.12902  -1.12886
 Alpha  occ. eigenvalues --   -0.18126  -0.12784  -0.12492  -0.10905
 Alpha virt. eigenvalues --   -0.05720  -0.05098  -0.04914  -0.03262  -0.02974
 Alpha virt. eigenvalues --   -0.02755  -0.01476  -0.01297  -0.00553  -0.00358
 Alpha virt. eigenvalues --   -0.00056   0.00341   0.00798   0.00812   0.00875

  Beta  occ. eigenvalues --  -38.44042 -38.43974 -38.43904 -38.43878 -38.43614
  Beta  occ. eigenvalues --  -38.43421 -38.43411  -2.19856  -2.19737  -2.19693
  Beta  occ. eigenvalues --   -2.19687  -2.19462  -2.19288  -2.19248  -1.13553
  Beta  occ. eigenvalues --   -1.13509  -1.13492  -1.13443  -1.13420  -1.13398
  Beta  occ. eigenvalues --   -1.13381  -1.13369  -1.13358  -1.13339  -1.13333
  Beta  occ. eigenvalues --   -1.13324  -1.13173  -1.13117  -1.13102  -1.12998
  Beta  occ. eigenvalues --   -1.12960  -1.12932  -1.12909  -1.12900  -1.12880
  Beta  occ. eigenvalues --   -0.17439  -0.12539  -0.12246
  Beta virt. eigenvalues --   -0.07065  -0.05650  -0.04930  -0.04912  -0.02492
  Beta virt. eigenvalues --   -0.02309  -0.01763  -0.01356  -0.01205  -0.00576
  Beta virt. eigenvalues --   -0.00395   0.00100   0.00389   0.00802   0.00868

 Mulliken charges and spin densities:
               1          2
     1  Na   0.078475   0.044226
     2  Na   0.274969  -0.043090
     3  Na  -0.050371   0.388097
     4  Na   0.018078   0.013682
     5  Na  -0.360661   0.661954
     6  Na   0.146928  -0.048742
     7  Na  -0.107419  -0.016125
 Sum of Mulliken charges =  -0.00000   1.00000

 Dipole moment (field-independent basis, Debye):
    X=             -0.0267    Y=             -0.4625    Z=              0.1334  Tot=              0.4821
 Quadrupole moment (field-independent basis, Debye-Ang):
   XX=            -59.9072   YY=            -61.2964   ZZ=            -73.6191
   XY=             -0.4404   XZ=              1.1743   YZ=              0.5825

 Normal termination of Gaussian 16 at Tue Dec  5 10:31:53 2023.
