 Gaussian 16, Revision B.01,
 Gaussian 16:  ES64L-G16RevB.01 20-Dec-2017

 -------------------------
 #P B3LYP/6-311+g(d) force
 -------------------------

 -----
 DPGEN
 -----
 Symbolic Z-matrix:
 Charge =  0 Multiplicity = 2

                         Standard orientation:
 ---------------------------------------------------------------------
 Center     Atomic      Atomic             Coordinates (Angstroms)
 Number     Number       Type             X           Y           Z
 ---------------------------------------------------------------------
      1         11           0        0.472319    1.038421   -0.333106
      2         11           0       -1.562309    3.880231   -0.195556
      3         11           0       -2.721132    0.842128    0.580220
      4         11           0       -4.589525   -2.604390    0.151975
      5         11           0       -0.987179   -1.701989   -0.184484
      6         11           0        3.439903   -1.148629   -0.821104
      7         11           0        5.947924   -0.305773    0.802055
 ---------------------------------------------------------------------

 SCF Done:  E(UB3LYP) =  -1136.12051885     A.U. after   20 cycles

 The electronic state is 2-A.
 Alpha  occ. eigenvalues --  -38.44331 -38.44318 -38.44263 -38.44099 -38.43977
 Alpha  occ. eigenvalues --  -38.43786 -38.43707  -2.20220  -2.20133  -2.20030
 Alpha  occ. eigenvalues --   -2.19983  -2.19888  -2.19608  -2.19513  -1.13985
 Alpha  occ. eigenvalues --   -1.13915  -1.13798  -1.13793  -1.13766  -1.13763
 Alpha  occ. eigenvalues --   -1.13745  -1.13696  -1.13694  -1.13655  -1.13637
 Alpha  occ. eigenvalues --   -1.13600  -1.13564  -1.13522  -1.13457  -1.13272
 Alpha  occ. eigenvalues --   -1.13262  -1.13226  -1.13193  -1.13188  -1.13158
 Alpha  occ. eigenvalues --   -0.17220  -0.13800  -0.12483  -0.11129
 Alpha virt. eigenvalues --   -0.06211  -0.04839  -0.04632  -0.04073  -0.02602
 Alpha virt. eigenvalues --   -0.02430  -0.01909  -0.01736  -0.01220  -0.00908
 Alpha virt. eigenvalues --   -0.00195   0.00011   0.00168   0.00362   0.00661

  Beta  occ. eigenvalues --  -38.44319 -38.44244 -38.44227 -38.44062 -38.43937
  Beta  occ. eigenvalues --  -38.43761 -38.43714  -2.20200  -2.19996  -2.19963
  Beta  occ. eigenvalues --   -2.19921  -2.19820  -2.19561  -2.19533  -1.13958
  Beta  occ. eigenvalues --   -1.13902  -1.13782  -1.13706  -1.13691  -1.13672
  Beta  occ. eigenvalues --   -1.13670  -1.13649  -1.13646  -1.13618  -1.13595
  Beta  occ. eigenvalues --   -1.13552  -1.13521  -1.13462  -1.13386  -1.13234
  Beta  occ. eigenvalues --   -1.13230  -1.13213  -1.13206  -1.13198  -1.13119
  Beta  occ. eigenvalues --   -0.16607  -0.13118  -0.12156
  Beta virt. eigenvalues --   -0.07796  -0.05834  -0.04506  -0.04275  -0.03883
  Beta virt. eigenvalues --   -0.02354  -0.02207  -0.01619  -0.01397  -0.01015
  Beta virt. eigenvalues --   -0.00565  -0.00010   0.00212   0.00335   0.00421

 Mulliken charges and spin densities:
               1          2
     1  Na  -1.811621  -0.059477
     2  Na   1.124053   0.254406
     3  Na  -0.004417   0.330664
     4  Na   1.147268   0.199551
     5  Na  -0.536984   0.120222
     6  Na  -0.299227  -0.211677
     7  Na   0.380928   0.366311
 Sum of Mulliken charges =  -0.00000   1.00000

 Dipole moment (field-independent basis, Debye):
    X=             -0.6115    Y=              0.3637    Z=              0.0820  Tot=              0.7162
 Quadrupole moment (field-independent basis, Debye-Ang):
   XX=            -61.2519   YY=            -62.1261   ZZ=            -70.7796
   XY=              3.9247   XZ=              2.4342   YZ=              0.7712

 Normal termination of Gaussian 16 at Tue Nov 28 19:04:57 2023.
