 Gaussian 16, Revision B.01,
 Gaussian 16:  ES64L-G16RevB.01 20-Dec-2017

 -------------------------
 #P B3LYP/6-311+g(d) force
 -------------------------

 -----
 DPGEN
 -----
 Symbolic Z-matrix:
 Charge =  0 Multiplicity = 2

                         Standard orientation:
 ---------------------------------------------------------------------
 Center     Atomic      Atomic             Coordinates (Angstroms)
 Number     Number       Type             X           Y           Z
 ---------------------------------------------------------------------
      1         11           0       -2.795485    1.411556   -0.365954
      2         11           0        0.590485    2.677750    0.180989
      3         11           0        0.108370   -0.075286   -1.547903
      4         11           0        1.421719   -2.395533   -0.115152
      5         11           0        3.134446    0.519059   -0.147362
      6         11           0       -2.163704   -1.884192   -0.135858
      7         11           0       -0.295831   -0.253354    2.131240
 ---------------------------------------------------------------------

 SCF Done:  E(UB3LYP) =  -1136.13743647     A.U. after   20 cycles

 The electronic state is 2-A.
 Alpha  occ. eigenvalues --  -38.43986 -38.43851 -38.43670 -38.43530 -38.43230
 Alpha  occ. eigenvalues --  -38.43133 -38.43100  -2.19839  -2.19689  -2.19569
 Alpha  occ. eigenvalues --   -2.19426  -2.19183  -2.19134  -2.18968  -1.13515
 Alpha  occ. eigenvalues --   -1.13495  -1.13490  -1.13368  -1.13351  -1.13332
 Alpha  occ. eigenvalues --   -1.13239  -1.13205  -1.13185  -1.13128  -1.13081
 Alpha  occ. eigenvalues --   -1.13044  -1.12971  -1.12860  -1.12803  -1.12786
 Alpha  occ. eigenvalues --   -1.12741  -1.12733  -1.12644  -1.12632  -1.12591
 Alpha  occ. eigenvalues --   -0.19011  -0.13253  -0.12386  -0.10939
 Alpha virt. eigenvalues --   -0.05614  -0.05163  -0.04359  -0.03243  -0.02850
 Alpha virt. eigenvalues --   -0.02676  -0.01575  -0.01028  -0.00184  -0.00133
 Alpha virt. eigenvalues --   -0.00017   0.00349   0.00798   0.00910   0.00936

  Beta  occ. eigenvalues --  -38.43984 -38.43844 -38.43566 -38.43521 -38.43223
  Beta  occ. eigenvalues --  -38.43094 -38.43075  -2.19838  -2.19678  -2.19416
  Beta  occ. eigenvalues --   -2.19378  -2.19127  -2.19076  -2.18961  -1.13511
  Beta  occ. eigenvalues --   -1.13495  -1.13480  -1.13356  -1.13337  -1.13319
  Beta  occ. eigenvalues --   -1.13145  -1.13095  -1.13082  -1.13052  -1.13042
  Beta  occ. eigenvalues --   -1.13019  -1.12933  -1.12791  -1.12761  -1.12743
  Beta  occ. eigenvalues --   -1.12726  -1.12680  -1.12632  -1.12600  -1.12591
  Beta  occ. eigenvalues --   -0.18277  -0.13002  -0.12141
  Beta virt. eigenvalues --   -0.06966  -0.05565  -0.05165  -0.04335  -0.02461
  Beta virt. eigenvalues --   -0.02054  -0.01566  -0.01486  -0.00983  -0.00212
  Beta virt. eigenvalues --   -0.00178   0.00128   0.00378   0.00869   0.00900

 Mulliken charges and spin densities:
               1          2
     1  Na   0.099006  -0.008050
     2  Na   0.166975   0.003798
     3  Na  -0.589729   0.292366
     4  Na   0.425772  -0.011339
     5  Na   0.118549  -0.025784
     6  Na   0.458464   0.015901
     7  Na  -0.679037   0.733107
 Sum of Mulliken charges =  -0.00000   1.00000

 Dipole moment (field-independent basis, Debye):
    X=             -0.0269    Y=              0.0200    Z=              0.2090  Tot=              0.2117
 Quadrupole moment (field-independent basis, Debye-Ang):
   XX=            -55.1992   YY=            -64.9701   ZZ=            -73.4391
   XY=             -0.2533   XZ=              0.8105   YZ=              0.1882

 Normal termination of Gaussian 16 at Thu Dec  7 19:53:36 2023.
