 Gaussian 16, Revision B.01,
 Gaussian 16:  ES64L-G16RevB.01 20-Dec-2017

 -------------------------
 #P B3LYP/6-311+g(d) force
 -------------------------

 -----
 DPGEN
 -----
 Symbolic Z-matrix:
 Charge =  0 Multiplicity = 2

                         Standard orientation:
 ---------------------------------------------------------------------
 Center     Atomic      Atomic             Coordinates (Angstroms)
 Number     Number       Type             X           Y           Z
 ---------------------------------------------------------------------
      1         11           0        1.441576    2.766279    0.485310
      2         11           0        0.032391   -0.163786    1.639165
      3         11           0       -3.298009   -1.390594    0.034824
      4         11           0        0.876566   -2.915156    0.120504
      5         11           0        2.934181   -0.455536   -0.353948
      6         11           0       -2.277035    2.065737   -0.332715
      7         11           0        0.290331    0.093055   -1.593140
 ---------------------------------------------------------------------

 SCF Done:  E(UB3LYP) =  -1136.13186274     A.U. after   21 cycles

 The electronic state is 2-A.
 Alpha  occ. eigenvalues --  -38.44504 -38.44045 -38.43919 -38.43573 -38.43362
 Alpha  occ. eigenvalues --  -38.43238 -38.43027  -2.20255  -2.19855  -2.19848
 Alpha  occ. eigenvalues --   -2.19440  -2.19235  -2.19196  -2.18994  -1.13936
 Alpha  occ. eigenvalues --   -1.13909  -1.13898  -1.13605  -1.13543  -1.13520
 Alpha  occ. eigenvalues --   -1.13495  -1.13472  -1.13465  -1.13132  -1.13099
 Alpha  occ. eigenvalues --   -1.13071  -1.12946  -1.12872  -1.12871  -1.12858
 Alpha  occ. eigenvalues --   -1.12841  -1.12814  -1.12687  -1.12615  -1.12596
 Alpha  occ. eigenvalues --   -0.18652  -0.13164  -0.12341  -0.10276
 Alpha virt. eigenvalues --   -0.05927  -0.05332  -0.04823  -0.03036  -0.02680
 Alpha virt. eigenvalues --   -0.02013  -0.01705  -0.01393  -0.00594  -0.00498
 Alpha virt. eigenvalues --    0.00035   0.00316   0.00767   0.00802   0.00849

  Beta  occ. eigenvalues --  -38.44508 -38.44037 -38.43901 -38.43566 -38.43348
  Beta  occ. eigenvalues --  -38.43171 -38.42952  -2.20266  -2.19841  -2.19819
  Beta  occ. eigenvalues --   -2.19432  -2.19174  -2.19114  -2.18858  -1.13938
  Beta  occ. eigenvalues --   -1.13913  -1.13905  -1.13575  -1.13525  -1.13504
  Beta  occ. eigenvalues --   -1.13466  -1.13466  -1.13432  -1.13123  -1.13081
  Beta  occ. eigenvalues --   -1.13056  -1.12870  -1.12840  -1.12830  -1.12821
  Beta  occ. eigenvalues --   -1.12776  -1.12740  -1.12594  -1.12519  -1.12493
  Beta  occ. eigenvalues --   -0.17952  -0.12911  -0.12089
  Beta virt. eigenvalues --   -0.06424  -0.05896  -0.05261  -0.04777  -0.02305
  Beta virt. eigenvalues --   -0.01993  -0.01667  -0.01288  -0.01012  -0.00617
  Beta virt. eigenvalues --   -0.00509   0.00165   0.00361   0.00778   0.00851

 Mulliken charges and spin densities:
               1          2
     1  Na  -0.077228  -0.010006
     2  Na  -0.165314   0.692294
     3  Na  -0.169484  -0.116725
     4  Na  -0.084995  -0.118657
     5  Na   0.592222   0.144252
     6  Na  -0.043772  -0.051779
     7  Na  -0.051428   0.460621
 Sum of Mulliken charges =  -0.00000   1.00000

 Dipole moment (field-independent basis, Debye):
    X=             -0.3422    Y=             -0.1122    Z=              0.0292  Tot=              0.3613
 Quadrupole moment (field-independent basis, Debye-Ang):
   XX=            -55.1485   YY=            -59.1009   ZZ=            -77.0979
   XY=              0.8054   XZ=              0.5164   YZ=              0.4871

 Normal termination of Gaussian 16 at Thu Dec  7 19:14:09 2023.
