 Gaussian 16, Revision B.01,
 Gaussian 16:  ES64L-G16RevB.01 20-Dec-2017

 -------------------------
 #P B3LYP/6-311+g(d) force
 -------------------------

 -----
 DPGEN
 -----
 Symbolic Z-matrix:
 Charge =  0 Multiplicity = 2

                         Standard orientation:
 ---------------------------------------------------------------------
 Center     Atomic      Atomic             Coordinates (Angstroms)
 Number     Number       Type             X           Y           Z
 ---------------------------------------------------------------------
      1         11           0       -1.746449   -0.700840   -1.400828
      2         11           0       -3.120424   -1.295694    1.100942
      3         11           0       -2.134428    2.586526    0.112155
      4         11           0        0.359779   -0.694125    1.913910
      5         11           0        0.999872    1.490011   -1.113881
      6         11           0        1.472719   -1.777010   -1.560006
      7         11           0        4.168930    0.391132    0.947707
 ---------------------------------------------------------------------

 SCF Done:  E(UB3LYP) =  -1136.11837587     A.U. after   26 cycles

 The electronic state is 2-A.
 Alpha  occ. eigenvalues --  -38.45472 -38.44880 -38.44741 -38.44030 -38.43650
 Alpha  occ. eigenvalues --  -38.43091 -38.42791  -2.21218  -2.20662  -2.20595
 Alpha  occ. eigenvalues --   -2.19973  -2.19498  -2.18890  -2.18657  -1.14883
 Alpha  occ. eigenvalues --   -1.14877  -1.14826  -1.14355  -1.14346  -1.14277
 Alpha  occ. eigenvalues --   -1.14257  -1.14230  -1.14199  -1.13736  -1.13648
 Alpha  occ. eigenvalues --   -1.13573  -1.13179  -1.13129  -1.13110  -1.12567
 Alpha  occ. eigenvalues --   -1.12536  -1.12526  -1.12372  -1.12349  -1.12246
 Alpha  occ. eigenvalues --   -0.18093  -0.13504  -0.11808  -0.10875
 Alpha virt. eigenvalues --   -0.06876  -0.05030  -0.04723  -0.03237  -0.02727
 Alpha virt. eigenvalues --   -0.02636  -0.02355  -0.01184  -0.00945  -0.00197
 Alpha virt. eigenvalues --    0.00039   0.00122   0.00245   0.00615   0.00723

  Beta  occ. eigenvalues --  -38.45431 -38.44855 -38.44660 -38.43999 -38.43648
  Beta  occ. eigenvalues --  -38.43075 -38.42784  -2.21141  -2.20617  -2.20451
  Beta  occ. eigenvalues --   -2.19921  -2.19496  -2.18860  -2.18649  -1.14828
  Beta  occ. eigenvalues --   -1.14822  -1.14777  -1.14326  -1.14308  -1.14222
  Beta  occ. eigenvalues --   -1.14171  -1.14133  -1.14089  -1.13686  -1.13614
  Beta  occ. eigenvalues --   -1.13530  -1.13175  -1.13121  -1.13107  -1.12544
  Beta  occ. eigenvalues --   -1.12516  -1.12508  -1.12367  -1.12311  -1.12251
  Beta  occ. eigenvalues --   -0.17359  -0.13203  -0.10732
  Beta virt. eigenvalues --   -0.07968  -0.06578  -0.04702  -0.04318  -0.02898
  Beta virt. eigenvalues --   -0.02404  -0.02184  -0.01863  -0.00858  -0.00788
  Beta virt. eigenvalues --   -0.00007   0.00140   0.00171   0.00303   0.00664

 Mulliken charges and spin densities:
               1          2
     1  Na   0.246860  -0.068864
     2  Na   0.264638   0.165997
     3  Na  -0.123078   0.061749
     4  Na  -0.440034   0.301665
     5  Na  -0.509427   0.269456
     6  Na   0.225574   0.157739
     7  Na   0.335466   0.112258
 Sum of Mulliken charges =  -0.00000   1.00000

 Dipole moment (field-independent basis, Debye):
    X=              1.3103    Y=             -0.3988    Z=              0.4009  Tot=              1.4271
 Quadrupole moment (field-independent basis, Debye-Ang):
   XX=            -50.7101   YY=            -75.5411   ZZ=            -68.5184
   XY=             -0.3289   XZ=             -0.3880   YZ=              6.7343

 Normal termination of Gaussian 16 at Thu Dec  7 23:36:42 2023.
