 Gaussian 16, Revision B.01,
 Gaussian 16:  ES64L-G16RevB.01 20-Dec-2017

 -------------------------
 #P B3LYP/6-311+g(d) force
 -------------------------

 -----
 DPGEN
 -----
 Symbolic Z-matrix:
 Charge =  0 Multiplicity = 2

                         Standard orientation:
 ---------------------------------------------------------------------
 Center     Atomic      Atomic             Coordinates (Angstroms)
 Number     Number       Type             X           Y           Z
 ---------------------------------------------------------------------
      1         11           0        1.658717   -1.908946   -2.373567
      2         11           0        1.180154    3.413468   -0.148681
      3         11           0       -1.994291    2.208418   -0.727243
      4         11           0       -3.696814   -0.562484    0.525933
      5         11           0        1.327416   -0.962785    3.150321
      6         11           0        2.690718    0.049323   -0.018894
      7         11           0       -1.165900   -2.236995   -0.407870
 ---------------------------------------------------------------------

 SCF Done:  E(UB3LYP) =  -1136.11677785     A.U. after   19 cycles

 The electronic state is 2-A.
 Alpha  occ. eigenvalues --  -38.45741 -38.44233 -38.44166 -38.44163 -38.44065
 Alpha  occ. eigenvalues --  -38.43916 -38.43495  -2.21527  -2.20061  -2.19971
 Alpha  occ. eigenvalues --   -2.19935  -2.19872  -2.19732  -2.19269  -1.15152
 Alpha  occ. eigenvalues --   -1.15146  -1.15140  -1.13757  -1.13712  -1.13694
 Alpha  occ. eigenvalues --   -1.13653  -1.13633  -1.13626  -1.13610  -1.13591
 Alpha  occ. eigenvalues --   -1.13567  -1.13563  -1.13553  -1.13529  -1.13386
 Alpha  occ. eigenvalues --   -1.13369  -1.13364  -1.12937  -1.12926  -1.12917
 Alpha  occ. eigenvalues --   -0.16607  -0.13193  -0.12240  -0.11938
 Alpha virt. eigenvalues --   -0.06062  -0.05948  -0.04381  -0.03539  -0.03347
 Alpha virt. eigenvalues --   -0.02917  -0.01387  -0.01125  -0.00782  -0.00711
 Alpha virt. eigenvalues --   -0.00607  -0.00100   0.00362   0.00406   0.00730

  Beta  occ. eigenvalues --  -38.45601 -38.44178 -38.44165 -38.44162 -38.44064
  Beta  occ. eigenvalues --  -38.43914 -38.43492  -2.21266  -2.19976  -2.19959
  Beta  occ. eigenvalues --   -2.19935  -2.19871  -2.19729  -2.19264  -1.14975
  Beta  occ. eigenvalues --   -1.14966  -1.14965  -1.13707  -1.13655  -1.13638
  Beta  occ. eigenvalues --   -1.13631  -1.13626  -1.13614  -1.13609  -1.13572
  Beta  occ. eigenvalues --   -1.13564  -1.13559  -1.13543  -1.13527  -1.13382
  Beta  occ. eigenvalues --   -1.13368  -1.13361  -1.12932  -1.12923  -1.12914
  Beta  occ. eigenvalues --   -0.16063  -0.12879  -0.11993
  Beta virt. eigenvalues --   -0.07934  -0.05920  -0.05643  -0.03931  -0.03088
  Beta virt. eigenvalues --   -0.02867  -0.02438  -0.01328  -0.01038  -0.00633
  Beta virt. eigenvalues --   -0.00433  -0.00286   0.00196   0.00464   0.00727

 Mulliken charges and spin densities:
               1          2
     1  Na  -0.155595   0.371722
     2  Na  -0.021789   0.103148
     3  Na  -0.358245  -0.065029
     4  Na   0.441671   0.067483
     5  Na  -0.161241   0.696375
     6  Na   0.626173  -0.175488
     7  Na  -0.370974   0.001790
 Sum of Mulliken charges =  -0.00000   1.00000

 Dipole moment (field-independent basis, Debye):
    X=             -0.1138    Y=             -0.5180    Z=              0.4268  Tot=              0.6807
 Quadrupole moment (field-independent basis, Debye-Ang):
   XX=            -63.8369   YY=            -71.4338   ZZ=            -64.4859
   XY=              0.7043   XZ=             -2.0417   YZ=             -0.0430

 Normal termination of Gaussian 16 at Sun Dec  3 13:44:56 2023.
