 Gaussian 16, Revision B.01,
 Gaussian 16:  ES64L-G16RevB.01 20-Dec-2017

 -------------------------
 #P B3LYP/6-311+g(d) force
 -------------------------

 -----
 DPGEN
 -----
 Symbolic Z-matrix:
 Charge =  0 Multiplicity = 2

                         Standard orientation:
 ---------------------------------------------------------------------
 Center     Atomic      Atomic             Coordinates (Angstroms)
 Number     Number       Type             X           Y           Z
 ---------------------------------------------------------------------
      1         11           0        2.497790    0.433338   -2.172412
      2         11           0       -0.416590   -0.740319   -0.572102
      3         11           0        1.635696    0.651366    2.138971
      4         11           0       -3.960202   -1.249033   -0.841643
      5         11           0       -2.206381    0.697890    1.436843
      6         11           0       -0.031965    2.536562   -0.597016
      7         11           0        2.481653   -2.329804    0.607360
 ---------------------------------------------------------------------

 SCF Done:  E(UB3LYP) =  -1136.12551765     A.U. after   23 cycles

 The electronic state is 2-A.
 Alpha  occ. eigenvalues --  -38.44981 -38.44652 -38.44028 -38.43783 -38.43404
 Alpha  occ. eigenvalues --  -38.43093 -38.42732  -2.20793  -2.20493  -2.19912
 Alpha  occ. eigenvalues --   -2.19571  -2.19372  -2.18908  -2.18592  -1.14468
 Alpha  occ. eigenvalues --   -1.14424  -1.14394  -1.14171  -1.14136  -1.14092
 Alpha  occ. eigenvalues --   -1.13669  -1.13578  -1.13489  -1.13242  -1.13232
 Alpha  occ. eigenvalues --   -1.13197  -1.13105  -1.13047  -1.12962  -1.12580
 Alpha  occ. eigenvalues --   -1.12575  -1.12542  -1.12291  -1.12243  -1.12224
 Alpha  occ. eigenvalues --   -0.18142  -0.13364  -0.11880  -0.11142
 Alpha virt. eigenvalues --   -0.05977  -0.05109  -0.04660  -0.03156  -0.02868
 Alpha virt. eigenvalues --   -0.02707  -0.01929  -0.01269  -0.00761   0.00065
 Alpha virt. eigenvalues --    0.00140   0.00208   0.00383   0.00554   0.00771

  Beta  occ. eigenvalues --  -38.44903 -38.44577 -38.44014 -38.43778 -38.43389
  Beta  occ. eigenvalues --  -38.43084 -38.42728  -2.20649  -2.20355  -2.19887
  Beta  occ. eigenvalues --   -2.19562  -2.19349  -2.18894  -2.18589  -1.14363
  Beta  occ. eigenvalues --   -1.14331  -1.14292  -1.14071  -1.14047  -1.13989
  Beta  occ. eigenvalues --   -1.13653  -1.13559  -1.13463  -1.13234  -1.13226
  Beta  occ. eigenvalues --   -1.13191  -1.13058  -1.13031  -1.12954  -1.12570
  Beta  occ. eigenvalues --   -1.12555  -1.12530  -1.12290  -1.12246  -1.12196
  Beta  occ. eigenvalues --   -0.17418  -0.13083  -0.10982
  Beta virt. eigenvalues --   -0.07966  -0.05670  -0.04761  -0.04327  -0.02749
  Beta virt. eigenvalues --   -0.02327  -0.02311  -0.01648  -0.00949  -0.00542
  Beta virt. eigenvalues --    0.00116   0.00249   0.00313   0.00473   0.00652

 Mulliken charges and spin densities:
               1          2
     1  Na   0.002502   0.209597
     2  Na  -1.095827   0.484897
     3  Na  -0.042449   0.383529
     4  Na   0.165280  -0.076884
     5  Na   0.525413   0.069654
     6  Na   0.077744  -0.044120
     7  Na   0.367337  -0.026673
 Sum of Mulliken charges =  -0.00000   1.00000

 Dipole moment (field-independent basis, Debye):
    X=              0.3105    Y=              0.5926    Z=              0.0075  Tot=              0.6691
 Quadrupole moment (field-independent basis, Debye-Ang):
   XX=            -57.3314   YY=            -73.0879   ZZ=            -63.0420
   XY=              0.8453   XZ=             -1.0139   YZ=              0.7622

 Normal termination of Gaussian 16 at Tue Dec  5 12:10:24 2023.
