 Gaussian 16, Revision B.01,
 Gaussian 16:  ES64L-G16RevB.01 20-Dec-2017

 -------------------------
 #P B3LYP/6-311+g(d) force
 -------------------------

 -----
 DPGEN
 -----
 Symbolic Z-matrix:
 Charge =  0 Multiplicity = 2

                         Standard orientation:
 ---------------------------------------------------------------------
 Center     Atomic      Atomic             Coordinates (Angstroms)
 Number     Number       Type             X           Y           Z
 ---------------------------------------------------------------------
      1         11           0        1.802074   -1.274219    2.388706
      2         11           0        3.398492   -0.691130   -0.184487
      3         11           0       -2.791624   -0.557551   -0.849777
      4         11           0        2.865725    2.603014   -0.605387
      5         11           0       -5.418211    0.794920    0.776032
      6         11           0        0.072192   -1.757660   -1.798088
      7         11           0        0.071352    0.882625    0.273001
 ---------------------------------------------------------------------

 SCF Done:  E(UB3LYP) =  -1136.10824635     A.U. after   26 cycles

 The electronic state is 2-A.
 Alpha  occ. eigenvalues --  -38.45006 -38.44902 -38.44769 -38.44654 -38.43961
 Alpha  occ. eigenvalues --  -38.43357 -38.43078  -2.20880  -2.20766  -2.20655
 Alpha  occ. eigenvalues --   -2.20453  -2.19807  -2.19223  -2.18907  -1.14644
 Alpha  occ. eigenvalues --   -1.14545  -1.14493  -1.14425  -1.14382  -1.14369
 Alpha  occ. eigenvalues --   -1.14349  -1.14316  -1.14272  -1.14090  -1.14087
 Alpha  occ. eigenvalues --   -1.14069  -1.13483  -1.13476  -1.13435  -1.12914
 Alpha  occ. eigenvalues --   -1.12896  -1.12865  -1.12567  -1.12566  -1.12546
 Alpha  occ. eigenvalues --   -0.17856  -0.14230  -0.11657  -0.11444
 Alpha virt. eigenvalues --   -0.07382  -0.05144  -0.04204  -0.03433  -0.03043
 Alpha virt. eigenvalues --   -0.02417  -0.02176  -0.01710  -0.01450  -0.00685
 Alpha virt. eigenvalues --   -0.00367  -0.00189   0.00118   0.00596   0.00712

  Beta  occ. eigenvalues --  -38.45000 -38.44797 -38.44778 -38.44554 -38.43946
  Beta  occ. eigenvalues --  -38.43353 -38.43060  -2.20874  -2.20675  -2.20570
  Beta  occ. eigenvalues --   -2.20267  -2.19784  -2.19225  -2.18873  -1.14593
  Beta  occ. eigenvalues --   -1.14542  -1.14495  -1.14369  -1.14355  -1.14298
  Beta  occ. eigenvalues --   -1.14271  -1.14248  -1.14223  -1.13962  -1.13961
  Beta  occ. eigenvalues --   -1.13948  -1.13468  -1.13451  -1.13422  -1.12926
  Beta  occ. eigenvalues --   -1.12903  -1.12808  -1.12549  -1.12534  -1.12528
  Beta  occ. eigenvalues --   -0.17437  -0.13365  -0.10990
  Beta virt. eigenvalues --   -0.08111  -0.07294  -0.04757  -0.03967  -0.03000
  Beta virt. eigenvalues --   -0.02893  -0.02173  -0.01842  -0.01359  -0.00914
  Beta virt. eigenvalues --   -0.00414  -0.00161   0.00010   0.00139   0.00651

 Mulliken charges and spin densities:
               1          2
     1  Na  -0.025228   0.234957
     2  Na   0.898273   0.282174
     3  Na  -0.478340   0.366151
     4  Na   0.453862   0.004473
     5  Na   0.237777   0.344914
     6  Na   0.432400  -0.247484
     7  Na  -1.518744   0.014815
 Sum of Mulliken charges =  -0.00000   1.00000

 Dipole moment (field-independent basis, Debye):
    X=              0.5944    Y=             -0.6910    Z=              0.2108  Tot=              0.9356
 Quadrupole moment (field-independent basis, Debye-Ang):
   XX=            -61.8027   YY=            -72.8347   ZZ=            -66.4733
   XY=             -4.1266   XZ=             -4.0786   YZ=              2.9606

 Normal termination of Gaussian 16 at Tue Nov 28 20:41:06 2023.
