 Gaussian 16, Revision B.01,
 Gaussian 16:  ES64L-G16RevB.01 20-Dec-2017

 -------------------------
 #P B3LYP/6-311+g(d) force
 -------------------------

 -----
 DPGEN
 -----
 Symbolic Z-matrix:
 Charge =  0 Multiplicity = 2

                         Standard orientation:
 ---------------------------------------------------------------------
 Center     Atomic      Atomic             Coordinates (Angstroms)
 Number     Number       Type             X           Y           Z
 ---------------------------------------------------------------------
      1         11           0        1.788461    2.216721   -0.807519
      2         11           0       -0.978040   -0.524253   -1.599935
      3         11           0       -0.662067   -1.869737    0.611446
      4         11           0        2.526018   -1.821809   -0.769942
      5         11           0       -3.681333   -0.485833    0.365557
      6         11           0        2.161027   -0.010253    1.844369
      7         11           0       -1.154066    2.495166    0.356024
 ---------------------------------------------------------------------

 SCF Done:  E(UB3LYP) =  -1136.12312283     A.U. after   21 cycles

 The electronic state is 2-A.
 Alpha  occ. eigenvalues --  -38.44487 -38.43993 -38.43989 -38.43936 -38.43738
 Alpha  occ. eigenvalues --  -38.43530 -38.43431  -2.20320  -2.20013  -2.19887
 Alpha  occ. eigenvalues --   -2.19832  -2.19611  -2.19352  -2.19271  -1.14196
 Alpha  occ. eigenvalues --   -1.13989  -1.13974  -1.13957  -1.13620  -1.13568
 Alpha  occ. eigenvalues --   -1.13527  -1.13504  -1.13490  -1.13480  -1.13426
 Alpha  occ. eigenvalues --   -1.13359  -1.13270  -1.13249  -1.13220  -1.13074
 Alpha  occ. eigenvalues --   -1.13020  -1.12999  -1.12928  -1.12917  -1.12888
 Alpha  occ. eigenvalues --   -0.18425  -0.13690  -0.12166  -0.10510
 Alpha virt. eigenvalues --   -0.06074  -0.05286  -0.04454  -0.03666  -0.02789
 Alpha virt. eigenvalues --   -0.02270  -0.01981  -0.00971  -0.00399  -0.00184
 Alpha virt. eigenvalues --    0.00141   0.00298   0.00571   0.00734   0.00832

  Beta  occ. eigenvalues --  -38.44474 -38.43980 -38.43934 -38.43921 -38.43674
  Beta  occ. eigenvalues --  -38.43529 -38.43421  -2.20296  -2.19936  -2.19836
  Beta  occ. eigenvalues --   -2.19819  -2.19491  -2.19351  -2.19256  -1.14142
  Beta  occ. eigenvalues --   -1.13966  -1.13958  -1.13941  -1.13565  -1.13522
  Beta  occ. eigenvalues --   -1.13499  -1.13471  -1.13461  -1.13442  -1.13386
  Beta  occ. eigenvalues --   -1.13307  -1.13185  -1.13174  -1.13139  -1.13069
  Beta  occ. eigenvalues --   -1.13009  -1.13001  -1.12911  -1.12893  -1.12883
  Beta  occ. eigenvalues --   -0.17758  -0.13446  -0.11959
  Beta virt. eigenvalues --   -0.06798  -0.05856  -0.05243  -0.04130  -0.03219
  Beta virt. eigenvalues --   -0.02163  -0.01936  -0.01340  -0.00901  -0.00268
  Beta virt. eigenvalues --    0.00024   0.00159   0.00372   0.00723   0.00836

 Mulliken charges and spin densities:
               1          2
     1  Na   0.020612   0.090182
     2  Na  -0.287643   0.357178
     3  Na  -0.344107   0.289125
     4  Na   0.469651   0.052623
     5  Na   0.611524  -0.013317
     6  Na  -0.208292   0.270036
     7  Na  -0.261745  -0.045827
 Sum of Mulliken charges =  -0.00000   1.00000

 Dipole moment (field-independent basis, Debye):
    X=             -0.5070    Y=             -0.0957    Z=             -0.0655  Tot=              0.5201
 Quadrupole moment (field-independent basis, Debye-Ang):
   XX=            -51.6410   YY=            -71.5500   ZZ=            -71.1109
   XY=             -1.4029   XZ=             -3.9390   YZ=              0.8129

 Normal termination of Gaussian 16 at Thu Dec  7 18:53:45 2023.
