 Gaussian 16, Revision B.01,
 Gaussian 16:  ES64L-G16RevB.01 20-Dec-2017

 -------------------------
 #P B3LYP/6-311+g(d) force
 -------------------------

 -----
 DPGEN
 -----
 Symbolic Z-matrix:
 Charge =  0 Multiplicity = 2

                         Standard orientation:
 ---------------------------------------------------------------------
 Center     Atomic      Atomic             Coordinates (Angstroms)
 Number     Number       Type             X           Y           Z
 ---------------------------------------------------------------------
      1         11           0        2.000133   -2.023107    0.689261
      2         11           0        2.177446    1.763137    0.701920
      3         11           0       -0.830676    3.363645   -0.335492
      4         11           0        4.602312   -0.677201   -0.732569
      5         11           0       -3.213899   -3.017852   -0.166563
      6         11           0       -3.903567    1.005612    0.156166
      7         11           0       -0.831749   -0.414235   -0.312722
 ---------------------------------------------------------------------

 SCF Done:  E(UB3LYP) =  -1136.12139315     A.U. after   22 cycles

 The electronic state is 2-A.
 Alpha  occ. eigenvalues --  -38.44946 -38.44695 -38.44459 -38.44265 -38.43697
 Alpha  occ. eigenvalues --  -38.43474 -38.43328  -2.20677  -2.20491  -2.20287
 Alpha  occ. eigenvalues --   -2.20064  -2.19536  -2.19255  -2.19219  -1.14363
 Alpha  occ. eigenvalues --   -1.14338  -1.14318  -1.14192  -1.14163  -1.14094
 Alpha  occ. eigenvalues --   -1.13973  -1.13969  -1.13913  -1.13731  -1.13723
 Alpha  occ. eigenvalues --   -1.13660  -1.13188  -1.13176  -1.13147  -1.12940
 Alpha  occ. eigenvalues --   -1.12928  -1.12914  -1.12904  -1.12898  -1.12815
 Alpha  occ. eigenvalues --   -0.16866  -0.14073  -0.12103  -0.10120
 Alpha virt. eigenvalues --   -0.06915  -0.05447  -0.04878  -0.03338  -0.02621
 Alpha virt. eigenvalues --   -0.02394  -0.02085  -0.01625  -0.01095  -0.00813
 Alpha virt. eigenvalues --   -0.00089   0.00091   0.00326   0.00460   0.00493

  Beta  occ. eigenvalues --  -38.44963 -38.44678 -38.44445 -38.44195 -38.43616
  Beta  occ. eigenvalues --  -38.43479 -38.43292  -2.20710  -2.20463  -2.20268
  Beta  occ. eigenvalues --   -2.19932  -2.19384  -2.19266  -2.19159  -1.14387
  Beta  occ. eigenvalues --   -1.14351  -1.14340  -1.14173  -1.14137  -1.14069
  Beta  occ. eigenvalues --   -1.13964  -1.13936  -1.13878  -1.13641  -1.13636
  Beta  occ. eigenvalues --   -1.13571  -1.13084  -1.13070  -1.13050  -1.12950
  Beta  occ. eigenvalues --   -1.12921  -1.12893  -1.12892  -1.12828  -1.12777
  Beta  occ. eigenvalues --   -0.16274  -0.13501  -0.11924
  Beta virt. eigenvalues --   -0.06815  -0.06551  -0.05145  -0.04647  -0.02828
  Beta virt. eigenvalues --   -0.02372  -0.02078  -0.01704  -0.01580  -0.01039
  Beta virt. eigenvalues --   -0.00417   0.00227   0.00286   0.00435   0.00562

 Mulliken charges and spin densities:
               1          2
     1  Na  -0.070972   0.124744
     2  Na   0.381334   0.098663
     3  Na   0.412037  -0.069544
     4  Na   0.494638   0.456894
     5  Na   0.198951  -0.048035
     6  Na   0.569331   0.412297
     7  Na  -1.985319   0.024981
 Sum of Mulliken charges =  -0.00000   1.00000

 Dipole moment (field-independent basis, Debye):
    X=             -0.4212    Y=             -0.4883    Z=              0.3195  Tot=              0.7197
 Quadrupole moment (field-independent basis, Debye-Ang):
   XX=            -66.7203   YY=            -60.0559   ZZ=            -70.6858
   XY=              6.4022   XZ=              0.4305   YZ=             -0.6425

 Normal termination of Gaussian 16 at Wed Nov 29 16:58:29 2023.
