 Gaussian 16, Revision B.01,
 Gaussian 16:  ES64L-G16RevB.01 20-Dec-2017

 -------------------------
 #P B3LYP/6-311+g(d) force
 -------------------------

 -----
 DPGEN
 -----
 Symbolic Z-matrix:
 Charge =  0 Multiplicity = 2

                         Standard orientation:
 ---------------------------------------------------------------------
 Center     Atomic      Atomic             Coordinates (Angstroms)
 Number     Number       Type             X           Y           Z
 ---------------------------------------------------------------------
      1         11           0       -3.377649   -1.779955    0.196654
      2         11           0        0.547714    2.522164   -0.728248
      3         11           0       -2.833170    1.739920   -0.108969
      4         11           0       -0.563941   -0.905222   -1.120191
      5         11           0        2.363715   -2.345927   -0.448238
      6         11           0        3.694594    0.692272    0.229567
      7         11           0        0.168737    0.076748    1.979425
 ---------------------------------------------------------------------

 SCF Done:  E(UB3LYP) =  -1136.12082652     A.U. after   28 cycles

 The electronic state is 2-A.
 Alpha  occ. eigenvalues --  -38.45698 -38.44697 -38.44595 -38.43837 -38.43801
 Alpha  occ. eigenvalues --  -38.43472 -38.42751  -2.21465  -2.20492  -2.20404
 Alpha  occ. eigenvalues --   -2.19656  -2.19650  -2.19404  -2.18582  -1.15139
 Alpha  occ. eigenvalues --   -1.15124  -1.15104  -1.14175  -1.14151  -1.14136
 Alpha  occ. eigenvalues --   -1.14081  -1.14060  -1.14034  -1.13361  -1.13340
 Alpha  occ. eigenvalues --   -1.13307  -1.13295  -1.13272  -1.13249  -1.13109
 Alpha  occ. eigenvalues --   -1.13048  -1.13021  -1.12270  -1.12242  -1.12214
 Alpha  occ. eigenvalues --   -0.17995  -0.13804  -0.11645  -0.09952
 Alpha virt. eigenvalues --   -0.07252  -0.06063  -0.04013  -0.03326  -0.02739
 Alpha virt. eigenvalues --   -0.02334  -0.01906  -0.01806  -0.00971  -0.00320
 Alpha virt. eigenvalues --   -0.00120   0.00104   0.00480   0.00589   0.00598

  Beta  occ. eigenvalues --  -38.45699 -38.44700 -38.44589 -38.43821 -38.43706
  Beta  occ. eigenvalues --  -38.43436 -38.42737  -2.21468  -2.20499  -2.20394
  Beta  occ. eigenvalues --   -2.19627  -2.19475  -2.19341  -2.18557  -1.15134
  Beta  occ. eigenvalues --   -1.15122  -1.15104  -1.14177  -1.14157  -1.14133
  Beta  occ. eigenvalues --   -1.14060  -1.14056  -1.14027  -1.13319  -1.13284
  Beta  occ. eigenvalues --   -1.13270  -1.13239  -1.13153  -1.13122  -1.13052
  Beta  occ. eigenvalues --   -1.12995  -1.12974  -1.12254  -1.12215  -1.12189
  Beta  occ. eigenvalues --   -0.17345  -0.13673  -0.11372
  Beta virt. eigenvalues --   -0.07127  -0.06241  -0.05969  -0.03865  -0.02790
  Beta virt. eigenvalues --   -0.02562  -0.01888  -0.01544  -0.00992  -0.00955
  Beta virt. eigenvalues --   -0.00198   0.00016   0.00146   0.00561   0.00638

 Mulliken charges and spin densities:
               1          2
     1  Na   0.301434  -0.011561
     2  Na  -0.140718  -0.006024
     3  Na   0.319956   0.044754
     4  Na  -0.454594   0.246682
     5  Na   0.193108   0.021235
     6  Na   0.157277   0.075668
     7  Na  -0.376463   0.629246
 Sum of Mulliken charges =  -0.00000   1.00000

 Dipole moment (field-independent basis, Debye):
    X=             -0.0062    Y=              0.0971    Z=              0.2965  Tot=              0.3121
 Quadrupole moment (field-independent basis, Debye-Ang):
   XX=            -42.5327   YY=            -69.7248   ZZ=            -78.4436
   XY=              1.8821   XZ=             -0.9455   YZ=             -0.8211

 Normal termination of Gaussian 16 at Thu Dec  7 05:46:57 2023.
