 Gaussian 16, Revision B.01,
 Gaussian 16:  ES64L-G16RevB.01 20-Dec-2017

 -------------------------
 #P B3LYP/6-311+g(d) force
 -------------------------

 -----
 DPGEN
 -----
 Symbolic Z-matrix:
 Charge =  0 Multiplicity = 2

                         Standard orientation:
 ---------------------------------------------------------------------
 Center     Atomic      Atomic             Coordinates (Angstroms)
 Number     Number       Type             X           Y           Z
 ---------------------------------------------------------------------
      1         11           0        0.092324    2.882669   -0.393553
      2         11           0        3.642667   -1.899954   -0.164425
      3         11           0       -3.071617    1.232167   -0.414132
      4         11           0        2.920768    1.249460    0.269203
      5         11           0       -3.520148   -1.865609    0.544628
      6         11           0        0.109579   -0.192825    1.842076
      7         11           0       -0.173574   -1.405908   -1.683797
 ---------------------------------------------------------------------

 SCF Done:  E(UB3LYP) =  -1136.11767901     A.U. after   23 cycles

 The electronic state is 2-A.
 Alpha  occ. eigenvalues --  -38.44909 -38.44858 -38.44831 -38.44489 -38.44431
 Alpha  occ. eigenvalues --  -38.44341 -38.42517  -2.20718  -2.20664  -2.20601
 Alpha  occ. eigenvalues --   -2.20257  -2.20222  -2.20192  -2.18344  -1.14393
 Alpha  occ. eigenvalues --   -1.14375  -1.14367  -1.14360  -1.14300  -1.14286
 Alpha  occ. eigenvalues --   -1.14276  -1.14257  -1.14191  -1.13972  -1.13923
 Alpha  occ. eigenvalues --   -1.13900  -1.13900  -1.13873  -1.13868  -1.13857
 Alpha  occ. eigenvalues --   -1.13853  -1.13801  -1.12023  -1.12005  -1.11993
 Alpha  occ. eigenvalues --   -0.17526  -0.13852  -0.11689  -0.10187
 Alpha virt. eigenvalues --   -0.07262  -0.06152  -0.04345  -0.03391  -0.02801
 Alpha virt. eigenvalues --   -0.02599  -0.02151  -0.01720  -0.01102  -0.00398
 Alpha virt. eigenvalues --   -0.00224   0.00119   0.00360   0.00438   0.00617

  Beta  occ. eigenvalues --  -38.44892 -38.44790 -38.44759 -38.44506 -38.44418
  Beta  occ. eigenvalues --  -38.44338 -38.42513  -2.20690  -2.20538  -2.20467
  Beta  occ. eigenvalues --   -2.20291  -2.20199  -2.20188  -2.18338  -1.14364
  Beta  occ. eigenvalues --   -1.14357  -1.14339  -1.14269  -1.14217  -1.14192
  Beta  occ. eigenvalues --   -1.14181  -1.14160  -1.14097  -1.13997  -1.13939
  Beta  occ. eigenvalues --   -1.13917  -1.13885  -1.13859  -1.13846  -1.13845
  Beta  occ. eigenvalues --   -1.13837  -1.13814  -1.12021  -1.12002  -1.11972
  Beta  occ. eigenvalues --   -0.16902  -0.13782  -0.11434
  Beta virt. eigenvalues --   -0.07017  -0.06626  -0.05949  -0.04060  -0.02948
  Beta virt. eigenvalues --   -0.02592  -0.02017  -0.01751  -0.01226  -0.01039
  Beta virt. eigenvalues --   -0.00200  -0.00142   0.00169   0.00523   0.00557

 Mulliken charges and spin densities:
               1          2
     1  Na  -0.073197  -0.045171
     2  Na   0.244335  -0.108253
     3  Na  -0.066403   0.123058
     4  Na   0.145213   0.088588
     5  Na   0.416958   0.084737
     6  Na  -0.261381   0.397187
     7  Na  -0.405526   0.459854
 Sum of Mulliken charges =  -0.00000   1.00000

 Dipole moment (field-independent basis, Debye):
    X=             -0.2237    Y=             -0.5493    Z=              0.0826  Tot=              0.5988
 Quadrupole moment (field-independent basis, Debye-Ang):
   XX=            -50.3787   YY=            -69.3440   ZZ=            -76.3793
   XY=              0.0865   XZ=              0.3577   YZ=             -1.6272

 Normal termination of Gaussian 16 at Fri Dec  8 07:43:14 2023.
