 Gaussian 16, Revision B.01,
 Gaussian 16:  ES64L-G16RevB.01 20-Dec-2017

 -------------------------
 #P B3LYP/6-311+g(d) force
 -------------------------

 -----
 DPGEN
 -----
 Symbolic Z-matrix:
 Charge =  0 Multiplicity = 2

                         Standard orientation:
 ---------------------------------------------------------------------
 Center     Atomic      Atomic             Coordinates (Angstroms)
 Number     Number       Type             X           Y           Z
 ---------------------------------------------------------------------
      1         11           0        0.095773    3.249088    0.315814
      2         11           0        5.379813   -0.668819   -1.389686
      3         11           0        2.926234    1.214657    0.318711
      4         11           0        2.468002   -2.297128    1.688875
      5         11           0       -0.522920   -0.202908   -0.149582
      6         11           0       -4.052237   -1.273222   -1.190151
      7         11           0       -6.294665   -0.021668    0.406019
 ---------------------------------------------------------------------

 SCF Done:  E(UB3LYP) =  -1136.10834031     A.U. after   20 cycles

 The electronic state is 2-A.
 Alpha  occ. eigenvalues --  -38.45066 -38.44799 -38.44527 -38.44399 -38.44059
 Alpha  occ. eigenvalues --  -38.43813 -38.43458  -2.20857  -2.20559  -2.20309
 Alpha  occ. eigenvalues --   -2.20206  -2.19823  -2.19642  -2.19261  -1.14545
 Alpha  occ. eigenvalues --   -1.14505  -1.14502  -1.14231  -1.14203  -1.14167
 Alpha  occ. eigenvalues --   -1.14006  -1.13961  -1.13938  -1.13864  -1.13860
 Alpha  occ. eigenvalues --   -1.13851  -1.13488  -1.13482  -1.13438  -1.13353
 Alpha  occ. eigenvalues --   -1.13329  -1.13231  -1.12923  -1.12921  -1.12884
 Alpha  occ. eigenvalues --   -0.15934  -0.13904  -0.11750  -0.10899
 Alpha virt. eigenvalues --   -0.07336  -0.04981  -0.04800  -0.03334  -0.03101
 Alpha virt. eigenvalues --   -0.02402  -0.02023  -0.01646  -0.01465  -0.01007
 Alpha virt. eigenvalues --   -0.00651  -0.00254   0.00220   0.00400   0.00499

  Beta  occ. eigenvalues --  -38.45055 -38.44730 -38.44506 -38.44401 -38.44011
  Beta  occ. eigenvalues --  -38.43792 -38.43436  -2.20836  -2.20432  -2.20270
  Beta  occ. eigenvalues --   -2.20211  -2.19735  -2.19606  -2.19220  -1.14533
  Beta  occ. eigenvalues --   -1.14491  -1.14487  -1.14146  -1.14111  -1.14078
  Beta  occ. eigenvalues --   -1.13981  -1.13936  -1.13896  -1.13865  -1.13863
  Beta  occ. eigenvalues --   -1.13851  -1.13427  -1.13416  -1.13384  -1.13329
  Beta  occ. eigenvalues --   -1.13288  -1.13203  -1.12895  -1.12888  -1.12861
  Beta  occ. eigenvalues --   -0.15377  -0.13709  -0.11348
  Beta virt. eigenvalues --   -0.07612  -0.06635  -0.04737  -0.04502  -0.03189
  Beta virt. eigenvalues --   -0.02875  -0.02062  -0.01678  -0.01398  -0.01288
  Beta virt. eigenvalues --   -0.00719  -0.00375  -0.00043   0.00309   0.00511

 Mulliken charges and spin densities:
               1          2
     1  Na   0.341667   0.106721
     2  Na   0.329808   0.189201
     3  Na   0.154082   0.319590
     4  Na   0.351775   0.247974
     5  Na  -0.906293   0.145199
     6  Na  -0.390027  -0.049875
     7  Na   0.118988   0.041190
 Sum of Mulliken charges =  -0.00000   1.00000

 Dipole moment (field-independent basis, Debye):
    X=             -1.7369    Y=             -0.0594    Z=              0.2795  Tot=              1.7602
 Quadrupole moment (field-independent basis, Debye-Ang):
   XX=            -59.8970   YY=            -66.8452   ZZ=            -67.3442
   XY=             -6.2858   XZ=             -4.4961   YZ=              3.0946

 Normal termination of Gaussian 16 at Wed Nov 29 01:57:08 2023.
