 Gaussian 16, Revision B.01,
 Gaussian 16:  ES64L-G16RevB.01 20-Dec-2017

 -------------------------
 #P B3LYP/6-311+g(d) force
 -------------------------

 -----
 DPGEN
 -----
 Symbolic Z-matrix:
 Charge =  0 Multiplicity = 2

                         Standard orientation:
 ---------------------------------------------------------------------
 Center     Atomic      Atomic             Coordinates (Angstroms)
 Number     Number       Type             X           Y           Z
 ---------------------------------------------------------------------
      1         11           0       -3.611962   -0.163604   -0.421608
      2         11           0        3.898377    0.166891   -0.091344
      3         11           0        1.592939    2.515148    0.271513
      4         11           0       -1.974981    2.987232    0.236285
      5         11           0        1.631717   -2.619569   -0.069562
      6         11           0       -1.694812   -2.904827    0.556202
      7         11           0        0.158722    0.018729   -0.481487
 ---------------------------------------------------------------------

 SCF Done:  E(UB3LYP) =  -1136.12550508     A.U. after   22 cycles

 The electronic state is 2-A.
 Alpha  occ. eigenvalues --  -38.44300 -38.44262 -38.44219 -38.44037 -38.43993
 Alpha  occ. eigenvalues --  -38.43321 -38.43121  -2.20146  -2.20121  -2.20019
 Alpha  occ. eigenvalues --   -2.20004  -2.19872  -2.19181  -2.18962  -1.13962
 Alpha  occ. eigenvalues --   -1.13814  -1.13805  -1.13790  -1.13773  -1.13755
 Alpha  occ. eigenvalues --   -1.13724  -1.13698  -1.13697  -1.13669  -1.13650
 Alpha  occ. eigenvalues --   -1.13603  -1.13527  -1.13495  -1.13470  -1.12838
 Alpha  occ. eigenvalues --   -1.12831  -1.12794  -1.12619  -1.12602  -1.12588
 Alpha  occ. eigenvalues --   -0.17647  -0.13884  -0.13455  -0.09631
 Alpha virt. eigenvalues --   -0.06577  -0.05841  -0.04340  -0.03119  -0.02555
 Alpha virt. eigenvalues --   -0.02332  -0.02187  -0.01647  -0.01173  -0.00200
 Alpha virt. eigenvalues --    0.00072   0.00333   0.00516   0.00690   0.00704

  Beta  occ. eigenvalues --  -38.44293 -38.44246 -38.44204 -38.44038 -38.43965
  Beta  occ. eigenvalues --  -38.43256 -38.43047  -2.20124  -2.20116  -2.20006
  Beta  occ. eigenvalues --   -2.19995  -2.19826  -2.19059  -2.18824  -1.13956
  Beta  occ. eigenvalues --   -1.13808  -1.13805  -1.13791  -1.13733  -1.13712
  Beta  occ. eigenvalues --   -1.13704  -1.13684  -1.13672  -1.13654  -1.13616
  Beta  occ. eigenvalues --   -1.13609  -1.13498  -1.13475  -1.13421  -1.12754
  Beta  occ. eigenvalues --   -1.12747  -1.12716  -1.12525  -1.12510  -1.12495
  Beta  occ. eigenvalues --   -0.17347  -0.13152  -0.12868
  Beta virt. eigenvalues --   -0.06604  -0.06327  -0.05609  -0.04206  -0.02381
  Beta virt. eigenvalues --   -0.02221  -0.02096  -0.01867  -0.01361  -0.01058
  Beta virt. eigenvalues --   -0.00088   0.00366   0.00518   0.00570   0.00752

 Mulliken charges and spin densities:
               1          2
     1  Na   0.339568   0.546339
     2  Na   0.781333   0.426701
     3  Na   0.476956   0.159055
     4  Na   0.505242  -0.011484
     5  Na   0.550779   0.114100
     6  Na   0.620065   0.015864
     7  Na  -3.273943  -0.250576
 Sum of Mulliken charges =  -0.00000   1.00000

 Dipole moment (field-independent basis, Debye):
    X=              0.2543    Y=             -0.0400    Z=              0.5015  Tot=              0.5637
 Quadrupole moment (field-independent basis, Debye-Ang):
   XX=            -70.5070   YY=            -58.2110   ZZ=            -70.7748
   XY=             -4.2532   XZ=             -1.1044   YZ=             -0.3262

 Normal termination of Gaussian 16 at Wed Nov 29 16:59:12 2023.
