 Gaussian 16, Revision B.01,
 Gaussian 16:  ES64L-G16RevB.01 20-Dec-2017

 -------------------------
 #P B3LYP/6-311+g(d) force
 -------------------------

 -----
 DPGEN
 -----
 Symbolic Z-matrix:
 Charge =  0 Multiplicity = 2

                         Standard orientation:
 ---------------------------------------------------------------------
 Center     Atomic      Atomic             Coordinates (Angstroms)
 Number     Number       Type             X           Y           Z
 ---------------------------------------------------------------------
      1         11           0        0.668639   -1.037940   -0.616198
      2         11           0        0.627346    3.409054   -0.369975
      3         11           0       -2.942943   -2.520274   -0.710991
      4         11           0        4.050962   -1.682929   -0.631233
      5         11           0       -2.275183   -0.394787    1.964502
      6         11           0       -2.116251    1.795502   -1.183132
      7         11           0        1.987430    0.431374    1.547027
 ---------------------------------------------------------------------

 SCF Done:  E(UB3LYP) =  -1136.11920686     A.U. after   20 cycles

 The electronic state is 2-A.
 Alpha  occ. eigenvalues --  -38.44501 -38.44346 -38.44344 -38.44234 -38.44135
 Alpha  occ. eigenvalues --  -38.43973 -38.43485  -2.20301  -2.20132  -2.20118
 Alpha  occ. eigenvalues --   -2.20110  -2.19999  -2.19782  -2.19272  -1.13981
 Alpha  occ. eigenvalues --   -1.13971  -1.13952  -1.13922  -1.13803  -1.13794
 Alpha  occ. eigenvalues --   -1.13788  -1.13780  -1.13770  -1.13763  -1.13743
 Alpha  occ. eigenvalues --   -1.13693  -1.13643  -1.13627  -1.13560  -1.13464
 Alpha  occ. eigenvalues --   -1.13442  -1.13398  -1.12939  -1.12933  -1.12918
 Alpha  occ. eigenvalues --   -0.17227  -0.13397  -0.12041  -0.10275
 Alpha virt. eigenvalues --   -0.06474  -0.05843  -0.04631  -0.03455  -0.02771
 Alpha virt. eigenvalues --   -0.02247  -0.02047  -0.01644  -0.00630  -0.00570
 Alpha virt. eigenvalues --   -0.00301   0.00126   0.00203   0.00480   0.00604

  Beta  occ. eigenvalues --  -38.44450 -38.44338 -38.44323 -38.44221 -38.44092
  Beta  occ. eigenvalues --  -38.43939 -38.43487  -2.20205  -2.20104  -2.20092
  Beta  occ. eigenvalues --   -2.20090  -2.19920  -2.19718  -2.19278  -1.13937
  Beta  occ. eigenvalues --   -1.13905  -1.13888  -1.13850  -1.13778  -1.13772
  Beta  occ. eigenvalues --   -1.13768  -1.13762  -1.13756  -1.13740  -1.13733
  Beta  occ. eigenvalues --   -1.13669  -1.13596  -1.13577  -1.13499  -1.13415
  Beta  occ. eigenvalues --   -1.13400  -1.13353  -1.12945  -1.12927  -1.12919
  Beta  occ. eigenvalues --   -0.16637  -0.13199  -0.11802
  Beta virt. eigenvalues --   -0.06834  -0.06069  -0.05706  -0.04127  -0.03213
  Beta virt. eigenvalues --   -0.02418  -0.01984  -0.01515  -0.01458  -0.00535
  Beta virt. eigenvalues --   -0.00193  -0.00053   0.00214   0.00277   0.00560

 Mulliken charges and spin densities:
               1          2
     1  Na  -1.868577   0.121155
     2  Na  -0.388274  -0.049589
     3  Na   0.926221   0.035548
     4  Na   0.064076   0.124384
     5  Na   0.085077   0.192004
     6  Na   0.701158   0.238382
     7  Na   0.480318   0.338117
 Sum of Mulliken charges =  -0.00000   1.00000

 Dipole moment (field-independent basis, Debye):
    X=              0.3033    Y=             -0.5369    Z=              0.1388  Tot=              0.6321
 Quadrupole moment (field-independent basis, Debye-Ang):
   XX=            -53.2504   YY=            -68.0890   ZZ=            -71.6772
   XY=              2.5588   XZ=             -0.1656   YZ=              4.0007

 Normal termination of Gaussian 16 at Tue Dec  5 18:01:33 2023.
