 Gaussian 16, Revision B.01,
 Gaussian 16:  ES64L-G16RevB.01 20-Dec-2017

 -------------------------
 #P B3LYP/6-311+g(d) force
 -------------------------

 -----
 DPGEN
 -----
 Symbolic Z-matrix:
 Charge =  0 Multiplicity = 2

                         Standard orientation:
 ---------------------------------------------------------------------
 Center     Atomic      Atomic             Coordinates (Angstroms)
 Number     Number       Type             X           Y           Z
 ---------------------------------------------------------------------
      1         11           0        0.477203   -2.620551   -0.244024
      2         11           0        2.965167   -0.671419   -0.080145
      3         11           0       -0.021815   -0.088506    1.933852
      4         11           0        1.330653    2.636522    0.108929
      5         11           0        0.020069    0.286594   -1.576616
      6         11           0       -2.120936    1.771016   -0.176359
      7         11           0       -2.650341   -1.313656    0.034363
 ---------------------------------------------------------------------

 SCF Done:  E(UB3LYP) =  -1136.13626364     A.U. after   19 cycles

 The electronic state is 2-A.
 Alpha  occ. eigenvalues --  -38.43852 -38.43561 -38.43503 -38.43424 -38.43327
 Alpha  occ. eigenvalues --  -38.43121 -38.43024  -2.19720  -2.19504  -2.19405
 Alpha  occ. eigenvalues --   -2.19291  -2.19284  -2.19101  -2.19052  -1.13411
 Alpha  occ. eigenvalues --   -1.13382  -1.13359  -1.13291  -1.13190  -1.13143
 Alpha  occ. eigenvalues --   -1.13070  -1.13059  -1.13019  -1.13003  -1.12971
 Alpha  occ. eigenvalues --   -1.12953  -1.12914  -1.12908  -1.12887  -1.12805
 Alpha  occ. eigenvalues --   -1.12750  -1.12705  -1.12702  -1.12677  -1.12669
 Alpha  occ. eigenvalues --   -0.19420  -0.13227  -0.12713  -0.10869
 Alpha virt. eigenvalues --   -0.05394  -0.05046  -0.04573  -0.03167  -0.02920
 Alpha virt. eigenvalues --   -0.02456  -0.01388  -0.01063  -0.00093  -0.00040
 Alpha virt. eigenvalues --    0.00035   0.00364   0.00851   0.00930   0.00968

  Beta  occ. eigenvalues --  -38.43849 -38.43551 -38.43498 -38.43419 -38.43234
  Beta  occ. eigenvalues --  -38.43111 -38.42956  -2.19717  -2.19490  -2.19399
  Beta  occ. eigenvalues --   -2.19286  -2.19115  -2.19039  -2.18979  -1.13409
  Beta  occ. eigenvalues --   -1.13366  -1.13351  -1.13273  -1.13178  -1.13111
  Beta  occ. eigenvalues --   -1.13067  -1.13025  -1.13015  -1.12992  -1.12931
  Beta  occ. eigenvalues --   -1.12914  -1.12859  -1.12796  -1.12769  -1.12756
  Beta  occ. eigenvalues --   -1.12679  -1.12672  -1.12661  -1.12618  -1.12601
  Beta  occ. eigenvalues --   -0.18669  -0.12954  -0.12446
  Beta virt. eigenvalues --   -0.06898  -0.05382  -0.05039  -0.04567  -0.02332
  Beta virt. eigenvalues --   -0.02108  -0.01376  -0.01307  -0.01004  -0.00142
  Beta virt. eigenvalues --   -0.00078   0.00146   0.00385   0.00897   0.00920

 Mulliken charges and spin densities:
               1          2
     1  Na   0.258520  -0.012843
     2  Na   0.096238  -0.076350
     3  Na  -0.638379   0.764007
     4  Na   0.146086  -0.085065
     5  Na  -0.549168   0.419861
     6  Na   0.445068  -0.012218
     7  Na   0.241636   0.002609
 Sum of Mulliken charges =  -0.00000   1.00000

 Dipole moment (field-independent basis, Debye):
    X=              0.1899    Y=              0.0908    Z=              0.2213  Tot=              0.3054
 Quadrupole moment (field-independent basis, Debye-Ang):
   XX=            -56.8667   YY=            -62.6070   ZZ=            -73.9783
   XY=              0.8251   XZ=              0.1242   YZ=              0.7915

 Normal termination of Gaussian 16 at Fri Dec  8 05:41:03 2023.
