 Gaussian 16, Revision B.01,
 Gaussian 16:  ES64L-G16RevB.01 20-Dec-2017

 -------------------------
 #P B3LYP/6-311+g(d) force
 -------------------------

 -----
 DPGEN
 -----
 Symbolic Z-matrix:
 Charge =  0 Multiplicity = 2

                         Standard orientation:
 ---------------------------------------------------------------------
 Center     Atomic      Atomic             Coordinates (Angstroms)
 Number     Number       Type             X           Y           Z
 ---------------------------------------------------------------------
      1         11           0       -0.554198   -0.126494    2.003647
      2         11           0       -1.969229   -2.113937   -0.771373
      3         11           0        0.264508    0.368540   -1.620208
      4         11           0        3.437152   -0.057691    0.265982
      5         11           0        1.098974   -2.331048    0.126465
      6         11           0       -3.062246    1.277554    0.267642
      7         11           0        0.785038    2.983075   -0.272155
 ---------------------------------------------------------------------

 SCF Done:  E(UB3LYP) =  -1136.13108871     A.U. after   19 cycles

 The electronic state is 2-A.
 Alpha  occ. eigenvalues --  -38.44506 -38.44410 -38.43870 -38.43688 -38.43469
 Alpha  occ. eigenvalues --  -38.43233 -38.42874  -2.20301  -2.20204  -2.19759
 Alpha  occ. eigenvalues --   -2.19510  -2.19346  -2.19208  -2.18811  -1.13979
 Alpha  occ. eigenvalues --   -1.13965  -1.13931  -1.13891  -1.13857  -1.13838
 Alpha  occ. eigenvalues --   -1.13432  -1.13392  -1.13376  -1.13286  -1.13158
 Alpha  occ. eigenvalues --   -1.13114  -1.13037  -1.13007  -1.12971  -1.12884
 Alpha  occ. eigenvalues --   -1.12843  -1.12809  -1.12496  -1.12472  -1.12442
 Alpha  occ. eigenvalues --   -0.18525  -0.12978  -0.12356  -0.10849
 Alpha virt. eigenvalues --   -0.06200  -0.04954  -0.04387  -0.03272  -0.02914
 Alpha virt. eigenvalues --   -0.02545  -0.01878  -0.01108  -0.00510  -0.00129
 Alpha virt. eigenvalues --   -0.00002   0.00310   0.00745   0.00784   0.00836

  Beta  occ. eigenvalues --  -38.44503 -38.44402 -38.43789 -38.43682 -38.43443
  Beta  occ. eigenvalues --  -38.43170 -38.42864  -2.20297  -2.20192  -2.19609
  Beta  occ. eigenvalues --   -2.19500  -2.19301  -2.19096  -2.18799  -1.13979
  Beta  occ. eigenvalues --   -1.13951  -1.13928  -1.13867  -1.13847  -1.13832
  Beta  occ. eigenvalues --   -1.13331  -1.13287  -1.13268  -1.13263  -1.13143
  Beta  occ. eigenvalues --   -1.13111  -1.13004  -1.12969  -1.12931  -1.12809
  Beta  occ. eigenvalues --   -1.12766  -1.12729  -1.12491  -1.12451  -1.12410
  Beta  occ. eigenvalues --   -0.17821  -0.12741  -0.12058
  Beta virt. eigenvalues --   -0.07026  -0.06072  -0.04871  -0.04370  -0.02589
  Beta virt. eigenvalues --   -0.02187  -0.01771  -0.01555  -0.00969  -0.00523
  Beta virt. eigenvalues --   -0.00113   0.00101   0.00348   0.00794   0.00879

 Mulliken charges and spin densities:
               1          2
     1  Na  -0.323926   0.614029
     2  Na   0.264661   0.128456
     3  Na  -0.142963   0.328744
     4  Na  -0.088823  -0.028351
     5  Na   0.272410   0.115523
     6  Na   0.014155  -0.044173
     7  Na   0.004485  -0.114228
 Sum of Mulliken charges =  -0.00000   1.00000

 Dipole moment (field-independent basis, Debye):
    X=             -0.0609    Y=              0.3698    Z=              0.2320  Tot=              0.4408
 Quadrupole moment (field-independent basis, Debye-Ang):
   XX=            -53.8020   YY=            -65.6540   ZZ=            -73.7392
   XY=              0.2541   XZ=              2.2802   YZ=              1.5706

 Normal termination of Gaussian 16 at Fri Dec  8 06:31:06 2023.
