 Gaussian 16, Revision B.01,
 Gaussian 16:  ES64L-G16RevB.01 20-Dec-2017

 -------------------------
 #P B3LYP/6-311+g(d) force
 -------------------------

 -----
 DPGEN
 -----
 Symbolic Z-matrix:
 Charge =  0 Multiplicity = 2

                         Standard orientation:
 ---------------------------------------------------------------------
 Center     Atomic      Atomic             Coordinates (Angstroms)
 Number     Number       Type             X           Y           Z
 ---------------------------------------------------------------------
      1         11           0        2.135064    2.125621   -0.057870
      2         11           0       -0.473885    0.335239    1.600389
      3         11           0       -1.489667   -2.520025    0.213398
      4         11           0        2.064713   -1.464027    0.824448
      5         11           0        4.490895   -0.568113   -1.386127
      6         11           0       -4.822662   -0.487787   -1.181609
      7         11           0       -1.904457    2.579091   -0.012629
 ---------------------------------------------------------------------

 SCF Done:  E(UB3LYP) =  -1136.11705855     A.U. after   23 cycles

 The electronic state is 2-A.
 Alpha  occ. eigenvalues --  -38.45421 -38.44606 -38.44499 -38.43841 -38.43757
 Alpha  occ. eigenvalues --  -38.43663 -38.43559  -2.21182  -2.20403  -2.20275
 Alpha  occ. eigenvalues --   -2.19631  -2.19618  -2.19611  -2.19338  -1.14828
 Alpha  occ. eigenvalues --   -1.14811  -1.14786  -1.14057  -1.14056  -1.14019
 Alpha  occ. eigenvalues --   -1.13985  -1.13970  -1.13861  -1.13429  -1.13368
 Alpha  occ. eigenvalues --   -1.13307  -1.13300  -1.13264  -1.13257  -1.13245
 Alpha  occ. eigenvalues --   -1.13210  -1.13166  -1.13024  -1.13018  -1.12960
 Alpha  occ. eigenvalues --   -0.17069  -0.13799  -0.11643  -0.11568
 Alpha virt. eigenvalues --   -0.06258  -0.05654  -0.04617  -0.03505  -0.02927
 Alpha virt. eigenvalues --   -0.02619  -0.02090  -0.01102  -0.00792  -0.00714
 Alpha virt. eigenvalues --   -0.00285  -0.00100   0.00112   0.00237   0.00609

  Beta  occ. eigenvalues --  -38.45305 -38.44551 -38.44499 -38.43846 -38.43742
  Beta  occ. eigenvalues --  -38.43625 -38.43570  -2.20964  -2.20300  -2.20277
  Beta  occ. eigenvalues --   -2.19641  -2.19597  -2.19543  -2.19362  -1.14680
  Beta  occ. eigenvalues --   -1.14661  -1.14642  -1.13988  -1.13986  -1.13984
  Beta  occ. eigenvalues --   -1.13974  -1.13950  -1.13853  -1.13407  -1.13344
  Beta  occ. eigenvalues --   -1.13310  -1.13292  -1.13243  -1.13233  -1.13229
  Beta  occ. eigenvalues --   -1.13173  -1.13120  -1.13043  -1.13032  -1.12953
  Beta  occ. eigenvalues --   -0.16614  -0.12978  -0.11438
  Beta virt. eigenvalues --   -0.08086  -0.05906  -0.05166  -0.04386  -0.03483
  Beta virt. eigenvalues --   -0.02409  -0.02103  -0.01666  -0.00977  -0.00681
  Beta virt. eigenvalues --   -0.00374  -0.00176   0.00117   0.00301   0.00376

 Mulliken charges and spin densities:
               1          2
     1  Na  -0.290906   0.017201
     2  Na   0.680748   0.047182
     3  Na  -0.182193  -0.023435
     4  Na  -0.356539  -0.020412
     5  Na   0.310587   0.304675
     6  Na  -0.005474   0.630412
     7  Na  -0.156223   0.044377
 Sum of Mulliken charges =  -0.00000   1.00000

 Dipole moment (field-independent basis, Debye):
    X=              0.4929    Y=              0.1640    Z=             -0.8414  Tot=              0.9888
 Quadrupole moment (field-independent basis, Debye-Ang):
   XX=            -56.5049   YY=            -71.0281   ZZ=            -68.2396
   XY=             -0.9576   XZ=             -0.8914   YZ=              0.2172

 Normal termination of Gaussian 16 at Wed Nov 29 01:15:30 2023.
