 Gaussian 16, Revision B.01,
 Gaussian 16:  ES64L-G16RevB.01 20-Dec-2017

 -------------------------
 #P B3LYP/6-311+g(d) force
 -------------------------

 -----
 DPGEN
 -----
 Symbolic Z-matrix:
 Charge =  0 Multiplicity = 2

                         Standard orientation:
 ---------------------------------------------------------------------
 Center     Atomic      Atomic             Coordinates (Angstroms)
 Number     Number       Type             X           Y           Z
 ---------------------------------------------------------------------
      1         11           0        3.174317   -1.245796   -0.031200
      2         11           0        0.595056    0.057496   -1.688996
      3         11           0       -3.328563   -1.057779   -0.268414
      4         11           0       -0.005881   -2.389889    0.243316
      5         11           0       -0.891534    0.404722    1.910442
      6         11           0       -1.548433    2.177473   -0.632182
      7         11           0        2.005039    2.053774    0.467032
 ---------------------------------------------------------------------

 SCF Done:  E(UB3LYP) =  -1136.13315851     A.U. after   19 cycles

 The electronic state is 2-A.
 Alpha  occ. eigenvalues --  -38.44618 -38.44135 -38.43608 -38.43473 -38.43350
 Alpha  occ. eigenvalues --  -38.43317 -38.43043  -2.20408  -2.19972  -2.19462
 Alpha  occ. eigenvalues --   -2.19399  -2.19342  -2.19213  -2.18935  -1.14079
 Alpha  occ. eigenvalues --   -1.14065  -1.14048  -1.13645  -1.13628  -1.13622
 Alpha  occ. eigenvalues --   -1.13169  -1.13134  -1.13100  -1.13081  -1.13075
 Alpha  occ. eigenvalues --   -1.13038  -1.13017  -1.12991  -1.12958  -1.12866
 Alpha  occ. eigenvalues --   -1.12862  -1.12807  -1.12638  -1.12612  -1.12527
 Alpha  occ. eigenvalues --   -0.18758  -0.13400  -0.12092  -0.10740
 Alpha virt. eigenvalues --   -0.06203  -0.05282  -0.03981  -0.03395  -0.02794
 Alpha virt. eigenvalues --   -0.02406  -0.01980  -0.01188  -0.00233  -0.00061
 Alpha virt. eigenvalues --    0.00033   0.00304   0.00722   0.00833   0.00880

  Beta  occ. eigenvalues --  -38.44617 -38.44135 -38.43597 -38.43396 -38.43297
  Beta  occ. eigenvalues --  -38.43285 -38.43032  -2.20409  -2.19975  -2.19443
  Beta  occ. eigenvalues --   -2.19258  -2.19224  -2.19180  -2.18919  -1.14074
  Beta  occ. eigenvalues --   -1.14056  -1.14051  -1.13640  -1.13629  -1.13621
  Beta  occ. eigenvalues --   -1.13151  -1.13095  -1.13077  -1.13018  -1.12980
  Beta  occ. eigenvalues --   -1.12960  -1.12939  -1.12887  -1.12877  -1.12824
  Beta  occ. eigenvalues --   -1.12802  -1.12784  -1.12627  -1.12569  -1.12520
  Beta  occ. eigenvalues --   -0.18036  -0.13221  -0.11838
  Beta virt. eigenvalues --   -0.06823  -0.06088  -0.05267  -0.03906  -0.02745
  Beta virt. eigenvalues --   -0.02057  -0.01876  -0.01392  -0.01113  -0.00213
  Beta virt. eigenvalues --    0.00010   0.00097   0.00340   0.00804   0.00841

 Mulliken charges and spin densities:
               1          2
     1  Na   0.199178  -0.016880
     2  Na  -0.199563   0.524935
     3  Na   0.064603  -0.051203
     4  Na   0.003956  -0.106226
     5  Na  -0.358716   0.636320
     6  Na   0.220927   0.012672
     7  Na   0.069616   0.000382
 Sum of Mulliken charges =  -0.00000   1.00000

 Dipole moment (field-independent basis, Debye):
    X=             -0.0986    Y=             -0.0738    Z=              0.0654  Tot=              0.1394
 Quadrupole moment (field-independent basis, Debye-Ang):
   XX=            -50.0099   YY=            -68.8576   ZZ=            -73.5309
   XY=              0.5309   XZ=              2.6079   YZ=              0.0796

 Normal termination of Gaussian 16 at Wed Dec  6 00:10:44 2023.
