 Gaussian 16, Revision B.01,
 Gaussian 16:  ES64L-G16RevB.01 20-Dec-2017

 -------------------------
 #P B3LYP/6-311+g(d) force
 -------------------------

 -----
 DPGEN
 -----
 Symbolic Z-matrix:
 Charge =  0 Multiplicity = 2

                         Standard orientation:
 ---------------------------------------------------------------------
 Center     Atomic      Atomic             Coordinates (Angstroms)
 Number     Number       Type             X           Y           Z
 ---------------------------------------------------------------------
      1         11           0        0.000960    0.045763   -1.368476
      2         11           0       -0.288033   -2.469328    0.089448
      3         11           0        2.522254   -1.161652   -0.123487
      4         11           0        1.980061    1.820267   -0.116067
      5         11           0       -0.281386   -0.025597    1.867051
      6         11           0       -1.185083    2.256874    0.086888
      7         11           0       -2.748772   -0.466329   -0.435356
 ---------------------------------------------------------------------

 SCF Done:  E(UB3LYP) =  -1136.11615701     A.U. after   19 cycles

 The electronic state is 2-A.
 Alpha  occ. eigenvalues --  -38.43679 -38.43564 -38.43414 -38.43404 -38.43224
 Alpha  occ. eigenvalues --  -38.43120 -38.43117  -2.19663  -2.19541  -2.19491
 Alpha  occ. eigenvalues --   -2.19431  -2.19387  -2.19252  -2.19150  -1.13487
 Alpha  occ. eigenvalues --   -1.13380  -1.13338  -1.13303  -1.13285  -1.13255
 Alpha  occ. eigenvalues --   -1.13207  -1.13194  -1.13165  -1.13089  -1.13082
 Alpha  occ. eigenvalues --   -1.13068  -1.13010  -1.12994  -1.12933  -1.12879
 Alpha  occ. eigenvalues --   -1.12856  -1.12828  -1.12789  -1.12760  -1.12737
 Alpha  occ. eigenvalues --   -0.20537  -0.13594  -0.13002  -0.11255
 Alpha virt. eigenvalues --   -0.05192  -0.04740  -0.04415  -0.03218  -0.02954
 Alpha virt. eigenvalues --   -0.02389  -0.01275  -0.00820   0.00003   0.00329
 Alpha virt. eigenvalues --    0.00359   0.00393   0.00937   0.01039   0.01047

  Beta  occ. eigenvalues --  -38.43663 -38.43558 -38.43397 -38.43317 -38.43211
  Beta  occ. eigenvalues --  -38.43104 -38.43053  -2.19638  -2.19534  -2.19386
  Beta  occ. eigenvalues --   -2.19319  -2.19305  -2.19234  -2.19133  -1.13452
  Beta  occ. eigenvalues --   -1.13350  -1.13309  -1.13268  -1.13258  -1.13233
  Beta  occ. eigenvalues --   -1.13151  -1.13124  -1.13087  -1.13045  -1.13004
  Beta  occ. eigenvalues --   -1.12991  -1.12981  -1.12940  -1.12866  -1.12834
  Beta  occ. eigenvalues --   -1.12824  -1.12799  -1.12752  -1.12733  -1.12700
  Beta  occ. eigenvalues --   -0.19772  -0.13273  -0.12680
  Beta virt. eigenvalues --   -0.07181  -0.05169  -0.04722  -0.04429  -0.02370
  Beta virt. eigenvalues --   -0.02073  -0.01319  -0.01162  -0.00770   0.00134
  Beta virt. eigenvalues --    0.00314   0.00318   0.00397   0.00975   0.01035

 Mulliken charges and spin densities:
               1          2
     1  Na  -1.524382   0.116111
     2  Na   0.635570   0.104911
     3  Na   0.218937   0.016583
     4  Na   0.386850   0.041796
     5  Na  -0.722167   0.587076
     6  Na   0.611856   0.097651
     7  Na   0.393335   0.035871
 Sum of Mulliken charges =  -0.00000   1.00000

 Dipole moment (field-independent basis, Debye):
    X=             -0.0361    Y=             -0.0106    Z=              0.3485  Tot=              0.3506
 Quadrupole moment (field-independent basis, Debye-Ang):
   XX=            -57.4444   YY=            -64.1062   ZZ=            -72.7213
   XY=              0.0725   XZ=              0.7123   YZ=              0.2221

 Normal termination of Gaussian 16 at Fri Dec  8 19:46:40 2023.
