 Gaussian 16, Revision B.01,
 Gaussian 16:  ES64L-G16RevB.01 20-Dec-2017

 -------------------------
 #P B3LYP/6-311+g(d) force
 -------------------------

 -----
 DPGEN
 -----
 Symbolic Z-matrix:
 Charge =  0 Multiplicity = 2

                         Standard orientation:
 ---------------------------------------------------------------------
 Center     Atomic      Atomic             Coordinates (Angstroms)
 Number     Number       Type             X           Y           Z
 ---------------------------------------------------------------------
      1         11           0        1.779075    2.201595    0.428120
      2         11           0       -0.680982    0.103905    2.531255
      3         11           0       -1.826113   -3.257510    0.368428
      4         11           0       -3.154547    0.072198   -1.360741
      5         11           0       -1.428957    3.227883   -0.528825
      6         11           0        4.185256   -0.755090   -0.586299
      7         11           0        1.126267   -1.592981   -0.851938
 ---------------------------------------------------------------------

 SCF Done:  E(UB3LYP) =  -1136.12075590     A.U. after   19 cycles

 The electronic state is 2-A.
 Alpha  occ. eigenvalues --  -38.45119 -38.44818 -38.44372 -38.44166 -38.43900
 Alpha  occ. eigenvalues --  -38.43830 -38.43824  -2.20890  -2.20578  -2.20145
 Alpha  occ. eigenvalues --   -2.19927  -2.19714  -2.19631  -2.19596  -1.14552
 Alpha  occ. eigenvalues --   -1.14524  -1.14492  -1.14256  -1.14227  -1.14184
 Alpha  occ. eigenvalues --   -1.13838  -1.13830  -1.13753  -1.13602  -1.13589
 Alpha  occ. eigenvalues --   -1.13567  -1.13416  -1.13398  -1.13384  -1.13286
 Alpha  occ. eigenvalues --   -1.13278  -1.13269  -1.13254  -1.13238  -1.13232
 Alpha  occ. eigenvalues --   -0.16660  -0.12945  -0.12366  -0.11027
 Alpha virt. eigenvalues --   -0.06414  -0.05525  -0.05109  -0.03236  -0.03103
 Alpha virt. eigenvalues --   -0.02542  -0.01896  -0.01496  -0.01071  -0.00797
 Alpha virt. eigenvalues --   -0.00336   0.00223   0.00371   0.00519   0.00675

  Beta  occ. eigenvalues --  -38.45015 -38.44756 -38.44368 -38.44167 -38.43895
  Beta  occ. eigenvalues --  -38.43819 -38.43819  -2.20698  -2.20464  -2.20139
  Beta  occ. eigenvalues --   -2.19930  -2.19704  -2.19609  -2.19589  -1.14420
  Beta  occ. eigenvalues --   -1.14396  -1.14353  -1.14178  -1.14153  -1.14099
  Beta  occ. eigenvalues --   -1.13835  -1.13816  -1.13754  -1.13606  -1.13581
  Beta  occ. eigenvalues --   -1.13571  -1.13410  -1.13387  -1.13369  -1.13275
  Beta  occ. eigenvalues --   -1.13271  -1.13255  -1.13249  -1.13221  -1.13220
  Beta  occ. eigenvalues --   -0.16084  -0.12560  -0.12255
  Beta virt. eigenvalues --   -0.07381  -0.05927  -0.05419  -0.04861  -0.02750
  Beta virt. eigenvalues --   -0.02606  -0.01976  -0.01715  -0.01352  -0.01001
  Beta virt. eigenvalues --   -0.00664  -0.00037   0.00306   0.00520   0.00573

 Mulliken charges and spin densities:
               1          2
     1  Na  -0.114236   0.017401
     2  Na   0.021469   0.469727
     3  Na   0.540729   0.028113
     4  Na   0.008245   0.304078
     5  Na  -0.004378   0.047369
     6  Na   0.534533   0.030420
     7  Na  -0.986362   0.102892
 Sum of Mulliken charges =  -0.00000   1.00000

 Dipole moment (field-independent basis, Debye):
    X=             -0.0306    Y=             -0.1885    Z=              0.4389  Tot=              0.4786
 Quadrupole moment (field-independent basis, Debye-Ang):
   XX=            -60.4462   YY=            -64.6969   ZZ=            -71.7595
   XY=              3.8090   XZ=              0.2341   YZ=             -0.7100

 Normal termination of Gaussian 16 at Sun Dec  3 21:56:26 2023.
