 Gaussian 16, Revision B.01,
 Gaussian 16:  ES64L-G16RevB.01 20-Dec-2017

 -------------------------
 #P B3LYP/6-311+g(d) force
 -------------------------

 -----
 DPGEN
 -----
 Symbolic Z-matrix:
 Charge =  0 Multiplicity = 2

                         Standard orientation:
 ---------------------------------------------------------------------
 Center     Atomic      Atomic             Coordinates (Angstroms)
 Number     Number       Type             X           Y           Z
 ---------------------------------------------------------------------
      1         11           0        0.203919    0.158194   -1.801542
      2         11           0       -0.199716   -0.204727    1.817379
      3         11           0        2.514495   -0.650920    0.157301
      4         11           0        0.057450   -2.366404   -0.141505
      5         11           0        1.211865    2.092208    0.055479
      6         11           0       -2.292070   -0.775753   -0.182605
      7         11           0       -1.495944    1.747402    0.095492
 ---------------------------------------------------------------------

 SCF Done:  E(UB3LYP) =  -1136.09149561     A.U. after   19 cycles

 The electronic state is 2-A.
 Alpha  occ. eigenvalues --  -38.43983 -38.43936 -38.43779 -38.43774 -38.43506
 Alpha  occ. eigenvalues --  -38.43427 -38.43354  -2.20178  -2.20137  -2.19989
 Alpha  occ. eigenvalues --   -2.19895  -2.19604  -2.19461  -2.19439  -1.14142
 Alpha  occ. eigenvalues --   -1.14005  -1.13923  -1.13903  -1.13837  -1.13802
 Alpha  occ. eigenvalues --   -1.13787  -1.13644  -1.13594  -1.13513  -1.13462
 Alpha  occ. eigenvalues --   -1.13350  -1.13280  -1.13218  -1.13210  -1.13157
 Alpha  occ. eigenvalues --   -1.13091  -1.13082  -1.13070  -1.13044  -1.12955
 Alpha  occ. eigenvalues --   -0.21487  -0.13516  -0.13275  -0.12257
 Alpha virt. eigenvalues --   -0.04912  -0.04446  -0.04244  -0.03539  -0.03426
 Alpha virt. eigenvalues --   -0.02935  -0.00824  -0.00614  -0.00096   0.00372
 Alpha virt. eigenvalues --    0.00737   0.00868   0.01083   0.01154   0.01195

  Beta  occ. eigenvalues --  -38.43890 -38.43843 -38.43762 -38.43760 -38.43494
  Beta  occ. eigenvalues --  -38.43419 -38.43341  -2.20017  -2.19978  -2.19954
  Beta  occ. eigenvalues --   -2.19874  -2.19589  -2.19446  -2.19427  -1.14106
  Beta  occ. eigenvalues --   -1.13969  -1.13842  -1.13795  -1.13724  -1.13699
  Beta  occ. eigenvalues --   -1.13679  -1.13585  -1.13546  -1.13428  -1.13386
  Beta  occ. eigenvalues --   -1.13341  -1.13269  -1.13210  -1.13161  -1.13137
  Beta  occ. eigenvalues --   -1.13075  -1.13041  -1.13039  -1.13009  -1.12952
  Beta  occ. eigenvalues --   -0.20638  -0.13160  -0.12906
  Beta virt. eigenvalues --   -0.08060  -0.04942  -0.04432  -0.04236  -0.02605
  Beta virt. eigenvalues --   -0.02484  -0.01819  -0.00764  -0.00562   0.00053
  Beta virt. eigenvalues --    0.00394   0.00699   0.00821   0.01114   0.01143

 Mulliken charges and spin densities:
               1          2
     1  Na  -0.352768   0.390487
     2  Na  -0.384885   0.422850
     3  Na   0.004312  -0.020294
     4  Na   0.153245   0.033859
     5  Na   0.154068   0.040797
     6  Na   0.163187   0.040682
     7  Na   0.262841   0.091619
 Sum of Mulliken charges =  -0.00000   1.00000

 Dipole moment (field-independent basis, Debye):
    X=              0.3455    Y=             -0.1579    Z=              0.0343  Tot=              0.3814
 Quadrupole moment (field-independent basis, Debye-Ang):
   XX=            -63.3970   YY=            -66.5537   ZZ=            -68.2814
   XY=              0.1122   XZ=              0.8334   YZ=              0.6296

 Normal termination of Gaussian 16 at Thu Dec  7 06:52:05 2023.
