 Gaussian 16, Revision B.01,
 Gaussian 16:  ES64L-G16RevB.01 20-Dec-2017

 -------------------------
 #P B3LYP/6-311+g(d) force
 -------------------------

 -----
 DPGEN
 -----
 Symbolic Z-matrix:
 Charge =  0 Multiplicity = 2

                         Standard orientation:
 ---------------------------------------------------------------------
 Center     Atomic      Atomic             Coordinates (Angstroms)
 Number     Number       Type             X           Y           Z
 ---------------------------------------------------------------------
      1         11           0        2.552934   -1.142719   -1.306925
      2         11           0       -2.151493   -1.016897    1.637233
      3         11           0       -3.066624    1.130361   -0.973293
      4         11           0       -0.956302   -1.188627   -1.756768
      5         11           0        0.907437   -1.351304    1.639489
      6         11           0        2.823930    1.594360    0.269297
      7         11           0       -0.109880    1.974827    0.490967
 ---------------------------------------------------------------------

 SCF Done:  E(UB3LYP) =  -1136.12552897     A.U. after   24 cycles

 The electronic state is 2-A.
 Alpha  occ. eigenvalues --  -38.44366 -38.44226 -38.44170 -38.44127 -38.43748
 Alpha  occ. eigenvalues --  -38.43487 -38.42933  -2.20257  -2.20094  -2.20043
 Alpha  occ. eigenvalues --   -2.19991  -2.19657  -2.19380  -2.18829  -1.13981
 Alpha  occ. eigenvalues --   -1.13889  -1.13874  -1.13767  -1.13757  -1.13745
 Alpha  occ. eigenvalues --   -1.13738  -1.13702  -1.13677  -1.13637  -1.13627
 Alpha  occ. eigenvalues --   -1.13597  -1.13353  -1.13290  -1.13273  -1.13115
 Alpha  occ. eigenvalues --   -1.13035  -1.13002  -1.12500  -1.12497  -1.12456
 Alpha  occ. eigenvalues --   -0.18732  -0.14052  -0.12096  -0.11373
 Alpha virt. eigenvalues --   -0.05999  -0.05026  -0.04952  -0.03599  -0.02930
 Alpha virt. eigenvalues --   -0.02652  -0.01790  -0.00779  -0.00600   0.00087
 Alpha virt. eigenvalues --    0.00235   0.00306   0.00483   0.00512   0.00843

  Beta  occ. eigenvalues --  -38.44314 -38.44193 -38.44114 -38.44106 -38.43701
  Beta  occ. eigenvalues --  -38.43487 -38.42923  -2.20165  -2.20034  -2.19953
  Beta  occ. eigenvalues --   -2.19940  -2.19575  -2.19381  -2.18813  -1.13899
  Beta  occ. eigenvalues --   -1.13827  -1.13808  -1.13720  -1.13710  -1.13700
  Beta  occ. eigenvalues --   -1.13684  -1.13638  -1.13613  -1.13605  -1.13596
  Beta  occ. eigenvalues --   -1.13543  -1.13289  -1.13219  -1.13214  -1.13112
  Beta  occ. eigenvalues --   -1.13026  -1.13007  -1.12494  -1.12465  -1.12447
  Beta  occ. eigenvalues --   -0.18023  -0.13837  -0.11107
  Beta virt. eigenvalues --   -0.08075  -0.05789  -0.04987  -0.04266  -0.03216
  Beta virt. eigenvalues --   -0.02331  -0.01970  -0.01695  -0.00598  -0.00296
  Beta virt. eigenvalues --    0.00186   0.00287   0.00370   0.00578   0.00644

 Mulliken charges and spin densities:
               1          2
     1  Na   0.399562   0.238911
     2  Na   0.206041   0.106996
     3  Na   1.107647   0.109341
     4  Na  -0.700788   0.283253
     5  Na  -0.282607   0.245284
     6  Na   0.360338  -0.185525
     7  Na  -1.090193   0.201741
 Sum of Mulliken charges =  -0.00000   1.00000

 Dipole moment (field-independent basis, Debye):
    X=             -0.4464    Y=             -0.4577    Z=             -0.2652  Tot=              0.6922
 Quadrupole moment (field-independent basis, Debye-Ang):
   XX=            -52.7220   YY=            -78.0093   ZZ=            -66.2103
   XY=             -1.3470   XZ=             -0.9609   YZ=             -0.4659

 Normal termination of Gaussian 16 at Wed Nov 29 17:00:40 2023.
