 Gaussian 16, Revision B.01,
 Gaussian 16:  ES64L-G16RevB.01 20-Dec-2017

 -------------------------
 #P B3LYP/6-311+g(d) force
 -------------------------

 -----
 DPGEN
 -----
 Symbolic Z-matrix:
 Charge =  0 Multiplicity = 2

                         Standard orientation:
 ---------------------------------------------------------------------
 Center     Atomic      Atomic             Coordinates (Angstroms)
 Number     Number       Type             X           Y           Z
 ---------------------------------------------------------------------
      1         11           0       -0.326093   -1.025057   -1.652282
      2         11           0       -2.850936    1.715871   -0.027573
      3         11           0        0.711922    1.877679   -0.041175
      4         11           0       -2.999825   -1.093620   -0.172221
      5         11           0        2.157868   -1.864609    0.221702
      6         11           0        3.732179    0.993292   -0.209879
      7         11           0       -0.425115   -0.603554    1.881429
 ---------------------------------------------------------------------

 SCF Done:  E(UB3LYP) =  -1136.11372461     A.U. after   26 cycles

 The electronic state is 2-A.
 Alpha  occ. eigenvalues --  -38.45062 -38.44955 -38.44340 -38.43829 -38.43816
 Alpha  occ. eigenvalues --  -38.43407 -38.43372  -2.21015  -2.20779  -2.20216
 Alpha  occ. eigenvalues --   -2.19767  -2.19703  -2.19324  -2.19298  -1.14773
 Alpha  occ. eigenvalues --   -1.14688  -1.14641  -1.14454  -1.14436  -1.14423
 Alpha  occ. eigenvalues --   -1.13899  -1.13847  -1.13835  -1.13473  -1.13438
 Alpha  occ. eigenvalues --   -1.13409  -1.13379  -1.13335  -1.13315  -1.13045
 Alpha  occ. eigenvalues --   -1.12988  -1.12961  -1.12951  -1.12914  -1.12903
 Alpha  occ. eigenvalues --   -0.19123  -0.14541  -0.11392  -0.10825
 Alpha virt. eigenvalues --   -0.07338  -0.05736  -0.03907  -0.03254  -0.02931
 Alpha virt. eigenvalues --   -0.02313  -0.02201  -0.01489  -0.00415  -0.00242
 Alpha virt. eigenvalues --    0.00040   0.00230   0.00483   0.00643   0.00688

  Beta  occ. eigenvalues --  -38.45043 -38.44956 -38.44338 -38.43810 -38.43779
  Beta  occ. eigenvalues --  -38.43391 -38.43275  -2.20985  -2.20781  -2.20215
  Beta  occ. eigenvalues --   -2.19695  -2.19676  -2.19273  -2.19146  -1.14761
  Beta  occ. eigenvalues --   -1.14662  -1.14587  -1.14457  -1.14439  -1.14419
  Beta  occ. eigenvalues --   -1.13900  -1.13844  -1.13812  -1.13433  -1.13380
  Beta  occ. eigenvalues --   -1.13353  -1.13347  -1.13324  -1.13273  -1.12993
  Beta  occ. eigenvalues --   -1.12945  -1.12897  -1.12861  -1.12840  -1.12779
  Beta  occ. eigenvalues --   -0.18402  -0.14305  -0.11167
  Beta virt. eigenvalues --   -0.07221  -0.06869  -0.05697  -0.03176  -0.03095
  Beta virt. eigenvalues --   -0.02807  -0.01582  -0.01502  -0.01315  -0.00424
  Beta virt. eigenvalues --    0.00024   0.00113   0.00224   0.00676   0.00684

 Mulliken charges and spin densities:
               1          2
     1  Na  -0.500826   0.020357
     2  Na  -0.363579  -0.083208
     3  Na  -0.200259   0.246833
     4  Na   1.039830   0.436464
     5  Na   0.586299   0.352757
     6  Na  -0.096226  -0.149836
     7  Na  -0.465239   0.176634
 Sum of Mulliken charges =  -0.00000   1.00000

 Dipole moment (field-independent basis, Debye):
    X=              0.2180    Y=             -0.3813    Z=              0.1543  Tot=              0.4655
 Quadrupole moment (field-independent basis, Debye-Ang):
   XX=            -46.4071   YY=            -74.7583   ZZ=            -73.8219
   XY=             -1.4285   XZ=             -0.6515   YZ=             -1.0471

 Normal termination of Gaussian 16 at Tue Dec  5 14:32:48 2023.
