 Gaussian 16, Revision B.01,
 Gaussian 16:  ES64L-G16RevB.01 20-Dec-2017

 -------------------------
 #P B3LYP/6-311+g(d) force
 -------------------------

 -----
 DPGEN
 -----
 Symbolic Z-matrix:
 Charge =  0 Multiplicity = 2

                         Standard orientation:
 ---------------------------------------------------------------------
 Center     Atomic      Atomic             Coordinates (Angstroms)
 Number     Number       Type             X           Y           Z
 ---------------------------------------------------------------------
      1         11           0       -3.201369   -0.606640   -0.260487
      2         11           0       -0.274698   -0.213289   -1.567156
      3         11           0        0.205568   -2.853314   -0.297431
      4         11           0       -0.418195   -0.272264    2.237677
      5         11           0        3.195789   -0.940014    0.128439
      6         11           0        2.194813    2.512578   -0.279255
      7         11           0       -1.701908    2.372944    0.038213
 ---------------------------------------------------------------------

 SCF Done:  E(UB3LYP) =  -1136.13148719     A.U. after   20 cycles

 The electronic state is 2-A.
 Alpha  occ. eigenvalues --  -38.44468 -38.44417 -38.43923 -38.43645 -38.43639
 Alpha  occ. eigenvalues --  -38.43414 -38.43302  -2.20264  -2.20245  -2.19770
 Alpha  occ. eigenvalues --   -2.19489  -2.19407  -2.19398  -2.19173  -1.13954
 Alpha  occ. eigenvalues --   -1.13925  -1.13916  -1.13901  -1.13901  -1.13886
 Alpha  occ. eigenvalues --   -1.13423  -1.13399  -1.13385  -1.13199  -1.13161
 Alpha  occ. eigenvalues --   -1.13154  -1.13116  -1.13086  -1.13065  -1.13052
 Alpha  occ. eigenvalues --   -1.13049  -1.13006  -1.12832  -1.12817  -1.12777
 Alpha  occ. eigenvalues --   -0.18299  -0.13099  -0.12126  -0.10789
 Alpha virt. eigenvalues --   -0.06004  -0.05425  -0.04553  -0.03234  -0.02775
 Alpha virt. eigenvalues --   -0.02674  -0.01799  -0.01081  -0.00594  -0.00487
 Alpha virt. eigenvalues --   -0.00055   0.00316   0.00731   0.00835   0.00852

  Beta  occ. eigenvalues --  -38.44470 -38.44409 -38.43814 -38.43640 -38.43639
  Beta  occ. eigenvalues --  -38.43357 -38.43294  -2.20253  -2.20250  -2.19569
  Beta  occ. eigenvalues --   -2.19482  -2.19410  -2.19296  -2.19162  -1.13940
  Beta  occ. eigenvalues --   -1.13917  -1.13905  -1.13898  -1.13893  -1.13887
  Beta  occ. eigenvalues --   -1.13289  -1.13260  -1.13243  -1.13183  -1.13128
  Beta  occ. eigenvalues --   -1.13116  -1.13104  -1.13079  -1.13067  -1.13054
  Beta  occ. eigenvalues --   -1.12982  -1.12928  -1.12807  -1.12787  -1.12770
  Beta  occ. eigenvalues --   -0.17575  -0.12930  -0.11917
  Beta virt. eigenvalues --   -0.06794  -0.05936  -0.05412  -0.04496  -0.02492
  Beta virt. eigenvalues --   -0.02002  -0.01724  -0.01625  -0.01030  -0.00604
  Beta virt. eigenvalues --   -0.00540   0.00128   0.00363   0.00798   0.00841

 Mulliken charges and spin densities:
               1          2
     1  Na   0.424667   0.001190
     2  Na   0.088658   0.351282
     3  Na   0.183872  -0.048725
     4  Na  -0.488809   0.719113
     5  Na  -0.058119  -0.015671
     6  Na  -0.112068  -0.045199
     7  Na  -0.038202   0.038010
 Sum of Mulliken charges =  -0.00000   1.00000

 Dipole moment (field-independent basis, Debye):
    X=             -0.2071    Y=             -0.2094    Z=              0.2127  Tot=              0.3633
 Quadrupole moment (field-independent basis, Debye-Ang):
   XX=            -54.3505   YY=            -64.8081   ZZ=            -74.8523
   XY=             -0.5758   XZ=              0.7668   YZ=             -0.1250

 Normal termination of Gaussian 16 at Thu Dec  7 21:56:43 2023.
