 Gaussian 16, Revision B.01,
 Gaussian 16:  ES64L-G16RevB.01 20-Dec-2017

 -------------------------
 #P B3LYP/6-311+g(d) force
 -------------------------

 -----
 DPGEN
 -----
 Symbolic Z-matrix:
 Charge =  0 Multiplicity = 2

                         Standard orientation:
 ---------------------------------------------------------------------
 Center     Atomic      Atomic             Coordinates (Angstroms)
 Number     Number       Type             X           Y           Z
 ---------------------------------------------------------------------
      1         11           0       -0.464230    3.291633    0.462759
      2         11           0        3.594991    1.829169   -0.268556
      3         11           0       -2.972935    1.641298   -0.760944
      4         11           0       -1.566655   -0.849604    1.885896
      5         11           0       -2.875172   -1.624180   -1.097053
      6         11           0        0.477740   -3.050399    0.131064
      7         11           0        3.806261   -1.237917   -0.353165
 ---------------------------------------------------------------------

 SCF Done:  E(UB3LYP) =  -1136.11394153     A.U. after   20 cycles

 The electronic state is 2-A.
 Alpha  occ. eigenvalues --  -38.45285 -38.44657 -38.44334 -38.44153 -38.44062
 Alpha  occ. eigenvalues --  -38.43971 -38.43707  -2.21089  -2.20438  -2.20116
 Alpha  occ. eigenvalues --   -2.19954  -2.19929  -2.19819  -2.19498  -1.14770
 Alpha  occ. eigenvalues --   -1.14755  -1.14704  -1.14135  -1.14099  -1.14075
 Alpha  occ. eigenvalues --   -1.13793  -1.13783  -1.13740  -1.13617  -1.13614
 Alpha  occ. eigenvalues --   -1.13613  -1.13595  -1.13590  -1.13538  -1.13496
 Alpha  occ. eigenvalues --   -1.13476  -1.13457  -1.13159  -1.13140  -1.13132
 Alpha  occ. eigenvalues --   -0.16736  -0.13776  -0.12693  -0.10420
 Alpha virt. eigenvalues --   -0.06971  -0.06197  -0.03822  -0.03552  -0.03148
 Alpha virt. eigenvalues --   -0.02147  -0.02125  -0.01717  -0.01446  -0.00994
 Alpha virt. eigenvalues --   -0.00150   0.00051   0.00243   0.00474   0.00593

  Beta  occ. eigenvalues --  -38.45255 -38.44643 -38.44317 -38.44141 -38.43995
  Beta  occ. eigenvalues --  -38.43944 -38.43669  -2.21036  -2.20415  -2.20085
  Beta  occ. eigenvalues --   -2.19934  -2.19807  -2.19776  -2.19427  -1.14724
  Beta  occ. eigenvalues --   -1.14717  -1.14662  -1.14114  -1.14085  -1.14052
  Beta  occ. eigenvalues --   -1.13767  -1.13760  -1.13723  -1.13602  -1.13599
  Beta  occ. eigenvalues --   -1.13567  -1.13538  -1.13516  -1.13472  -1.13452
  Beta  occ. eigenvalues --   -1.13436  -1.13376  -1.13112  -1.13091  -1.13084
  Beta  occ. eigenvalues --   -0.16155  -0.13293  -0.12340
  Beta virt. eigenvalues --   -0.07068  -0.06764  -0.06000  -0.03628  -0.02997
  Beta virt. eigenvalues --   -0.02660  -0.01986  -0.01880  -0.01435  -0.01209
  Beta virt. eigenvalues --   -0.00912   0.00147   0.00315   0.00377   0.00596

 Mulliken charges and spin densities:
               1          2
     1  Na  -0.277282   0.185214
     2  Na  -0.078397   0.061567
     3  Na   0.128086   0.115662
     4  Na   0.162143   0.270455
     5  Na   0.163126   0.268842
     6  Na  -0.171928   0.066753
     7  Na   0.074252   0.031507
 Sum of Mulliken charges =  -0.00000   1.00000

 Dipole moment (field-independent basis, Debye):
    X=              0.0852    Y=             -0.6306    Z=              0.2905  Tot=              0.6995
 Quadrupole moment (field-independent basis, Debye-Ang):
   XX=            -69.5174   YY=            -63.5169   ZZ=            -69.9490
   XY=              0.6686   XZ=             -2.0221   YZ=              1.4471

 Normal termination of Gaussian 16 at Sun Dec  3 21:34:14 2023.
