 Gaussian 16, Revision B.01,
 Gaussian 16:  ES64L-G16RevB.01 20-Dec-2017

 -------------------------
 #P B3LYP/6-311+g(d) force
 -------------------------

 -----
 DPGEN
 -----
 Symbolic Z-matrix:
 Charge =  0 Multiplicity = 2

                         Standard orientation:
 ---------------------------------------------------------------------
 Center     Atomic      Atomic             Coordinates (Angstroms)
 Number     Number       Type             X           Y           Z
 ---------------------------------------------------------------------
      1         11           0       -3.966847   -1.899637   -0.666987
      2         11           0       -3.503743    0.816530    0.967157
      3         11           0        4.196423    0.384649   -0.275303
      4         11           0       -1.524859    3.906956   -0.231500
      5         11           0       -0.342806   -3.210955   -0.291898
      6         11           0        2.327582    2.956638   -0.086437
      7         11           0        2.814250   -2.954180    0.584967
 ---------------------------------------------------------------------

 SCF Done:  E(UB3LYP) =  -1136.10870088     A.U. after   21 cycles

 The electronic state is 2-A.
 Alpha  occ. eigenvalues --  -38.45317 -38.45045 -38.44555 -38.44403 -38.44222
 Alpha  occ. eigenvalues --  -38.44218 -38.44187  -2.21082  -2.20809  -2.20326
 Alpha  occ. eigenvalues --   -2.20212  -2.20035  -2.19989  -2.19981  -1.14770
 Alpha  occ. eigenvalues --   -1.14753  -1.14724  -1.14491  -1.14484  -1.14435
 Alpha  occ. eigenvalues --   -1.14035  -1.14004  -1.13978  -1.13867  -1.13851
 Alpha  occ. eigenvalues --   -1.13824  -1.13689  -1.13682  -1.13664  -1.13645
 Alpha  occ. eigenvalues --   -1.13643  -1.13638  -1.13626  -1.13618  -1.13614
 Alpha  occ. eigenvalues --   -0.15456  -0.14034  -0.13319  -0.11013
 Alpha virt. eigenvalues --   -0.07434  -0.05018  -0.04418  -0.03461  -0.03367
 Alpha virt. eigenvalues --   -0.02543  -0.02285  -0.02045  -0.01508  -0.00663
 Alpha virt. eigenvalues --   -0.00474  -0.00272   0.00185   0.00378   0.00527

  Beta  occ. eigenvalues --  -38.45313 -38.45021 -38.44545 -38.44357 -38.44175
  Beta  occ. eigenvalues --  -38.44161 -38.44141  -2.21078  -2.20770  -2.20315
  Beta  occ. eigenvalues --   -2.20129  -2.19949  -2.19938  -2.19846  -1.14770
  Beta  occ. eigenvalues --   -1.14756  -1.14686  -1.14467  -1.14461  -1.14382
  Beta  occ. eigenvalues --   -1.14011  -1.14001  -1.13947  -1.13813  -1.13800
  Beta  occ. eigenvalues --   -1.13761  -1.13631  -1.13623  -1.13616  -1.13609
  Beta  occ. eigenvalues --   -1.13607  -1.13579  -1.13546  -1.13531  -1.13518
  Beta  occ. eigenvalues --   -0.14938  -0.13363  -0.12409
  Beta virt. eigenvalues --   -0.07892  -0.07645  -0.04580  -0.04021  -0.03169
  Beta virt. eigenvalues --   -0.03093  -0.02275  -0.02031  -0.01852  -0.01303
  Beta virt. eigenvalues --   -0.00373  -0.00242  -0.00006   0.00228   0.00375

 Mulliken charges and spin densities:
               1          2
     1  Na   0.237238   0.246614
     2  Na  -0.277745   0.021356
     3  Na   0.133455   0.149198
     4  Na   0.009568   0.384197
     5  Na  -0.291031   0.188871
     6  Na  -0.107329   0.016022
     7  Na   0.295843  -0.006256
 Sum of Mulliken charges =  -0.00000   1.00000

 Dipole moment (field-independent basis, Debye):
    X=             -0.3336    Y=             -0.6093    Z=             -0.0093  Tot=              0.6947
 Quadrupole moment (field-independent basis, Debye-Ang):
   XX=            -61.0139   YY=            -68.4765   ZZ=            -70.9647
   XY=             -0.8937   XZ=              0.9536   YZ=              1.1596

 Normal termination of Gaussian 16 at Sun Dec  3 21:28:21 2023.
