 Gaussian 16, Revision B.01,
 Gaussian 16:  ES64L-G16RevB.01 20-Dec-2017

 -------------------------
 #P B3LYP/6-311+g(d) force
 -------------------------

 -----
 DPGEN
 -----
 Symbolic Z-matrix:
 Charge =  0 Multiplicity = 2

                         Standard orientation:
 ---------------------------------------------------------------------
 Center     Atomic      Atomic             Coordinates (Angstroms)
 Number     Number       Type             X           Y           Z
 ---------------------------------------------------------------------
      1         11           0       -1.633853   -2.430518    0.264740
      2         11           0        0.157935   -0.231580   -1.729946
      3         11           0       -0.523783    3.143154   -0.127541
      4         11           0       -0.226536    0.540445    1.916039
      5         11           0       -3.139739    0.215199   -0.354230
      6         11           0        2.069207   -2.107436    0.115006
      7         11           0        3.296769    0.870736   -0.084067
 ---------------------------------------------------------------------

 SCF Done:  E(UB3LYP) =  -1136.13401601     A.U. after   20 cycles

 The electronic state is 2-A.
 Alpha  occ. eigenvalues --  -38.44708 -38.44385 -38.43614 -38.43449 -38.43443
 Alpha  occ. eigenvalues --  -38.43312 -38.43240  -2.20503  -2.20231  -2.19480
 Alpha  occ. eigenvalues --   -2.19372  -2.19242  -2.19198  -2.19117  -1.14180
 Alpha  occ. eigenvalues --   -1.14166  -1.14140  -1.13922  -1.13895  -1.13858
 Alpha  occ. eigenvalues --   -1.13196  -1.13137  -1.13114  -1.13055  -1.13004
 Alpha  occ. eigenvalues --   -1.12986  -1.12945  -1.12904  -1.12882  -1.12867
 Alpha  occ. eigenvalues --   -1.12825  -1.12809  -1.12790  -1.12764  -1.12762
 Alpha  occ. eigenvalues --   -0.18403  -0.13300  -0.12163  -0.10475
 Alpha virt. eigenvalues --   -0.06226  -0.05013  -0.04726  -0.03283  -0.02825
 Alpha virt. eigenvalues --   -0.02328  -0.01878  -0.01101  -0.00638  -0.00360
 Alpha virt. eigenvalues --   -0.00017   0.00354   0.00769   0.00817   0.00859

  Beta  occ. eigenvalues --  -38.44708 -38.44375 -38.43609 -38.43442 -38.43382
  Beta  occ. eigenvalues --  -38.43232 -38.43231  -2.20505  -2.20217  -2.19472
  Beta  occ. eigenvalues --   -2.19251  -2.19242  -2.19106  -2.19049  -1.14181
  Beta  occ. eigenvalues --   -1.14155  -1.14142  -1.13916  -1.13862  -1.13850
  Beta  occ. eigenvalues --   -1.13179  -1.13125  -1.13099  -1.12976  -1.12933
  Beta  occ. eigenvalues --   -1.12918  -1.12898  -1.12890  -1.12882  -1.12791
  Beta  occ. eigenvalues --   -1.12769  -1.12757  -1.12731  -1.12718  -1.12700
  Beta  occ. eigenvalues --   -0.17678  -0.13095  -0.11948
  Beta virt. eigenvalues --   -0.06616  -0.06184  -0.04970  -0.04672  -0.02531
  Beta virt. eigenvalues --   -0.02085  -0.01776  -0.01344  -0.01015  -0.00660
  Beta virt. eigenvalues --   -0.00406   0.00133   0.00386   0.00787   0.00853

 Mulliken charges and spin densities:
               1          2
     1  Na   0.124433   0.057439
     2  Na  -0.167580   0.527572
     3  Na  -0.051402  -0.178259
     4  Na  -0.370791   0.666558
     5  Na   0.233807   0.011837
     6  Na   0.174263   0.038599
     7  Na   0.057270  -0.123748
 Sum of Mulliken charges =  -0.00000   1.00000

 Dipole moment (field-independent basis, Debye):
    X=              0.3078    Y=              0.2470    Z=             -0.0496  Tot=              0.3978
 Quadrupole moment (field-independent basis, Debye-Ang):
   XX=            -54.0245   YY=            -63.5834   ZZ=            -75.5343
   XY=              0.8944   XZ=              0.9260   YZ=             -2.0441

 Normal termination of Gaussian 16 at Fri Dec  8 04:40:18 2023.
