 Gaussian 16, Revision B.01,
 Gaussian 16:  ES64L-G16RevB.01 20-Dec-2017

 -------------------------
 #P B3LYP/6-311+g(d) force
 -------------------------

 -----
 DPGEN
 -----
 Symbolic Z-matrix:
 Charge =  0 Multiplicity = 2

                         Standard orientation:
 ---------------------------------------------------------------------
 Center     Atomic      Atomic             Coordinates (Angstroms)
 Number     Number       Type             X           Y           Z
 ---------------------------------------------------------------------
      1         11           0       -0.172267   -0.162439    1.569954
      2         11           0       -4.246606   -0.501264    1.257328
      3         11           0       -0.793880    2.740015   -0.836623
      4         11           0       -1.421668   -0.812703   -1.696231
      5         11           0        1.633528   -2.659231   -0.765218
      6         11           0        3.308329    0.522936    1.848867
      7         11           0        1.692563    0.872686   -1.378077
 ---------------------------------------------------------------------

 SCF Done:  E(UB3LYP) =  -1136.11996223     A.U. after   25 cycles

 The electronic state is 2-A.
 Alpha  occ. eigenvalues --  -38.44803 -38.44641 -38.44633 -38.44407 -38.44020
 Alpha  occ. eigenvalues --  -38.43316 -38.42613  -2.20594  -2.20472  -2.20371
 Alpha  occ. eigenvalues --   -2.20237  -2.19826  -2.19230  -2.18448  -1.14262
 Alpha  occ. eigenvalues --   -1.14236  -1.14209  -1.14183  -1.14138  -1.14073
 Alpha  occ. eigenvalues --   -1.14036  -1.14032  -1.13982  -1.13938  -1.13875
 Alpha  occ. eigenvalues --   -1.13864  -1.13499  -1.13476  -1.13444  -1.12927
 Alpha  occ. eigenvalues --   -1.12907  -1.12852  -1.12116  -1.12110  -1.12086
 Alpha  occ. eigenvalues --   -0.17915  -0.12823  -0.11971  -0.11160
 Alpha virt. eigenvalues --   -0.06405  -0.05363  -0.04564  -0.03153  -0.02781
 Alpha virt. eigenvalues --   -0.02547  -0.02264  -0.01421  -0.00943  -0.00195
 Alpha virt. eigenvalues --   -0.00052   0.00068   0.00275   0.00547   0.00612

  Beta  occ. eigenvalues --  -38.44747 -38.44614 -38.44594 -38.44379 -38.43973
  Beta  occ. eigenvalues --  -38.43306 -38.42617  -2.20491  -2.20423  -2.20298
  Beta  occ. eigenvalues --   -2.20188  -2.19740  -2.19215  -2.18456  -1.14186
  Beta  occ. eigenvalues --   -1.14166  -1.14145  -1.14140  -1.14106  -1.14034
  Beta  occ. eigenvalues --   -1.13985  -1.13983  -1.13936  -1.13908  -1.13832
  Beta  occ. eigenvalues --   -1.13816  -1.13433  -1.13419  -1.13382  -1.12919
  Beta  occ. eigenvalues --   -1.12865  -1.12848  -1.12122  -1.12108  -1.12094
  Beta  occ. eigenvalues --   -0.17233  -0.12362  -0.10954
  Beta virt. eigenvalues --   -0.08289  -0.06060  -0.04876  -0.04411  -0.02838
  Beta virt. eigenvalues --   -0.02287  -0.02138  -0.01922  -0.01066  -0.00831
  Beta virt. eigenvalues --   -0.00056   0.00134   0.00159   0.00307   0.00657

 Mulliken charges and spin densities:
               1          2
     1  Na  -0.652665   0.318580
     2  Na   0.176556   0.227130
     3  Na  -0.173636  -0.077768
     4  Na   0.086141   0.051368
     5  Na  -0.133019   0.261803
     6  Na   0.294076   0.043940
     7  Na   0.402547   0.174946
 Sum of Mulliken charges =  -0.00000   1.00000

 Dipole moment (field-independent basis, Debye):
    X=              0.3501    Y=             -0.1005    Z=              0.3044  Tot=              0.4747
 Quadrupole moment (field-independent basis, Debye-Ang):
   XX=            -55.3331   YY=            -72.6950   ZZ=            -66.7040
   XY=             -1.4772   XZ=              1.2659   YZ=              5.2227

 Normal termination of Gaussian 16 at Fri Dec  8 02:15:54 2023.
