 Gaussian 16, Revision B.01,
 Gaussian 16:  ES64L-G16RevB.01 20-Dec-2017

 -------------------------
 #P B3LYP/6-311+g(d) force
 -------------------------

 -----
 DPGEN
 -----
 Symbolic Z-matrix:
 Charge =  0 Multiplicity = 2

                         Standard orientation:
 ---------------------------------------------------------------------
 Center     Atomic      Atomic             Coordinates (Angstroms)
 Number     Number       Type             X           Y           Z
 ---------------------------------------------------------------------
      1         11           0       -1.529078   -2.389821    1.478269
      2         11           0        3.627866   -0.325936   -0.251961
      3         11           0       -1.406801    2.939642    0.199325
      4         11           0        1.770295    2.370906    0.762459
      5         11           0        1.081043   -2.664031   -0.435928
      6         11           0       -3.455883   -0.104649   -0.719367
      7         11           0       -0.087442    0.173890   -1.032798
 ---------------------------------------------------------------------

 SCF Done:  E(UB3LYP) =  -1136.12586850     A.U. after   22 cycles

 The electronic state is 2-A.
 Alpha  occ. eigenvalues --  -38.44258 -38.44190 -38.44000 -38.43972 -38.43823
 Alpha  occ. eigenvalues --  -38.43485 -38.43412  -2.20075  -2.20008  -2.19874
 Alpha  occ. eigenvalues --   -2.19812  -2.19781  -2.19330  -2.19279  -1.13742
 Alpha  occ. eigenvalues --   -1.13736  -1.13714  -1.13679  -1.13655  -1.13643
 Alpha  occ. eigenvalues --   -1.13635  -1.13546  -1.13531  -1.13490  -1.13484
 Alpha  occ. eigenvalues --   -1.13469  -1.13443  -1.13415  -1.13377  -1.12985
 Alpha  occ. eigenvalues --   -1.12973  -1.12946  -1.12944  -1.12934  -1.12906
 Alpha  occ. eigenvalues --   -0.17757  -0.13462  -0.13299  -0.09794
 Alpha virt. eigenvalues --   -0.06670  -0.05573  -0.04271  -0.03557  -0.02902
 Alpha virt. eigenvalues --   -0.02349  -0.01463  -0.01207  -0.00931  -0.00572
 Alpha virt. eigenvalues --   -0.00115   0.00225   0.00454   0.00656   0.00828

  Beta  occ. eigenvalues --  -38.44241 -38.44146 -38.43991 -38.43964 -38.43811
  Beta  occ. eigenvalues --  -38.43414 -38.43381  -2.20044  -2.19928  -2.19865
  Beta  occ. eigenvalues --   -2.19802  -2.19760  -2.19224  -2.19199  -1.13722
  Beta  occ. eigenvalues --   -1.13713  -1.13690  -1.13641  -1.13620  -1.13604
  Beta  occ. eigenvalues --   -1.13577  -1.13532  -1.13524  -1.13479  -1.13449
  Beta  occ. eigenvalues --   -1.13443  -1.13416  -1.13400  -1.13356  -1.12911
  Beta  occ. eigenvalues --   -1.12897  -1.12893  -1.12883  -1.12858  -1.12855
  Beta  occ. eigenvalues --   -0.17381  -0.13040  -0.12648
  Beta virt. eigenvalues --   -0.06616  -0.06470  -0.05450  -0.04014  -0.02971
  Beta virt. eigenvalues --   -0.02320  -0.02150  -0.01389  -0.00838  -0.00758
  Beta virt. eigenvalues --   -0.00437   0.00156   0.00328   0.00600   0.00718

 Mulliken charges and spin densities:
               1          2
     1  Na  -0.418598   0.325141
     2  Na   0.304870   0.134729
     3  Na   0.008486   0.043897
     4  Na  -0.207431   0.120864
     5  Na   0.300655   0.029272
     6  Na   0.386899   0.099301
     7  Na  -0.374881   0.246796
 Sum of Mulliken charges =  -0.00000   1.00000

 Dipole moment (field-independent basis, Debye):
    X=              0.0835    Y=              0.1842    Z=              0.1887  Tot=              0.2766
 Quadrupole moment (field-independent basis, Debye-Ang):
   XX=            -54.4981   YY=            -68.8172   ZZ=            -73.0110
   XY=             -2.0704   XZ=             -0.4055   YZ=              2.2849

 Normal termination of Gaussian 16 at Wed Nov 29 16:04:28 2023.
