 Gaussian 16, Revision B.01,
 Gaussian 16:  ES64L-G16RevB.01 20-Dec-2017

 -------------------------
 #P B3LYP/6-311+g(d) force
 -------------------------

 -----
 DPGEN
 -----
 Symbolic Z-matrix:
 Charge =  0 Multiplicity = 2

                         Standard orientation:
 ---------------------------------------------------------------------
 Center     Atomic      Atomic             Coordinates (Angstroms)
 Number     Number       Type             X           Y           Z
 ---------------------------------------------------------------------
      1         11           0       -4.111229   -1.897814    0.337018
      2         11           0        2.634714    2.781921   -0.720118
      3         11           0        2.979267   -2.961405   -0.648962
      4         11           0       -0.828277   -2.530801    0.208303
      5         11           0       -0.905285    3.489935    0.694687
      6         11           0       -3.479485    1.306665   -0.770374
      7         11           0        3.710294   -0.188500    0.899446
 ---------------------------------------------------------------------

 SCF Done:  E(UB3LYP) =  -1136.11069619     A.U. after   23 cycles

 The electronic state is 2-A.
 Alpha  occ. eigenvalues --  -38.45631 -38.44956 -38.44942 -38.44224 -38.43957
 Alpha  occ. eigenvalues --  -38.43948 -38.43715  -2.21378  -2.20730  -2.20727
 Alpha  occ. eigenvalues --   -2.19971  -2.19781  -2.19728  -2.19525  -1.15076
 Alpha  occ. eigenvalues --   -1.15063  -1.14982  -1.14415  -1.14413  -1.14395
 Alpha  occ. eigenvalues --   -1.14391  -1.14365  -1.14348  -1.13655  -1.13639
 Alpha  occ. eigenvalues --   -1.13598  -1.13439  -1.13432  -1.13416  -1.13390
 Alpha  occ. eigenvalues --   -1.13378  -1.13350  -1.13182  -1.13175  -1.13154
 Alpha  occ. eigenvalues --   -0.15648  -0.14086  -0.12906  -0.10421
 Alpha virt. eigenvalues --   -0.07273  -0.05134  -0.04850  -0.03052  -0.02881
 Alpha virt. eigenvalues --   -0.02808  -0.02337  -0.02270  -0.01368  -0.00444
 Alpha virt. eigenvalues --   -0.00310  -0.00168   0.00271   0.00400   0.00605

  Beta  occ. eigenvalues --  -38.45611 -38.44931 -38.44920 -38.44211 -38.43925
  Beta  occ. eigenvalues --  -38.43894 -38.43672  -2.21346  -2.20712  -2.20666
  Beta  occ. eigenvalues --   -2.19951  -2.19721  -2.19629  -2.19443  -1.15058
  Beta  occ. eigenvalues --   -1.15045  -1.14931  -1.14410  -1.14390  -1.14373
  Beta  occ. eigenvalues --   -1.14350  -1.14317  -1.14285  -1.13644  -1.13628
  Beta  occ. eigenvalues --   -1.13565  -1.13395  -1.13388  -1.13379  -1.13324
  Beta  occ. eigenvalues --   -1.13309  -1.13282  -1.13130  -1.13119  -1.13097
  Beta  occ. eigenvalues --   -0.15173  -0.13482  -0.12210
  Beta virt. eigenvalues --   -0.07366  -0.07186  -0.04799  -0.04510  -0.02854
  Beta virt. eigenvalues --   -0.02605  -0.02448  -0.02045  -0.01985  -0.01172
  Beta virt. eigenvalues --   -0.00214  -0.00078   0.00039   0.00373   0.00386

 Mulliken charges and spin densities:
               1          2
     1  Na   0.486350   0.044547
     2  Na  -0.058659   0.234889
     3  Na   0.404101   0.205422
     4  Na  -0.707048   0.240689
     5  Na  -0.007110   0.017999
     6  Na  -0.189208   0.205673
     7  Na   0.071575   0.050782
 Sum of Mulliken charges =  -0.00000   1.00000

 Dipole moment (field-independent basis, Debye):
    X=             -0.5727    Y=             -0.6586    Z=              0.0349  Tot=              0.8735
 Quadrupole moment (field-independent basis, Debye-Ang):
   XX=            -60.4199   YY=            -72.7183   ZZ=            -68.1077
   XY=              0.0943   XZ=              1.2313   YZ=              0.5423

 Normal termination of Gaussian 16 at Mon Dec  4 05:37:35 2023.
