 Gaussian 16, Revision B.01,
 Gaussian 16:  ES64L-G16RevB.01 20-Dec-2017

 -------------------------
 #P B3LYP/6-311+g(d) force
 -------------------------

 -----
 DPGEN
 -----
 Symbolic Z-matrix:
 Charge =  0 Multiplicity = 2

                         Standard orientation:
 ---------------------------------------------------------------------
 Center     Atomic      Atomic             Coordinates (Angstroms)
 Number     Number       Type             X           Y           Z
 ---------------------------------------------------------------------
      1         11           0       -3.028719   -1.604711   -0.164634
      2         11           0       -2.973143    1.908670   -0.182794
      3         11           0        1.987437    2.599003   -0.213307
      4         11           0       -0.131951    0.314127   -1.246330
      5         11           0        0.747773   -2.715580   -0.196754
      6         11           0        0.000608    0.169132    2.191231
      7         11           0        3.397996   -0.670643   -0.187413
 ---------------------------------------------------------------------

 SCF Done:  E(UB3LYP) =  -1136.12803684     A.U. after   21 cycles

 The electronic state is 2-A.
 Alpha  occ. eigenvalues --  -38.44723 -38.44668 -38.44602 -38.43670 -38.43498
 Alpha  occ. eigenvalues --  -38.43412 -38.42869  -2.20531  -2.20452  -2.20388
 Alpha  occ. eigenvalues --   -2.19479  -2.19451  -2.19264  -2.18714  -1.14203
 Alpha  occ. eigenvalues --   -1.14189  -1.14168  -1.14131  -1.14111  -1.14096
 Alpha  occ. eigenvalues --   -1.14063  -1.14038  -1.14019  -1.13202  -1.13173
 Alpha  occ. eigenvalues --   -1.13131  -1.13120  -1.13097  -1.13053  -1.12923
 Alpha  occ. eigenvalues --   -1.12880  -1.12871  -1.12410  -1.12371  -1.12347
 Alpha  occ. eigenvalues --   -0.18042  -0.13483  -0.11775  -0.10243
 Alpha virt. eigenvalues --   -0.06429  -0.06029  -0.04204  -0.03111  -0.02412
 Alpha virt. eigenvalues --   -0.02291  -0.02235  -0.01654  -0.00961  -0.00392
 Alpha virt. eigenvalues --   -0.00074   0.00210   0.00591   0.00660   0.00838

  Beta  occ. eigenvalues --  -38.44714 -38.44664 -38.44597 -38.43667 -38.43472
  Beta  occ. eigenvalues --  -38.43290 -38.42864  -2.20516  -2.20446  -2.20382
  Beta  occ. eigenvalues --   -2.19476  -2.19407  -2.19040  -2.18708  -1.14182
  Beta  occ. eigenvalues --   -1.14176  -1.14160  -1.14117  -1.14110  -1.14089
  Beta  occ. eigenvalues --   -1.14054  -1.14028  -1.14014  -1.13190  -1.13131
  Beta  occ. eigenvalues --   -1.13119  -1.13107  -1.13070  -1.13025  -1.12773
  Beta  occ. eigenvalues --   -1.12726  -1.12712  -1.12407  -1.12356  -1.12336
  Beta  occ. eigenvalues --   -0.17387  -0.13250  -0.11605
  Beta virt. eigenvalues --   -0.06429  -0.06216  -0.05986  -0.04190  -0.02468
  Beta virt. eigenvalues --   -0.02154  -0.01678  -0.01617  -0.01225  -0.00960
  Beta virt. eigenvalues --   -0.00396   0.00126   0.00293   0.00672   0.00681

 Mulliken charges and spin densities:
               1          2
     1  Na   0.195547   0.043954
     2  Na   0.283663   0.072577
     3  Na   0.290110   0.081376
     4  Na  -0.535272  -0.003676
     5  Na   0.009658   0.036667
     6  Na  -0.471233   0.704926
     7  Na   0.227528   0.064175
 Sum of Mulliken charges =  -0.00000   1.00000

 Dipole moment (field-independent basis, Debye):
    X=             -0.3914    Y=              0.1885    Z=              0.1633  Tot=              0.4641
 Quadrupole moment (field-independent basis, Debye-Ang):
   XX=            -49.9378   YY=            -64.8929   ZZ=            -77.2457
   XY=              0.1480   XZ=             -0.0498   YZ=              0.0981

 Normal termination of Gaussian 16 at Fri Dec  8 06:26:53 2023.
