 Gaussian 16, Revision B.01,
 Gaussian 16:  ES64L-G16RevB.01 20-Dec-2017

 -------------------------
 #P B3LYP/6-311+g(d) force
 -------------------------

 -----
 DPGEN
 -----
 Symbolic Z-matrix:
 Charge =  0 Multiplicity = 2

                         Standard orientation:
 ---------------------------------------------------------------------
 Center     Atomic      Atomic             Coordinates (Angstroms)
 Number     Number       Type             X           Y           Z
 ---------------------------------------------------------------------
      1         11           0        0.619800    3.523313    0.159479
      2         11           0        3.603990   -1.998089   -0.316646
      3         11           0        3.907266    1.574678   -0.479006
      4         11           0       -3.984107   -0.414934   -0.768053
      5         11           0       -2.386641    3.261656    0.559418
      6         11           0       -2.670642   -2.906843   -0.117291
      7         11           0        0.910334   -3.039782    0.962099
 ---------------------------------------------------------------------

 SCF Done:  E(UB3LYP) =  -1136.10607809     A.U. after   19 cycles

 The electronic state is 2-A.
 Alpha  occ. eigenvalues --  -38.44953 -38.44675 -38.44498 -38.44466 -38.44458
 Alpha  occ. eigenvalues --  -38.44438 -38.44187  -2.20777  -2.20465  -2.20310
 Alpha  occ. eigenvalues --   -2.20294  -2.20248  -2.20228  -2.20002  -1.14537
 Alpha  occ. eigenvalues --   -1.14416  -1.14395  -1.14182  -1.14137  -1.14117
 Alpha  occ. eigenvalues --   -1.13972  -1.13957  -1.13950  -1.13949  -1.13939
 Alpha  occ. eigenvalues --   -1.13935  -1.13918  -1.13911  -1.13905  -1.13878
 Alpha  occ. eigenvalues --   -1.13861  -1.13847  -1.13644  -1.13634  -1.13625
 Alpha  occ. eigenvalues --   -0.15606  -0.13968  -0.13680  -0.11081
 Alpha virt. eigenvalues --   -0.07511  -0.04634  -0.04490  -0.03688  -0.03511
 Alpha virt. eigenvalues --   -0.02362  -0.02123  -0.01914  -0.01424  -0.00984
 Alpha virt. eigenvalues --   -0.00611  -0.00208   0.00087   0.00398   0.00732

  Beta  occ. eigenvalues --  -38.44918 -38.44681 -38.44457 -38.44455 -38.44436
  Beta  occ. eigenvalues --  -38.44348 -38.44144  -2.20715  -2.20482  -2.20284
  Beta  occ. eigenvalues --   -2.20249  -2.20195  -2.20059  -2.19925  -1.14489
  Beta  occ. eigenvalues --   -1.14376  -1.14351  -1.14172  -1.14154  -1.14104
  Beta  occ. eigenvalues --   -1.13946  -1.13937  -1.13935  -1.13924  -1.13903
  Beta  occ. eigenvalues --   -1.13894  -1.13876  -1.13873  -1.13847  -1.13763
  Beta  occ. eigenvalues --   -1.13749  -1.13737  -1.13592  -1.13585  -1.13570
  Beta  occ. eigenvalues --   -0.15074  -0.13227  -0.12999
  Beta virt. eigenvalues --   -0.07929  -0.07524  -0.04166  -0.04070  -0.03467
  Beta virt. eigenvalues --   -0.03131  -0.02171  -0.01924  -0.01748  -0.01316
  Beta virt. eigenvalues --   -0.00603  -0.00318   0.00059   0.00279   0.00382

 Mulliken charges and spin densities:
               1          2
     1  Na  -0.187221   0.035174
     2  Na   0.153417  -0.053864
     3  Na   0.040858   0.463680
     4  Na   0.042584   0.119312
     5  Na   0.267133   0.126010
     6  Na   0.250390   0.023369
     7  Na  -0.567162   0.286319
 Sum of Mulliken charges =  -0.00000   1.00000

 Dipole moment (field-independent basis, Debye):
    X=             -0.4570    Y=             -0.3745    Z=             -0.0830  Tot=              0.5967
 Quadrupole moment (field-independent basis, Debye-Ang):
   XX=            -60.7304   YY=            -68.4945   ZZ=            -72.4807
   XY=             -2.4086   XZ=             -1.0942   YZ=             -0.7444

 Normal termination of Gaussian 16 at Sun Dec  3 18:26:33 2023.
