 Gaussian 16, Revision B.01,
 Gaussian 16:  ES64L-G16RevB.01 20-Dec-2017

 -------------------------
 #P B3LYP/6-311+g(d) force
 -------------------------

 -----
 DPGEN
 -----
 Symbolic Z-matrix:
 Charge =  0 Multiplicity = 2

                         Standard orientation:
 ---------------------------------------------------------------------
 Center     Atomic      Atomic             Coordinates (Angstroms)
 Number     Number       Type             X           Y           Z
 ---------------------------------------------------------------------
      1         11           0        2.298517   -1.620475    0.299316
      2         11           0        5.852459   -0.507986   -0.993536
      3         11           0        3.818824    2.175696   -0.172887
      4         11           0        0.345749    1.173751    1.211062
      5         11           0       -0.963156   -1.835276    0.386249
      6         11           0       -4.334381    0.196251    0.229389
      7         11           0       -7.018012    0.418039   -0.959592
 ---------------------------------------------------------------------

 SCF Done:  E(UB3LYP) =  -1136.11682378     A.U. after   20 cycles

 The electronic state is 2-A.
 Alpha  occ. eigenvalues --  -38.44858 -38.44531 -38.44438 -38.44246 -38.44238
 Alpha  occ. eigenvalues --  -38.44234 -38.43855  -2.20685  -2.20362  -2.20224
 Alpha  occ. eigenvalues --   -2.20075  -2.20043  -2.20024  -2.19675  -1.14382
 Alpha  occ. eigenvalues --   -1.14362  -1.14288  -1.14038  -1.14026  -1.13973
 Alpha  occ. eigenvalues --   -1.13906  -1.13882  -1.13849  -1.13784  -1.13739
 Alpha  occ. eigenvalues --   -1.13727  -1.13706  -1.13690  -1.13687  -1.13687
 Alpha  occ. eigenvalues --   -1.13679  -1.13646  -1.13333  -1.13330  -1.13289
 Alpha  occ. eigenvalues --   -0.16725  -0.13903  -0.12368  -0.11094
 Alpha virt. eigenvalues --   -0.07052  -0.05584  -0.04100  -0.03882  -0.02943
 Alpha virt. eigenvalues --   -0.02744  -0.02437  -0.01415  -0.01383  -0.00888
 Alpha virt. eigenvalues --   -0.00651  -0.00197   0.00165   0.00276   0.00585

  Beta  occ. eigenvalues --  -38.44817 -38.44470 -38.44402 -38.44243 -38.44220
  Beta  occ. eigenvalues --  -38.44215 -38.43853  -2.20611  -2.20251  -2.20158
  Beta  occ. eigenvalues --   -2.20051  -2.20040  -2.19975  -2.19672  -1.14333
  Beta  occ. eigenvalues --   -1.14300  -1.14230  -1.13964  -1.13953  -1.13880
  Beta  occ. eigenvalues --   -1.13865  -1.13838  -1.13789  -1.13785  -1.13716
  Beta  occ. eigenvalues --   -1.13693  -1.13692  -1.13690  -1.13686  -1.13656
  Beta  occ. eigenvalues --   -1.13639  -1.13617  -1.13330  -1.13328  -1.13291
  Beta  occ. eigenvalues --   -0.16068  -0.13770  -0.12267
  Beta virt. eigenvalues --   -0.07236  -0.06896  -0.04892  -0.03922  -0.03711
  Beta virt. eigenvalues --   -0.02591  -0.02401  -0.02092  -0.01356  -0.01290
  Beta virt. eigenvalues --   -0.00548  -0.00236   0.00078   0.00240   0.00441

 Mulliken charges and spin densities:
               1          2
     1  Na  -0.269015   0.263312
     2  Na   0.481281   0.133218
     3  Na   0.045812   0.074533
     4  Na  -0.268015   0.433006
     5  Na   0.152101   0.083314
     6  Na  -0.281582  -0.008075
     7  Na   0.139419   0.020693
 Sum of Mulliken charges =  -0.00000   1.00000

 Dipole moment (field-independent basis, Debye):
    X=              0.3803    Y=             -0.1830    Z=             -0.2010  Tot=              0.4674
 Quadrupole moment (field-independent basis, Debye-Ang):
   XX=            -55.4868   YY=            -69.0147   ZZ=            -71.5069
   XY=             -0.2167   XZ=              1.0075   YZ=             -0.1419

 Normal termination of Gaussian 16 at Tue Nov 28 22:34:34 2023.
