 Gaussian 16, Revision B.01,
 Gaussian 16:  ES64L-G16RevB.01 20-Dec-2017

 -------------------------
 #P B3LYP/6-311+g(d) force
 -------------------------

 -----
 DPGEN
 -----
 Symbolic Z-matrix:
 Charge =  0 Multiplicity = 2

                         Standard orientation:
 ---------------------------------------------------------------------
 Center     Atomic      Atomic             Coordinates (Angstroms)
 Number     Number       Type             X           Y           Z
 ---------------------------------------------------------------------
      1         11           0        0.043534    0.119052   -1.725053
      2         11           0       -2.571065    1.607424   -0.222457
      3         11           0        1.291172   -2.654945    0.042611
      4         11           0       -2.647607   -1.834926   -0.173909
      5         11           0        0.889769    2.892508    0.237683
      6         11           0        3.223638    0.027264   -0.232074
      7         11           0       -0.229440   -0.156377    2.073199
 ---------------------------------------------------------------------

 SCF Done:  E(UB3LYP) =  -1136.13933881     A.U. after   19 cycles

 The electronic state is 2-A.
 Alpha  occ. eigenvalues --  -38.44095 -38.43896 -38.43873 -38.43631 -38.43431
 Alpha  occ. eigenvalues --  -38.43403 -38.43305  -2.19919  -2.19716  -2.19706
 Alpha  occ. eigenvalues --   -2.19503  -2.19335  -2.19272  -2.19123  -1.13594
 Alpha  occ. eigenvalues --   -1.13581  -1.13560  -1.13416  -1.13393  -1.13377
 Alpha  occ. eigenvalues --   -1.13367  -1.13354  -1.13318  -1.13169  -1.13132
 Alpha  occ. eigenvalues --   -1.13121  -1.13023  -1.12986  -1.12959  -1.12942
 Alpha  occ. eigenvalues --   -1.12929  -1.12903  -1.12793  -1.12788  -1.12761
 Alpha  occ. eigenvalues --   -0.18387  -0.13084  -0.12221  -0.10728
 Alpha virt. eigenvalues --   -0.05638  -0.05360  -0.04688  -0.03219  -0.02876
 Alpha virt. eigenvalues --   -0.02607  -0.01583  -0.01172  -0.00490  -0.00402
 Alpha virt. eigenvalues --   -0.00029   0.00360   0.00756   0.00859   0.00874

  Beta  occ. eigenvalues --  -38.44092 -38.43893 -38.43866 -38.43535 -38.43427
  Beta  occ. eigenvalues --  -38.43340 -38.43300  -2.19915  -2.19707  -2.19703
  Beta  occ. eigenvalues --   -2.19325  -2.19267  -2.19220  -2.19117  -1.13586
  Beta  occ. eigenvalues --   -1.13571  -1.13558  -1.13409  -1.13379  -1.13361
  Beta  occ. eigenvalues --   -1.13352  -1.13348  -1.13316  -1.13053  -1.13009
  Beta  occ. eigenvalues --   -1.12993  -1.12958  -1.12934  -1.12922  -1.12898
  Beta  occ. eigenvalues --   -1.12882  -1.12871  -1.12784  -1.12768  -1.12759
  Beta  occ. eigenvalues --   -0.17658  -0.12856  -0.12006
  Beta virt. eigenvalues --   -0.06828  -0.05578  -0.05380  -0.04617  -0.02455
  Beta virt. eigenvalues --   -0.02105  -0.01564  -0.01483  -0.01104  -0.00540
  Beta virt. eigenvalues --   -0.00455   0.00115   0.00385   0.00834   0.00847

 Mulliken charges and spin densities:
               1          2
     1  Na  -0.099776   0.521157
     2  Na   0.199932  -0.037948
     3  Na   0.090481  -0.097266
     4  Na   0.086591  -0.093147
     5  Na   0.010630  -0.057751
     6  Na   0.114414  -0.044859
     7  Na  -0.402272   0.809816
 Sum of Mulliken charges =  -0.00000   1.00000

 Dipole moment (field-independent basis, Debye):
    X=             -0.0587    Y=             -0.0485    Z=              0.0297  Tot=              0.0817
 Quadrupole moment (field-independent basis, Debye-Ang):
   XX=            -56.1039   YY=            -63.0391   ZZ=            -74.4217
   XY=              0.6604   XZ=              0.4473   YZ=              0.6413

 Normal termination of Gaussian 16 at Thu Dec  7 19:47:47 2023.
