 Gaussian 16, Revision B.01,
 Gaussian 16:  ES64L-G16RevB.01 20-Dec-2017

 -------------------------
 #P B3LYP/6-311+g(d) force
 -------------------------

 -----
 DPGEN
 -----
 Symbolic Z-matrix:
 Charge =  0 Multiplicity = 2

                         Standard orientation:
 ---------------------------------------------------------------------
 Center     Atomic      Atomic             Coordinates (Angstroms)
 Number     Number       Type             X           Y           Z
 ---------------------------------------------------------------------
      1         11           0        0.258352    2.449608    0.170267
      2         11           0        3.368926   -1.982791   -0.694103
      3         11           0        3.206388    0.912670    0.469631
      4         11           0       -1.309559   -0.147099    2.540143
      5         11           0       -3.285501   -1.514830    0.162302
      6         11           0       -0.029456   -0.653768   -0.551488
      7         11           0       -2.209150    0.936210   -2.096752
 ---------------------------------------------------------------------

 SCF Done:  E(UB3LYP) =  -1136.12040407     A.U. after   24 cycles

 The electronic state is 2-A.
 Alpha  occ. eigenvalues --  -38.45029 -38.44623 -38.44421 -38.43928 -38.43816
 Alpha  occ. eigenvalues --  -38.43236 -38.42163  -2.20877  -2.20494  -2.20269
 Alpha  occ. eigenvalues --   -2.19800  -2.19765  -2.19062  -2.18045  -1.14541
 Alpha  occ. eigenvalues --   -1.14508  -1.14472  -1.14201  -1.14122  -1.14084
 Alpha  occ. eigenvalues --   -1.13944  -1.13932  -1.13918  -1.13540  -1.13467
 Alpha  occ. eigenvalues --   -1.13448  -1.13432  -1.13423  -1.13376  -1.12727
 Alpha  occ. eigenvalues --   -1.12714  -1.12703  -1.11742  -1.11702  -1.11682
 Alpha  occ. eigenvalues --   -0.18220  -0.13933  -0.11927  -0.11102
 Alpha virt. eigenvalues --   -0.06284  -0.05421  -0.04092  -0.03528  -0.03149
 Alpha virt. eigenvalues --   -0.02396  -0.02237  -0.00914  -0.00769  -0.00230
 Alpha virt. eigenvalues --    0.00061   0.00210   0.00415   0.00589   0.00780

  Beta  occ. eigenvalues --  -38.44925 -38.44547 -38.44423 -38.43928 -38.43800
  Beta  occ. eigenvalues --  -38.43226 -38.42158  -2.20684  -2.20354  -2.20273
  Beta  occ. eigenvalues --   -2.19776  -2.19768  -2.19043  -2.18039  -1.14411
  Beta  occ. eigenvalues --   -1.14381  -1.14330  -1.14102  -1.14032  -1.13987
  Beta  occ. eigenvalues --   -1.13945  -1.13936  -1.13916  -1.13476  -1.13461
  Beta  occ. eigenvalues --   -1.13446  -1.13438  -1.13390  -1.13372  -1.12716
  Beta  occ. eigenvalues --   -1.12699  -1.12691  -1.11741  -1.11700  -1.11657
  Beta  occ. eigenvalues --   -0.17490  -0.13655  -0.10926
  Beta virt. eigenvalues --   -0.08000  -0.06119  -0.05001  -0.03624  -0.02904
  Beta virt. eigenvalues --   -0.02803  -0.02172  -0.01845  -0.00797  -0.00419
  Beta virt. eigenvalues --   -0.00161   0.00176   0.00413   0.00503   0.00727

 Mulliken charges and spin densities:
               1          2
     1  Na   0.220939   0.064870
     2  Na   0.682340  -0.074762
     3  Na  -0.253448   0.047560
     4  Na  -0.107663   0.488668
     5  Na   0.039458   0.075782
     6  Na  -0.930175  -0.017224
     7  Na   0.348549   0.415106
 Sum of Mulliken charges =  -0.00000   1.00000

 Dipole moment (field-independent basis, Debye):
    X=             -0.8031    Y=              0.3620    Z=              0.3088  Tot=              0.9335
 Quadrupole moment (field-independent basis, Debye-Ang):
   XX=            -57.8803   YY=            -72.6160   ZZ=            -65.4266
   XY=              1.7573   XZ=              3.4353   YZ=              1.7580

 Normal termination of Gaussian 16 at Wed Dec  6 00:24:13 2023.
