 Gaussian 16, Revision B.01,
 Gaussian 16:  ES64L-G16RevB.01 20-Dec-2017

 -------------------------
 #P B3LYP/6-311+g(d) force
 -------------------------

 -----
 DPGEN
 -----
 Symbolic Z-matrix:
 Charge =  0 Multiplicity = 2

                         Standard orientation:
 ---------------------------------------------------------------------
 Center     Atomic      Atomic             Coordinates (Angstroms)
 Number     Number       Type             X           Y           Z
 ---------------------------------------------------------------------
      1         11           0       -0.132797   -1.069991    1.773879
      2         11           0        1.426041    3.345062   -0.354408
      3         11           0       -3.546170   -0.482782    1.279502
      4         11           0       -1.620593    2.209996   -0.659489
      5         11           0        3.703422   -0.159441    0.896704
      6         11           0       -1.801449   -1.358074   -1.769812
      7         11           0        1.971546   -2.484769   -1.166376
 ---------------------------------------------------------------------

 SCF Done:  E(UB3LYP) =  -1136.12111951     A.U. after   20 cycles

 The electronic state is 2-A.
 Alpha  occ. eigenvalues --  -38.44979 -38.44900 -38.44546 -38.44453 -38.44440
 Alpha  occ. eigenvalues --  -38.43467 -38.43202  -2.20764  -2.20650  -2.20358
 Alpha  occ. eigenvalues --   -2.20247  -2.20225  -2.19274  -2.18965  -1.14446
 Alpha  occ. eigenvalues --   -1.14438  -1.14371  -1.14330  -1.14300  -1.14282
 Alpha  occ. eigenvalues --   -1.14021  -1.14012  -1.13985  -1.13919  -1.13903
 Alpha  occ. eigenvalues --   -1.13898  -1.13882  -1.13858  -1.13848  -1.12962
 Alpha  occ. eigenvalues --   -1.12954  -1.12898  -1.12638  -1.12627  -1.12609
 Alpha  occ. eigenvalues --   -0.17001  -0.13328  -0.11840  -0.11021
 Alpha virt. eigenvalues --   -0.06489  -0.05637  -0.05327  -0.03431  -0.02835
 Alpha virt. eigenvalues --   -0.02439  -0.02195  -0.01172  -0.00954  -0.00559
 Alpha virt. eigenvalues --   -0.00389   0.00092   0.00191   0.00256   0.00662

  Beta  occ. eigenvalues --  -38.44933 -38.44887 -38.44512 -38.44429 -38.44377
  Beta  occ. eigenvalues --  -38.43455 -38.43213  -2.20680  -2.20626  -2.20297
  Beta  occ. eigenvalues --   -2.20181  -2.20131  -2.19253  -2.18986  -1.14391
  Beta  occ. eigenvalues --   -1.14375  -1.14311  -1.14301  -1.14283  -1.14269
  Beta  occ. eigenvalues --   -1.13978  -1.13957  -1.13947  -1.13875  -1.13856
  Beta  occ. eigenvalues --   -1.13837  -1.13816  -1.13806  -1.13771  -1.12947
  Beta  occ. eigenvalues --   -1.12931  -1.12892  -1.12652  -1.12640  -1.12620
  Beta  occ. eigenvalues --   -0.16360  -0.13167  -0.11674
  Beta virt. eigenvalues --   -0.07353  -0.06225  -0.05360  -0.04847  -0.03213
  Beta virt. eigenvalues --   -0.02244  -0.02027  -0.01833  -0.00960  -0.00801
  Beta virt. eigenvalues --   -0.00425  -0.00214   0.00253   0.00310   0.00375

 Mulliken charges and spin densities:
               1          2
     1  Na  -0.565315   0.339505
     2  Na   0.024712  -0.096098
     3  Na   0.741724   0.105706
     4  Na  -0.371566   0.117648
     5  Na   0.140431   0.078815
     6  Na  -0.040094   0.349932
     7  Na   0.070108   0.104492
 Sum of Mulliken charges =  -0.00000   1.00000

 Dipole moment (field-independent basis, Debye):
    X=             -0.0576    Y=             -1.0976    Z=              0.3646  Tot=              1.1580
 Quadrupole moment (field-independent basis, Debye-Ang):
   XX=            -51.3729   YY=            -74.9761   ZZ=            -71.0044
   XY=              0.3039   XZ=              0.0355   YZ=              2.5433

 Normal termination of Gaussian 16 at Sun Dec  3 18:12:49 2023.
