 Gaussian 16, Revision B.01,
 Gaussian 16:  ES64L-G16RevB.01 20-Dec-2017

 -------------------------
 #P B3LYP/6-311+g(d) force
 -------------------------

 -----
 DPGEN
 -----
 Symbolic Z-matrix:
 Charge =  0 Multiplicity = 2

                         Standard orientation:
 ---------------------------------------------------------------------
 Center     Atomic      Atomic             Coordinates (Angstroms)
 Number     Number       Type             X           Y           Z
 ---------------------------------------------------------------------
      1         11           0        0.018823   -0.036641    1.799340
      2         11           0        0.294905   -2.128340   -0.038923
      3         11           0       -2.284905   -0.880157    0.099502
      4         11           0        1.144287    1.958927   -0.002780
      5         11           0       -0.184433   -0.040887   -1.781993
      6         11           0       -1.444125    1.641046   -0.016413
      7         11           0        2.455448   -0.513946   -0.058734
 ---------------------------------------------------------------------

 SCF Done:  E(UB3LYP) =  -1136.06266407     A.U. after   19 cycles

 The electronic state is 2-A.
 Alpha  occ. eigenvalues --  -38.44465 -38.44359 -38.44143 -38.43940 -38.43888
 Alpha  occ. eigenvalues --  -38.43736 -38.43673  -2.20761  -2.20640  -2.20413
 Alpha  occ. eigenvalues --   -2.20066  -2.20049  -2.19916  -2.19879  -1.14723
 Alpha  occ. eigenvalues --   -1.14556  -1.14493  -1.14433  -1.14399  -1.14331
 Alpha  occ. eigenvalues --   -1.14287  -1.14064  -1.13989  -1.13912  -1.13861
 Alpha  occ. eigenvalues --   -1.13760  -1.13652  -1.13629  -1.13593  -1.13491
 Alpha  occ. eigenvalues --   -1.13473  -1.13461  -1.13454  -1.13374  -1.13283
 Alpha  occ. eigenvalues --   -0.22165  -0.13878  -0.13208  -0.12621
 Alpha virt. eigenvalues --   -0.05100  -0.04174  -0.04154  -0.03751  -0.03420
 Alpha virt. eigenvalues --   -0.02953  -0.00875  -0.00438  -0.00117   0.00334
 Alpha virt. eigenvalues --    0.00892   0.00947   0.01100   0.01235   0.01308

  Beta  occ. eigenvalues --  -38.44366 -38.44260 -38.44123 -38.43931 -38.43874
  Beta  occ. eigenvalues --  -38.43721 -38.43656  -2.20585  -2.20464  -2.20383
  Beta  occ. eigenvalues --   -2.20054  -2.20031  -2.19897  -2.19857  -1.14650
  Beta  occ. eigenvalues --   -1.14472  -1.14425  -1.14335  -1.14283  -1.14227
  Beta  occ. eigenvalues --   -1.14171  -1.14031  -1.13957  -1.13844  -1.13814
  Beta  occ. eigenvalues --   -1.13743  -1.13592  -1.13587  -1.13557  -1.13455
  Beta  occ. eigenvalues --   -1.13444  -1.13415  -1.13385  -1.13369  -1.13278
  Beta  occ. eigenvalues --   -0.21306  -0.13479  -0.12805
  Beta virt. eigenvalues --   -0.08366  -0.05142  -0.04155  -0.04121  -0.02755
  Beta virt. eigenvalues --   -0.02442  -0.01878  -0.00810  -0.00393   0.00032
  Beta virt. eigenvalues --    0.00358   0.00878   0.00930   0.01128   0.01228

 Mulliken charges and spin densities:
               1          2
     1  Na  -0.304171   0.442722
     2  Na   0.237047   0.066046
     3  Na   0.104253  -0.022721
     4  Na   0.105574   0.030555
     5  Na  -0.305328   0.429446
     6  Na   0.245506   0.084441
     7  Na  -0.082881  -0.030489
 Sum of Mulliken charges =  -0.00000   1.00000

 Dipole moment (field-independent basis, Debye):
    X=              0.1560    Y=             -0.1348    Z=              0.0368  Tot=              0.2095
 Quadrupole moment (field-independent basis, Debye-Ang):
   XX=            -62.5051   YY=            -69.3343   ZZ=            -67.5618
   XY=              0.5675   XZ=             -0.4114   YZ=             -0.0349

 Normal termination of Gaussian 16 at Thu Dec  7 14:58:18 2023.
