 Gaussian 16, Revision B.01,
 Gaussian 16:  ES64L-G16RevB.01 20-Dec-2017

 -------------------------
 #P B3LYP/6-311+g(d) force
 -------------------------

 -----
 DPGEN
 -----
 Symbolic Z-matrix:
 Charge =  0 Multiplicity = 2

                         Standard orientation:
 ---------------------------------------------------------------------
 Center     Atomic      Atomic             Coordinates (Angstroms)
 Number     Number       Type             X           Y           Z
 ---------------------------------------------------------------------
      1         11           0       -0.047881    1.946887    0.020373
      2         11           0       -2.823298    3.334351   -0.097583
      3         11           0       -3.373975   -0.825635   -0.067200
      4         11           0       -1.724607   -3.221918   -0.697519
      5         11           0       -0.259492   -1.412439    1.403922
      6         11           0        2.735322    0.066594   -0.633527
      7         11           0        5.493930    0.112160    0.071533
 ---------------------------------------------------------------------

 SCF Done:  E(UB3LYP) =  -1136.11490615     A.U. after   20 cycles

 The electronic state is 2-A.
 Alpha  occ. eigenvalues --  -38.44764 -38.44734 -38.44678 -38.43989 -38.43614
 Alpha  occ. eigenvalues --  -38.43504 -38.43237  -2.20626  -2.20610  -2.20557
 Alpha  occ. eigenvalues --   -2.19845  -2.19419  -2.19369  -2.19117  -1.14417
 Alpha  occ. eigenvalues --   -1.14334  -1.14308  -1.14270  -1.14251  -1.14233
 Alpha  occ. eigenvalues --   -1.14187  -1.14147  -1.14108  -1.13594  -1.13455
 Alpha  occ. eigenvalues --   -1.13453  -1.13159  -1.13078  -1.13058  -1.13046
 Alpha  occ. eigenvalues --   -1.13027  -1.12953  -1.12799  -1.12767  -1.12745
 Alpha  occ. eigenvalues --   -0.17357  -0.14004  -0.12675  -0.10714
 Alpha virt. eigenvalues --   -0.06162  -0.05847  -0.04391  -0.03636  -0.02999
 Alpha virt. eigenvalues --   -0.02150  -0.01727  -0.01500  -0.01087  -0.00757
 Alpha virt. eigenvalues --   -0.00402  -0.00017   0.00392   0.00429   0.00569

  Beta  occ. eigenvalues --  -38.44721 -38.44686 -38.44668 -38.43907 -38.43604
  Beta  occ. eigenvalues --  -38.43485 -38.43234  -2.20554  -2.20536  -2.20521
  Beta  occ. eigenvalues --   -2.19694  -2.19401  -2.19337  -2.19122  -1.14378
  Beta  occ. eigenvalues --   -1.14287  -1.14251  -1.14218  -1.14193  -1.14185
  Beta  occ. eigenvalues --   -1.14163  -1.14098  -1.14074  -1.13500  -1.13351
  Beta  occ. eigenvalues --   -1.13350  -1.13145  -1.13065  -1.13041  -1.13027
  Beta  occ. eigenvalues --   -1.13002  -1.12925  -1.12789  -1.12780  -1.12697
  Beta  occ. eigenvalues --   -0.16753  -0.13370  -0.12405
  Beta virt. eigenvalues --   -0.07357  -0.05893  -0.05444  -0.04071  -0.03224
  Beta virt. eigenvalues --   -0.02716  -0.02028  -0.01561  -0.01258  -0.00795
  Beta virt. eigenvalues --   -0.00354  -0.00130   0.00184   0.00463   0.00559

 Mulliken charges and spin densities:
               1          2
     1  Na  -1.051688  -0.025852
     2  Na   0.819563   0.165046
     3  Na  -0.063930   0.348425
     4  Na   0.289591   0.017387
     5  Na  -0.241350   0.253776
     6  Na   0.129427  -0.128250
     7  Na   0.118387   0.369468
 Sum of Mulliken charges =  -0.00000   1.00000

 Dipole moment (field-independent basis, Debye):
    X=             -1.0711    Y=             -1.3886    Z=              0.3320  Tot=              1.7849
 Quadrupole moment (field-independent basis, Debye-Ang):
   XX=            -68.9902   YY=            -63.9141   ZZ=            -67.9767
   XY=             -0.9885   XZ=              2.0976   YZ=              1.5309

 Normal termination of Gaussian 16 at Wed Nov 29 02:15:08 2023.
