 Gaussian 16, Revision B.01,
 Gaussian 16:  ES64L-G16RevB.01 20-Dec-2017

 -------------------------
 #P B3LYP/6-311+g(d) force
 -------------------------

 -----
 DPGEN
 -----
 Symbolic Z-matrix:
 Charge =  0 Multiplicity = 2

                         Standard orientation:
 ---------------------------------------------------------------------
 Center     Atomic      Atomic             Coordinates (Angstroms)
 Number     Number       Type             X           Y           Z
 ---------------------------------------------------------------------
      1         11           0        1.961229    2.878150    0.024076
      2         11           0        2.631922   -2.801981    0.157517
      3         11           0       -0.211977   -2.146600    1.226384
      4         11           0       -3.743159   -2.261974   -0.861570
      5         11           0       -3.670394    0.919192   -0.104808
      6         11           0       -1.206594    3.358106    0.356176
      7         11           0        4.238972    0.055107   -0.797775
 ---------------------------------------------------------------------

 SCF Done:  E(UB3LYP) =  -1136.11196410     A.U. after   22 cycles

 The electronic state is 2-A.
 Alpha  occ. eigenvalues --  -38.45003 -38.44956 -38.44723 -38.44444 -38.44303
 Alpha  occ. eigenvalues --  -38.44181 -38.43462  -2.20802  -2.20746  -2.20491
 Alpha  occ. eigenvalues --   -2.20242  -2.20105  -2.20005  -2.19282  -1.14478
 Alpha  occ. eigenvalues --   -1.14454  -1.14428  -1.14424  -1.14409  -1.14397
 Alpha  occ. eigenvalues --   -1.14176  -1.14171  -1.14137  -1.13896  -1.13887
 Alpha  occ. eigenvalues --   -1.13870  -1.13759  -1.13752  -1.13740  -1.13683
 Alpha  occ. eigenvalues --   -1.13663  -1.13633  -1.12936  -1.12933  -1.12928
 Alpha  occ. eigenvalues --   -0.15908  -0.14056  -0.13225  -0.10830
 Alpha virt. eigenvalues --   -0.07408  -0.05235  -0.04012  -0.03746  -0.03319
 Alpha virt. eigenvalues --   -0.02473  -0.02041  -0.01811  -0.01321  -0.01074
 Alpha virt. eigenvalues --   -0.00127  -0.00081   0.00079   0.00490   0.00675

  Beta  occ. eigenvalues --  -38.44944 -38.44944 -38.44730 -38.44398 -38.44234
  Beta  occ. eigenvalues --  -38.44169 -38.43430  -2.20728  -2.20696  -2.20507
  Beta  occ. eigenvalues --   -2.20158  -2.19991  -2.19975  -2.19222  -1.14419
  Beta  occ. eigenvalues --   -1.14405  -1.14402  -1.14385  -1.14350  -1.14340
  Beta  occ. eigenvalues --   -1.14191  -1.14184  -1.14119  -1.13839  -1.13821
  Beta  occ. eigenvalues --   -1.13819  -1.13684  -1.13672  -1.13659  -1.13655
  Beta  occ. eigenvalues --   -1.13648  -1.13592  -1.12902  -1.12892  -1.12887
  Beta  occ. eigenvalues --   -0.15385  -0.13379  -0.12655
  Beta virt. eigenvalues --   -0.07564  -0.07410  -0.04858  -0.03617  -0.03447
  Beta virt. eigenvalues --   -0.02871  -0.02279  -0.01898  -0.01591  -0.01158
  Beta virt. eigenvalues --   -0.00742   0.00078   0.00151   0.00308   0.00475

 Mulliken charges and spin densities:
               1          2
     1  Na  -0.120591   0.024856
     2  Na   0.179446   0.014900
     3  Na  -0.615494   0.239837
     4  Na   0.488958   0.168162
     5  Na  -0.369716   0.133931
     6  Na   0.298315   0.126704
     7  Na   0.139083   0.291611
 Sum of Mulliken charges =  -0.00000   1.00000

 Dipole moment (field-independent basis, Debye):
    X=             -0.3891    Y=             -0.7997    Z=             -0.1077  Tot=              0.8958
 Quadrupole moment (field-independent basis, Debye-Ang):
   XX=            -63.0868   YY=            -65.8406   ZZ=            -71.9438
   XY=             -1.8343   XZ=             -0.8779   YZ=              2.5279

 Normal termination of Gaussian 16 at Sun Dec  3 22:11:54 2023.
