 Gaussian 16, Revision B.01,
 Gaussian 16:  ES64L-G16RevB.01 20-Dec-2017

 -------------------------
 #P B3LYP/6-311+g(d) force
 -------------------------

 -----
 DPGEN
 -----
 Symbolic Z-matrix:
 Charge =  0 Multiplicity = 2

                         Standard orientation:
 ---------------------------------------------------------------------
 Center     Atomic      Atomic             Coordinates (Angstroms)
 Number     Number       Type             X           Y           Z
 ---------------------------------------------------------------------
      1         11           0        0.212494   -0.314003    1.969863
      2         11           0        2.703334    1.384979   -0.044349
      3         11           0        1.980487   -1.793483   -0.047116
      4         11           0       -0.527883    2.638951   -0.172367
      5         11           0       -2.878198    0.658648    0.249591
      6         11           0       -1.373398   -2.278077   -0.154002
      7         11           0       -0.116836   -0.297015   -1.801621
 ---------------------------------------------------------------------

 SCF Done:  E(UB3LYP) =  -1136.13282633     A.U. after   19 cycles

 The electronic state is 2-A.
 Alpha  occ. eigenvalues --  -38.43724 -38.43676 -38.43641 -38.43575 -38.43391
 Alpha  occ. eigenvalues --  -38.43239 -38.43133  -2.19692  -2.19618  -2.19569
 Alpha  occ. eigenvalues --   -2.19497  -2.19362  -2.19212  -2.19024  -1.13432
 Alpha  occ. eigenvalues --   -1.13393  -1.13332  -1.13309  -1.13281  -1.13268
 Alpha  occ. eigenvalues --   -1.13245  -1.13219  -1.13207  -1.13176  -1.13157
 Alpha  occ. eigenvalues --   -1.13148  -1.13023  -1.13013  -1.12957  -1.12869
 Alpha  occ. eigenvalues --   -1.12853  -1.12802  -1.12701  -1.12682  -1.12655
 Alpha  occ. eigenvalues --   -0.19545  -0.13251  -0.12661  -0.11305
 Alpha virt. eigenvalues --   -0.05279  -0.05001  -0.04413  -0.03396  -0.03038
 Alpha virt. eigenvalues --   -0.02829  -0.01268  -0.00873  -0.00058   0.00075
 Alpha virt. eigenvalues --    0.00130   0.00367   0.00892   0.00963   0.00994

  Beta  occ. eigenvalues --  -38.43672 -38.43639 -38.43634 -38.43492 -38.43380
  Beta  occ. eigenvalues --  -38.43227 -38.43129  -2.19564  -2.19528  -2.19497
  Beta  occ. eigenvalues --   -2.19467  -2.19347  -2.19196  -2.19019  -1.13346
  Beta  occ. eigenvalues --   -1.13295  -1.13269  -1.13235  -1.13212  -1.13206
  Beta  occ. eigenvalues --   -1.13189  -1.13180  -1.13163  -1.13145  -1.13131
  Beta  occ. eigenvalues --   -1.13124  -1.12998  -1.12960  -1.12946  -1.12848
  Beta  occ. eigenvalues --   -1.12799  -1.12794  -1.12697  -1.12659  -1.12654
  Beta  occ. eigenvalues --   -0.18769  -0.12989  -0.12383
  Beta virt. eigenvalues --   -0.07303  -0.05254  -0.04995  -0.04391  -0.02544
  Beta virt. eigenvalues --   -0.02209  -0.01735  -0.01194  -0.00828   0.00015
  Beta virt. eigenvalues --    0.00058   0.00117   0.00385   0.00951   0.00955

 Mulliken charges and spin densities:
               1          2
     1  Na  -0.730804   0.669265
     2  Na  -0.084220  -0.099020
     3  Na   0.646399  -0.040170
     4  Na   0.107634  -0.069565
     5  Na  -0.004784  -0.021199
     6  Na   0.717958  -0.003297
     7  Na  -0.652182   0.563986
 Sum of Mulliken charges =  -0.00000   1.00000

 Dipole moment (field-independent basis, Debye):
    X=              0.0666    Y=              0.0725    Z=              0.1811  Tot=              0.2062
 Quadrupole moment (field-independent basis, Debye-Ang):
   XX=            -58.4317   YY=            -65.4826   ZZ=            -71.5053
   XY=              0.6702   XZ=             -0.8678   YZ=             -0.0411

 Normal termination of Gaussian 16 at Tue Dec  5 15:38:23 2023.
