 Gaussian 16, Revision B.01,
 Gaussian 16:  ES64L-G16RevB.01 20-Dec-2017

 -------------------------
 #P B3LYP/6-311+g(d) force
 -------------------------

 -----
 DPGEN
 -----
 Symbolic Z-matrix:
 Charge =  0 Multiplicity = 2

                         Standard orientation:
 ---------------------------------------------------------------------
 Center     Atomic      Atomic             Coordinates (Angstroms)
 Number     Number       Type             X           Y           Z
 ---------------------------------------------------------------------
      1         11           0        0.884294   -0.748135    1.976802
      2         11           0        0.421256    2.187541   -0.533868
      3         11           0       -3.253763    1.396670   -1.019312
      4         11           0       -2.496606   -0.651527    1.749652
      5         11           0       -1.262612   -1.840146   -1.219861
      6         11           0        2.445439   -1.785481   -1.344957
      7         11           0        3.261992    1.441077    0.391543
 ---------------------------------------------------------------------

 SCF Done:  E(UB3LYP) =  -1136.12595387     A.U. after   22 cycles

 The electronic state is 2-A.
 Alpha  occ. eigenvalues --  -38.44433 -38.44203 -38.44168 -38.44085 -38.44018
 Alpha  occ. eigenvalues --  -38.44011 -38.43563  -2.20281  -2.20015  -2.19992
 Alpha  occ. eigenvalues --   -2.19893  -2.19857  -2.19813  -2.19374  -1.13962
 Alpha  occ. eigenvalues --   -1.13938  -1.13903  -1.13702  -1.13665  -1.13653
 Alpha  occ. eigenvalues --   -1.13641  -1.13630  -1.13621  -1.13581  -1.13561
 Alpha  occ. eigenvalues --   -1.13559  -1.13516  -1.13507  -1.13486  -1.13480
 Alpha  occ. eigenvalues --   -1.13459  -1.13448  -1.13056  -1.13048  -1.12999
 Alpha  occ. eigenvalues --   -0.17715  -0.13811  -0.11482  -0.11427
 Alpha virt. eigenvalues --   -0.06102  -0.05567  -0.05107  -0.03457  -0.02844
 Alpha virt. eigenvalues --   -0.02510  -0.01974  -0.01161  -0.00854  -0.00220
 Alpha virt. eigenvalues --    0.00175   0.00186   0.00265   0.00372   0.00524

  Beta  occ. eigenvalues --  -38.44387 -38.44160 -38.44106 -38.44060 -38.44008
  Beta  occ. eigenvalues --  -38.44001 -38.43564  -2.20200  -2.19915  -2.19902
  Beta  occ. eigenvalues --   -2.19852  -2.19847  -2.19780  -2.19379  -1.13899
  Beta  occ. eigenvalues --   -1.13888  -1.13833  -1.13628  -1.13607  -1.13590
  Beta  occ. eigenvalues --   -1.13573  -1.13567  -1.13559  -1.13547  -1.13546
  Beta  occ. eigenvalues --   -1.13520  -1.13498  -1.13478  -1.13472  -1.13457
  Beta  occ. eigenvalues --   -1.13438  -1.13428  -1.13055  -1.13048  -1.13000
  Beta  occ. eigenvalues --   -0.17092  -0.13636  -0.11117
  Beta virt. eigenvalues --   -0.07653  -0.05975  -0.05462  -0.04426  -0.03176
  Beta virt. eigenvalues --   -0.02318  -0.01903  -0.01811  -0.01005  -0.00485
  Beta virt. eigenvalues --   -0.00112   0.00197   0.00291   0.00348   0.00484

 Mulliken charges and spin densities:
               1          2
     1  Na  -0.447885   0.275148
     2  Na  -0.729572   0.011779
     3  Na   0.333346  -0.009374
     4  Na   0.379848   0.156529
     5  Na  -0.441143   0.334321
     6  Na   0.107595   0.144965
     7  Na   0.797811   0.086633
 Sum of Mulliken charges =  -0.00000   1.00000

 Dipole moment (field-independent basis, Debye):
    X=              0.0479    Y=             -0.2322    Z=              0.1139  Tot=              0.2630
 Quadrupole moment (field-independent basis, Debye-Ang):
   XX=            -51.3780   YY=            -77.1394   ZZ=            -68.3524
   XY=             -0.0331   XZ=             -0.0636   YZ=              0.7060

 Normal termination of Gaussian 16 at Sun Dec  3 20:33:16 2023.
