 Gaussian 16, Revision B.01,
 Gaussian 16:  ES64L-G16RevB.01 20-Dec-2017

 -------------------------
 #P B3LYP/6-311+g(d) force
 -------------------------

 -----
 DPGEN
 -----
 Symbolic Z-matrix:
 Charge =  0 Multiplicity = 2

                         Standard orientation:
 ---------------------------------------------------------------------
 Center     Atomic      Atomic             Coordinates (Angstroms)
 Number     Number       Type             X           Y           Z
 ---------------------------------------------------------------------
      1         11           0        3.034626    0.636753   -0.250425
      2         11           0        0.171136    3.123261   -0.439715
      3         11           0        2.033858   -2.387425   -0.186652
      4         11           0       -3.121555    0.917639   -0.035621
      5         11           0        0.339692    0.409314    2.133641
      6         11           0       -2.076833   -2.409312    0.050914
      7         11           0       -0.380923   -0.290229   -1.272142
 ---------------------------------------------------------------------

 SCF Done:  E(UB3LYP) =  -1136.13293707     A.U. after   19 cycles

 The electronic state is 2-A.
 Alpha  occ. eigenvalues --  -38.44515 -38.44100 -38.43984 -38.43700 -38.43502
 Alpha  occ. eigenvalues --  -38.43337 -38.42970  -2.20331  -2.19945  -2.19826
 Alpha  occ. eigenvalues --   -2.19539  -2.19303  -2.19199  -2.18990  -1.14024
 Alpha  occ. eigenvalues --   -1.13993  -1.13956  -1.13630  -1.13612  -1.13585
 Alpha  occ. eigenvalues --   -1.13558  -1.13473  -1.13442  -1.13217  -1.13189
 Alpha  occ. eigenvalues --   -1.13180  -1.12981  -1.12961  -1.12943  -1.12867
 Alpha  occ. eigenvalues --   -1.12821  -1.12811  -1.12684  -1.12630  -1.12618
 Alpha  occ. eigenvalues --   -0.18341  -0.13300  -0.12279  -0.10238
 Alpha virt. eigenvalues --   -0.05908  -0.05427  -0.04878  -0.03117  -0.02647
 Alpha virt. eigenvalues --   -0.02180  -0.01717  -0.01290  -0.00700  -0.00654
 Alpha virt. eigenvalues --   -0.00003   0.00327   0.00743   0.00802   0.00837

  Beta  occ. eigenvalues --  -38.44513 -38.44093 -38.43983 -38.43695 -38.43493
  Beta  occ. eigenvalues --  -38.43231 -38.42932  -2.20330  -2.19935  -2.19825
  Beta  occ. eigenvalues --   -2.19534  -2.19288  -2.19004  -2.18922  -1.14019
  Beta  occ. eigenvalues --   -1.13978  -1.13958  -1.13627  -1.13584  -1.13577
  Beta  occ. eigenvalues --   -1.13554  -1.13458  -1.13445  -1.13210  -1.13181
  Beta  occ. eigenvalues --   -1.13167  -1.12963  -1.12941  -1.12935  -1.12738
  Beta  occ. eigenvalues --   -1.12683  -1.12675  -1.12618  -1.12584  -1.12570
  Beta  occ. eigenvalues --   -0.17669  -0.13096  -0.12063
  Beta virt. eigenvalues --   -0.06343  -0.05875  -0.05394  -0.04806  -0.02374
  Beta virt. eigenvalues --   -0.01947  -0.01632  -0.01228  -0.01142  -0.00738
  Beta virt. eigenvalues --   -0.00673   0.00181   0.00386   0.00781   0.00827

 Mulliken charges and spin densities:
               1          2
     1  Na   0.282388   0.054747
     2  Na   0.045886   0.010098
     3  Na   0.175619   0.011586
     4  Na   0.212548  -0.012489
     5  Na  -0.550099   0.733133
     6  Na   0.234337   0.011567
     7  Na  -0.400678   0.191359
 Sum of Mulliken charges =  -0.00000   1.00000

 Dipole moment (field-independent basis, Debye):
    X=             -0.3614    Y=             -0.0414    Z=              0.1389  Tot=              0.3893
 Quadrupole moment (field-independent basis, Debye-Ang):
   XX=            -54.4017   YY=            -60.4958   ZZ=            -77.2581
   XY=             -0.0984   XZ=             -1.5026   YZ=             -1.4651

 Normal termination of Gaussian 16 at Fri Dec  8 00:10:27 2023.
