 Gaussian 16, Revision B.01,
 Gaussian 16:  ES64L-G16RevB.01 20-Dec-2017

 -------------------------
 #P B3LYP/6-311+g(d) force
 -------------------------

 -----
 DPGEN
 -----
 Symbolic Z-matrix:
 Charge =  0 Multiplicity = 2

                         Standard orientation:
 ---------------------------------------------------------------------
 Center     Atomic      Atomic             Coordinates (Angstroms)
 Number     Number       Type             X           Y           Z
 ---------------------------------------------------------------------
      1         11           0       -0.001405    0.199271    1.993930
      2         11           0        0.000764   -1.719129    0.191530
      3         11           0       -2.490322   -0.841389   -0.076770
      4         11           0       -1.358884    1.569893   -0.025170
      5         11           0        0.000392    0.058971   -1.983080
      6         11           0        1.356016    1.570750   -0.025070
      7         11           0        2.493438   -0.838368   -0.075370
 ---------------------------------------------------------------------

 SCF Done:  E(UB3LYP) =  -1136.05219232     A.U. after   22 cycles

 The electronic state is 2-A.
 Alpha  occ. eigenvalues --  -38.45324 -38.44998 -38.44281 -38.44279 -38.43604
 Alpha  occ. eigenvalues --  -38.43601 -38.43600  -2.21556  -2.21215  -2.20396
 Alpha  occ. eigenvalues --   -2.20391  -2.19938  -2.19902  -2.19834  -1.15406
 Alpha  occ. eigenvalues --   -1.15257  -1.15125  -1.15033  -1.14870  -1.14828
 Alpha  occ. eigenvalues --   -1.14411  -1.14304  -1.14244  -1.14152  -1.13962
 Alpha  occ. eigenvalues --   -1.13950  -1.13815  -1.13550  -1.13508  -1.13500
 Alpha  occ. eigenvalues --   -1.13455  -1.13401  -1.13398  -1.13346  -1.13216
 Alpha  occ. eigenvalues --   -0.22258  -0.14188  -0.13175  -0.12380
 Alpha virt. eigenvalues --   -0.05361  -0.04196  -0.03970  -0.03864  -0.03239
 Alpha virt. eigenvalues --   -0.02963  -0.01155  -0.00314  -0.00227   0.00300
 Alpha virt. eigenvalues --    0.00795   0.00969   0.01135   0.01146   0.01217

  Beta  occ. eigenvalues --  -38.45215 -38.44892 -38.44274 -38.44272 -38.43582
  Beta  occ. eigenvalues --  -38.43581 -38.43578  -2.21359  -2.21025  -2.20387
  Beta  occ. eigenvalues --   -2.20384  -2.19904  -2.19877  -2.19810  -1.15284
  Beta  occ. eigenvalues --   -1.15112  -1.14982  -1.14917  -1.14731  -1.14691
  Beta  occ. eigenvalues --   -1.14405  -1.14302  -1.14244  -1.14150  -1.13911
  Beta  occ. eigenvalues --   -1.13901  -1.13806  -1.13497  -1.13431  -1.13413
  Beta  occ. eigenvalues --   -1.13395  -1.13391  -1.13359  -1.13336  -1.13209
  Beta  occ. eigenvalues --   -0.21325  -0.13781  -0.11993
  Beta virt. eigenvalues --   -0.08894  -0.05382  -0.03862  -0.03529  -0.03168
  Beta virt. eigenvalues --   -0.02314  -0.02302  -0.01069  -0.00208  -0.00098
  Beta virt. eigenvalues --    0.00326   0.00846   0.00976   0.01144   0.01204

 Mulliken charges and spin densities:
               1          2
     1  Na   0.288850   0.514107
     2  Na  -0.159366   0.001215
     3  Na  -0.060786  -0.000515
     4  Na  -0.133834  -0.021791
     5  Na   0.264091   0.530244
     6  Na  -0.135419  -0.022175
     7  Na  -0.063535  -0.001084
 Sum of Mulliken charges =  -0.00000   1.00000

 Dipole moment (field-independent basis, Debye):
    X=              0.0024    Y=             -0.0789    Z=             -0.0961  Tot=              0.1244
 Quadrupole moment (field-independent basis, Debye-Ang):
   XX=            -59.6982   YY=            -75.8135   ZZ=            -63.5893
   XY=             -0.0036   XZ=              0.0032   YZ=              0.1176

 Normal termination of Gaussian 16 at Thu Dec  7 03:03:30 2023.
