 Gaussian 16, Revision B.01,
 Gaussian 16:  ES64L-G16RevB.01 20-Dec-2017

 -------------------------
 #P B3LYP/6-311+g(d) force
 -------------------------

 -----
 DPGEN
 -----
 Symbolic Z-matrix:
 Charge =  0 Multiplicity = 2

                         Standard orientation:
 ---------------------------------------------------------------------
 Center     Atomic      Atomic             Coordinates (Angstroms)
 Number     Number       Type             X           Y           Z
 ---------------------------------------------------------------------
      1         11           0        2.951512    0.775665    0.075381
      2         11           0        1.665870   -2.309424   -0.319901
      3         11           0       -1.992789   -2.242759   -0.251527
      4         11           0       -0.103690    0.296542   -1.421316
      5         11           0       -2.868256    1.249680    0.168278
      6         11           0        0.083541   -0.639252    1.758227
      7         11           0        0.263813    2.869547   -0.009142
 ---------------------------------------------------------------------

 SCF Done:  E(UB3LYP) =  -1136.13561643     A.U. after   19 cycles

 The electronic state is 2-A.
 Alpha  occ. eigenvalues --  -38.43978 -38.43762 -38.43736 -38.43568 -38.43510
 Alpha  occ. eigenvalues --  -38.42964 -38.42685  -2.19813  -2.19631  -2.19599
 Alpha  occ. eigenvalues --   -2.19479  -2.19402  -2.18946  -2.18767  -1.13494
 Alpha  occ. eigenvalues --   -1.13475  -1.13451  -1.13312  -1.13298  -1.13286
 Alpha  occ. eigenvalues --   -1.13284  -1.13273  -1.13226  -1.13186  -1.13161
 Alpha  occ. eigenvalues --   -1.13145  -1.13087  -1.13044  -1.13010  -1.12644
 Alpha  occ. eigenvalues --   -1.12568  -1.12550  -1.12445  -1.12406  -1.12370
 Alpha  occ. eigenvalues --   -0.19136  -0.13120  -0.12887  -0.10245
 Alpha virt. eigenvalues --   -0.05503  -0.05365  -0.04834  -0.02926  -0.02820
 Alpha virt. eigenvalues --   -0.01909  -0.01516  -0.01244  -0.00355  -0.00346
 Alpha virt. eigenvalues --    0.00054   0.00358   0.00835   0.00870   0.00896

  Beta  occ. eigenvalues --  -38.43974 -38.43757 -38.43727 -38.43556 -38.43506
  Beta  occ. eigenvalues --  -38.42884 -38.42624  -2.19809  -2.19625  -2.19587
  Beta  occ. eigenvalues --   -2.19461  -2.19396  -2.18800  -2.18658  -1.13488
  Beta  occ. eigenvalues --   -1.13459  -1.13449  -1.13309  -1.13295  -1.13279
  Beta  occ. eigenvalues --   -1.13258  -1.13236  -1.13219  -1.13174  -1.13149
  Beta  occ. eigenvalues --   -1.13101  -1.13077  -1.13020  -1.13011  -1.12548
  Beta  occ. eigenvalues --   -1.12465  -1.12444  -1.12359  -1.12325  -1.12292
  Beta  occ. eigenvalues --   -0.18423  -0.12874  -0.12632
  Beta virt. eigenvalues --   -0.06340  -0.05487  -0.05355  -0.04786  -0.02157
  Beta virt. eigenvalues --   -0.02049  -0.01438  -0.01179  -0.00912  -0.00403
  Beta virt. eigenvalues --   -0.00389   0.00197   0.00400   0.00869   0.00876

 Mulliken charges and spin densities:
               1          2
     1  Na   0.187870  -0.015000
     2  Na   0.333609   0.000736
     3  Na   0.197871  -0.046785
     4  Na  -0.494263   0.416157
     5  Na   0.060597  -0.050033
     6  Na  -0.511109   0.735247
     7  Na   0.225425  -0.040323
 Sum of Mulliken charges =  -0.00000   1.00000

 Dipole moment (field-independent basis, Debye):
    X=             -0.1737    Y=             -0.0239    Z=              0.1330  Tot=              0.2200
 Quadrupole moment (field-independent basis, Debye-Ang):
   XX=            -54.6974   YY=            -59.8697   ZZ=            -76.8066
   XY=              0.2059   XZ=             -0.4125   YZ=              2.1160

 Normal termination of Gaussian 16 at Tue Nov 28 21:39:19 2023.
