 Gaussian 16, Revision B.01,
 Gaussian 16:  ES64L-G16RevB.01 20-Dec-2017

 -------------------------
 #P B3LYP/6-311+g(d) force
 -------------------------

 -----
 DPGEN
 -----
 Symbolic Z-matrix:
 Charge =  0 Multiplicity = 2

                         Standard orientation:
 ---------------------------------------------------------------------
 Center     Atomic      Atomic             Coordinates (Angstroms)
 Number     Number       Type             X           Y           Z
 ---------------------------------------------------------------------
      1         11           0       -2.760550   -0.874072    0.649758
      2         11           0       -5.576882   -0.713446   -0.532724
      3         11           0       -2.778092    2.135376   -0.211851
      4         11           0        0.416515    1.167274   -0.025714
      5         11           0        0.757384   -1.956496   -0.147871
      6         11           0        3.287341    0.317772    1.018466
      7         11           0        6.654283   -0.076409   -0.750063
 ---------------------------------------------------------------------

 SCF Done:  E(UB3LYP) =  -1136.10975353     A.U. after   24 cycles

 The electronic state is 2-A.
 Alpha  occ. eigenvalues --  -38.44873 -38.44518 -38.44501 -38.44306 -38.43984
 Alpha  occ. eigenvalues --  -38.43973 -38.43883  -2.20747  -2.20379  -2.20329
 Alpha  occ. eigenvalues --   -2.20220  -2.19912  -2.19715  -2.19666  -1.14444
 Alpha  occ. eigenvalues --   -1.14399  -1.14341  -1.14064  -1.14053  -1.14022
 Alpha  occ. eigenvalues --   -1.14004  -1.13972  -1.13950  -1.13904  -1.13884
 Alpha  occ. eigenvalues --   -1.13787  -1.13620  -1.13576  -1.13551  -1.13401
 Alpha  occ. eigenvalues --   -1.13373  -1.13361  -1.13361  -1.13323  -1.13289
 Alpha  occ. eigenvalues --   -0.17733  -0.14448  -0.11816  -0.10994
 Alpha virt. eigenvalues --   -0.06892  -0.05484  -0.04895  -0.03480  -0.03155
 Alpha virt. eigenvalues --   -0.02790  -0.01911  -0.01174  -0.01095  -0.00779
 Alpha virt. eigenvalues --   -0.00389  -0.00216   0.00013   0.00223   0.00462

  Beta  occ. eigenvalues --  -38.44794 -38.44456 -38.44451 -38.44279 -38.44041
  Beta  occ. eigenvalues --  -38.43958 -38.43855  -2.20603  -2.20264  -2.20237
  Beta  occ. eigenvalues --   -2.20175  -2.19872  -2.19793  -2.19659  -1.14352
  Beta  occ. eigenvalues --   -1.14304  -1.14219  -1.14001  -1.13983  -1.13948
  Beta  occ. eigenvalues --   -1.13911  -1.13906  -1.13889  -1.13856  -1.13847
  Beta  occ. eigenvalues --   -1.13732  -1.13583  -1.13538  -1.13500  -1.13448
  Beta  occ. eigenvalues --   -1.13448  -1.13402  -1.13355  -1.13332  -1.13274
  Beta  occ. eigenvalues --   -0.16840  -0.14131  -0.11252
  Beta virt. eigenvalues --   -0.07717  -0.06693  -0.05037  -0.04449  -0.03116
  Beta virt. eigenvalues --   -0.02707  -0.02381  -0.01607  -0.01151  -0.00763
  Beta virt. eigenvalues --   -0.00597  -0.00123  -0.00065   0.00173   0.00365

 Mulliken charges and spin densities:
               1          2
     1  Na  -0.571207   0.173788
     2  Na   0.310407   0.197440
     3  Na   0.247250  -0.021507
     4  Na  -0.988931   0.542993
     5  Na   0.251857   0.299981
     6  Na   0.731292   0.188358
     7  Na   0.019332  -0.381053
 Sum of Mulliken charges =  -0.00000   1.00000

 Dipole moment (field-independent basis, Debye):
    X=             -2.4409    Y=             -0.2829    Z=             -0.4697  Tot=              2.5017
 Quadrupole moment (field-independent basis, Debye-Ang):
   XX=            -68.1048   YY=            -67.5369   ZZ=            -69.1968
   XY=             -3.7446   XZ=              0.3714   YZ=              0.5599

 Normal termination of Gaussian 16 at Tue Nov 28 22:39:43 2023.
