 Gaussian 16, Revision B.01,
 Gaussian 16:  ES64L-G16RevB.01 20-Dec-2017

 -------------------------
 #P B3LYP/6-311+g(d) force
 -------------------------

 -----
 DPGEN
 -----
 Symbolic Z-matrix:
 Charge =  0 Multiplicity = 2

                         Standard orientation:
 ---------------------------------------------------------------------
 Center     Atomic      Atomic             Coordinates (Angstroms)
 Number     Number       Type             X           Y           Z
 ---------------------------------------------------------------------
      1         11           0        3.931703   -1.952803   -0.642830
      2         11           0        0.157237   -2.485687    1.235992
      3         11           0        1.758167    3.163384    1.004582
      4         11           0        3.039338    0.849823   -0.812662
      5         11           0       -2.701460   -2.709083    0.040947
      6         11           0       -4.055256    0.373457   -0.720948
      7         11           0       -2.129728    2.760910   -0.105081
 ---------------------------------------------------------------------

 SCF Done:  E(UB3LYP) =  -1136.10837627     A.U. after   21 cycles

 The electronic state is 2-A.
 Alpha  occ. eigenvalues --  -38.44973 -38.44652 -38.44383 -38.44326 -38.44228
 Alpha  occ. eigenvalues --  -38.44211 -38.44054  -2.20757  -2.20423  -2.20245
 Alpha  occ. eigenvalues --   -2.20170  -2.20059  -2.20032  -2.19867  -1.14441
 Alpha  occ. eigenvalues --   -1.14417  -1.14384  -1.14123  -1.14101  -1.14069
 Alpha  occ. eigenvalues --   -1.14067  -1.13914  -1.13893  -1.13793  -1.13775
 Alpha  occ. eigenvalues --   -1.13747  -1.13719  -1.13709  -1.13708  -1.13699
 Alpha  occ. eigenvalues --   -1.13686  -1.13644  -1.13517  -1.13508  -1.13481
 Alpha  occ. eigenvalues --   -0.15982  -0.14349  -0.13064  -0.11068
 Alpha virt. eigenvalues --   -0.07031  -0.04696  -0.04517  -0.03627  -0.03442
 Alpha virt. eigenvalues --   -0.02158  -0.02139  -0.01851  -0.01238  -0.00995
 Alpha virt. eigenvalues --   -0.00264  -0.00207   0.00113   0.00501   0.00674

  Beta  occ. eigenvalues --  -38.44940 -38.44647 -38.44367 -38.44255 -38.44196
  Beta  occ. eigenvalues --  -38.44185 -38.43985  -2.20699  -2.20419  -2.20223
  Beta  occ. eigenvalues --   -2.20041  -2.20009  -2.19982  -2.19738  -1.14398
  Beta  occ. eigenvalues --   -1.14381  -1.14335  -1.14112  -1.14102  -1.14041
  Beta  occ. eigenvalues --   -1.13990  -1.13899  -1.13882  -1.13706  -1.13687
  Beta  occ. eigenvalues --   -1.13683  -1.13677  -1.13671  -1.13669  -1.13656
  Beta  occ. eigenvalues --   -1.13654  -1.13606  -1.13431  -1.13421  -1.13397
  Beta  occ. eigenvalues --   -0.15461  -0.13606  -0.12231
  Beta virt. eigenvalues --   -0.07917  -0.07151  -0.04271  -0.04189  -0.03338
  Beta virt. eigenvalues --   -0.03079  -0.01977  -0.01875  -0.01585  -0.00882
  Beta virt. eigenvalues --   -0.00782  -0.00104   0.00036   0.00274   0.00501

 Mulliken charges and spin densities:
               1          2
     1  Na   0.529461   0.206203
     2  Na  -0.193067   0.148855
     3  Na   0.125870   0.276216
     4  Na  -0.568969   0.178456
     5  Na  -0.082828   0.007206
     6  Na   0.512214   0.125401
     7  Na  -0.322682   0.057664
 Sum of Mulliken charges =  -0.00000   1.00000

 Dipole moment (field-independent basis, Debye):
    X=             -0.1038    Y=             -0.5927    Z=              0.1683  Tot=              0.6248
 Quadrupole moment (field-independent basis, Debye-Ang):
   XX=            -63.9414   YY=            -67.5111   ZZ=            -70.0439
   XY=              0.8588   XZ=              2.4745   YZ=              1.7061

 Normal termination of Gaussian 16 at Sun Dec  3 11:39:31 2023.
