 Gaussian 16, Revision B.01,
 Gaussian 16:  ES64L-G16RevB.01 20-Dec-2017

 -------------------------
 #P B3LYP/6-311+g(d) force
 -------------------------

 -----
 DPGEN
 -----
 Symbolic Z-matrix:
 Charge =  0 Multiplicity = 2

                         Standard orientation:
 ---------------------------------------------------------------------
 Center     Atomic      Atomic             Coordinates (Angstroms)
 Number     Number       Type             X           Y           Z
 ---------------------------------------------------------------------
      1         11           0       -3.463053    1.973137    0.794947
      2         11           0        1.856590   -2.976416    0.489956
      3         11           0        3.213057    2.326891    0.122614
      4         11           0       -0.379054    3.796593   -0.469952
      5         11           0       -1.457397   -3.495765   -0.217776
      6         11           0        4.254362   -0.641458   -0.234692
      7         11           0       -4.024505   -0.982982   -0.485096
 ---------------------------------------------------------------------

 SCF Done:  E(UB3LYP) =  -1136.10737405     A.U. after   23 cycles

 The electronic state is 2-A.
 Alpha  occ. eigenvalues --  -38.45414 -38.45043 -38.44900 -38.44409 -38.44388
 Alpha  occ. eigenvalues --  -38.44046 -38.44016  -2.21184  -2.20810  -2.20682
 Alpha  occ. eigenvalues --   -2.20212  -2.20165  -2.19849  -2.19818  -1.14865
 Alpha  occ. eigenvalues --   -1.14856  -1.14827  -1.14489  -1.14485  -1.14453
 Alpha  occ. eigenvalues --   -1.14358  -1.14349  -1.14319  -1.13871  -1.13866
 Alpha  occ. eigenvalues --   -1.13855  -1.13837  -1.13828  -1.13792  -1.13509
 Alpha  occ. eigenvalues --   -1.13494  -1.13489  -1.13475  -1.13462  -1.13440
 Alpha  occ. eigenvalues --   -0.15564  -0.14163  -0.13369  -0.10803
 Alpha virt. eigenvalues --   -0.07892  -0.04863  -0.04364  -0.03549  -0.03450
 Alpha virt. eigenvalues --   -0.02660  -0.02307  -0.01864  -0.01441  -0.00595
 Alpha virt. eigenvalues --   -0.00340  -0.00121   0.00150   0.00251   0.00410

  Beta  occ. eigenvalues --  -38.45399 -38.45036 -38.44875 -38.44370 -38.44368
  Beta  occ. eigenvalues --  -38.43977 -38.43970  -2.21162  -2.20803  -2.20639
  Beta  occ. eigenvalues --   -2.20139  -2.20133  -2.19778  -2.19678  -1.14854
  Beta  occ. eigenvalues --   -1.14845  -1.14773  -1.14487  -1.14482  -1.14418
  Beta  occ. eigenvalues --   -1.14332  -1.14322  -1.14265  -1.13823  -1.13822
  Beta  occ. eigenvalues --   -1.13817  -1.13809  -1.13797  -1.13751  -1.13457
  Beta  occ. eigenvalues --   -1.13447  -1.13442  -1.13379  -1.13368  -1.13345
  Beta  occ. eigenvalues --   -0.15053  -0.13573  -0.12472
  Beta virt. eigenvalues --   -0.08155  -0.07620  -0.04401  -0.03846  -0.03322
  Beta virt. eigenvalues --   -0.03149  -0.02431  -0.02085  -0.01777  -0.01241
  Beta virt. eigenvalues --   -0.00199  -0.00175   0.00001   0.00238   0.00369

 Mulliken charges and spin densities:
               1          2
     1  Na  -0.120945  -0.017088
     2  Na  -0.098590   0.103979
     3  Na  -0.084259   0.091440
     4  Na  -0.098699   0.375455
     5  Na   0.286528   0.059186
     6  Na   0.128487   0.179326
     7  Na  -0.012520   0.207702
 Sum of Mulliken charges =  -0.00000   1.00000

 Dipole moment (field-independent basis, Debye):
    X=              0.1085    Y=             -0.1977    Z=              0.1311  Tot=              0.2608
 Quadrupole moment (field-independent basis, Debye-Ang):
   XX=            -61.7345   YY=            -67.3434   ZZ=            -71.5914
   XY=              0.4270   XZ=              0.3276   YZ=              1.8375

 Normal termination of Gaussian 16 at Sun Dec  3 20:43:35 2023.
