 Gaussian 16, Revision B.01,
 Gaussian 16:  ES64L-G16RevB.01 20-Dec-2017

 -------------------------
 #P B3LYP/6-311+g(d) force
 -------------------------

 -----
 DPGEN
 -----
 Symbolic Z-matrix:
 Charge =  0 Multiplicity = 2

                         Standard orientation:
 ---------------------------------------------------------------------
 Center     Atomic      Atomic             Coordinates (Angstroms)
 Number     Number       Type             X           Y           Z
 ---------------------------------------------------------------------
      1         11           0        1.376604   -0.941722    1.885892
      2         11           0       -1.434517    0.838769    1.182366
      3         11           0        3.451833   -0.853452   -1.017799
      4         11           0        1.603976    1.834039    0.359486
      5         11           0       -1.705968    2.634376   -0.943464
      6         11           0       -0.441422   -1.250691   -1.557882
      7         11           0       -2.850507   -2.261319    0.091401
 ---------------------------------------------------------------------

 SCF Done:  E(UB3LYP) =  -1136.12602607     A.U. after   19 cycles

 The electronic state is 2-A.
 Alpha  occ. eigenvalues --  -38.44186 -38.44046 -38.43777 -38.43757 -38.43637
 Alpha  occ. eigenvalues --  -38.43596 -38.43234  -2.19993  -2.19940  -2.19652
 Alpha  occ. eigenvalues --   -2.19640  -2.19477  -2.19458  -2.19243  -1.13662
 Alpha  occ. eigenvalues --   -1.13657  -1.13644  -1.13626  -1.13573  -1.13540
 Alpha  occ. eigenvalues --   -1.13374  -1.13355  -1.13345  -1.13326  -1.13311
 Alpha  occ. eigenvalues --   -1.13281  -1.13240  -1.13116  -1.13103  -1.13100
 Alpha  occ. eigenvalues --   -1.13083  -1.13072  -1.12920  -1.12853  -1.12798
 Alpha  occ. eigenvalues --   -0.18433  -0.13283  -0.12061  -0.11153
 Alpha virt. eigenvalues --   -0.05728  -0.05336  -0.04400  -0.03433  -0.02966
 Alpha virt. eigenvalues --   -0.02507  -0.01633  -0.01165  -0.00670   0.00026
 Alpha virt. eigenvalues --    0.00276   0.00305   0.00561   0.00640   0.00764

  Beta  occ. eigenvalues --  -38.44156 -38.43976 -38.43746 -38.43745 -38.43641
  Beta  occ. eigenvalues --  -38.43576 -38.43205  -2.19938  -2.19815  -2.19637
  Beta  occ. eigenvalues --   -2.19581  -2.19466  -2.19439  -2.19197  -1.13621
  Beta  occ. eigenvalues --   -1.13599  -1.13597  -1.13566  -1.13489  -1.13442
  Beta  occ. eigenvalues --   -1.13352  -1.13321  -1.13307  -1.13285  -1.13275
  Beta  occ. eigenvalues --   -1.13239  -1.13238  -1.13118  -1.13100  -1.13078
  Beta  occ. eigenvalues --   -1.13071  -1.13047  -1.12889  -1.12799  -1.12764
  Beta  occ. eigenvalues --   -0.17679  -0.13085  -0.11899
  Beta virt. eigenvalues --   -0.07274  -0.05477  -0.05213  -0.03924  -0.03173
  Beta virt. eigenvalues --   -0.02459  -0.01737  -0.01448  -0.01085  -0.00280
  Beta virt. eigenvalues --    0.00064   0.00331   0.00381   0.00674   0.00785

 Mulliken charges and spin densities:
               1          2
     1  Na  -0.009127   0.186172
     2  Na   0.301427  -0.016193
     3  Na   0.313819   0.057705
     4  Na  -0.328989   0.382795
     5  Na   0.237415   0.035094
     6  Na  -0.640858   0.330475
     7  Na   0.126312   0.023951
 Sum of Mulliken charges =  -0.00000   1.00000

 Dipole moment (field-independent basis, Debye):
    X=              0.4445    Y=             -0.2704    Z=             -0.1610  Tot=              0.5447
 Quadrupole moment (field-independent basis, Debye-Ang):
   XX=            -57.2686   YY=            -68.8758   ZZ=            -68.5070
   XY=             -0.0011   XZ=             -1.5801   YZ=             -3.1958

 Normal termination of Gaussian 16 at Tue Dec  5 13:55:45 2023.
