 Gaussian 16, Revision B.01,
 Gaussian 16:  ES64L-G16RevB.01 20-Dec-2017

 -------------------------
 #P B3LYP/6-311+g(d) force
 -------------------------

 -----
 DPGEN
 -----
 Symbolic Z-matrix:
 Charge =  0 Multiplicity = 2

                         Standard orientation:
 ---------------------------------------------------------------------
 Center     Atomic      Atomic             Coordinates (Angstroms)
 Number     Number       Type             X           Y           Z
 ---------------------------------------------------------------------
      1         11           0       -2.834235    1.396688    0.088118
      2         11           0       -2.220829   -1.962580    0.096284
      3         11           0        1.350219   -2.618571   -0.279330
      4         11           0        0.175681   -0.147323    1.686149
      5         11           0        3.162184    0.406915    0.046808
      6         11           0       -0.304386    0.091092   -1.533394
      7         11           0        0.671365    2.833778   -0.104635
 ---------------------------------------------------------------------

 SCF Done:  E(UB3LYP) =  -1136.13848407     A.U. after   21 cycles

 The electronic state is 2-A.
 Alpha  occ. eigenvalues --  -38.44137 -38.44004 -38.43677 -38.43391 -38.43389
 Alpha  occ. eigenvalues --  -38.42875 -38.42729  -2.19971  -2.19850  -2.19559
 Alpha  occ. eigenvalues --   -2.19253  -2.19251  -2.18864  -2.18767  -1.13644
 Alpha  occ. eigenvalues --   -1.13628  -1.13616  -1.13536  -1.13509  -1.13490
 Alpha  occ. eigenvalues --   -1.13251  -1.13228  -1.13181  -1.12956  -1.12936
 Alpha  occ. eigenvalues --   -1.12922  -1.12919  -1.12880  -1.12874  -1.12593
 Alpha  occ. eigenvalues --   -1.12481  -1.12474  -1.12441  -1.12392  -1.12377
 Alpha  occ. eigenvalues --   -0.18994  -0.13241  -0.12589  -0.10199
 Alpha virt. eigenvalues --   -0.05730  -0.05304  -0.04749  -0.03002  -0.02654
 Alpha virt. eigenvalues --   -0.01922  -0.01675  -0.01235  -0.00453  -0.00379
 Alpha virt. eigenvalues --    0.00048   0.00354   0.00793   0.00871   0.00885

  Beta  occ. eigenvalues --  -38.44134 -38.44000 -38.43669 -38.43385 -38.43380
  Beta  occ. eigenvalues --  -38.42798 -38.42660  -2.19968  -2.19846  -2.19549
  Beta  occ. eigenvalues --   -2.19245  -2.19239  -2.18723  -2.18643  -1.13633
  Beta  occ. eigenvalues --   -1.13619  -1.13613  -1.13531  -1.13492  -1.13484
  Beta  occ. eigenvalues --   -1.13246  -1.13192  -1.13175  -1.12948  -1.12930
  Beta  occ. eigenvalues --   -1.12890  -1.12884  -1.12875  -1.12872  -1.12498
  Beta  occ. eigenvalues --   -1.12382  -1.12370  -1.12348  -1.12303  -1.12286
  Beta  occ. eigenvalues --   -0.18284  -0.12994  -0.12319
  Beta virt. eigenvalues --   -0.06316  -0.05699  -0.05307  -0.04731  -0.02219
  Beta virt. eigenvalues --   -0.01886  -0.01590  -0.01170  -0.00929  -0.00501
  Beta virt. eigenvalues --   -0.00433   0.00183   0.00391   0.00835   0.00869

 Mulliken charges and spin densities:
               1          2
     1  Na   0.156091  -0.077546
     2  Na   0.264928  -0.029295
     3  Na   0.110851  -0.061046
     4  Na  -0.357843   0.725854
     5  Na   0.124512  -0.055687
     6  Na  -0.383213   0.628891
     7  Na   0.084674  -0.131170
 Sum of Mulliken charges =  -0.00000   1.00000

 Dipole moment (field-independent basis, Debye):
    X=              0.0052    Y=              0.0672    Z=              0.0762  Tot=              0.1018
 Quadrupole moment (field-independent basis, Debye-Ang):
   XX=            -53.0457   YY=            -60.4826   ZZ=            -77.2695
   XY=             -0.3053   XZ=             -1.0482   YZ=              0.6033

 Normal termination of Gaussian 16 at Wed Nov 29 02:11:25 2023.
