 Gaussian 16, Revision B.01,
 Gaussian 16:  ES64L-G16RevB.01 20-Dec-2017

 -------------------------
 #P B3LYP/6-311+g(d) force
 -------------------------

 -----
 DPGEN
 -----
 Symbolic Z-matrix:
 Charge =  0 Multiplicity = 2

                         Standard orientation:
 ---------------------------------------------------------------------
 Center     Atomic      Atomic             Coordinates (Angstroms)
 Number     Number       Type             X           Y           Z
 ---------------------------------------------------------------------
      1         11           0        2.587508    1.337062   -0.073018
      2         11           0       -3.161353    0.343439   -0.109799
      3         11           0       -0.185889   -0.026472   -1.509612
      4         11           0       -1.370286   -2.475329   -0.186600
      5         11           0       -0.230285    2.939218   -0.107529
      6         11           0       -0.211119   -0.126563    2.094321
      7         11           0        2.571425   -1.991355   -0.107763
 ---------------------------------------------------------------------

 SCF Done:  E(UB3LYP) =  -1136.13627533     A.U. after   19 cycles

 The electronic state is 2-A.
 Alpha  occ. eigenvalues --  -38.44237 -38.43730 -38.43635 -38.43634 -38.43558
 Alpha  occ. eigenvalues --  -38.43162 -38.43059  -2.20083  -2.19540  -2.19530
 Alpha  occ. eigenvalues --   -2.19513  -2.19444  -2.19092  -2.19025  -1.13766
 Alpha  occ. eigenvalues --   -1.13741  -1.13722  -1.13284  -1.13244  -1.13208
 Alpha  occ. eigenvalues --   -1.13200  -1.13195  -1.13179  -1.13172  -1.13132
 Alpha  occ. eigenvalues --   -1.13129  -1.13106  -1.13063  -1.13056  -1.12787
 Alpha  occ. eigenvalues --   -1.12762  -1.12705  -1.12679  -1.12670  -1.12653
 Alpha  occ. eigenvalues --   -0.18810  -0.13256  -0.12357  -0.10686
 Alpha virt. eigenvalues --   -0.05740  -0.05134  -0.04665  -0.03196  -0.02705
 Alpha virt. eigenvalues --   -0.02538  -0.01646  -0.01098  -0.00374  -0.00285
 Alpha virt. eigenvalues --   -0.00011   0.00344   0.00798   0.00862   0.00907

  Beta  occ. eigenvalues --  -38.44232 -38.43731 -38.43630 -38.43625 -38.43455
  Beta  occ. eigenvalues --  -38.43158 -38.43001  -2.20077  -2.19542  -2.19517
  Beta  occ. eigenvalues --   -2.19509  -2.19254  -2.19022  -2.18987  -1.13757
  Beta  occ. eigenvalues --   -1.13725  -1.13713  -1.13268  -1.13248  -1.13199
  Beta  occ. eigenvalues --   -1.13192  -1.13181  -1.13153  -1.13150  -1.13133
  Beta  occ. eigenvalues --   -1.13127  -1.12983  -1.12931  -1.12922  -1.12743
  Beta  occ. eigenvalues --   -1.12693  -1.12669  -1.12652  -1.12632  -1.12611
  Beta  occ. eigenvalues --   -0.18078  -0.13021  -0.12136
  Beta virt. eigenvalues --   -0.06719  -0.05707  -0.05127  -0.04648  -0.02386
  Beta virt. eigenvalues --   -0.01963  -0.01577  -0.01415  -0.01033  -0.00434
  Beta virt. eigenvalues --   -0.00330   0.00143   0.00373   0.00840   0.00880

 Mulliken charges and spin densities:
               1          2
     1  Na   0.136602  -0.006749
     2  Na   0.334863  -0.007192
     3  Na  -0.466281   0.325075
     4  Na   0.322655  -0.017902
     5  Na   0.188461  -0.027443
     6  Na  -0.613043   0.778651
     7  Na   0.096744  -0.044440
 Sum of Mulliken charges =  -0.00000   1.00000

 Dipole moment (field-independent basis, Debye):
    X=             -0.3006    Y=             -0.1099    Z=              0.1992  Tot=              0.3770
 Quadrupole moment (field-independent basis, Debye-Ang):
   XX=            -55.5812   YY=            -62.4551   ZZ=            -75.1042
   XY=             -1.0425   XZ=              0.1176   YZ=              0.2634

 Normal termination of Gaussian 16 at Thu Dec  7 09:42:35 2023.
