 Gaussian 16, Revision B.01,
 Gaussian 16:  ES64L-G16RevB.01 20-Dec-2017

 -------------------------
 #P B3LYP/6-311+g(d) force
 -------------------------

 -----
 DPGEN
 -----
 Symbolic Z-matrix:
 Charge =  0 Multiplicity = 2

                         Standard orientation:
 ---------------------------------------------------------------------
 Center     Atomic      Atomic             Coordinates (Angstroms)
 Number     Number       Type             X           Y           Z
 ---------------------------------------------------------------------
      1         11           0       -3.418096   -1.414302    0.579454
      2         11           0        2.681773   -1.203034   -1.158711
      3         11           0       -0.815375   -1.138544   -1.507528
      4         11           0        3.066611   -0.048584    1.497427
      5         11           0       -0.524188   -0.045827    1.720088
      6         11           0       -2.116379    2.080615   -0.444556
      7         11           0        1.125653    1.769676   -0.686174
 ---------------------------------------------------------------------

 SCF Done:  E(UB3LYP) =  -1136.12489657     A.U. after   24 cycles

 The electronic state is 2-A.
 Alpha  occ. eigenvalues --  -38.44610 -38.44371 -38.44211 -38.44008 -38.43640
 Alpha  occ. eigenvalues --  -38.43289 -38.42589  -2.20507  -2.20289  -2.20114
 Alpha  occ. eigenvalues --   -2.19912  -2.19471  -2.19155  -2.18533  -1.14253
 Alpha  occ. eigenvalues --   -1.14148  -1.14135  -1.13996  -1.13929  -1.13903
 Alpha  occ. eigenvalues --   -1.13769  -1.13749  -1.13743  -1.13609  -1.13548
 Alpha  occ. eigenvalues --   -1.13532  -1.13143  -1.13124  -1.13113  -1.12832
 Alpha  occ. eigenvalues --   -1.12819  -1.12785  -1.12230  -1.12206  -1.12146
 Alpha  occ. eigenvalues --   -0.18935  -0.14354  -0.11720  -0.10974
 Alpha virt. eigenvalues --   -0.06474  -0.05084  -0.05023  -0.03310  -0.02539
 Alpha virt. eigenvalues --   -0.02335  -0.02244  -0.00948  -0.00854   0.00034
 Alpha virt. eigenvalues --    0.00204   0.00304   0.00452   0.00542   0.00719

  Beta  occ. eigenvalues --  -38.44573 -38.44317 -38.44185 -38.43952 -38.43641
  Beta  occ. eigenvalues --  -38.43286 -38.42574  -2.20438  -2.20190  -2.20068
  Beta  occ. eigenvalues --   -2.19810  -2.19474  -2.19151  -2.18509  -1.14213
  Beta  occ. eigenvalues --   -1.14092  -1.14084  -1.13928  -1.13856  -1.13826
  Beta  occ. eigenvalues --   -1.13726  -1.13718  -1.13697  -1.13545  -1.13474
  Beta  occ. eigenvalues --   -1.13445  -1.13137  -1.13126  -1.13115  -1.12820
  Beta  occ. eigenvalues --   -1.12816  -1.12785  -1.12218  -1.12150  -1.12139
  Beta  occ. eigenvalues --   -0.18166  -0.14212  -0.10819
  Beta virt. eigenvalues --   -0.07678  -0.06259  -0.04959  -0.04336  -0.02912
  Beta virt. eigenvalues --   -0.02225  -0.01917  -0.01671  -0.00913  -0.00386
  Beta virt. eigenvalues --    0.00097   0.00223   0.00461   0.00497   0.00643

 Mulliken charges and spin densities:
               1          2
     1  Na   0.793579  -0.040499
     2  Na   0.109329  -0.018279
     3  Na  -0.501403   0.322230
     4  Na   0.497530   0.169525
     5  Na  -0.783846   0.358638
     6  Na   0.086996  -0.095259
     7  Na  -0.202185   0.303644
 Sum of Mulliken charges =  -0.00000   1.00000

 Dipole moment (field-independent basis, Debye):
    X=              0.0823    Y=              0.1196    Z=              0.2313  Tot=              0.2731
 Quadrupole moment (field-independent basis, Debye-Ang):
   XX=            -51.7772   YY=            -77.4563   ZZ=            -67.2321
   XY=             -1.7207   XZ=              0.7662   YZ=              1.1502

 Normal termination of Gaussian 16 at Tue Dec  5 20:25:41 2023.
