 Gaussian 16, Revision B.01,
 Gaussian 16:  ES64L-G16RevB.01 20-Dec-2017

 -------------------------
 #P B3LYP/6-311+g(d) force
 -------------------------

 -----
 DPGEN
 -----
 Symbolic Z-matrix:
 Charge =  0 Multiplicity = 2

                         Standard orientation:
 ---------------------------------------------------------------------
 Center     Atomic      Atomic             Coordinates (Angstroms)
 Number     Number       Type             X           Y           Z
 ---------------------------------------------------------------------
      1         11           0        0.885236   -0.346185    2.158495
      2         11           0        3.325121   -1.229653   -0.160293
      3         11           0       -1.307925    1.789337    0.325766
      4         11           0       -1.303383   -1.400468    0.074155
      5         11           0        2.477769    1.809833   -0.449668
      6         11           0       -4.411745   -0.133659   -0.192073
      7         11           0        0.334927   -0.489205   -1.756383
 ---------------------------------------------------------------------

 SCF Done:  E(UB3LYP) =  -1136.10049009     A.U. after   32 cycles

 The electronic state is 2-A.
 Alpha  occ. eigenvalues --  -38.46500 -38.45150 -38.44551 -38.43945 -38.43926
 Alpha  occ. eigenvalues --  -38.43650 -38.42424  -2.22258  -2.21116  -2.20400
 Alpha  occ. eigenvalues --   -2.19965  -2.19845  -2.19526  -2.18313  -1.15932
 Alpha  occ. eigenvalues --   -1.15913  -1.15884  -1.15067  -1.14708  -1.14678
 Alpha  occ. eigenvalues --   -1.14092  -1.14068  -1.14024  -1.13687  -1.13643
 Alpha  occ. eigenvalues --   -1.13517  -1.13483  -1.13463  -1.13423  -1.13203
 Alpha  occ. eigenvalues --   -1.13194  -1.13128  -1.12049  -1.11990  -1.11898
 Alpha  occ. eigenvalues --   -0.19061  -0.14337  -0.11416  -0.10390
 Alpha virt. eigenvalues --   -0.08164  -0.04794  -0.04023  -0.03657  -0.03070
 Alpha virt. eigenvalues --   -0.02230  -0.01993  -0.01354  -0.00854  -0.00369
 Alpha virt. eigenvalues --   -0.00070   0.00251   0.00342   0.00732   0.00796

  Beta  occ. eigenvalues --  -38.46496 -38.45116 -38.44546 -38.43919 -38.43820
  Beta  occ. eigenvalues --  -38.43618 -38.42420  -2.22250  -2.21056  -2.20394
  Beta  occ. eigenvalues --   -2.19925  -2.19650  -2.19469  -2.18309  -1.15926
  Beta  occ. eigenvalues --   -1.15908  -1.15879  -1.15014  -1.14668  -1.14634
  Beta  occ. eigenvalues --   -1.14091  -1.14036  -1.14021  -1.13661  -1.13553
  Beta  occ. eigenvalues --   -1.13478  -1.13366  -1.13339  -1.13283  -1.13161
  Beta  occ. eigenvalues --   -1.13152  -1.13082  -1.12050  -1.11963  -1.11899
  Beta  occ. eigenvalues --   -0.18293  -0.14084  -0.10209
  Beta virt. eigenvalues --   -0.07991  -0.07351  -0.04717  -0.03647  -0.03255
  Beta virt. eigenvalues --   -0.02622  -0.01677  -0.01327  -0.01249  -0.00513
  Beta virt. eigenvalues --   -0.00305  -0.00042   0.00329   0.00414   0.00782

 Mulliken charges and spin densities:
               1          2
     1  Na   0.277646   0.355880
     2  Na   0.117845  -0.004036
     3  Na  -0.696704   0.009886
     4  Na   0.016502   0.391070
     5  Na  -0.434168   0.185664
     6  Na   0.184628  -0.051665
     7  Na   0.534251   0.113202
 Sum of Mulliken charges =  -0.00000   1.00000

 Dipole moment (field-independent basis, Debye):
    X=             -1.1887    Y=              0.2289    Z=              0.3779  Tot=              1.2682
 Quadrupole moment (field-independent basis, Debye-Ang):
   XX=            -37.7900   YY=            -80.8617   ZZ=            -70.8993
   XY=             -0.9958   XZ=              1.4847   YZ=             -4.3492

 Normal termination of Gaussian 16 at Thu Dec  7 06:42:37 2023.
