 Gaussian 16, Revision B.01,
 Gaussian 16:  ES64L-G16RevB.01 20-Dec-2017

 -------------------------
 #P B3LYP/6-311+g(d) force
 -------------------------

 -----
 DPGEN
 -----
 Symbolic Z-matrix:
 Charge =  0 Multiplicity = 2

                         Standard orientation:
 ---------------------------------------------------------------------
 Center     Atomic      Atomic             Coordinates (Angstroms)
 Number     Number       Type             X           Y           Z
 ---------------------------------------------------------------------
      1         11           0        0.268210    0.196228    1.546770
      2         11           0        0.643044   -3.130066   -0.618705
      3         11           0       -3.046875   -1.646707    0.572880
      4         11           0        3.773253   -0.486963    0.452614
      5         11           0        1.528901    2.610293   -0.743113
      6         11           0       -2.045140    2.657775    0.217133
      7         11           0       -1.121392   -0.200560   -1.427578
 ---------------------------------------------------------------------

 SCF Done:  E(UB3LYP) =  -1136.12572534     A.U. after   20 cycles

 The electronic state is 2-A.
 Alpha  occ. eigenvalues --  -38.44442 -38.44219 -38.44207 -38.44189 -38.44139
 Alpha  occ. eigenvalues --  -38.43592 -38.43175  -2.20248  -2.20010  -2.19968
 Alpha  occ. eigenvalues --   -2.19961  -2.19930  -2.19473  -2.19123  -1.13949
 Alpha  occ. eigenvalues --   -1.13896  -1.13869  -1.13694  -1.13676  -1.13643
 Alpha  occ. eigenvalues --   -1.13642  -1.13640  -1.13622  -1.13618  -1.13609
 Alpha  occ. eigenvalues --   -1.13607  -1.13597  -1.13582  -1.13544  -1.13202
 Alpha  occ. eigenvalues --   -1.13113  -1.13074  -1.12824  -1.12787  -1.12717
 Alpha  occ. eigenvalues --   -0.17782  -0.12753  -0.12456  -0.09790
 Alpha virt. eigenvalues --   -0.06167  -0.05731  -0.05193  -0.02988  -0.02689
 Alpha virt. eigenvalues --   -0.01941  -0.01697  -0.01663  -0.01105  -0.00648
 Alpha virt. eigenvalues --   -0.00048   0.00283   0.00568   0.00686   0.00735

  Beta  occ. eigenvalues --  -38.44426 -38.44210 -38.44206 -38.44162 -38.44121
  Beta  occ. eigenvalues --  -38.43542 -38.43134  -2.20220  -2.20012  -2.19952
  Beta  occ. eigenvalues --   -2.19912  -2.19899  -2.19383  -2.19050  -1.13929
  Beta  occ. eigenvalues --   -1.13873  -1.13840  -1.13691  -1.13677  -1.13629
  Beta  occ. eigenvalues --   -1.13625  -1.13611  -1.13598  -1.13595  -1.13584
  Beta  occ. eigenvalues --   -1.13581  -1.13577  -1.13549  -1.13517  -1.13133
  Beta  occ. eigenvalues --   -1.13055  -1.13001  -1.12775  -1.12719  -1.12661
  Beta  occ. eigenvalues --   -0.17187  -0.12496  -0.12168
  Beta virt. eigenvalues --   -0.06351  -0.05945  -0.05641  -0.04978  -0.02396
  Beta virt. eigenvalues --   -0.02127  -0.01772  -0.01608  -0.01112  -0.00846
  Beta virt. eigenvalues --   -0.00626   0.00118   0.00344   0.00650   0.00747

 Mulliken charges and spin densities:
               1          2
     1  Na  -0.014249   0.409948
     2  Na  -0.342058   0.015591
     3  Na  -0.015582   0.166836
     4  Na   0.039755   0.019430
     5  Na  -0.305293   0.074369
     6  Na   0.211436   0.111157
     7  Na   0.425992   0.202670
 Sum of Mulliken charges =  -0.00000   1.00000

 Dipole moment (field-independent basis, Debye):
    X=             -0.2557    Y=              0.1210    Z=              0.0443  Tot=              0.2863
 Quadrupole moment (field-independent basis, Debye-Ang):
   XX=            -54.7016   YY=            -59.4412   ZZ=            -77.0324
   XY=             -0.5852   XZ=             -2.7975   YZ=             -1.1763

 Normal termination of Gaussian 16 at Thu Dec  7 22:43:40 2023.
