 Gaussian 16, Revision B.01,
 Gaussian 16:  ES64L-G16RevB.01 20-Dec-2017

 -------------------------
 #P B3LYP/6-311+g(d) force
 -------------------------

 -----
 DPGEN
 -----
 Symbolic Z-matrix:
 Charge =  0 Multiplicity = 2

                         Standard orientation:
 ---------------------------------------------------------------------
 Center     Atomic      Atomic             Coordinates (Angstroms)
 Number     Number       Type             X           Y           Z
 ---------------------------------------------------------------------
      1         11           0       -0.648101   -2.885859   -0.079256
      2         11           0       -1.541713    2.907538   -0.149949
      3         11           0        2.884303   -1.525734   -0.225508
      4         11           0       -0.308084   -0.143011    2.130373
      5         11           0        2.638366    2.069457    0.040919
      6         11           0       -3.129821   -0.480163   -0.338990
      7         11           0        0.105050    0.057772   -1.377589
 ---------------------------------------------------------------------

 SCF Done:  E(UB3LYP) =  -1136.13532158     A.U. after   20 cycles

 The electronic state is 2-A.
 Alpha  occ. eigenvalues --  -38.44334 -38.44135 -38.44078 -38.43892 -38.43406
 Alpha  occ. eigenvalues --  -38.43340 -38.43004  -2.20108  -2.19966  -2.19883
 Alpha  occ. eigenvalues --   -2.19672  -2.19271  -2.19199  -2.18982  -1.13787
 Alpha  occ. eigenvalues --   -1.13768  -1.13746  -1.13646  -1.13625  -1.13599
 Alpha  occ. eigenvalues --   -1.13566  -1.13541  -1.13514  -1.13351  -1.13331
 Alpha  occ. eigenvalues --   -1.13312  -1.12947  -1.12901  -1.12890  -1.12889
 Alpha  occ. eigenvalues --   -1.12849  -1.12829  -1.12684  -1.12615  -1.12608
 Alpha  occ. eigenvalues --   -0.18209  -0.12972  -0.12275  -0.10306
 Alpha virt. eigenvalues --   -0.05876  -0.05510  -0.04914  -0.02944  -0.02640
 Alpha virt. eigenvalues --   -0.02341  -0.01691  -0.01399  -0.00838  -0.00632
 Alpha virt. eigenvalues --   -0.00012   0.00311   0.00729   0.00772   0.00823

  Beta  occ. eigenvalues --  -38.44335 -38.44125 -38.44074 -38.43891 -38.43333
  Beta  occ. eigenvalues --  -38.43298 -38.42961  -2.20111  -2.19950  -2.19878
  Beta  occ. eigenvalues --   -2.19672  -2.19191  -2.19071  -2.18904  -1.13780
  Beta  occ. eigenvalues --   -1.13769  -1.13750  -1.13629  -1.13599  -1.13591
  Beta  occ. eigenvalues --   -1.13554  -1.13531  -1.13513  -1.13342  -1.13327
  Beta  occ. eigenvalues --   -1.13312  -1.12896  -1.12834  -1.12829  -1.12800
  Beta  occ. eigenvalues --   -1.12750  -1.12738  -1.12620  -1.12559  -1.12550
  Beta  occ. eigenvalues --   -0.17513  -0.12766  -0.12078
  Beta virt. eigenvalues --   -0.06374  -0.05870  -0.05456  -0.04866  -0.02252
  Beta virt. eigenvalues --   -0.01933  -0.01600  -0.01363  -0.01217  -0.00868
  Beta virt. eigenvalues --   -0.00675   0.00162   0.00368   0.00762   0.00818

 Mulliken charges and spin densities:
               1          2
     1  Na   0.327122   0.041107
     2  Na   0.008977  -0.053812
     3  Na   0.191249  -0.013867
     4  Na  -0.514521   0.798800
     5  Na   0.031558  -0.048380
     6  Na   0.272254   0.033535
     7  Na  -0.316640   0.242616
 Sum of Mulliken charges =  -0.00000   1.00000

 Dipole moment (field-independent basis, Debye):
    X=              0.1636    Y=              0.1736    Z=              0.0841  Tot=              0.2530
 Quadrupole moment (field-independent basis, Debye-Ang):
   XX=            -54.8292   YY=            -59.6828   ZZ=            -77.2066
   XY=              0.2234   XZ=              0.9445   YZ=              0.6571

 Normal termination of Gaussian 16 at Thu Dec  7 07:44:34 2023.
