 Gaussian 16, Revision B.01,
 Gaussian 16:  ES64L-G16RevB.01 20-Dec-2017

 -------------------------
 #P B3LYP/6-311+g(d) force
 -------------------------

 -----
 DPGEN
 -----
 Symbolic Z-matrix:
 Charge =  0 Multiplicity = 2

                         Standard orientation:
 ---------------------------------------------------------------------
 Center     Atomic      Atomic             Coordinates (Angstroms)
 Number     Number       Type             X           Y           Z
 ---------------------------------------------------------------------
      1         11           0       -1.475027    2.610389   -0.251256
      2         11           0       -3.202552   -0.359364    0.324347
      3         11           0       -0.614177   -2.732425   -0.306686
      4         11           0       -0.168727   -0.120868   -1.408626
      5         11           0        0.500508    0.086371    1.942828
      6         11           0        2.393403    2.115767   -0.238063
      7         11           0        2.566574   -1.599871   -0.062544
 ---------------------------------------------------------------------

 SCF Done:  E(UB3LYP) =  -1136.13477678     A.U. after   19 cycles

 The electronic state is 2-A.
 Alpha  occ. eigenvalues --  -38.44032 -38.43938 -38.43837 -38.43730 -38.43331
 Alpha  occ. eigenvalues --  -38.43287 -38.42874  -2.19855  -2.19747  -2.19710
 Alpha  occ. eigenvalues --   -2.19564  -2.19249  -2.19201  -2.18940  -1.13521
 Alpha  occ. eigenvalues --   -1.13513  -1.13507  -1.13424  -1.13414  -1.13395
 Alpha  occ. eigenvalues --   -1.13387  -1.13381  -1.13336  -1.13268  -1.13223
 Alpha  occ. eigenvalues --   -1.13182  -1.13083  -1.12895  -1.12873  -1.12849
 Alpha  occ. eigenvalues --   -1.12823  -1.12810  -1.12608  -1.12556  -1.12533
 Alpha  occ. eigenvalues --   -0.18798  -0.13082  -0.12591  -0.10378
 Alpha virt. eigenvalues --   -0.05620  -0.05445  -0.04671  -0.03087  -0.02750
 Alpha virt. eigenvalues --   -0.02156  -0.01600  -0.01268  -0.00473  -0.00338
 Alpha virt. eigenvalues --    0.00030   0.00342   0.00807   0.00853   0.00874

  Beta  occ. eigenvalues --  -38.44027 -38.43933 -38.43830 -38.43725 -38.43320
  Beta  occ. eigenvalues --  -38.43198 -38.42815  -2.19847  -2.19742  -2.19701
  Beta  occ. eigenvalues --   -2.19556  -2.19233  -2.19037  -2.18836  -1.13512
  Beta  occ. eigenvalues --   -1.13506  -1.13496  -1.13413  -1.13402  -1.13391
  Beta  occ. eigenvalues --   -1.13381  -1.13347  -1.13330  -1.13257  -1.13205
  Beta  occ. eigenvalues --   -1.13179  -1.13057  -1.12852  -1.12839  -1.12776
  Beta  occ. eigenvalues --   -1.12708  -1.12693  -1.12529  -1.12483  -1.12461
  Beta  occ. eigenvalues --   -0.18094  -0.12863  -0.12314
  Beta virt. eigenvalues --   -0.06508  -0.05590  -0.05397  -0.04638  -0.02335
  Beta virt. eigenvalues --   -0.01996  -0.01507  -0.01213  -0.01122  -0.00513
  Beta virt. eigenvalues --   -0.00374   0.00170   0.00377   0.00832   0.00867

 Mulliken charges and spin densities:
               1          2
     1  Na   0.057354  -0.070558
     2  Na   0.038006   0.053620
     3  Na   0.420689   0.048255
     4  Na  -0.396554   0.315347
     5  Na  -0.466160   0.775155
     6  Na   0.010052  -0.097395
     7  Na   0.336613  -0.024423
 Sum of Mulliken charges =  -0.00000   1.00000

 Dipole moment (field-independent basis, Debye):
    X=              0.0652    Y=              0.2026    Z=              0.2070  Tot=              0.2969
 Quadrupole moment (field-independent basis, Debye-Ang):
   XX=            -54.3435   YY=            -61.0483   ZZ=            -76.2893
   XY=              0.2347   XZ=             -1.8031   YZ=             -0.5951

 Normal termination of Gaussian 16 at Tue Dec  5 17:36:54 2023.
