 Gaussian 16, Revision B.01,
 Gaussian 16:  ES64L-G16RevB.01 20-Dec-2017

 -------------------------
 #P B3LYP/6-311+g(d) force
 -------------------------

 -----
 DPGEN
 -----
 Symbolic Z-matrix:
 Charge =  0 Multiplicity = 2

                         Standard orientation:
 ---------------------------------------------------------------------
 Center     Atomic      Atomic             Coordinates (Angstroms)
 Number     Number       Type             X           Y           Z
 ---------------------------------------------------------------------
      1         11           0        2.761202    1.518968    0.049316
      2         11           0        0.255563   -0.279665    2.035373
      3         11           0       -1.094078    2.524158   -0.121246
      4         11           0       -3.014435    0.008166    0.285103
      5         11           0       -1.223830   -2.258619   -0.447906
      6         11           0        0.063388    0.316635   -1.634525
      7         11           0        2.252189   -1.829642   -0.166113
 ---------------------------------------------------------------------

 SCF Done:  E(UB3LYP) =  -1136.13195652     A.U. after   20 cycles

 The electronic state is 2-A.
 Alpha  occ. eigenvalues --  -38.44092 -38.44050 -38.43733 -38.43602 -38.43244
 Alpha  occ. eigenvalues --  -38.43225 -38.43008  -2.19962  -2.19925  -2.19645
 Alpha  occ. eigenvalues --   -2.19488  -2.19281  -2.19147  -2.18958  -1.13680
 Alpha  occ. eigenvalues --   -1.13621  -1.13605  -1.13598  -1.13588  -1.13562
 Alpha  occ. eigenvalues --   -1.13324  -1.13283  -1.13262  -1.13171  -1.13147
 Alpha  occ. eigenvalues --   -1.13115  -1.13095  -1.12965  -1.12889  -1.12788
 Alpha  occ. eigenvalues --   -1.12762  -1.12746  -1.12632  -1.12605  -1.12576
 Alpha  occ. eigenvalues --   -0.19284  -0.13509  -0.12254  -0.11075
 Alpha virt. eigenvalues --   -0.05753  -0.05174  -0.04049  -0.03506  -0.02842
 Alpha virt. eigenvalues --   -0.02647  -0.01602  -0.00978  -0.00131  -0.00002
 Alpha virt. eigenvalues --    0.00070   0.00364   0.00798   0.00912   0.00963

  Beta  occ. eigenvalues --  -38.44090 -38.44045 -38.43643 -38.43596 -38.43238
  Beta  occ. eigenvalues --  -38.43154 -38.42993  -2.19955  -2.19923  -2.19480
  Beta  occ. eigenvalues --   -2.19479  -2.19161  -2.19133  -2.18936  -1.13678
  Beta  occ. eigenvalues --   -1.13618  -1.13599  -1.13573  -1.13567  -1.13562
  Beta  occ. eigenvalues --   -1.13227  -1.13178  -1.13149  -1.13142  -1.13115
  Beta  occ. eigenvalues --   -1.13101  -1.13035  -1.12884  -1.12805  -1.12769
  Beta  occ. eigenvalues --   -1.12745  -1.12704  -1.12616  -1.12575  -1.12543
  Beta  occ. eigenvalues --   -0.18526  -0.13267  -0.11988
  Beta virt. eigenvalues --   -0.07101  -0.05710  -0.05165  -0.04036  -0.02670
  Beta virt. eigenvalues --   -0.02055  -0.01580  -0.01492  -0.00919  -0.00149
  Beta virt. eigenvalues --    0.00016   0.00132   0.00384   0.00861   0.00909

 Mulliken charges and spin densities:
               1          2
     1  Na   0.078006  -0.079317
     2  Na  -0.660348   0.670378
     3  Na   0.324964  -0.023434
     4  Na   0.070357   0.082596
     5  Na   0.392205   0.067821
     6  Na  -0.474812   0.315861
     7  Na   0.269627  -0.033905
 Sum of Mulliken charges =  -0.00000   1.00000

 Dipole moment (field-independent basis, Debye):
    X=              0.3897    Y=              0.1206    Z=              0.3440  Tot=              0.5336
 Quadrupole moment (field-independent basis, Debye-Ang):
   XX=            -54.8727   YY=            -66.5823   ZZ=            -72.7345
   XY=              0.2844   XZ=             -0.7344   YZ=              1.3739

 Normal termination of Gaussian 16 at Fri Dec  8 03:38:59 2023.
