 Gaussian 16, Revision B.01,
 Gaussian 16:  ES64L-G16RevB.01 20-Dec-2017

 -------------------------
 #P B3LYP/6-311+g(d) force
 -------------------------

 -----
 DPGEN
 -----
 Symbolic Z-matrix:
 Charge =  0 Multiplicity = 2

                         Standard orientation:
 ---------------------------------------------------------------------
 Center     Atomic      Atomic             Coordinates (Angstroms)
 Number     Number       Type             X           Y           Z
 ---------------------------------------------------------------------
      1         11           0       -1.554016    2.701333   -0.228503
      2         11           0        2.490084    2.114605    0.128751
      3         11           0        0.001258   -0.268025    1.641655
      4         11           0       -1.020852   -2.835106   -0.254589
      5         11           0       -3.323029   -0.265561    0.082157
      6         11           0        0.223436    0.080153   -1.248288
      7         11           0        3.183119   -1.527399   -0.121183
 ---------------------------------------------------------------------

 SCF Done:  E(UB3LYP) =  -1136.12813861     A.U. after   28 cycles

 The electronic state is 2-A.
 Alpha  occ. eigenvalues --  -38.44851 -38.44575 -38.44413 -38.43469 -38.43431
 Alpha  occ. eigenvalues --  -38.42888 -38.42794  -2.20624  -2.20396  -2.20215
 Alpha  occ. eigenvalues --   -2.19321  -2.19256  -2.18927  -2.18765  -1.14300
 Alpha  occ. eigenvalues --   -1.14271  -1.14268  -1.14067  -1.14050  -1.14044
 Alpha  occ. eigenvalues --   -1.13899  -1.13876  -1.13842  -1.13020  -1.12987
 Alpha  occ. eigenvalues --   -1.12949  -1.12947  -1.12915  -1.12893  -1.12790
 Alpha  occ. eigenvalues --   -1.12546  -1.12518  -1.12425  -1.12361  -1.12344
 Alpha  occ. eigenvalues --   -0.18487  -0.13372  -0.12223  -0.09530
 Alpha virt. eigenvalues --   -0.06332  -0.05836  -0.04619  -0.02909  -0.02266
 Alpha virt. eigenvalues --   -0.02213  -0.01619  -0.01485  -0.00848  -0.00608
 Alpha virt. eigenvalues --    0.00022   0.00277   0.00659   0.00717   0.00807

  Beta  occ. eigenvalues --  -38.44846 -38.44572 -38.44409 -38.43461 -38.43424
  Beta  occ. eigenvalues --  -38.42841 -38.42709  -2.20618  -2.20393  -2.20210
  Beta  occ. eigenvalues --   -2.19310  -2.19247  -2.18844  -2.18610  -1.14279
  Beta  occ. eigenvalues --   -1.14269  -1.14264  -1.14056  -1.14048  -1.14034
  Beta  occ. eigenvalues --   -1.13890  -1.13856  -1.13843  -1.13013  -1.12954
  Beta  occ. eigenvalues --   -1.12941  -1.12937  -1.12897  -1.12882  -1.12705
  Beta  occ. eigenvalues --   -1.12486  -1.12458  -1.12322  -1.12252  -1.12232
  Beta  occ. eigenvalues --   -0.17810  -0.13152  -0.11968
  Beta virt. eigenvalues --   -0.06287  -0.05852  -0.05712  -0.04585  -0.02192
  Beta virt. eigenvalues --   -0.02116  -0.01610  -0.01544  -0.00905  -0.00651
  Beta virt. eigenvalues --   -0.00565   0.00196   0.00346   0.00699   0.00732

 Mulliken charges and spin densities:
               1          2
     1  Na   0.160446  -0.019150
     2  Na   0.151283  -0.030260
     3  Na  -0.221497   0.622797
     4  Na   0.172190  -0.030180
     5  Na   0.297083   0.049416
     6  Na  -0.716821   0.455949
     7  Na   0.157316  -0.048573
 Sum of Mulliken charges =  -0.00000   1.00000

 Dipole moment (field-independent basis, Debye):
    X=              0.4277    Y=             -0.0975    Z=              0.1868  Tot=              0.4767
 Quadrupole moment (field-independent basis, Debye-Ang):
   XX=            -47.4809   YY=            -59.9287   ZZ=            -80.4823
   XY=              0.2797   XZ=              0.2650   YZ=              0.7729

 Normal termination of Gaussian 16 at Thu Dec  7 18:47:06 2023.
