 Gaussian 16, Revision B.01,
 Gaussian 16:  ES64L-G16RevB.01 20-Dec-2017

 -------------------------
 #P B3LYP/6-311+g(d) force
 -------------------------

 -----
 DPGEN
 -----
 Symbolic Z-matrix:
 Charge =  0 Multiplicity = 2

                         Standard orientation:
 ---------------------------------------------------------------------
 Center     Atomic      Atomic             Coordinates (Angstroms)
 Number     Number       Type             X           Y           Z
 ---------------------------------------------------------------------
      1         11           0       -0.628338    0.929992   -1.042319
      2         11           0       -4.553693    0.998060   -0.408541
      3         11           0        1.391770   -0.847067    1.769036
      4         11           0        0.876900   -2.235507   -1.034392
      5         11           0        1.715359    2.489963    1.168834
      6         11           0        2.891332    0.378637   -1.492310
      7         11           0       -1.693329   -1.714078    1.039691
 ---------------------------------------------------------------------

 SCF Done:  E(UB3LYP) =  -1136.12490044     A.U. after   22 cycles

 The electronic state is 2-A.
 Alpha  occ. eigenvalues --  -38.44423 -38.44400 -38.43986 -38.43868 -38.43732
 Alpha  occ. eigenvalues --  -38.43678 -38.43281  -2.20284  -2.20121  -2.19837
 Alpha  occ. eigenvalues --   -2.19809  -2.19593  -2.19515  -2.19215  -1.13960
 Alpha  occ. eigenvalues --   -1.13945  -1.13894  -1.13800  -1.13794  -1.13744
 Alpha  occ. eigenvalues --   -1.13550  -1.13532  -1.13499  -1.13480  -1.13430
 Alpha  occ. eigenvalues --   -1.13423  -1.13283  -1.13275  -1.13182  -1.13175
 Alpha  occ. eigenvalues --   -1.13166  -1.13132  -1.12889  -1.12881  -1.12828
 Alpha  occ. eigenvalues --   -0.18593  -0.12931  -0.11911  -0.11507
 Alpha virt. eigenvalues --   -0.06651  -0.04859  -0.04415  -0.03183  -0.03027
 Alpha virt. eigenvalues --   -0.02693  -0.02196  -0.01112  -0.00711  -0.00210
 Alpha virt. eigenvalues --   -0.00017   0.00142   0.00349   0.00691   0.00795

  Beta  occ. eigenvalues --  -38.44405 -38.44376 -38.43966 -38.43805 -38.43715
  Beta  occ. eigenvalues --  -38.43641 -38.43253  -2.20201  -2.20130  -2.19802
  Beta  occ. eigenvalues --   -2.19694  -2.19564  -2.19448  -2.19168  -1.13894
  Beta  occ. eigenvalues --   -1.13888  -1.13827  -1.13806  -1.13800  -1.13749
  Beta  occ. eigenvalues --   -1.13522  -1.13494  -1.13422  -1.13405  -1.13395
  Beta  occ. eigenvalues --   -1.13341  -1.13259  -1.13250  -1.13150  -1.13129
  Beta  occ. eigenvalues --   -1.13113  -1.13090  -1.12862  -1.12850  -1.12763
  Beta  occ. eigenvalues --   -0.17805  -0.12719  -0.11509
  Beta virt. eigenvalues --   -0.07710  -0.06436  -0.04713  -0.04013  -0.02829
  Beta virt. eigenvalues --   -0.02385  -0.02318  -0.01652  -0.01053  -0.00382
  Beta virt. eigenvalues --   -0.00125   0.00060   0.00186   0.00428   0.00776

 Mulliken charges and spin densities:
               1          2
     1  Na  -1.079331   0.380115
     2  Na   0.238877  -0.038294
     3  Na  -0.138787   0.558959
     4  Na   0.335987   0.114860
     5  Na   0.096086  -0.030521
     6  Na   0.504595   0.118420
     7  Na   0.042571  -0.103540
 Sum of Mulliken charges =  -0.00000   1.00000

 Dipole moment (field-independent basis, Debye):
    X=              0.5086    Y=             -0.1221    Z=              0.1014  Tot=              0.5328
 Quadrupole moment (field-independent basis, Debye-Ang):
   XX=            -56.5965   YY=            -69.9237   ZZ=            -68.0045
   XY=              0.9630   XZ=             -2.4276   YZ=              1.3321

 Normal termination of Gaussian 16 at Fri Dec  8 00:43:05 2023.
