 Gaussian 16, Revision B.01,
 Gaussian 16:  ES64L-G16RevB.01 20-Dec-2017

 -------------------------
 #P B3LYP/6-311+g(d) force
 -------------------------

 -----
 DPGEN
 -----
 Symbolic Z-matrix:
 Charge =  0 Multiplicity = 2

                         Standard orientation:
 ---------------------------------------------------------------------
 Center     Atomic      Atomic             Coordinates (Angstroms)
 Number     Number       Type             X           Y           Z
 ---------------------------------------------------------------------
      1         11           0       -3.939660   -1.190905   -0.529516
      2         11           0        4.129820   -1.676727   -0.447559
      3         11           0       -1.880541   -0.145371    1.746756
      4         11           0        1.732793    2.003489   -1.065775
      5         11           0        1.680575    0.851313    1.926858
      6         11           0       -1.697659    1.757353   -0.965302
      7         11           0       -0.025328   -1.599151   -0.665462
 ---------------------------------------------------------------------

 SCF Done:  E(UB3LYP) =  -1136.11717543     A.U. after   26 cycles

 The electronic state is 2-A.
 Alpha  occ. eigenvalues --  -38.45139 -38.44948 -38.44494 -38.44174 -38.43928
 Alpha  occ. eigenvalues --  -38.43680 -38.43525  -2.20918  -2.20761  -2.20323
 Alpha  occ. eigenvalues --   -2.20095  -2.19659  -2.19515  -2.19386  -1.14647
 Alpha  occ. eigenvalues --   -1.14606  -1.14503  -1.14444  -1.14412  -1.14390
 Alpha  occ. eigenvalues --   -1.14005  -1.13988  -1.13928  -1.13782  -1.13755
 Alpha  occ. eigenvalues --   -1.13691  -1.13337  -1.13328  -1.13284  -1.13206
 Alpha  occ. eigenvalues --   -1.13182  -1.13129  -1.13071  -1.13064  -1.12978
 Alpha  occ. eigenvalues --   -0.18142  -0.13820  -0.11152  -0.10899
 Alpha virt. eigenvalues --   -0.06909  -0.05883  -0.04823  -0.03206  -0.02711
 Alpha virt. eigenvalues --   -0.02307  -0.02229  -0.01771  -0.00877  -0.00345
 Alpha virt. eigenvalues --   -0.00008   0.00126   0.00196   0.00435   0.00510

  Beta  occ. eigenvalues --  -38.45132 -38.44938 -38.44444 -38.44114 -38.43920
  Beta  occ. eigenvalues --  -38.43664 -38.43496  -2.20909  -2.20742  -2.20233
  Beta  occ. eigenvalues --   -2.19986  -2.19643  -2.19486  -2.19334  -1.14622
  Beta  occ. eigenvalues --   -1.14597  -1.14500  -1.14427  -1.14397  -1.14378
  Beta  occ. eigenvalues --   -1.13939  -1.13922  -1.13860  -1.13711  -1.13682
  Beta  occ. eigenvalues --   -1.13592  -1.13323  -1.13318  -1.13274  -1.13177
  Beta  occ. eigenvalues --   -1.13163  -1.13106  -1.13034  -1.13020  -1.12942
  Beta  occ. eigenvalues --   -0.17478  -0.13664  -0.10723
  Beta virt. eigenvalues --   -0.07222  -0.06753  -0.05788  -0.04165  -0.02888
  Beta virt. eigenvalues --   -0.02634  -0.01905  -0.01688  -0.01411  -0.00421
  Beta virt. eigenvalues --   -0.00270   0.00038   0.00205   0.00313   0.00545

 Mulliken charges and spin densities:
               1          2
     1  Na   0.975845   0.209043
     2  Na   0.127927   0.005295
     3  Na   0.134920   0.215173
     4  Na   0.183221   0.202058
     5  Na  -0.047290   0.094186
     6  Na  -0.408599   0.173954
     7  Na  -0.966023   0.100291
 Sum of Mulliken charges =  -0.00000   1.00000

 Dipole moment (field-independent basis, Debye):
    X=             -1.3251    Y=              0.1397    Z=              0.0387  Tot=              1.3330
 Quadrupole moment (field-independent basis, Debye-Ang):
   XX=            -50.4330   YY=            -76.0100   ZZ=            -69.8781
   XY=              5.4253   XZ=              2.3939   YZ=              1.6770

 Normal termination of Gaussian 16 at Tue Dec  5 22:08:42 2023.
