 Gaussian 16, Revision B.01,
 Gaussian 16:  ES64L-G16RevB.01 20-Dec-2017

 -------------------------
 #P B3LYP/6-311+g(d) force
 -------------------------

 -----
 DPGEN
 -----
 Symbolic Z-matrix:
 Charge =  0 Multiplicity = 2

                         Standard orientation:
 ---------------------------------------------------------------------
 Center     Atomic      Atomic             Coordinates (Angstroms)
 Number     Number       Type             X           Y           Z
 ---------------------------------------------------------------------
      1         11           0        1.151893   -2.507929    1.556005
      2         11           0        2.830308   -0.436837   -0.646912
      3         11           0       -2.142379    0.543521   -1.113398
      4         11           0        2.534678    2.939859   -0.037259
      5         11           0       -4.876049    0.480771    0.531183
      6         11           0        0.099574   -1.958029   -1.502040
      7         11           0        0.401975    0.938643    1.212421
 ---------------------------------------------------------------------

 SCF Done:  E(UB3LYP) =  -1136.11779058     A.U. after   24 cycles

 The electronic state is 2-A.
 Alpha  occ. eigenvalues --  -38.45124 -38.44879 -38.44307 -38.43699 -38.43457
 Alpha  occ. eigenvalues --  -38.43267 -38.43223  -2.20891  -2.20772  -2.20207
 Alpha  occ. eigenvalues --   -2.19552  -2.19336  -2.19181  -2.19054  -1.14553
 Alpha  occ. eigenvalues --   -1.14546  -1.14532  -1.14472  -1.14459  -1.14375
 Alpha  occ. eigenvalues --   -1.13901  -1.13862  -1.13843  -1.13241  -1.13215
 Alpha  occ. eigenvalues --   -1.13185  -1.12998  -1.12988  -1.12968  -1.12850
 Alpha  occ. eigenvalues --   -1.12834  -1.12782  -1.12725  -1.12703  -1.12702
 Alpha  occ. eigenvalues --   -0.18103  -0.13357  -0.12226  -0.10613
 Alpha virt. eigenvalues --   -0.07395  -0.04995  -0.03946  -0.03421  -0.02896
 Alpha virt. eigenvalues --   -0.02530  -0.02232  -0.01221  -0.00769  -0.00676
 Alpha virt. eigenvalues --   -0.00123   0.00139   0.00217   0.00626   0.00847

  Beta  occ. eigenvalues --  -38.45112 -38.44868 -38.44281 -38.43680 -38.43397
  Beta  occ. eigenvalues --  -38.43224 -38.43212  -2.20869  -2.20755  -2.20161
  Beta  occ. eigenvalues --   -2.19522  -2.19225  -2.19083  -2.19056  -1.14539
  Beta  occ. eigenvalues --   -1.14531  -1.14517  -1.14463  -1.14413  -1.14371
  Beta  occ. eigenvalues --   -1.13860  -1.13827  -1.13803  -1.13226  -1.13191
  Beta  occ. eigenvalues --   -1.13138  -1.12925  -1.12908  -1.12887  -1.12778
  Beta  occ. eigenvalues --   -1.12769  -1.12725  -1.12704  -1.12700  -1.12700
  Beta  occ. eigenvalues --   -0.17428  -0.13155  -0.12095
  Beta virt. eigenvalues --   -0.07121  -0.06738  -0.04834  -0.03579  -0.03274
  Beta virt. eigenvalues --   -0.02523  -0.02286  -0.01530  -0.01013  -0.00640
  Beta virt. eigenvalues --   -0.00317  -0.00019   0.00267   0.00395   0.00680

 Mulliken charges and spin densities:
               1          2
     1  Na  -0.076372   0.213262
     2  Na   0.111791   0.190529
     3  Na   0.246688  -0.080722
     4  Na   0.289752  -0.098467
     5  Na  -0.076403   0.113358
     6  Na   0.117755   0.251617
     7  Na  -0.613212   0.410423
 Sum of Mulliken charges =  -0.00000   1.00000

 Dipole moment (field-independent basis, Debye):
    X=             -0.3349    Y=             -0.2248    Z=              0.1943  Tot=              0.4477
 Quadrupole moment (field-independent basis, Debye-Ang):
   XX=            -52.1458   YY=            -67.9840   ZZ=            -72.3923
   XY=             -0.0745   XZ=             -5.6983   YZ=             -1.1007

 Normal termination of Gaussian 16 at Tue Nov 28 21:33:38 2023.
