 Gaussian 16, Revision B.01,
 Gaussian 16:  ES64L-G16RevB.01 20-Dec-2017

 -------------------------
 #P B3LYP/6-311+g(d) force
 -------------------------

 -----
 DPGEN
 -----
 Symbolic Z-matrix:
 Charge =  0 Multiplicity = 2

                         Standard orientation:
 ---------------------------------------------------------------------
 Center     Atomic      Atomic             Coordinates (Angstroms)
 Number     Number       Type             X           Y           Z
 ---------------------------------------------------------------------
      1         11           0        0.259538   -0.125847   -1.315314
      2         11           0       -0.628274   -0.891633    1.469186
      3         11           0        1.947614   -1.727172    0.416286
      4         11           0        2.782054    0.934315   -0.371414
      5         11           0        0.186169    1.907854    0.477386
      6         11           0       -2.410072    1.195994    0.170686
      7         11           0       -2.137030   -1.293510   -0.846814
 ---------------------------------------------------------------------

 SCF Done:  E(UB3LYP) =  -1136.07204452     A.U. after   20 cycles

 The electronic state is 2-A.
 Alpha  occ. eigenvalues --  -38.44664 -38.44576 -38.44471 -38.43959 -38.43904
 Alpha  occ. eigenvalues --  -38.43545 -38.43291  -2.20795  -2.20602  -2.20587
 Alpha  occ. eigenvalues --   -2.20337  -2.19933  -2.19762  -2.19459  -1.14800
 Alpha  occ. eigenvalues --   -1.14637  -1.14464  -1.14411  -1.14392  -1.14289
 Alpha  occ. eigenvalues --   -1.14230  -1.14171  -1.14102  -1.14056  -1.13990
 Alpha  occ. eigenvalues --   -1.13855  -1.13691  -1.13551  -1.13511  -1.13439
 Alpha  occ. eigenvalues --   -1.13366  -1.13293  -1.13096  -1.13068  -1.13007
 Alpha  occ. eigenvalues --   -0.21295  -0.14848  -0.12240  -0.11622
 Alpha virt. eigenvalues --   -0.06163  -0.04872  -0.04015  -0.03578  -0.02530
 Alpha virt. eigenvalues --   -0.02114  -0.01817  -0.00651  -0.00080   0.00270
 Alpha virt. eigenvalues --    0.00462   0.00611   0.00902   0.00960   0.01065

  Beta  occ. eigenvalues --  -38.44627 -38.44567 -38.44456 -38.43894 -38.43890
  Beta  occ. eigenvalues --  -38.43474 -38.43267  -2.20733  -2.20588  -2.20566
  Beta  occ. eigenvalues --   -2.20223  -2.19913  -2.19637  -2.19423  -1.14763
  Beta  occ. eigenvalues --   -1.14586  -1.14420  -1.14381  -1.14349  -1.14284
  Beta  occ. eigenvalues --   -1.14197  -1.14123  -1.14034  -1.14022  -1.13928
  Beta  occ. eigenvalues --   -1.13781  -1.13637  -1.13527  -1.13487  -1.13361
  Beta  occ. eigenvalues --   -1.13271  -1.13206  -1.13070  -1.13045  -1.12929
  Beta  occ. eigenvalues --   -0.20506  -0.14519  -0.11962
  Beta virt. eigenvalues --   -0.07401  -0.06089  -0.04871  -0.03532  -0.03068
  Beta virt. eigenvalues --   -0.01869  -0.01659  -0.01075  -0.00601   0.00118
  Beta virt. eigenvalues --    0.00323   0.00451   0.00598   0.00940   0.00970

 Mulliken charges and spin densities:
               1          2
     1  Na  -1.163377   0.003347
     2  Na  -0.369808   0.257149
     3  Na  -0.013911   0.143067
     4  Na   0.554010   0.085973
     5  Na   0.098501   0.176606
     6  Na   0.213662   0.184046
     7  Na   0.680922   0.149812
 Sum of Mulliken charges =  -0.00000   1.00000

 Dipole moment (field-independent basis, Debye):
    X=              0.2517    Y=             -0.1747    Z=              0.2215  Tot=              0.3781
 Quadrupole moment (field-independent basis, Debye-Ang):
   XX=            -51.6237   YY=            -72.0799   ZZ=            -71.8979
   XY=             -0.1741   XZ=              0.4993   YZ=              0.4927

 Normal termination of Gaussian 16 at Fri Dec  8 17:57:38 2023.
