 Gaussian 16, Revision B.01,
 Gaussian 16:  ES64L-G16RevB.01 20-Dec-2017

 -------------------------
 #P B3LYP/6-311+g(d) force
 -------------------------

 -----
 DPGEN
 -----
 Symbolic Z-matrix:
 Charge =  0 Multiplicity = 2

                         Standard orientation:
 ---------------------------------------------------------------------
 Center     Atomic      Atomic             Coordinates (Angstroms)
 Number     Number       Type             X           Y           Z
 ---------------------------------------------------------------------
      1         11           0       -3.294702    0.784479   -0.118763
      2         11           0       -0.147326    2.631925   -0.120124
      3         11           0        0.152832   -0.668584   -1.660083
      4         11           0       -0.286634    0.215237    1.985749
      5         11           0        2.977817    1.179442   -0.451352
      6         11           0       -1.812893   -2.275504   -0.208107
      7         11           0        2.410906   -1.866996    0.572680
 ---------------------------------------------------------------------

 SCF Done:  E(UB3LYP) =  -1136.13197230     A.U. after   20 cycles

 The electronic state is 2-A.
 Alpha  occ. eigenvalues --  -38.44769 -38.44119 -38.43921 -38.43618 -38.43481
 Alpha  occ. eigenvalues --  -38.43470 -38.42810  -2.20572  -2.19962  -2.19764
 Alpha  occ. eigenvalues --   -2.19522  -2.19431  -2.19363  -2.18678  -1.14249
 Alpha  occ. eigenvalues --   -1.14225  -1.14213  -1.13642  -1.13628  -1.13605
 Alpha  occ. eigenvalues --   -1.13426  -1.13423  -1.13400  -1.13277  -1.13205
 Alpha  occ. eigenvalues --   -1.13162  -1.13128  -1.13087  -1.13045  -1.13000
 Alpha  occ. eigenvalues --   -1.12970  -1.12945  -1.12376  -1.12347  -1.12296
 Alpha  occ. eigenvalues --   -0.18632  -0.13503  -0.12017  -0.10767
 Alpha virt. eigenvalues --   -0.06262  -0.05299  -0.04081  -0.03430  -0.02818
 Alpha virt. eigenvalues --   -0.02458  -0.01993  -0.01149  -0.00332  -0.00138
 Alpha virt. eigenvalues --   -0.00034   0.00318   0.00707   0.00817   0.00843

  Beta  occ. eigenvalues --  -38.44769 -38.44109 -38.43906 -38.43530 -38.43473
  Beta  occ. eigenvalues --  -38.43414 -38.42803  -2.20573  -2.19946  -2.19739
  Beta  occ. eigenvalues --   -2.19363  -2.19357  -2.19322  -2.18670  -1.14243
  Beta  occ. eigenvalues --   -1.14224  -1.14211  -1.13633  -1.13603  -1.13594
  Beta  occ. eigenvalues --   -1.13412  -1.13390  -1.13379  -1.13231  -1.13098
  Beta  occ. eigenvalues --   -1.13053  -1.13017  -1.13009  -1.12988  -1.12972
  Beta  occ. eigenvalues --   -1.12945  -1.12898  -1.12370  -1.12323  -1.12287
  Beta  occ. eigenvalues --   -0.17919  -0.13283  -0.11764
  Beta virt. eigenvalues --   -0.06897  -0.06193  -0.05250  -0.03992  -0.02734
  Beta virt. eigenvalues --   -0.02063  -0.01901  -0.01442  -0.01051  -0.00354
  Beta virt. eigenvalues --   -0.00151   0.00104   0.00352   0.00785   0.00846

 Mulliken charges and spin densities:
               1          2
     1  Na   0.003619  -0.069928
     2  Na   0.028056  -0.022431
     3  Na  -0.205545   0.388753
     4  Na  -0.364178   0.653543
     5  Na   0.094822  -0.016056
     6  Na   0.355185   0.009179
     7  Na   0.088042   0.056939
 Sum of Mulliken charges =  -0.00000   1.00000

 Dipole moment (field-independent basis, Debye):
    X=             -0.2260    Y=             -0.0186    Z=              0.0827  Tot=              0.2414
 Quadrupole moment (field-independent basis, Debye-Ang):
   XX=            -51.0827   YY=            -68.3742   ZZ=            -73.9502
   XY=             -0.8412   XZ=              0.4381   YZ=             -2.4983

 Normal termination of Gaussian 16 at Tue Dec  5 19:43:39 2023.
