 Gaussian 16, Revision B.01,
 Gaussian 16:  ES64L-G16RevB.01 20-Dec-2017

 -------------------------
 #P B3LYP/6-311+g(d) force
 -------------------------

 -----
 DPGEN
 -----
 Symbolic Z-matrix:
 Charge =  0 Multiplicity = 2

                         Standard orientation:
 ---------------------------------------------------------------------
 Center     Atomic      Atomic             Coordinates (Angstroms)
 Number     Number       Type             X           Y           Z
 ---------------------------------------------------------------------
      1         11           0       -0.557001    0.766178    2.245035
      2         11           0        2.284053   -0.566519    1.785331
      3         11           0        2.821089   -0.425319   -1.168801
      4         11           0        0.941356    2.250923   -1.000214
      5         11           0       -2.307243    2.211877   -0.721108
      6         11           0        0.369487   -2.331980   -1.097125
      7         11           0       -3.551741   -1.905161   -0.043119
 ---------------------------------------------------------------------

 SCF Done:  E(UB3LYP) =  -1136.11584168     A.U. after   23 cycles

 The electronic state is 2-A.
 Alpha  occ. eigenvalues --  -38.45011 -38.44863 -38.44265 -38.44117 -38.44086
 Alpha  occ. eigenvalues --  -38.44018 -38.43597  -2.20842  -2.20766  -2.20055
 Alpha  occ. eigenvalues --   -2.20027  -2.19916  -2.19733  -2.19451  -1.14586
 Alpha  occ. eigenvalues --   -1.14471  -1.14462  -1.14434  -1.14401  -1.14371
 Alpha  occ. eigenvalues --   -1.13746  -1.13746  -1.13709  -1.13684  -1.13682
 Alpha  occ. eigenvalues --   -1.13667  -1.13590  -1.13572  -1.13501  -1.13417
 Alpha  occ. eigenvalues --   -1.13393  -1.13377  -1.13126  -1.13095  -1.13085
 Alpha  occ. eigenvalues --   -0.18032  -0.13139  -0.12259  -0.11550
 Alpha virt. eigenvalues --   -0.06141  -0.05613  -0.04727  -0.03737  -0.03200
 Alpha virt. eigenvalues --   -0.02831  -0.01618  -0.01063  -0.00606  -0.00267
 Alpha virt. eigenvalues --   -0.00088   0.00213   0.00308   0.00458   0.00478

  Beta  occ. eigenvalues --  -38.44931 -38.44799 -38.44257 -38.44098 -38.44059
  Beta  occ. eigenvalues --  -38.44029 -38.43564  -2.20698  -2.20651  -2.20039
  Beta  occ. eigenvalues --   -2.19979  -2.19881  -2.19752  -2.19392  -1.14471
  Beta  occ. eigenvalues --   -1.14373  -1.14367  -1.14352  -1.14310  -1.14277
  Beta  occ. eigenvalues --   -1.13729  -1.13708  -1.13702  -1.13670  -1.13647
  Beta  occ. eigenvalues --   -1.13627  -1.13559  -1.13550  -1.13475  -1.13429
  Beta  occ. eigenvalues --   -1.13407  -1.13390  -1.13083  -1.13053  -1.13041
  Beta  occ. eigenvalues --   -0.17228  -0.13038  -0.11422
  Beta virt. eigenvalues --   -0.08027  -0.06014  -0.05389  -0.04171  -0.03410
  Beta virt. eigenvalues --   -0.02378  -0.02334  -0.01544  -0.00971  -0.00308
  Beta virt. eigenvalues --   -0.00172  -0.00033   0.00356   0.00426   0.00607

 Mulliken charges and spin densities:
               1          2
     1  Na  -0.391959   0.445549
     2  Na   0.491602  -0.018006
     3  Na   0.258373   0.538565
     4  Na  -0.178039   0.080989
     5  Na   0.250645   0.030355
     6  Na  -0.507289   0.027248
     7  Na   0.076667  -0.104699
 Sum of Mulliken charges =  -0.00000   1.00000

 Dipole moment (field-independent basis, Debye):
    X=              0.4447    Y=              0.4137    Z=              0.2878  Tot=              0.6721
 Quadrupole moment (field-independent basis, Debye-Ang):
   XX=            -58.8767   YY=            -73.9358   ZZ=            -66.9765
   XY=             -3.3861   XZ=             -0.3752   YZ=             -1.3209

 Normal termination of Gaussian 16 at Tue Nov 28 23:18:33 2023.
