 Gaussian 16, Revision B.01,
 Gaussian 16:  ES64L-G16RevB.01 20-Dec-2017

 -------------------------
 #P B3LYP/6-311+g(d) force
 -------------------------

 -----
 DPGEN
 -----
 Symbolic Z-matrix:
 Charge =  0 Multiplicity = 2

                         Standard orientation:
 ---------------------------------------------------------------------
 Center     Atomic      Atomic             Coordinates (Angstroms)
 Number     Number       Type             X           Y           Z
 ---------------------------------------------------------------------
      1         11           0        1.390565    2.492496    0.452662
      2         11           0       -0.178369   -0.411212    2.071405
      3         11           0       -1.327382   -2.776355    0.229531
      4         11           0        2.060074   -1.994805    0.014433
      5         11           0        3.528102    0.374237   -1.410173
      6         11           0       -3.434093   -0.204876   -1.592365
      7         11           0       -2.038897    2.520515    0.234507
 ---------------------------------------------------------------------

 SCF Done:  E(UB3LYP) =  -1136.12549050     A.U. after   20 cycles

 The electronic state is 2-A.
 Alpha  occ. eigenvalues --  -38.44479 -38.44471 -38.43988 -38.43949 -38.43923
 Alpha  occ. eigenvalues --  -38.43861 -38.43853  -2.20343  -2.20268  -2.19843
 Alpha  occ. eigenvalues --   -2.19755  -2.19708  -2.19697  -2.19679  -1.14015
 Alpha  occ. eigenvalues --   -1.14011  -1.13945  -1.13921  -1.13900  -1.13892
 Alpha  occ. eigenvalues --   -1.13551  -1.13525  -1.13505  -1.13444  -1.13435
 Alpha  occ. eigenvalues --   -1.13406  -1.13388  -1.13371  -1.13366  -1.13347
 Alpha  occ. eigenvalues --   -1.13340  -1.13339  -1.13324  -1.13305  -1.13297
 Alpha  occ. eigenvalues --   -0.17284  -0.13516  -0.12635  -0.11179
 Alpha virt. eigenvalues --   -0.06019  -0.05455  -0.04655  -0.03869  -0.03401
 Alpha virt. eigenvalues --   -0.02308  -0.01299  -0.00926  -0.00816  -0.00672
 Alpha virt. eigenvalues --   -0.00382   0.00227   0.00383   0.00467   0.00628

  Beta  occ. eigenvalues --  -38.44402 -38.44397 -38.43980 -38.43941 -38.43928
  Beta  occ. eigenvalues --  -38.43853 -38.43812  -2.20216  -2.20115  -2.19832
  Beta  occ. eigenvalues --   -2.19742  -2.19721  -2.19683  -2.19608  -1.13934
  Beta  occ. eigenvalues --   -1.13929  -1.13847  -1.13817  -1.13797  -1.13791
  Beta  occ. eigenvalues --   -1.13530  -1.13519  -1.13475  -1.13440  -1.13420
  Beta  occ. eigenvalues --   -1.13404  -1.13387  -1.13374  -1.13363  -1.13351
  Beta  occ. eigenvalues --   -1.13319  -1.13289  -1.13278  -1.13263  -1.13254
  Beta  occ. eigenvalues --   -0.16715  -0.12734  -0.12465
  Beta virt. eigenvalues --   -0.07798  -0.05934  -0.05104  -0.04103  -0.03668
  Beta virt. eigenvalues --   -0.02749  -0.01815  -0.01158  -0.00951  -0.00680
  Beta virt. eigenvalues --   -0.00549  -0.00072   0.00441   0.00502   0.00686

 Mulliken charges and spin densities:
               1          2
     1  Na  -0.341720  -0.042899
     2  Na   0.886519   0.029643
     3  Na  -0.170482   0.190958
     4  Na  -0.635317   0.020025
     5  Na   0.546507   0.316046
     6  Na  -0.035052   0.370624
     7  Na  -0.250456   0.115602
 Sum of Mulliken charges =  -0.00000   1.00000

 Dipole moment (field-independent basis, Debye):
    X=             -0.0594    Y=             -0.1378    Z=             -0.0199  Tot=              0.1514
 Quadrupole moment (field-independent basis, Debye-Ang):
   XX=            -66.5127   YY=            -65.3490   ZZ=            -68.1937
   XY=              1.3706   XZ=             -0.2961   YZ=              0.7404

 Normal termination of Gaussian 16 at Wed Nov 29 00:39:06 2023.
