 Gaussian 16, Revision B.01,
 Gaussian 16:  ES64L-G16RevB.01 20-Dec-2017

 -------------------------
 #P B3LYP/6-311+g(d) force
 -------------------------

 -----
 DPGEN
 -----
 Symbolic Z-matrix:
 Charge =  0 Multiplicity = 2

                         Standard orientation:
 ---------------------------------------------------------------------
 Center     Atomic      Atomic             Coordinates (Angstroms)
 Number     Number       Type             X           Y           Z
 ---------------------------------------------------------------------
      1         11           0       -1.543139   -1.822951   -0.604750
      2         11           0        0.734818   -0.180371    1.505715
      3         11           0        1.175507    3.425541   -0.365819
      4         11           0       -1.562288    1.878839   -0.280764
      5         11           0       -4.322724   -0.430423    0.232917
      6         11           0        3.753046   -0.284945   -0.091256
      7         11           0        1.764780   -2.585690   -0.396043
 ---------------------------------------------------------------------

 SCF Done:  E(UB3LYP) =  -1136.12343642     A.U. after   21 cycles

 The electronic state is 2-A.
 Alpha  occ. eigenvalues --  -38.45236 -38.43953 -38.43940 -38.43718 -38.43499
 Alpha  occ. eigenvalues --  -38.43424 -38.43311  -2.21113  -2.19866  -2.19736
 Alpha  occ. eigenvalues --   -2.19582  -2.19382  -2.19319  -2.19159  -1.14803
 Alpha  occ. eigenvalues --   -1.14783  -1.14733  -1.13566  -1.13528  -1.13520
 Alpha  occ. eigenvalues --   -1.13446  -1.13399  -1.13371  -1.13280  -1.13270
 Alpha  occ. eigenvalues --   -1.13164  -1.13031  -1.13015  -1.13010  -1.12993
 Alpha  occ. eigenvalues --   -1.12991  -1.12966  -1.12803  -1.12799  -1.12762
 Alpha  occ. eigenvalues --   -0.17825  -0.14044  -0.12758  -0.10041
 Alpha virt. eigenvalues --   -0.06721  -0.05374  -0.04797  -0.03154  -0.02843
 Alpha virt. eigenvalues --   -0.02433  -0.01742  -0.01137  -0.00875  -0.00774
 Alpha virt. eigenvalues --   -0.00179  -0.00041   0.00501   0.00521   0.00748

  Beta  occ. eigenvalues --  -38.45219 -38.43946 -38.43935 -38.43714 -38.43419
  Beta  occ. eigenvalues --  -38.43400 -38.43240  -2.21086  -2.19841  -2.19748
  Beta  occ. eigenvalues --   -2.19577  -2.19283  -2.19231  -2.19027  -1.14785
  Beta  occ. eigenvalues --   -1.14754  -1.14707  -1.13544  -1.13520  -1.13449
  Beta  occ. eigenvalues --   -1.13448  -1.13407  -1.13380  -1.13279  -1.13262
  Beta  occ. eigenvalues --   -1.13152  -1.12991  -1.12969  -1.12930  -1.12916
  Beta  occ. eigenvalues --   -1.12899  -1.12887  -1.12712  -1.12706  -1.12681
  Beta  occ. eigenvalues --   -0.17310  -0.13374  -0.12449
  Beta virt. eigenvalues --   -0.06564  -0.06511  -0.05251  -0.04527  -0.02678
  Beta virt. eigenvalues --   -0.02435  -0.02284  -0.01313  -0.00935  -0.00777
  Beta virt. eigenvalues --   -0.00576   0.00187   0.00206   0.00617   0.00719

 Mulliken charges and spin densities:
               1          2
     1  Na  -0.455908   0.027378
     2  Na   0.241575   0.055508
     3  Na   0.223609  -0.038702
     4  Na  -0.760263   0.009307
     5  Na   0.791991   0.393471
     6  Na  -0.080378   0.530494
     7  Na   0.039374   0.022544
 Sum of Mulliken charges =  -0.00000   1.00000

 Dipole moment (field-independent basis, Debye):
    X=              0.4578    Y=             -0.0368    Z=              0.1437  Tot=              0.4812
 Quadrupole moment (field-independent basis, Debye-Ang):
   XX=            -75.3638   YY=            -64.3890   ZZ=            -65.4867
   XY=              2.0962   XZ=             -1.9153   YZ=              0.5975

 Normal termination of Gaussian 16 at Tue Nov 28 20:46:54 2023.
