 Gaussian 16, Revision B.01,
 Gaussian 16:  ES64L-G16RevB.01 20-Dec-2017

 -------------------------
 #P B3LYP/6-311+g(d) force
 -------------------------

 -----
 DPGEN
 -----
 Symbolic Z-matrix:
 Charge =  0 Multiplicity = 2

                         Standard orientation:
 ---------------------------------------------------------------------
 Center     Atomic      Atomic             Coordinates (Angstroms)
 Number     Number       Type             X           Y           Z
 ---------------------------------------------------------------------
      1         11           0       -2.032640   -2.235097    0.042245
      2         11           0        0.046021    0.020266   -1.708480
      3         11           0       -3.016093    0.596438   -0.072316
      4         11           0       -0.259267    2.974005   -0.013853
      5         11           0       -0.006459    0.190601    1.751325
      6         11           0        1.980061   -2.378369    0.037790
      7         11           0        3.288376    0.832156   -0.036711
 ---------------------------------------------------------------------

 SCF Done:  E(UB3LYP) =  -1136.13543253     A.U. after   19 cycles

 The electronic state is 2-A.
 Alpha  occ. eigenvalues --  -38.44810 -38.44146 -38.43773 -38.43483 -38.43132
 Alpha  occ. eigenvalues --  -38.43117 -38.43087  -2.20595  -2.20037  -2.19591
 Alpha  occ. eigenvalues --   -2.19357  -2.19064  -2.19030  -2.18979  -1.14271
 Alpha  occ. eigenvalues --   -1.14247  -1.14236  -1.13757  -1.13692  -1.13670
 Alpha  occ. eigenvalues --   -1.13266  -1.13259  -1.13226  -1.13037  -1.13006
 Alpha  occ. eigenvalues --   -1.12996  -1.12787  -1.12719  -1.12705  -1.12689
 Alpha  occ. eigenvalues --   -1.12679  -1.12645  -1.12630  -1.12609  -1.12606
 Alpha  occ. eigenvalues --   -0.18658  -0.13385  -0.12191  -0.10315
 Alpha virt. eigenvalues --   -0.06169  -0.05243  -0.04581  -0.03214  -0.02582
 Alpha virt. eigenvalues --   -0.02172  -0.01933  -0.01170  -0.00517  -0.00464
 Alpha virt. eigenvalues --    0.00010   0.00347   0.00741   0.00838   0.00876

  Beta  occ. eigenvalues --  -38.44809 -38.44140 -38.43770 -38.43478 -38.43127
  Beta  occ. eigenvalues --  -38.43042 -38.43008  -2.20596  -2.20029  -2.19588
  Beta  occ. eigenvalues --   -2.19352  -2.18973  -2.18928  -2.18885  -1.14253
  Beta  occ. eigenvalues --   -1.14250  -1.14240  -1.13756  -1.13670  -1.13653
  Beta  occ. eigenvalues --   -1.13261  -1.13239  -1.13228  -1.13036  -1.12995
  Beta  occ. eigenvalues --   -1.12973  -1.12711  -1.12657  -1.12634  -1.12609
  Beta  occ. eigenvalues --   -1.12599  -1.12578  -1.12573  -1.12539  -1.12531
  Beta  occ. eigenvalues --   -0.17930  -0.13165  -0.11944
  Beta virt. eigenvalues --   -0.06431  -0.06136  -0.05242  -0.04571  -0.02424
  Beta virt. eigenvalues --   -0.01842  -0.01830  -0.01156  -0.01090  -0.00576
  Beta virt. eigenvalues --   -0.00513   0.00155   0.00370   0.00772   0.00858

 Mulliken charges and spin densities:
               1          2
     1  Na   0.074684  -0.066461
     2  Na  -0.278739   0.689614
     3  Na   0.367949   0.028514
     4  Na   0.075713  -0.160202
     5  Na  -0.320088   0.739372
     6  Na   0.034295  -0.100416
     7  Na   0.046186  -0.130420
 Sum of Mulliken charges =  -0.00000   1.00000

 Dipole moment (field-independent basis, Debye):
    X=              0.5248    Y=              0.1039    Z=             -0.0032  Tot=              0.5350
 Quadrupole moment (field-independent basis, Debye-Ang):
   XX=            -52.5300   YY=            -62.4283   ZZ=            -76.8944
   XY=              0.4955   XZ=              0.1276   YZ=             -0.4831

 Normal termination of Gaussian 16 at Sun Dec  3 15:41:00 2023.
