 Gaussian 16, Revision B.01,
 Gaussian 16:  ES64L-G16RevB.01 20-Dec-2017

 -------------------------
 #P B3LYP/6-311+g(d) force
 -------------------------

 -----
 DPGEN
 -----
 Symbolic Z-matrix:
 Charge =  0 Multiplicity = 2

                         Standard orientation:
 ---------------------------------------------------------------------
 Center     Atomic      Atomic             Coordinates (Angstroms)
 Number     Number       Type             X           Y           Z
 ---------------------------------------------------------------------
      1         11           0        1.329351    2.495848   -0.034442
      2         11           0        3.441974   -0.333417   -0.355940
      3         11           0        0.631603   -2.824418    0.246891
      4         11           0       -3.226186   -1.250914   -0.190259
      5         11           0       -0.347057   -0.243568   -1.692449
      6         11           0       -1.930564    2.325483    0.143053
      7         11           0        0.100879   -0.169015    1.883145
 ---------------------------------------------------------------------

 SCF Done:  E(UB3LYP) =  -1136.13511123     A.U. after   20 cycles

 The electronic state is 2-A.
 Alpha  occ. eigenvalues --  -38.44463 -38.44411 -38.43612 -38.43570 -38.43455
 Alpha  occ. eigenvalues --  -38.43307 -38.43141  -2.20245  -2.20192  -2.19462
 Alpha  occ. eigenvalues --   -2.19417  -2.19378  -2.19231  -2.19008  -1.13924
 Alpha  occ. eigenvalues --   -1.13896  -1.13884  -1.13863  -1.13851  -1.13826
 Alpha  occ. eigenvalues --   -1.13194  -1.13149  -1.13112  -1.13085  -1.13066
 Alpha  occ. eigenvalues --   -1.13063  -1.13051  -1.13009  -1.12988  -1.12899
 Alpha  occ. eigenvalues --   -1.12857  -1.12840  -1.12682  -1.12676  -1.12640
 Alpha  occ. eigenvalues --   -0.18401  -0.12875  -0.12469  -0.10487
 Alpha virt. eigenvalues --   -0.06185  -0.05159  -0.04597  -0.03042  -0.02857
 Alpha virt. eigenvalues --   -0.02339  -0.01991  -0.01202  -0.00581  -0.00291
 Alpha virt. eigenvalues --   -0.00041   0.00289   0.00745   0.00797   0.00865

  Beta  occ. eigenvalues --  -38.44459 -38.44402 -38.43600 -38.43566 -38.43396
  Beta  occ. eigenvalues --  -38.43217 -38.43136  -2.20240  -2.20176  -2.19444
  Beta  occ. eigenvalues --   -2.19412  -2.19271  -2.19066  -2.19003  -1.13905
  Beta  occ. eigenvalues --   -1.13895  -1.13881  -1.13847  -1.13834  -1.13817
  Beta  occ. eigenvalues --   -1.13171  -1.13106  -1.13104  -1.13068  -1.13058
  Beta  occ. eigenvalues --   -1.13047  -1.12989  -1.12941  -1.12907  -1.12791
  Beta  occ. eigenvalues --   -1.12743  -1.12725  -1.12677  -1.12657  -1.12625
  Beta  occ. eigenvalues --   -0.17707  -0.12627  -0.12204
  Beta virt. eigenvalues --   -0.06705  -0.06053  -0.05146  -0.04560  -0.02365
  Beta virt. eigenvalues --   -0.02086  -0.01867  -0.01324  -0.01140  -0.00604
  Beta virt. eigenvalues --   -0.00327   0.00100   0.00333   0.00777   0.00835

 Mulliken charges and spin densities:
               1          2
     1  Na   0.003540  -0.029405
     2  Na   0.012566   0.027303
     3  Na   0.131943  -0.114783
     4  Na   0.177305  -0.112207
     5  Na  -0.301032   0.704862
     6  Na   0.102037  -0.071839
     7  Na  -0.126360   0.596069
 Sum of Mulliken charges =  -0.00000   1.00000

 Dipole moment (field-independent basis, Debye):
    X=             -0.1881    Y=             -0.3125    Z=              0.0104  Tot=              0.3649
 Quadrupole moment (field-independent basis, Debye-Ang):
   XX=            -53.0026   YY=            -63.8775   ZZ=            -75.5133
   XY=             -0.1777   XZ=             -1.3613   YZ=              0.1239

 Normal termination of Gaussian 16 at Wed Dec  6 00:55:34 2023.
