 Gaussian 16, Revision B.01,
 Gaussian 16:  ES64L-G16RevB.01 20-Dec-2017

 -------------------------
 #P B3LYP/6-311+g(d) force
 -------------------------

 -----
 DPGEN
 -----
 Symbolic Z-matrix:
 Charge =  0 Multiplicity = 2

                         Standard orientation:
 ---------------------------------------------------------------------
 Center     Atomic      Atomic             Coordinates (Angstroms)
 Number     Number       Type             X           Y           Z
 ---------------------------------------------------------------------
      1         11           0       -1.315740   -2.677486   -0.323993
      2         11           0       -0.060515    0.021023   -1.640753
      3         11           0       -1.007054    3.296001   -0.515707
      4         11           0        2.449951   -1.931161   -0.246488
      5         11           0       -3.371345   -0.119954    0.401926
      6         11           0        3.129691    1.312308    0.171620
      7         11           0        0.175012    0.099268    2.153396
 ---------------------------------------------------------------------

 SCF Done:  E(UB3LYP) =  -1136.12999401     A.U. after   20 cycles

 The electronic state is 2-A.
 Alpha  occ. eigenvalues --  -38.44713 -38.44620 -38.44258 -38.43785 -38.43581
 Alpha  occ. eigenvalues --  -38.43410 -38.43268  -2.20495  -2.20407  -2.20075
 Alpha  occ. eigenvalues --   -2.19618  -2.19338  -2.19322  -2.19118  -1.14167
 Alpha  occ. eigenvalues --   -1.14154  -1.14131  -1.14079  -1.14067  -1.14051
 Alpha  occ. eigenvalues --   -1.13743  -1.13711  -1.13686  -1.13300  -1.13281
 Alpha  occ. eigenvalues --   -1.13253  -1.13023  -1.13018  -1.12991  -1.12984
 Alpha  occ. eigenvalues --   -1.12971  -1.12934  -1.12794  -1.12773  -1.12749
 Alpha  occ. eigenvalues --   -0.17899  -0.13095  -0.11871  -0.10660
 Alpha virt. eigenvalues --   -0.06287  -0.05280  -0.04774  -0.03295  -0.02779
 Alpha virt. eigenvalues --   -0.02513  -0.01914  -0.01268  -0.00819  -0.00511
 Alpha virt. eigenvalues --   -0.00070   0.00327   0.00680   0.00719   0.00748

  Beta  occ. eigenvalues --  -38.44707 -38.44619 -38.44168 -38.43780 -38.43569
  Beta  occ. eigenvalues --  -38.43349 -38.43263  -2.20484  -2.20407  -2.19908
  Beta  occ. eigenvalues --   -2.19611  -2.19318  -2.19210  -2.19112  -1.14154
  Beta  occ. eigenvalues --   -1.14142  -1.14125  -1.14075  -1.14059  -1.14051
  Beta  occ. eigenvalues --   -1.13630  -1.13597  -1.13563  -1.13290  -1.13273
  Beta  occ. eigenvalues --   -1.13240  -1.12991  -1.12976  -1.12972  -1.12948
  Beta  occ. eigenvalues --   -1.12901  -1.12854  -1.12776  -1.12763  -1.12734
  Beta  occ. eigenvalues --   -0.17204  -0.12924  -0.11581
  Beta virt. eigenvalues --   -0.06910  -0.06094  -0.05234  -0.04693  -0.02608
  Beta virt. eigenvalues --   -0.02080  -0.01767  -0.01589  -0.01153  -0.00843
  Beta virt. eigenvalues --   -0.00549   0.00084   0.00358   0.00742   0.00791

 Mulliken charges and spin densities:
               1          2
     1  Na   0.107944  -0.027412
     2  Na   0.070277   0.416329
     3  Na  -0.110979  -0.026222
     4  Na   0.109219  -0.027090
     5  Na   0.078825   0.058825
     6  Na   0.119352  -0.028172
     7  Na  -0.374638   0.633743
 Sum of Mulliken charges =  -0.00000   1.00000

 Dipole moment (field-independent basis, Debye):
    X=              0.1605    Y=             -0.0134    Z=              0.3141  Tot=              0.3530
 Quadrupole moment (field-independent basis, Debye-Ang):
   XX=            -53.8694   YY=            -64.5671   ZZ=            -75.1924
   XY=              0.9692   XZ=             -1.0640   YZ=              0.3073

 Normal termination of Gaussian 16 at Tue Dec  5 16:12:24 2023.
