 Gaussian 16, Revision B.01,
 Gaussian 16:  ES64L-G16RevB.01 20-Dec-2017

 -------------------------
 #P B3LYP/6-311+g(d) force
 -------------------------

 -----
 DPGEN
 -----
 Symbolic Z-matrix:
 Charge =  0 Multiplicity = 2

                         Standard orientation:
 ---------------------------------------------------------------------
 Center     Atomic      Atomic             Coordinates (Angstroms)
 Number     Number       Type             X           Y           Z
 ---------------------------------------------------------------------
      1         11           0       -0.652536   -1.007406    1.984663
      2         11           0       -0.125425    2.628120    0.052533
      3         11           0       -2.458531   -1.776495   -1.410522
      4         11           0       -3.743472    1.191569    0.365855
      5         11           0        1.339910   -2.476416   -0.809942
      6         11           0        3.184916   -0.621373    1.009807
      7         11           0        2.455137    2.062002   -1.192394
 ---------------------------------------------------------------------

 SCF Done:  E(UB3LYP) =  -1136.11844464     A.U. after   21 cycles

 The electronic state is 2-A.
 Alpha  occ. eigenvalues --  -38.45071 -38.44821 -38.44611 -38.44167 -38.44094
 Alpha  occ. eigenvalues --  -38.43821 -38.43448  -2.20818  -2.20636  -2.20397
 Alpha  occ. eigenvalues --   -2.19953  -2.19899  -2.19638  -2.19302  -1.14494
 Alpha  occ. eigenvalues --   -1.14478  -1.14456  -1.14328  -1.14287  -1.14271
 Alpha  occ. eigenvalues --   -1.14078  -1.14057  -1.13998  -1.13620  -1.13600
 Alpha  occ. eigenvalues --   -1.13573  -1.13571  -1.13556  -1.13547  -1.13408
 Alpha  occ. eigenvalues --   -1.13300  -1.13281  -1.12949  -1.12933  -1.12917
 Alpha  occ. eigenvalues --   -0.17058  -0.13478  -0.12375  -0.10422
 Alpha virt. eigenvalues --   -0.06863  -0.05811  -0.04442  -0.03708  -0.03062
 Alpha virt. eigenvalues --   -0.02237  -0.02185  -0.01448  -0.00681  -0.00488
 Alpha virt. eigenvalues --   -0.00275  -0.00013   0.00232   0.00444   0.00696

  Beta  occ. eigenvalues --  -38.45069 -38.44811 -38.44548 -38.44103 -38.44086
  Beta  occ. eigenvalues --  -38.43821 -38.43426  -2.20816  -2.20619  -2.20282
  Beta  occ. eigenvalues --   -2.19887  -2.19834  -2.19640  -2.19261  -1.14489
  Beta  occ. eigenvalues --   -1.14471  -1.14454  -1.14321  -1.14273  -1.14247
  Beta  occ. eigenvalues --   -1.14001  -1.13970  -1.13913  -1.13566  -1.13547
  Beta  occ. eigenvalues --   -1.13538  -1.13525  -1.13515  -1.13484  -1.13397
  Beta  occ. eigenvalues --   -1.13297  -1.13281  -1.12923  -1.12907  -1.12890
  Beta  occ. eigenvalues --   -0.16524  -0.13267  -0.12053
  Beta virt. eigenvalues --   -0.06963  -0.06662  -0.05591  -0.03841  -0.03524
  Beta virt. eigenvalues --   -0.02510  -0.02174  -0.01494  -0.01293  -0.00577
  Beta virt. eigenvalues --   -0.00278  -0.00174   0.00235   0.00289   0.00547

 Mulliken charges and spin densities:
               1          2
     1  Na  -0.397543   0.411303
     2  Na  -0.503844  -0.039778
     3  Na  -0.031195   0.318613
     4  Na   0.433699  -0.014832
     5  Na  -0.152809   0.108086
     6  Na   0.385947   0.104428
     7  Na   0.265746   0.112180
 Sum of Mulliken charges =  -0.00000   1.00000

 Dipole moment (field-independent basis, Debye):
    X=             -0.2531    Y=             -0.1652    Z=              0.3837  Tot=              0.4884
 Quadrupole moment (field-independent basis, Debye-Ang):
   XX=            -52.2350   YY=            -74.0172   ZZ=            -71.6700
   XY=             -4.9503   XZ=             -0.0692   YZ=              0.9122

 Normal termination of Gaussian 16 at Mon Dec  4 01:27:10 2023.
