 Gaussian 16, Revision B.01,
 Gaussian 16:  ES64L-G16RevB.01 20-Dec-2017

 -------------------------
 #P B3LYP/6-311+g(d) force
 -------------------------

 -----
 DPGEN
 -----
 Symbolic Z-matrix:
 Charge =  0 Multiplicity = 2

                         Standard orientation:
 ---------------------------------------------------------------------
 Center     Atomic      Atomic             Coordinates (Angstroms)
 Number     Number       Type             X           Y           Z
 ---------------------------------------------------------------------
      1         11           0       -0.096443    0.202327    1.856951
      2         11           0       -1.849934   -1.493718    0.015739
      3         11           0       -0.064449   -0.232157   -1.833443
      4         11           0        2.633504    0.071820   -0.245578
      5         11           0       -2.103486    1.212898   -0.189476
      6         11           0        0.890106   -1.795674    0.348722
      7         11           0        0.590702    2.034504    0.047086
 ---------------------------------------------------------------------

 SCF Done:  E(UB3LYP) =  -1136.06820805     A.U. after   20 cycles

 The electronic state is 2-A.
 Alpha  occ. eigenvalues --  -38.44787 -38.44353 -38.44247 -38.43835 -38.43780
 Alpha  occ. eigenvalues --  -38.43698 -38.43333  -2.21044  -2.20591  -2.20343
 Alpha  occ. eigenvalues --   -2.20089  -2.19938  -2.19849  -2.19520  -1.14869
 Alpha  occ. eigenvalues --   -1.14826  -1.14626  -1.14441  -1.14374  -1.14261
 Alpha  occ. eigenvalues --   -1.14235  -1.14030  -1.13913  -1.13878  -1.13804
 Alpha  occ. eigenvalues --   -1.13675  -1.13656  -1.13554  -1.13531  -1.13445
 Alpha  occ. eigenvalues --   -1.13383  -1.13278  -1.13176  -1.13129  -1.13051
 Alpha  occ. eigenvalues --   -0.21994  -0.14019  -0.12851  -0.12670
 Alpha virt. eigenvalues --   -0.05242  -0.04107  -0.03966  -0.03931  -0.03285
 Alpha virt. eigenvalues --   -0.03065  -0.01034  -0.00366  -0.00157   0.00328
 Alpha virt. eigenvalues --    0.00831   0.00928   0.01075   0.01202   0.01284

  Beta  occ. eigenvalues --  -38.44685 -38.44258 -38.44238 -38.43811 -38.43766
  Beta  occ. eigenvalues --  -38.43684 -38.43317  -2.20860  -2.20420  -2.20331
  Beta  occ. eigenvalues --   -2.20056  -2.19920  -2.19831  -2.19499  -1.14760
  Beta  occ. eigenvalues --   -1.14691  -1.14501  -1.14389  -1.14304  -1.14159
  Beta  occ. eigenvalues --   -1.14126  -1.14014  -1.13869  -1.13857  -1.13778
  Beta  occ. eigenvalues --   -1.13664  -1.13569  -1.13530  -1.13462  -1.13387
  Beta  occ. eigenvalues --   -1.13361  -1.13273  -1.13155  -1.13063  -1.13045
  Beta  occ. eigenvalues --   -0.21130  -0.13629  -0.12430
  Beta virt. eigenvalues --   -0.08463  -0.05268  -0.04097  -0.03846  -0.02956
  Beta virt. eigenvalues --   -0.02360  -0.02024  -0.00956  -0.00328   0.00002
  Beta virt. eigenvalues --    0.00346   0.00846   0.00907   0.01109   0.01190

 Mulliken charges and spin densities:
               1          2
     1  Na  -0.126818   0.433948
     2  Na   0.055437  -0.030290
     3  Na  -0.102494   0.518593
     4  Na  -0.095351  -0.046571
     5  Na  -0.018060   0.002158
     6  Na   0.133711   0.060245
     7  Na   0.153575   0.061916
 Sum of Mulliken charges =  -0.00000   1.00000

 Dipole moment (field-independent basis, Debye):
    X=              0.0715    Y=              0.1419    Z=             -0.1465  Tot=              0.2162
 Quadrupole moment (field-independent basis, Debye-Ang):
   XX=            -60.6485   YY=            -71.8092   ZZ=            -66.5605
   XY=              0.3126   XZ=             -0.2987   YZ=             -0.7799

 Normal termination of Gaussian 16 at Thu Dec  7 19:03:10 2023.
