 Gaussian 16, Revision B.01,
 Gaussian 16:  ES64L-G16RevB.01 20-Dec-2017

 -------------------------
 #P B3LYP/6-311+g(d) force
 -------------------------

 -----
 DPGEN
 -----
 Symbolic Z-matrix:
 Charge =  0 Multiplicity = 2

                         Standard orientation:
 ---------------------------------------------------------------------
 Center     Atomic      Atomic             Coordinates (Angstroms)
 Number     Number       Type             X           Y           Z
 ---------------------------------------------------------------------
      1         11           0       -3.064833    0.175320   -0.065964
      2         11           0       -1.030385    2.796819   -0.048249
      3         11           0        2.656804    1.610630    0.217018
      4         11           0        0.460886    0.113654   -1.863014
      5         11           0        0.058583   -0.241026    1.976777
      6         11           0       -1.253299   -2.563081   -0.112336
      7         11           0        2.172244   -1.892315   -0.104231
 ---------------------------------------------------------------------

 SCF Done:  E(UB3LYP) =  -1136.13971291     A.U. after   19 cycles

 The electronic state is 2-A.
 Alpha  occ. eigenvalues --  -38.43911 -38.43732 -38.43593 -38.43592 -38.43472
 Alpha  occ. eigenvalues --  -38.43471 -38.43227  -2.19742  -2.19578  -2.19506
 Alpha  occ. eigenvalues --   -2.19487  -2.19413  -2.19297  -2.19105  -1.13423
 Alpha  occ. eigenvalues --   -1.13411  -1.13379  -1.13252  -1.13247  -1.13238
 Alpha  occ. eigenvalues --   -1.13232  -1.13197  -1.13154  -1.13132  -1.13109
 Alpha  occ. eigenvalues --   -1.13104  -1.13070  -1.13032  -1.13027  -1.12966
 Alpha  occ. eigenvalues --   -1.12960  -1.12929  -1.12776  -1.12767  -1.12740
 Alpha  occ. eigenvalues --   -0.18770  -0.13058  -0.12481  -0.10924
 Alpha virt. eigenvalues --   -0.05506  -0.05191  -0.04646  -0.03274  -0.02982
 Alpha virt. eigenvalues --   -0.02702  -0.01357  -0.01075  -0.00329  -0.00216
 Alpha virt. eigenvalues --   -0.00031   0.00378   0.00839   0.00893   0.00925

  Beta  occ. eigenvalues --  -38.43906 -38.43731 -38.43582 -38.43505 -38.43469
  Beta  occ. eigenvalues --  -38.43395 -38.43221  -2.19736  -2.19579  -2.19474
  Beta  occ. eigenvalues --   -2.19346  -2.19297  -2.19272  -2.19099  -1.13415
  Beta  occ. eigenvalues --   -1.13384  -1.13379  -1.13255  -1.13248  -1.13221
  Beta  occ. eigenvalues --   -1.13204  -1.13131  -1.13101  -1.13064  -1.13018
  Beta  occ. eigenvalues --   -1.13008  -1.12987  -1.12968  -1.12949  -1.12935
  Beta  occ. eigenvalues --   -1.12930  -1.12915  -1.12773  -1.12744  -1.12730
  Beta  occ. eigenvalues --   -0.18014  -0.12834  -0.12246
  Beta virt. eigenvalues --   -0.06992  -0.05497  -0.05152  -0.04599  -0.02472
  Beta virt. eigenvalues --   -0.02194  -0.01641  -0.01275  -0.01004  -0.00382
  Beta virt. eigenvalues --   -0.00281   0.00111   0.00399   0.00877   0.00909

 Mulliken charges and spin densities:
               1          2
     1  Na  -0.031900  -0.076659
     2  Na   0.008083  -0.117694
     3  Na   0.117329  -0.109629
     4  Na  -0.310947   0.655548
     5  Na  -0.423210   0.748863
     6  Na   0.186465  -0.057040
     7  Na   0.454180  -0.043389
 Sum of Mulliken charges =  -0.00000   1.00000

 Dipole moment (field-independent basis, Debye):
    X=              0.2279    Y=              0.1246    Z=              0.0711  Tot=              0.2693
 Quadrupole moment (field-independent basis, Debye-Ang):
   XX=            -58.3492   YY=            -63.0007   ZZ=            -73.1602
   XY=              0.5858   XZ=              0.8728   YZ=              0.8510

 Normal termination of Gaussian 16 at Wed Nov 29 16:20:57 2023.
