 Gaussian 16, Revision B.01,
 Gaussian 16:  ES64L-G16RevB.01 20-Dec-2017

 -------------------------
 #P B3LYP/6-311+g(d) force
 -------------------------

 -----
 DPGEN
 -----
 Symbolic Z-matrix:
 Charge =  0 Multiplicity = 2

                         Standard orientation:
 ---------------------------------------------------------------------
 Center     Atomic      Atomic             Coordinates (Angstroms)
 Number     Number       Type             X           Y           Z
 ---------------------------------------------------------------------
      1         11           0       -0.103176   -0.949935    1.785511
      2         11           0       -0.467556    2.112163   -0.373262
      3         11           0       -3.611442    0.997463    0.647991
      4         11           0        3.241623    1.541790    0.281238
      5         11           0       -2.720812   -1.798461   -0.736041
      6         11           0        3.084475   -1.715401    0.144261
      7         11           0        0.576889   -0.187619   -1.749697
 ---------------------------------------------------------------------

 SCF Done:  E(UB3LYP) =  -1136.11415056     A.U. after   27 cycles

 The electronic state is 2-A.
 Alpha  occ. eigenvalues --  -38.45212 -38.45004 -38.44781 -38.44543 -38.44059
 Alpha  occ. eigenvalues --  -38.43487 -38.42516  -2.21001  -2.20809  -2.20604
 Alpha  occ. eigenvalues --   -2.20350  -2.19885  -2.19448  -2.18411  -1.14701
 Alpha  occ. eigenvalues --   -1.14664  -1.14606  -1.14491  -1.14469  -1.14430
 Alpha  occ. eigenvalues --   -1.14286  -1.14245  -1.14239  -1.14012  -1.14005
 Alpha  occ. eigenvalues --   -1.13993  -1.13560  -1.13551  -1.13530  -1.13210
 Alpha  occ. eigenvalues --   -1.13070  -1.13029  -1.12140  -1.12076  -1.11995
 Alpha  occ. eigenvalues --   -0.18236  -0.14262  -0.11019  -0.10604
 Alpha virt. eigenvalues --   -0.07369  -0.06067  -0.04043  -0.03061  -0.02921
 Alpha virt. eigenvalues --   -0.02427  -0.02395  -0.01640  -0.00700  -0.00433
 Alpha virt. eigenvalues --    0.00039   0.00126   0.00376   0.00522   0.00543

  Beta  occ. eigenvalues --  -38.45184 -38.44987 -38.44744 -38.44532 -38.44063
  Beta  occ. eigenvalues --  -38.43396 -38.42510  -2.20950  -2.20778  -2.20535
  Beta  occ. eigenvalues --   -2.20333  -2.19896  -2.19282  -2.18405  -1.14666
  Beta  occ. eigenvalues --   -1.14618  -1.14570  -1.14471  -1.14444  -1.14404
  Beta  occ. eigenvalues --   -1.14241  -1.14195  -1.14192  -1.14002  -1.13984
  Beta  occ. eigenvalues --   -1.13966  -1.13566  -1.13543  -1.13537  -1.13103
  Beta  occ. eigenvalues --   -1.12953  -1.12903  -1.12121  -1.12052  -1.11995
  Beta  occ. eigenvalues --   -0.17599  -0.13969  -0.10817
  Beta virt. eigenvalues --   -0.07168  -0.06933  -0.05859  -0.03525  -0.02963
  Beta virt. eigenvalues --   -0.02736  -0.01867  -0.01719  -0.01275  -0.00606
  Beta virt. eigenvalues --   -0.00210   0.00071   0.00177   0.00532   0.00589

 Mulliken charges and spin densities:
               1          2
     1  Na  -0.402062   0.308596
     2  Na  -0.355920  -0.149085
     3  Na   0.213146   0.255606
     4  Na  -0.040991   0.074586
     5  Na   0.184889  -0.080907
     6  Na   0.373890  -0.032778
     7  Na   0.027048   0.623982
 Sum of Mulliken charges =  -0.00000   1.00000

 Dipole moment (field-independent basis, Debye):
    X=              0.1141    Y=             -0.2410    Z=              0.2473  Tot=              0.3637
 Quadrupole moment (field-independent basis, Debye-Ang):
   XX=            -48.5135   YY=            -74.6202   ZZ=            -72.0259
   XY=              2.0501   XZ=              0.4239   YZ=              4.1636

 Normal termination of Gaussian 16 at Thu Dec  7 17:37:24 2023.
