 Gaussian 16, Revision B.01,
 Gaussian 16:  ES64L-G16RevB.01 20-Dec-2017

 -------------------------
 #P B3LYP/6-311+g(d) force
 -------------------------

 -----
 DPGEN
 -----
 Symbolic Z-matrix:
 Charge =  0 Multiplicity = 2

                         Standard orientation:
 ---------------------------------------------------------------------
 Center     Atomic      Atomic             Coordinates (Angstroms)
 Number     Number       Type             X           Y           Z
 ---------------------------------------------------------------------
      1         11           0        1.453307   -2.602732   -0.409746
      2         11           0       -0.912382   -0.275186   -1.710066
      3         11           0        3.565317   -0.028224   -0.007754
      4         11           0        1.233356    2.425782   -0.022887
      5         11           0       -1.833935    2.554467   -0.025680
      6         11           0       -0.058030   -0.538638    1.931358
      7         11           0       -3.447633   -1.535470    0.244775
 ---------------------------------------------------------------------

 SCF Done:  E(UB3LYP) =  -1136.12678037     A.U. after   22 cycles

 The electronic state is 2-A.
 Alpha  occ. eigenvalues --  -38.45023 -38.44709 -38.44017 -38.43904 -38.43705
 Alpha  occ. eigenvalues --  -38.43364 -38.43117  -2.20776  -2.20507  -2.19844
 Alpha  occ. eigenvalues --   -2.19748  -2.19556  -2.19252  -2.18986  -1.14450
 Alpha  occ. eigenvalues --   -1.14436  -1.14416  -1.14181  -1.14170  -1.14151
 Alpha  occ. eigenvalues --   -1.13521  -1.13513  -1.13473  -1.13449  -1.13408
 Alpha  occ. eigenvalues --   -1.13382  -1.13230  -1.13198  -1.13159  -1.12930
 Alpha  occ. eigenvalues --   -1.12892  -1.12875  -1.12657  -1.12646  -1.12634
 Alpha  occ. eigenvalues --   -0.17988  -0.13170  -0.12289  -0.10286
 Alpha virt. eigenvalues --   -0.06783  -0.05495  -0.04401  -0.03220  -0.02742
 Alpha virt. eigenvalues --   -0.02471  -0.02134  -0.01358  -0.00771  -0.00250
 Alpha virt. eigenvalues --   -0.00121   0.00215   0.00565   0.00674   0.00737

  Beta  occ. eigenvalues --  -38.45024 -38.44710 -38.44003 -38.43901 -38.43618
  Beta  occ. eigenvalues --  -38.43302 -38.43113  -2.20779  -2.20511  -2.19820
  Beta  occ. eigenvalues --   -2.19745  -2.19396  -2.19138  -2.18981  -1.14441
  Beta  occ. eigenvalues --   -1.14437  -1.14416  -1.14186  -1.14161  -1.14152
  Beta  occ. eigenvalues --   -1.13506  -1.13471  -1.13461  -1.13450  -1.13393
  Beta  occ. eigenvalues --   -1.13376  -1.13121  -1.13085  -1.13044  -1.12851
  Beta  occ. eigenvalues --   -1.12808  -1.12794  -1.12656  -1.12644  -1.12610
  Beta  occ. eigenvalues --   -0.17308  -0.13009  -0.12073
  Beta virt. eigenvalues --   -0.06737  -0.06454  -0.05402  -0.04320  -0.02584
  Beta virt. eigenvalues --   -0.02208  -0.02019  -0.01315  -0.01258  -0.00809
  Beta virt. eigenvalues --   -0.00260   0.00067   0.00254   0.00696   0.00703

 Mulliken charges and spin densities:
               1          2
     1  Na   0.256245   0.104322
     2  Na  -0.015789   0.348866
     3  Na  -0.029758  -0.019190
     4  Na  -0.119171   0.037683
     5  Na   0.186517  -0.024284
     6  Na  -0.352422   0.652513
     7  Na   0.074379  -0.099910
 Sum of Mulliken charges =  -0.00000   1.00000

 Dipole moment (field-independent basis, Debye):
    X=             -0.3372    Y=             -0.3964    Z=              0.1078  Tot=              0.5315
 Quadrupole moment (field-independent basis, Debye-Ang):
   XX=            -49.8551   YY=            -66.1390   ZZ=            -76.8655
   XY=              0.3748   XZ=             -1.3325   YZ=              0.4248

 Normal termination of Gaussian 16 at Thu Dec  7 07:14:55 2023.
