 Gaussian 16, Revision B.01,
 Gaussian 16:  ES64L-G16RevB.01 20-Dec-2017

 -------------------------
 #P B3LYP/6-311+g(d) force
 -------------------------

 -----
 DPGEN
 -----
 Symbolic Z-matrix:
 Charge =  0 Multiplicity = 2

                         Standard orientation:
 ---------------------------------------------------------------------
 Center     Atomic      Atomic             Coordinates (Angstroms)
 Number     Number       Type             X           Y           Z
 ---------------------------------------------------------------------
      1         11           0        2.456980    1.174186    0.921402
      2         11           0        0.308621   -1.529289    1.472408
      3         11           0       -2.228180    0.776594    1.239708
      4         11           0       -2.856844   -1.839489   -0.622656
      5         11           0       -0.285115    3.057972   -0.652432
      6         11           0        2.688574   -1.876811   -0.764273
      7         11           0       -0.084035    0.236838   -1.594157
 ---------------------------------------------------------------------

 SCF Done:  E(UB3LYP) =  -1136.13330917     A.U. after   20 cycles

 The electronic state is 2-A.
 Alpha  occ. eigenvalues --  -38.44312 -38.44031 -38.43871 -38.43807 -38.43422
 Alpha  occ. eigenvalues --  -38.43135 -38.42874  -2.20142  -2.19847  -2.19711
 Alpha  occ. eigenvalues --   -2.19688  -2.19328  -2.19112  -2.18743  -1.13828
 Alpha  occ. eigenvalues --   -1.13807  -1.13757  -1.13527  -1.13511  -1.13488
 Alpha  occ. eigenvalues --   -1.13384  -1.13375  -1.13371  -1.13346  -1.13338
 Alpha  occ. eigenvalues --   -1.13295  -1.13027  -1.12992  -1.12923  -1.12837
 Alpha  occ. eigenvalues --   -1.12782  -1.12725  -1.12414  -1.12379  -1.12364
 Alpha  occ. eigenvalues --   -0.18461  -0.13217  -0.12163  -0.10782
 Alpha virt. eigenvalues --   -0.05717  -0.05309  -0.04346  -0.03517  -0.02932
 Alpha virt. eigenvalues --   -0.02417  -0.01609  -0.01192  -0.00428  -0.00038
 Alpha virt. eigenvalues --    0.00224   0.00374   0.00630   0.00755   0.00810

  Beta  occ. eigenvalues --  -38.44291 -38.44025 -38.43859 -38.43778 -38.43381
  Beta  occ. eigenvalues --  -38.43070 -38.42868  -2.20106  -2.19837  -2.19690
  Beta  occ. eigenvalues --   -2.19636  -2.19255  -2.18994  -2.18735  -1.13797
  Beta  occ. eigenvalues --   -1.13772  -1.13736  -1.13521  -1.13490  -1.13480
  Beta  occ. eigenvalues --   -1.13371  -1.13348  -1.13336  -1.13325  -1.13289
  Beta  occ. eigenvalues --   -1.13264  -1.12982  -1.12914  -1.12875  -1.12755
  Beta  occ. eigenvalues --   -1.12698  -1.12642  -1.12388  -1.12372  -1.12355
  Beta  occ. eigenvalues --   -0.17740  -0.13023  -0.11973
  Beta virt. eigenvalues --   -0.06958  -0.05541  -0.05124  -0.04271  -0.02930
  Beta virt. eigenvalues --   -0.02338  -0.01583  -0.01441  -0.01028  -0.00200
  Beta virt. eigenvalues --   -0.00038   0.00288   0.00417   0.00739   0.00782

 Mulliken charges and spin densities:
               1          2
     1  Na  -0.281632   0.087130
     2  Na   0.115355   0.391944
     3  Na  -0.177451   0.183370
     4  Na   0.107158  -0.073770
     5  Na   0.630198  -0.016420
     6  Na   0.208451  -0.061392
     7  Na  -0.602078   0.489138
 Sum of Mulliken charges =  -0.00000   1.00000

 Dipole moment (field-independent basis, Debye):
    X=              0.1898    Y=             -0.3676    Z=              0.1685  Tot=              0.4467
 Quadrupole moment (field-independent basis, Debye-Ang):
   XX=            -57.0940   YY=            -64.3146   ZZ=            -71.4930
   XY=              0.6347   XZ=              0.1127   YZ=              3.6250

 Normal termination of Gaussian 16 at Sun Dec  3 17:13:01 2023.
