 Gaussian 16, Revision B.01,
 Gaussian 16:  ES64L-G16RevB.01 20-Dec-2017

 -------------------------
 #P B3LYP/6-311+g(d) force
 -------------------------

 -----
 DPGEN
 -----
 Symbolic Z-matrix:
 Charge =  0 Multiplicity = 2

                         Standard orientation:
 ---------------------------------------------------------------------
 Center     Atomic      Atomic             Coordinates (Angstroms)
 Number     Number       Type             X           Y           Z
 ---------------------------------------------------------------------
      1         11           0        2.882233   -1.275324   -0.582381
      2         11           0       -0.960529   -2.582675    0.321518
      3         11           0        2.558134    1.687803    0.332420
      4         11           0       -3.321078    0.213949   -0.509743
      5         11           0       -0.970248    2.588478    0.240763
      6         11           0       -0.175114   -0.562449    1.976556
      7         11           0       -0.013399   -0.069783   -1.779134
 ---------------------------------------------------------------------

 SCF Done:  E(UB3LYP) =  -1136.12936487     A.U. after   19 cycles

 The electronic state is 2-A.
 Alpha  occ. eigenvalues --  -38.44557 -38.44104 -38.43927 -38.43781 -38.43777
 Alpha  occ. eigenvalues --  -38.43240 -38.43002  -2.20371  -2.19955  -2.19878
 Alpha  occ. eigenvalues --   -2.19712  -2.19622  -2.19158  -2.18849  -1.14045
 Alpha  occ. eigenvalues --   -1.14022  -1.14005  -1.13722  -1.13657  -1.13632
 Alpha  occ. eigenvalues --   -1.13576  -1.13492  -1.13461  -1.13394  -1.13356
 Alpha  occ. eigenvalues --   -1.13328  -1.13284  -1.13274  -1.13263  -1.12840
 Alpha  occ. eigenvalues --   -1.12784  -1.12736  -1.12531  -1.12522  -1.12479
 Alpha  occ. eigenvalues --   -0.18663  -0.13376  -0.12115  -0.11110
 Alpha virt. eigenvalues --   -0.06061  -0.05013  -0.04191  -0.03463  -0.03010
 Alpha virt. eigenvalues --   -0.02692  -0.01944  -0.00930  -0.00301  -0.00104
 Alpha virt. eigenvalues --   -0.00010   0.00316   0.00783   0.00864   0.00883

  Beta  occ. eigenvalues --  -38.44544 -38.44089 -38.43838 -38.43773 -38.43717
  Beta  occ. eigenvalues --  -38.43229 -38.42996  -2.20348  -2.19930  -2.19716
  Beta  occ. eigenvalues --   -2.19617  -2.19595  -2.19142  -2.18842  -1.14015
  Beta  occ. eigenvalues --   -1.14009  -1.13992  -1.13645  -1.13616  -1.13598
  Beta  occ. eigenvalues --   -1.13557  -1.13378  -1.13351  -1.13316  -1.13284
  Beta  occ. eigenvalues --   -1.13280  -1.13263  -1.13247  -1.13236  -1.12809
  Beta  occ. eigenvalues --   -1.12749  -1.12731  -1.12529  -1.12506  -1.12464
  Beta  occ. eigenvalues --   -0.17959  -0.13126  -0.11817
  Beta virt. eigenvalues --   -0.07267  -0.05961  -0.04946  -0.04100  -0.02800
  Beta virt. eigenvalues --   -0.02234  -0.01799  -0.01696  -0.00852  -0.00275
  Beta virt. eigenvalues --   -0.00123   0.00096   0.00361   0.00853   0.00884

 Mulliken charges and spin densities:
               1          2
     1  Na   0.311021   0.028114
     2  Na   0.282013  -0.032248
     3  Na  -0.109125  -0.002940
     4  Na   0.147827   0.014189
     5  Na  -0.092681   0.015186
     6  Na  -0.303057   0.477452
     7  Na  -0.235998   0.500247
 Sum of Mulliken charges =  -0.00000   1.00000

 Dipole moment (field-independent basis, Debye):
    X=             -0.1344    Y=             -0.0778    Z=             -0.1665  Tot=              0.2277
 Quadrupole moment (field-independent basis, Debye-Ang):
   XX=            -53.9577   YY=            -68.4162   ZZ=            -72.4867
   XY=             -0.0685   XZ=              1.0126   YZ=              2.2247

 Normal termination of Gaussian 16 at Thu Dec  7 09:23:37 2023.
