 Gaussian 16, Revision B.01,
 Gaussian 16:  ES64L-G16RevB.01 20-Dec-2017

 -------------------------
 #P B3LYP/6-311+g(d) force
 -------------------------

 -----
 DPGEN
 -----
 Symbolic Z-matrix:
 Charge =  0 Multiplicity = 2

                         Standard orientation:
 ---------------------------------------------------------------------
 Center     Atomic      Atomic             Coordinates (Angstroms)
 Number     Number       Type             X           Y           Z
 ---------------------------------------------------------------------
      1         11           0       -2.711562    2.015709    0.242115
      2         11           0        2.341411   -1.805330   -0.370494
      3         11           0       -3.450169   -1.305335    0.226536
      4         11           0        0.428652   -0.276347    1.887953
      5         11           0       -0.646963   -1.387461   -1.058600
      6         11           0        3.735795    1.041224    0.318184
      7         11           0        0.302836    1.717540   -1.245694
 ---------------------------------------------------------------------

 SCF Done:  E(UB3LYP) =  -1136.11495903     A.U. after   28 cycles

 The electronic state is 2-A.
 Alpha  occ. eigenvalues --  -38.45600 -38.45060 -38.44861 -38.43997 -38.43810
 Alpha  occ. eigenvalues --  -38.42827 -38.42624  -2.21434  -2.20864  -2.20687
 Alpha  occ. eigenvalues --   -2.19903  -2.19622  -2.18712  -2.18631  -1.15145
 Alpha  occ. eigenvalues --   -1.15080  -1.15040  -1.14547  -1.14510  -1.14490
 Alpha  occ. eigenvalues --   -1.14385  -1.14328  -1.14323  -1.13605  -1.13560
 Alpha  occ. eigenvalues --   -1.13536  -1.13296  -1.13284  -1.13275  -1.12440
 Alpha  occ. eigenvalues --   -1.12362  -1.12325  -1.12309  -1.12280  -1.12230
 Alpha  occ. eigenvalues --   -0.18583  -0.14225  -0.11207  -0.10644
 Alpha virt. eigenvalues --   -0.07473  -0.05785  -0.03779  -0.03179  -0.03137
 Alpha virt. eigenvalues --   -0.02416  -0.02145  -0.01483  -0.00548  -0.00510
 Alpha virt. eigenvalues --   -0.00034   0.00181   0.00382   0.00579   0.00628

  Beta  occ. eigenvalues --  -38.45562 -38.45033 -38.44851 -38.43981 -38.43810
  Beta  occ. eigenvalues --  -38.42773 -38.42574  -2.21364  -2.20814  -2.20670
  Beta  occ. eigenvalues --   -2.19882  -2.19625  -2.18615  -2.18544  -1.15088
  Beta  occ. eigenvalues --   -1.15034  -1.14986  -1.14517  -1.14462  -1.14458
  Beta  occ. eigenvalues --   -1.14373  -1.14317  -1.14306  -1.13582  -1.13529
  Beta  occ. eigenvalues --   -1.13509  -1.13300  -1.13282  -1.13266  -1.12367
  Beta  occ. eigenvalues --   -1.12287  -1.12263  -1.12250  -1.12209  -1.12151
  Beta  occ. eigenvalues --   -0.17886  -0.13879  -0.11038
  Beta virt. eigenvalues --   -0.07258  -0.06857  -0.05744  -0.03167  -0.03038
  Beta virt. eigenvalues --   -0.02843  -0.01914  -0.01470  -0.01347  -0.00488
  Beta virt. eigenvalues --   -0.00184   0.00030   0.00188   0.00544   0.00673

 Mulliken charges and spin densities:
               1          2
     1  Na  -0.062786  -0.038275
     2  Na   0.222154   0.010031
     3  Na   0.440913   0.269160
     4  Na  -0.421943   0.294910
     5  Na  -0.009069   0.115760
     6  Na   0.261870   0.231775
     7  Na  -0.431138   0.116640
 Sum of Mulliken charges =  -0.00000   1.00000

 Dipole moment (field-independent basis, Debye):
    X=              0.3827    Y=             -0.1058    Z=              0.4844  Tot=              0.6264
 Quadrupole moment (field-independent basis, Debye-Ang):
   XX=            -48.4328   YY=            -74.9450   ZZ=            -71.3931
   XY=              0.6983   XZ=             -2.1057   YZ=              1.4947

 Normal termination of Gaussian 16 at Fri Dec  8 03:11:28 2023.
