 Gaussian 16, Revision B.01,
 Gaussian 16:  ES64L-G16RevB.01 20-Dec-2017

 -------------------------
 #P B3LYP/6-311+g(d) force
 -------------------------

 -----
 DPGEN
 -----
 Symbolic Z-matrix:
 Charge =  0 Multiplicity = 2

                         Standard orientation:
 ---------------------------------------------------------------------
 Center     Atomic      Atomic             Coordinates (Angstroms)
 Number     Number       Type             X           Y           Z
 ---------------------------------------------------------------------
      1         11           0       -0.470371    1.365056    0.649143
      2         11           0        0.887127    3.927805   -0.495518
      3         11           0        3.140204    0.553266    0.063085
      4         11           0        0.847926   -1.987087    0.174972
      5         11           0       -2.494194   -0.719771    1.209802
      6         11           0        4.226795   -2.311527   -0.618773
      7         11           0       -6.137487   -0.827742   -0.982710
 ---------------------------------------------------------------------

 SCF Done:  E(UB3LYP) =  -1136.11736815     A.U. after   21 cycles

 The electronic state is 2-A.
 Alpha  occ. eigenvalues --  -38.45237 -38.44558 -38.44532 -38.44525 -38.43436
 Alpha  occ. eigenvalues --  -38.43307 -38.43149  -2.21016  -2.20402  -2.20369
 Alpha  occ. eigenvalues --   -2.20358  -2.19269  -2.19116  -2.19088  -1.14641
 Alpha  occ. eigenvalues --   -1.14641  -1.14615  -1.14134  -1.14116  -1.14081
 Alpha  occ. eigenvalues --   -1.14065  -1.14061  -1.14011  -1.14008  -1.13926
 Alpha  occ. eigenvalues --   -1.13913  -1.13073  -1.12922  -1.12898  -1.12839
 Alpha  occ. eigenvalues --   -1.12776  -1.12766  -1.12750  -1.12740  -1.12628
 Alpha  occ. eigenvalues --   -0.16977  -0.13770  -0.12536  -0.11330
 Alpha virt. eigenvalues --   -0.06034  -0.05706  -0.04264  -0.04034  -0.02565
 Alpha virt. eigenvalues --   -0.02364  -0.01960  -0.01547  -0.01448  -0.00740
 Alpha virt. eigenvalues --   -0.00660  -0.00051   0.00053   0.00327   0.00635

  Beta  occ. eigenvalues --  -38.45083 -38.44552 -38.44516 -38.44510 -38.43444
  Beta  occ. eigenvalues --  -38.43300 -38.43141  -2.20727  -2.20392  -2.20342
  Beta  occ. eigenvalues --   -2.20328  -2.19289  -2.19102  -2.19075  -1.14445
  Beta  occ. eigenvalues --   -1.14445  -1.14421  -1.14121  -1.14105  -1.14071
  Beta  occ. eigenvalues --   -1.14041  -1.14037  -1.13998  -1.13996  -1.13908
  Beta  occ. eigenvalues --   -1.13888  -1.13079  -1.12939  -1.12889  -1.12827
  Beta  occ. eigenvalues --   -1.12767  -1.12761  -1.12743  -1.12729  -1.12613
  Beta  occ. eigenvalues --   -0.16718  -0.13401  -0.11837
  Beta virt. eigenvalues --   -0.07454  -0.05816  -0.05432  -0.04042  -0.03898
  Beta virt. eigenvalues --   -0.02254  -0.02166  -0.01425  -0.01256  -0.00937
  Beta virt. eigenvalues --   -0.00512  -0.00196   0.00142   0.00196   0.00504

 Mulliken charges and spin densities:
               1          2
     1  Na  -1.184157   0.043175
     2  Na   0.566117  -0.023386
     3  Na  -0.515272   0.089214
     4  Na  -0.398372   0.113523
     5  Na   0.267981  -0.109267
     6  Na   1.124806   0.054483
     7  Na   0.138897   0.832258
 Sum of Mulliken charges =  -0.00000   1.00000

 Dipole moment (field-independent basis, Debye):
    X=              1.6769    Y=             -1.0829    Z=             -0.5376  Tot=              2.0673
 Quadrupole moment (field-independent basis, Debye-Ang):
   XX=            -60.4043   YY=            -63.8482   ZZ=            -71.2464
   XY=             -6.4956   XZ=             -1.2187   YZ=              0.4852

 Normal termination of Gaussian 16 at Wed Nov 29 00:51:27 2023.
