 Gaussian 16, Revision B.01,
 Gaussian 16:  ES64L-G16RevB.01 20-Dec-2017

 -------------------------
 #P B3LYP/6-311+g(d) force
 -------------------------

 -----
 DPGEN
 -----
 Symbolic Z-matrix:
 Charge =  0 Multiplicity = 2

                         Standard orientation:
 ---------------------------------------------------------------------
 Center     Atomic      Atomic             Coordinates (Angstroms)
 Number     Number       Type             X           Y           Z
 ---------------------------------------------------------------------
      1         11           0        1.282217    0.130949    1.405988
      2         11           0       -2.377652   -1.628479    1.970642
      3         11           0       -1.539742   -1.339925   -1.838834
      4         11           0        1.964680   -1.980491   -0.878684
      5         11           0        4.109183    0.662895    0.044817
      6         11           0       -3.010966    1.222774   -0.500330
      7         11           0       -0.427720    2.932277   -0.203599
 ---------------------------------------------------------------------

 SCF Done:  E(UB3LYP) =  -1136.11698797     A.U. after   22 cycles

 The electronic state is 2-A.
 Alpha  occ. eigenvalues --  -38.45581 -38.44457 -38.44319 -38.44118 -38.44069
 Alpha  occ. eigenvalues --  -38.43660 -38.43212  -2.21379  -2.20334  -2.20111
 Alpha  occ. eigenvalues --   -2.19951  -2.19930  -2.19479  -2.19017  -1.15059
 Alpha  occ. eigenvalues --   -1.15031  -1.15014  -1.14042  -1.13985  -1.13962
 Alpha  occ. eigenvalues --   -1.13759  -1.13755  -1.13720  -1.13643  -1.13622
 Alpha  occ. eigenvalues --   -1.13619  -1.13598  -1.13563  -1.13549  -1.13145
 Alpha  occ. eigenvalues --   -1.13130  -1.13111  -1.12691  -1.12676  -1.12665
 Alpha  occ. eigenvalues --   -0.17408  -0.14112  -0.11502  -0.10906
 Alpha virt. eigenvalues --   -0.06935  -0.05424  -0.04769  -0.03424  -0.02695
 Alpha virt. eigenvalues --   -0.02526  -0.02378  -0.01169  -0.00815  -0.00433
 Alpha virt. eigenvalues --   -0.00244   0.00145   0.00221   0.00657   0.00743

  Beta  occ. eigenvalues --  -38.45581 -38.44433 -38.44226 -38.44097 -38.44055
  Beta  occ. eigenvalues --  -38.43623 -38.43219  -2.21380  -2.20288  -2.19938
  Beta  occ. eigenvalues --   -2.19913  -2.19906  -2.19411  -2.19030  -1.15055
  Beta  occ. eigenvalues --   -1.15032  -1.15015  -1.14009  -1.13959  -1.13921
  Beta  occ. eigenvalues --   -1.13641  -1.13632  -1.13618  -1.13607  -1.13596
  Beta  occ. eigenvalues --   -1.13588  -1.13586  -1.13537  -1.13519  -1.13099
  Beta  occ. eigenvalues --   -1.13079  -1.13060  -1.12702  -1.12684  -1.12667
  Beta  occ. eigenvalues --   -0.16924  -0.13880  -0.11212
  Beta virt. eigenvalues --   -0.07140  -0.06788  -0.05174  -0.04308  -0.03245
  Beta virt. eigenvalues --   -0.02347  -0.02141  -0.01600  -0.01086  -0.00467
  Beta virt. eigenvalues --   -0.00338  -0.00169   0.00232   0.00371   0.00758

 Mulliken charges and spin densities:
               1          2
     1  Na   0.409564   0.195908
     2  Na  -0.427295   0.342734
     3  Na   0.045798   0.209267
     4  Na  -0.633386   0.112919
     5  Na   0.543003  -0.007657
     6  Na   0.589682   0.256010
     7  Na  -0.527366  -0.109181
 Sum of Mulliken charges =  -0.00000   1.00000

 Dipole moment (field-independent basis, Debye):
    X=              1.7481    Y=              0.0113    Z=             -0.2191  Tot=              1.7618
 Quadrupole moment (field-independent basis, Debye-Ang):
   XX=            -47.7187   YY=            -74.8995   ZZ=            -72.8355
   XY=              2.6875   XZ=             -1.5132   YZ=             -1.1193

 Normal termination of Gaussian 16 at Tue Nov 28 21:15:46 2023.
