 Gaussian 16, Revision B.01,
 Gaussian 16:  ES64L-G16RevB.01 20-Dec-2017

 -------------------------
 #P B3LYP/6-311+g(d) force
 -------------------------

 -----
 DPGEN
 -----
 Symbolic Z-matrix:
 Charge =  0 Multiplicity = 2

                         Standard orientation:
 ---------------------------------------------------------------------
 Center     Atomic      Atomic             Coordinates (Angstroms)
 Number     Number       Type             X           Y           Z
 ---------------------------------------------------------------------
      1         11           0       -0.263343    0.131650    1.932764
      2         11           0        2.733758   -0.891538   -0.284587
      3         11           0        0.190285   -2.551006    0.380027
      4         11           0       -2.850889   -1.141317   -0.337107
      5         11           0       -1.616544    2.365380   -0.032065
      6         11           0        0.042373    0.089787   -1.817027
      7         11           0        1.764360    1.997045    0.157996
 ---------------------------------------------------------------------

 SCF Done:  E(UB3LYP) =  -1136.13584815     A.U. after   19 cycles

 The electronic state is 2-A.
 Alpha  occ. eigenvalues --  -38.43797 -38.43584 -38.43437 -38.43428 -38.43386
 Alpha  occ. eigenvalues --  -38.43264 -38.43072  -2.19636  -2.19569  -2.19445
 Alpha  occ. eigenvalues --   -2.19366  -2.19272  -2.19214  -2.19013  -1.13318
 Alpha  occ. eigenvalues --   -1.13299  -1.13278  -1.13255  -1.13236  -1.13184
 Alpha  occ. eigenvalues --   -1.13167  -1.13113  -1.13093  -1.13065  -1.13029
 Alpha  occ. eigenvalues --   -1.12993  -1.12943  -1.12935  -1.12900  -1.12870
 Alpha  occ. eigenvalues --   -1.12860  -1.12805  -1.12698  -1.12662  -1.12624
 Alpha  occ. eigenvalues --   -0.19489  -0.13085  -0.12690  -0.11321
 Alpha virt. eigenvalues --   -0.05284  -0.04929  -0.04326  -0.03325  -0.03147
 Alpha virt. eigenvalues --   -0.02818  -0.01299  -0.00943  -0.00081   0.00119
 Alpha virt. eigenvalues --    0.00202   0.00373   0.00877   0.00952   0.01005

  Beta  occ. eigenvalues --  -38.43791 -38.43494 -38.43422 -38.43381 -38.43359
  Beta  occ. eigenvalues --  -38.43255 -38.43059  -2.19628  -2.19405  -2.19358
  Beta  occ. eigenvalues --   -2.19302  -2.19266  -2.19202  -2.18995  -1.13304
  Beta  occ. eigenvalues --   -1.13280  -1.13273  -1.13162  -1.13121  -1.13112
  Beta  occ. eigenvalues --   -1.13077  -1.13071  -1.13035  -1.12994  -1.12981
  Beta  occ. eigenvalues --   -1.12943  -1.12919  -1.12907  -1.12886  -1.12856
  Beta  occ. eigenvalues --   -1.12820  -1.12799  -1.12680  -1.12624  -1.12614
  Beta  occ. eigenvalues --   -0.18715  -0.12811  -0.12409
  Beta virt. eigenvalues --   -0.07332  -0.05263  -0.04914  -0.04323  -0.02507
  Beta virt. eigenvalues --   -0.02297  -0.01732  -0.01211  -0.00893   0.00034
  Beta virt. eigenvalues --    0.00068   0.00179   0.00385   0.00931   0.00937

 Mulliken charges and spin densities:
               1          2
     1  Na  -0.487099   0.543981
     2  Na   0.164279   0.001517
     3  Na   0.344388   0.037420
     4  Na   0.010593  -0.080962
     5  Na   0.141851  -0.113566
     6  Na  -0.558073   0.606024
     7  Na   0.384060   0.005587
 Sum of Mulliken charges =  -0.00000   1.00000

 Dipole moment (field-independent basis, Debye):
    X=             -0.3737    Y=              0.0891    Z=             -0.0307  Tot=              0.3854
 Quadrupole moment (field-independent basis, Debye-Ang):
   XX=            -58.5214   YY=            -64.8245   ZZ=            -71.4279
   XY=             -0.1438   XZ=              0.6700   YZ=              0.1474

 Normal termination of Gaussian 16 at Thu Dec  7 23:32:09 2023.
