 Gaussian 16, Revision B.01,
 Gaussian 16:  ES64L-G16RevB.01 20-Dec-2017

 -------------------------
 #P B3LYP/6-311+g(d) force
 -------------------------

 -----
 DPGEN
 -----
 Symbolic Z-matrix:
 Charge =  0 Multiplicity = 2

                         Standard orientation:
 ---------------------------------------------------------------------
 Center     Atomic      Atomic             Coordinates (Angstroms)
 Number     Number       Type             X           Y           Z
 ---------------------------------------------------------------------
      1         11           0       -3.629349   -0.615329   -0.497283
      2         11           0        3.871300   -1.278194    0.245693
      3         11           0        0.585167    0.324666    1.676108
      4         11           0        2.003109    2.023879   -0.757855
      5         11           0       -2.036447    2.048674    0.696023
      6         11           0       -1.117044   -2.396966    0.250491
      7         11           0        0.323263   -0.106731   -1.613176
 ---------------------------------------------------------------------

 SCF Done:  E(UB3LYP) =  -1136.11380317     A.U. after   27 cycles

 The electronic state is 2-A.
 Alpha  occ. eigenvalues --  -38.45621 -38.45054 -38.43888 -38.43876 -38.43562
 Alpha  occ. eigenvalues --  -38.43423 -38.43299  -2.21360  -2.20879  -2.19865
 Alpha  occ. eigenvalues --   -2.19779  -2.19505  -2.19280  -2.19135  -1.15029
 Alpha  occ. eigenvalues --   -1.15020  -1.14973  -1.14549  -1.14535  -1.14527
 Alpha  occ. eigenvalues --   -1.13762  -1.13557  -1.13448  -1.13423  -1.13354
 Alpha  occ. eigenvalues --   -1.13342  -1.13205  -1.13149  -1.13108  -1.12972
 Alpha  occ. eigenvalues --   -1.12943  -1.12912  -1.12812  -1.12800  -1.12766
 Alpha  occ. eigenvalues --   -0.18447  -0.13858  -0.11394  -0.10634
 Alpha virt. eigenvalues --   -0.07423  -0.05351  -0.03860  -0.03383  -0.02821
 Alpha virt. eigenvalues --   -0.02378  -0.02234  -0.01537  -0.00626  -0.00157
 Alpha virt. eigenvalues --    0.00005   0.00029   0.00501   0.00611   0.00754

  Beta  occ. eigenvalues --  -38.45591 -38.45054 -38.43839 -38.43822 -38.43496
  Beta  occ. eigenvalues --  -38.43430 -38.43294  -2.21305  -2.20878  -2.19752
  Beta  occ. eigenvalues --   -2.19710  -2.19385  -2.19296  -2.19129  -1.14990
  Beta  occ. eigenvalues --   -1.14976  -1.14939  -1.14554  -1.14534  -1.14518
  Beta  occ. eigenvalues --   -1.13684  -1.13465  -1.13375  -1.13364  -1.13308
  Beta  occ. eigenvalues --   -1.13273  -1.13125  -1.13069  -1.13014  -1.12984
  Beta  occ. eigenvalues --   -1.12938  -1.12916  -1.12800  -1.12786  -1.12762
  Beta  occ. eigenvalues --   -0.17833  -0.13588  -0.11132
  Beta virt. eigenvalues --   -0.07318  -0.06788  -0.05245  -0.03646  -0.02943
  Beta virt. eigenvalues --   -0.02698  -0.01759  -0.01410  -0.01279  -0.00400
  Beta virt. eigenvalues --   -0.00101  -0.00008   0.00087   0.00637   0.00695

 Mulliken charges and spin densities:
               1          2
     1  Na   0.004808  -0.044863
     2  Na  -0.086390   0.121375
     3  Na  -0.264419   0.533416
     4  Na   0.158850   0.031025
     5  Na   0.023143   0.038878
     6  Na   0.217450   0.019075
     7  Na  -0.053443   0.301093
 Sum of Mulliken charges =  -0.00000   1.00000

 Dipole moment (field-independent basis, Debye):
    X=              0.3986    Y=             -0.1428    Z=             -0.1398  Tot=              0.4459
 Quadrupole moment (field-independent basis, Debye-Ang):
   XX=            -44.8362   YY=            -71.7739   ZZ=            -75.3672
   XY=             -1.0968   XZ=              1.0307   YZ=             -1.2013

 Normal termination of Gaussian 16 at Tue Dec  5 12:44:26 2023.
