 Gaussian 16, Revision B.01,
 Gaussian 16:  ES64L-G16RevB.01 20-Dec-2017

 -------------------------
 #P B3LYP/6-311+g(d) force
 -------------------------

 -----
 DPGEN
 -----
 Symbolic Z-matrix:
 Charge =  0 Multiplicity = 2

                         Standard orientation:
 ---------------------------------------------------------------------
 Center     Atomic      Atomic             Coordinates (Angstroms)
 Number     Number       Type             X           Y           Z
 ---------------------------------------------------------------------
      1         11           0       -1.264878    1.283744    0.554028
      2         11           0        0.312407   -0.478553   -1.597761
      3         11           0        1.188904    3.204385   -0.678670
      4         11           0        1.979014    0.533674    1.452304
      5         11           0       -3.839083   -0.519118   -0.505866
      6         11           0       -0.787631   -1.443543    1.463143
      7         11           0        2.411266   -2.580590   -0.687178
 ---------------------------------------------------------------------

 SCF Done:  E(UB3LYP) =  -1136.12890307     A.U. after   19 cycles

 The electronic state is 2-A.
 Alpha  occ. eigenvalues --  -38.44258 -38.43830 -38.43787 -38.43705 -38.43480
 Alpha  occ. eigenvalues --  -38.43181 -38.43007  -2.20052  -2.19777  -2.19683
 Alpha  occ. eigenvalues --   -2.19654  -2.19309  -2.19036  -2.19008  -1.13729
 Alpha  occ. eigenvalues --   -1.13711  -1.13677  -1.13582  -1.13426  -1.13400
 Alpha  occ. eigenvalues --   -1.13359  -1.13339  -1.13334  -1.13310  -1.13276
 Alpha  occ. eigenvalues --   -1.13261  -1.12978  -1.12959  -1.12924  -1.12768
 Alpha  occ. eigenvalues --   -1.12727  -1.12680  -1.12662  -1.12652  -1.12568
 Alpha  occ. eigenvalues --   -0.18740  -0.12910  -0.12217  -0.11099
 Alpha virt. eigenvalues --   -0.05989  -0.04715  -0.04408  -0.03108  -0.02794
 Alpha virt. eigenvalues --   -0.02484  -0.01881  -0.01244  -0.00630   0.00027
 Alpha virt. eigenvalues --    0.00220   0.00379   0.00643   0.00803   0.00831

  Beta  occ. eigenvalues --  -38.44253 -38.43774 -38.43743 -38.43649 -38.43466
  Beta  occ. eigenvalues --  -38.43172 -38.42988  -2.20042  -2.19678  -2.19605
  Beta  occ. eigenvalues --   -2.19552  -2.19284  -2.19008  -2.18992  -1.13723
  Beta  occ. eigenvalues --   -1.13698  -1.13672  -1.13513  -1.13346  -1.13333
  Beta  occ. eigenvalues --   -1.13284  -1.13269  -1.13261  -1.13240  -1.13224
  Beta  occ. eigenvalues --   -1.13189  -1.12945  -1.12943  -1.12908  -1.12750
  Beta  occ. eigenvalues --   -1.12688  -1.12650  -1.12643  -1.12628  -1.12557
  Beta  occ. eigenvalues --   -0.17949  -0.12733  -0.11997
  Beta virt. eigenvalues --   -0.07115  -0.05825  -0.04501  -0.04304  -0.02605
  Beta virt. eigenvalues --   -0.02334  -0.01762  -0.01539  -0.01145  -0.00256
  Beta virt. eigenvalues --    0.00015   0.00248   0.00486   0.00767   0.00845

 Mulliken charges and spin densities:
               1          2
     1  Na  -0.096622   0.392576
     2  Na  -0.252235   0.645081
     3  Na   0.214348  -0.140125
     4  Na   0.157201   0.197855
     5  Na   0.238742  -0.089124
     6  Na  -0.088924   0.140134
     7  Na  -0.172511  -0.146398
 Sum of Mulliken charges =  -0.00000   1.00000

 Dipole moment (field-independent basis, Debye):
    X=             -0.2043    Y=             -0.3221    Z=             -0.0401  Tot=              0.3835
 Quadrupole moment (field-independent basis, Debye-Ang):
   XX=            -55.4249   YY=            -65.1135   ZZ=            -70.4844
   XY=              1.4321   XZ=              2.9653   YZ=             -1.7314

 Normal termination of Gaussian 16 at Wed Dec  6 01:01:46 2023.
