 Gaussian 16, Revision B.01,
 Gaussian 16:  ES64L-G16RevB.01 20-Dec-2017

 -------------------------
 #P B3LYP/6-311+g(d) force
 -------------------------

 -----
 DPGEN
 -----
 Symbolic Z-matrix:
 Charge =  0 Multiplicity = 2

                         Standard orientation:
 ---------------------------------------------------------------------
 Center     Atomic      Atomic             Coordinates (Angstroms)
 Number     Number       Type             X           Y           Z
 ---------------------------------------------------------------------
      1         11           0        0.288923    0.083886    1.888758
      2         11           0        0.220359    2.527990   -0.034122
      3         11           0        2.568594    0.694431   -0.341284
      4         11           0        1.423953   -2.148796    0.199151
      5         11           0       -0.228871   -0.317477   -1.880552
      6         11           0       -1.754252   -1.953939    0.062412
      7         11           0       -2.518706    1.113904    0.105636
 ---------------------------------------------------------------------

 SCF Done:  E(UB3LYP) =  -1136.12727228     A.U. after   19 cycles

 The electronic state is 2-A.
 Alpha  occ. eigenvalues --  -38.43674 -38.43658 -38.43392 -38.43353 -38.43278
 Alpha  occ. eigenvalues --  -38.43180 -38.43112  -2.19731  -2.19710  -2.19378
 Alpha  occ. eigenvalues --   -2.19297  -2.19260  -2.19181  -2.19106  -1.13463
 Alpha  occ. eigenvalues --   -1.13429  -1.13408  -1.13362  -1.13347  -1.13330
 Alpha  occ. eigenvalues --   -1.13111  -1.13066  -1.13015  -1.13011  -1.13004
 Alpha  occ. eigenvalues --   -1.12948  -1.12941  -1.12908  -1.12856  -1.12839
 Alpha  occ. eigenvalues --   -1.12819  -1.12763  -1.12760  -1.12738  -1.12700
 Alpha  occ. eigenvalues --   -0.20244  -0.13239  -0.12975  -0.11700
 Alpha virt. eigenvalues --   -0.04867  -0.04717  -0.04457  -0.03448  -0.03278
 Alpha virt. eigenvalues --   -0.02937  -0.00971  -0.00773  -0.00083   0.00365
 Alpha virt. eigenvalues --    0.00416   0.00456   0.00994   0.01055   0.01057

  Beta  occ. eigenvalues --  -38.43586 -38.43573 -38.43381 -38.43348 -38.43269
  Beta  occ. eigenvalues --  -38.43168 -38.43103  -2.19571  -2.19555  -2.19362
  Beta  occ. eigenvalues --   -2.19291  -2.19250  -2.19165  -2.19095  -1.13372
  Beta  occ. eigenvalues --   -1.13330  -1.13295  -1.13255  -1.13236  -1.13221
  Beta  occ. eigenvalues --   -1.13103  -1.13054  -1.13014  -1.12998  -1.12960
  Beta  occ. eigenvalues --   -1.12937  -1.12905  -1.12864  -1.12848  -1.12823
  Beta  occ. eigenvalues --   -1.12771  -1.12758  -1.12752  -1.12700  -1.12693
  Beta  occ. eigenvalues --   -0.19437  -0.12948  -0.12665
  Beta virt. eigenvalues --   -0.07635  -0.04855  -0.04713  -0.04462  -0.02574
  Beta virt. eigenvalues --   -0.02395  -0.01819  -0.00906  -0.00717   0.00067
  Beta virt. eigenvalues --    0.00361   0.00375   0.00405   0.01032   0.01041

 Mulliken charges and spin densities:
               1          2
     1  Na  -0.970287   0.508333
     2  Na   0.354530   0.012914
     3  Na   0.312204   0.021140
     4  Na   0.593815   0.012106
     5  Na  -0.976316   0.509373
     6  Na   0.522328  -0.008062
     7  Na   0.163726  -0.055804
 Sum of Mulliken charges =  -0.00000   1.00000

 Dipole moment (field-independent basis, Debye):
    X=             -0.0708    Y=             -0.0355    Z=             -0.0123  Tot=              0.0801
 Quadrupole moment (field-independent basis, Debye-Ang):
   XX=            -61.7395   YY=            -65.1706   ZZ=            -69.5507
   XY=             -0.1390   XZ=             -1.1077   YZ=             -0.7508

 Normal termination of Gaussian 16 at Fri Dec  8 19:56:02 2023.
