 Gaussian 16, Revision B.01,
 Gaussian 16:  ES64L-G16RevB.01 20-Dec-2017

 -------------------------
 #P B3LYP/6-311+g(d) force
 -------------------------

 -----
 DPGEN
 -----
 Symbolic Z-matrix:
 Charge =  0 Multiplicity = 2

                         Standard orientation:
 ---------------------------------------------------------------------
 Center     Atomic      Atomic             Coordinates (Angstroms)
 Number     Number       Type             X           Y           Z
 ---------------------------------------------------------------------
      1         11           0       -4.063095   -1.617835    1.250239
      2         11           0        1.037378   -0.078891   -1.189303
      3         11           0       -1.656785    3.204181   -0.309846
      4         11           0       -2.185636   -3.267347   -0.676217
      5         11           0        6.295699    0.045950    1.647250
      6         11           0        4.888596   -0.132085   -0.995692
      7         11           0       -4.316158    1.846027    0.273569
 ---------------------------------------------------------------------

 SCF Done:  E(UB3LYP) =  -1136.10327608     A.U. after   19 cycles

 The electronic state is 2-A.
 Alpha  occ. eigenvalues --  -38.45645 -38.45059 -38.44395 -38.44093 -38.44083
 Alpha  occ. eigenvalues --  -38.44062 -38.43942  -2.21405  -2.20877  -2.20198
 Alpha  occ. eigenvalues --   -2.19899  -2.19885  -2.19857  -2.19731  -1.15056
 Alpha  occ. eigenvalues --   -1.15036  -1.15010  -1.14564  -1.14508  -1.14505
 Alpha  occ. eigenvalues --   -1.13873  -1.13860  -1.13844  -1.13622  -1.13615
 Alpha  occ. eigenvalues --   -1.13566  -1.13558  -1.13540  -1.13521  -1.13515
 Alpha  occ. eigenvalues --   -1.13508  -1.13451  -1.13391  -1.13379  -1.13348
 Alpha  occ. eigenvalues --   -0.15434  -0.14308  -0.11942  -0.11867
 Alpha virt. eigenvalues --   -0.06904  -0.05099  -0.04882  -0.03550  -0.03108
 Alpha virt. eigenvalues --   -0.02699  -0.02462  -0.01525  -0.01157  -0.00909
 Alpha virt. eigenvalues --   -0.00701  -0.00436  -0.00218   0.00086   0.00617

  Beta  occ. eigenvalues --  -38.45529 -38.44998 -38.44403 -38.44087 -38.44074
  Beta  occ. eigenvalues --  -38.44038 -38.43950  -2.21188  -2.20763  -2.20220
  Beta  occ. eigenvalues --   -2.19866  -2.19862  -2.19839  -2.19746  -1.14909
  Beta  occ. eigenvalues --   -1.14885  -1.14867  -1.14490  -1.14429  -1.14426
  Beta  occ. eigenvalues --   -1.13881  -1.13880  -1.13828  -1.13610  -1.13598
  Beta  occ. eigenvalues --   -1.13543  -1.13534  -1.13522  -1.13510  -1.13508
  Beta  occ. eigenvalues --   -1.13484  -1.13442  -1.13402  -1.13386  -1.13342
  Beta  occ. eigenvalues --   -0.14734  -0.13728  -0.11996
  Beta virt. eigenvalues --   -0.08337  -0.06301  -0.04707  -0.04414  -0.03287
  Beta virt. eigenvalues --   -0.02886  -0.02507  -0.02169  -0.01502  -0.00839
  Beta virt. eigenvalues --   -0.00744  -0.00443  -0.00234   0.00069   0.00209

 Mulliken charges and spin densities:
               1          2
     1  Na  -0.053140   0.122985
     2  Na  -0.454638   0.638276
     3  Na   0.573610  -0.066348
     4  Na   0.301443  -0.043884
     5  Na   0.329531   0.262041
     6  Na  -0.414028  -0.024333
     7  Na  -0.282778   0.111263
 Sum of Mulliken charges =  -0.00000   1.00000

 Dipole moment (field-independent basis, Debye):
    X=              1.2500    Y=             -0.0562    Z=              0.4578  Tot=              1.3324
 Quadrupole moment (field-independent basis, Debye-Ang):
   XX=            -59.6099   YY=            -73.5489   ZZ=            -65.1928
   XY=              0.4059   XZ=              1.9957   YZ=              2.0649

 Normal termination of Gaussian 16 at Sun Dec  3 16:15:18 2023.
