 Gaussian 16, Revision B.01,
 Gaussian 16:  ES64L-G16RevB.01 20-Dec-2017

 -------------------------
 #P B3LYP/6-311+g(d) force
 -------------------------

 -----
 DPGEN
 -----
 Symbolic Z-matrix:
 Charge =  0 Multiplicity = 2

                         Standard orientation:
 ---------------------------------------------------------------------
 Center     Atomic      Atomic             Coordinates (Angstroms)
 Number     Number       Type             X           Y           Z
 ---------------------------------------------------------------------
      1         11           0        4.353819   -0.359712    1.005916
      2         11           0       -2.203937   -1.756609   -1.147449
      3         11           0        0.471126   -0.411459    1.399504
      4         11           0       -4.056557   -0.021572    1.144525
      5         11           0       -1.476978    2.177973   -0.201567
      6         11           0        1.599034    1.856189   -1.161990
      7         11           0        1.313493   -1.484811   -1.038940
 ---------------------------------------------------------------------

 SCF Done:  E(UB3LYP) =  -1136.11612063     A.U. after   24 cycles

 The electronic state is 2-A.
 Alpha  occ. eigenvalues --  -38.46025 -38.44722 -38.44324 -38.43927 -38.43865
 Alpha  occ. eigenvalues --  -38.43197 -38.42696  -2.21902  -2.20512  -2.20133
 Alpha  occ. eigenvalues --   -2.19810  -2.19745  -2.19065  -2.18541  -1.15720
 Alpha  occ. eigenvalues --   -1.15524  -1.15489  -1.14171  -1.14158  -1.14108
 Alpha  occ. eigenvalues --   -1.13793  -1.13774  -1.13760  -1.13566  -1.13445
 Alpha  occ. eigenvalues --   -1.13427  -1.13410  -1.13386  -1.13358  -1.12753
 Alpha  occ. eigenvalues --   -1.12727  -1.12695  -1.12237  -1.12218  -1.12158
 Alpha  occ. eigenvalues --   -0.18135  -0.14094  -0.11314  -0.10997
 Alpha virt. eigenvalues --   -0.07017  -0.05308  -0.04705  -0.03132  -0.03055
 Alpha virt. eigenvalues --   -0.02327  -0.02063  -0.01340  -0.01165  -0.00221
 Alpha virt. eigenvalues --   -0.00166   0.00238   0.00320   0.00421   0.00747

  Beta  occ. eigenvalues --  -38.46032 -38.44638 -38.44270 -38.43902 -38.43828
  Beta  occ. eigenvalues --  -38.43193 -38.42698  -2.21916  -2.20355  -2.20032
  Beta  occ. eigenvalues --   -2.19747  -2.19703  -2.19058  -2.18546  -1.15715
  Beta  occ. eigenvalues --   -1.15538  -1.15497  -1.14062  -1.14050  -1.14007
  Beta  occ. eigenvalues --   -1.13725  -1.13705  -1.13694  -1.13532  -1.13399
  Beta  occ. eigenvalues --   -1.13393  -1.13377  -1.13336  -1.13289  -1.12737
  Beta  occ. eigenvalues --   -1.12722  -1.12694  -1.12241  -1.12217  -1.12152
  Beta  occ. eigenvalues --   -0.17625  -0.13480  -0.11008
  Beta virt. eigenvalues --   -0.07544  -0.06826  -0.04563  -0.04545  -0.03032
  Beta virt. eigenvalues --   -0.02749  -0.01975  -0.01478  -0.01099  -0.00857
  Beta virt. eigenvalues --   -0.00057  -0.00007   0.00351   0.00389   0.00612

 Mulliken charges and spin densities:
               1          2
     1  Na   0.433327   0.472483
     2  Na  -0.160693   0.022418
     3  Na  -0.817363  -0.114880
     4  Na   0.505049   0.334089
     5  Na  -0.187177   0.037200
     6  Na  -0.135889  -0.013672
     7  Na   0.362747   0.262363
 Sum of Mulliken charges =  -0.00000   1.00000

 Dipole moment (field-independent basis, Debye):
    X=              0.2880    Y=             -0.1995    Z=              0.1518  Tot=              0.3818
 Quadrupole moment (field-independent basis, Debye-Ang):
   XX=            -56.3500   YY=            -79.5613   ZZ=            -63.7587
   XY=              1.7254   XZ=             -2.6576   YZ=              1.3291

 Normal termination of Gaussian 16 at Tue Dec  5 12:36:08 2023.
