 Gaussian 16, Revision B.01,
 Gaussian 16:  ES64L-G16RevB.01 20-Dec-2017

 -------------------------
 #P B3LYP/6-311+g(d) force
 -------------------------

 -----
 DPGEN
 -----
 Symbolic Z-matrix:
 Charge =  0 Multiplicity = 2

                         Standard orientation:
 ---------------------------------------------------------------------
 Center     Atomic      Atomic             Coordinates (Angstroms)
 Number     Number       Type             X           Y           Z
 ---------------------------------------------------------------------
      1         11           0       -3.368830   -1.691347   -0.291927
      2         11           0        3.469868    0.601960   -0.669108
      3         11           0       -2.862634    1.510210   -0.027944
      4         11           0        0.879555    2.581687    0.128576
      5         11           0       -0.125705   -0.241293    2.145210
      6         11           0        2.576220   -2.332231    0.217658
      7         11           0       -0.568474   -0.428986   -1.502466
 ---------------------------------------------------------------------

 SCF Done:  E(UB3LYP) =  -1136.12282743     A.U. after   23 cycles

 The electronic state is 2-A.
 Alpha  occ. eigenvalues --  -38.44845 -38.44834 -38.44448 -38.44329 -38.43896
 Alpha  occ. eigenvalues --  -38.43640 -38.42454  -2.20709  -2.20676  -2.20283
 Alpha  occ. eigenvalues --   -2.20158  -2.19742  -2.19442  -2.18292  -1.14426
 Alpha  occ. eigenvalues --   -1.14395  -1.14352  -1.14348  -1.14307  -1.14295
 Alpha  occ. eigenvalues --   -1.13947  -1.13938  -1.13927  -1.13827  -1.13806
 Alpha  occ. eigenvalues --   -1.13802  -1.13401  -1.13373  -1.13344  -1.13115
 Alpha  occ. eigenvalues --   -1.13100  -1.13087  -1.11971  -1.11963  -1.11934
 Alpha  occ. eigenvalues --   -0.18022  -0.14092  -0.11292  -0.10706
 Alpha virt. eigenvalues --   -0.06664  -0.06054  -0.04053  -0.03386  -0.02709
 Alpha virt. eigenvalues --   -0.02514  -0.02361  -0.01460  -0.00839  -0.00240
 Alpha virt. eigenvalues --   -0.00123   0.00159   0.00503   0.00622   0.00678

  Beta  occ. eigenvalues --  -38.44829 -38.44821 -38.44420 -38.44327 -38.43781
  Beta  occ. eigenvalues --  -38.43638 -38.42449  -2.20669  -2.20666  -2.20231
  Beta  occ. eigenvalues --   -2.20158  -2.19528  -2.19439  -2.18287  -1.14403
  Beta  occ. eigenvalues --   -1.14359  -1.14342  -1.14323  -1.14287  -1.14277
  Beta  occ. eigenvalues --   -1.13908  -1.13903  -1.13891  -1.13828  -1.13806
  Beta  occ. eigenvalues --   -1.13789  -1.13258  -1.13230  -1.13188  -1.13115
  Beta  occ. eigenvalues --   -1.13094  -1.13073  -1.11972  -1.11953  -1.11914
  Beta  occ. eigenvalues --   -0.17387  -0.13800  -0.11118
  Beta virt. eigenvalues --   -0.06915  -0.06467  -0.05941  -0.03795  -0.02958
  Beta virt. eigenvalues --   -0.02359  -0.01798  -0.01739  -0.01319  -0.00800
  Beta virt. eigenvalues --   -0.00137  -0.00006   0.00238   0.00628   0.00683

 Mulliken charges and spin densities:
               1          2
     1  Na   0.361857  -0.010667
     2  Na   0.101064   0.124569
     3  Na   0.226864  -0.011098
     4  Na  -0.140915  -0.020822
     5  Na  -0.336221   0.663968
     6  Na   0.160885   0.015580
     7  Na  -0.373534   0.238469
 Sum of Mulliken charges =  -0.00000   1.00000

 Dipole moment (field-independent basis, Debye):
    X=             -1.0745    Y=             -0.1011    Z=             -0.0029  Tot=              1.0793
 Quadrupole moment (field-independent basis, Debye-Ang):
   XX=            -53.2037   YY=            -69.8631   ZZ=            -73.4402
   XY=              0.1372   XZ=             -1.8782   YZ=             -0.6826

 Normal termination of Gaussian 16 at Fri Dec  8 06:46:51 2023.
