 Gaussian 16, Revision B.01,
 Gaussian 16:  ES64L-G16RevB.01 20-Dec-2017

 -------------------------
 #P B3LYP/6-311+g(d) force
 -------------------------

 -----
 DPGEN
 -----
 Symbolic Z-matrix:
 Charge =  0 Multiplicity = 2

                         Standard orientation:
 ---------------------------------------------------------------------
 Center     Atomic      Atomic             Coordinates (Angstroms)
 Number     Number       Type             X           Y           Z
 ---------------------------------------------------------------------
      1         11           0       -1.027731   -0.637423    2.252763
      2         11           0       -3.737989   -1.030951   -1.288504
      3         11           0        3.188436    0.830978   -1.495573
      4         11           0        0.096925   -0.459953   -1.288904
      5         11           0        2.291719   -2.126535    0.561676
      6         11           0       -2.248089    1.942972    0.190810
      7         11           0        1.436730    1.480913    1.067731
 ---------------------------------------------------------------------

 SCF Done:  E(UB3LYP) =  -1136.12409396     A.U. after   25 cycles

 The electronic state is 2-A.
 Alpha  occ. eigenvalues --  -38.44855 -38.44638 -38.43817 -38.43773 -38.43650
 Alpha  occ. eigenvalues --  -38.43355 -38.43144  -2.20696  -2.20456  -2.19686
 Alpha  occ. eigenvalues --   -2.19682  -2.19417  -2.19288  -2.18975  -1.14383
 Alpha  occ. eigenvalues --   -1.14324  -1.14293  -1.14152  -1.14113  -1.14055
 Alpha  occ. eigenvalues --   -1.13424  -1.13386  -1.13368  -1.13350  -1.13312
 Alpha  occ. eigenvalues --   -1.13249  -1.13090  -1.13083  -1.13043  -1.12985
 Alpha  occ. eigenvalues --   -1.12934  -1.12896  -1.12656  -1.12623  -1.12616
 Alpha  occ. eigenvalues --   -0.18383  -0.13751  -0.11609  -0.10751
 Alpha virt. eigenvalues --   -0.06151  -0.05624  -0.04807  -0.03187  -0.02660
 Alpha virt. eigenvalues --   -0.02308  -0.02067  -0.01303  -0.00935  -0.00191
 Alpha virt. eigenvalues --    0.00140   0.00223   0.00402   0.00518   0.00553

  Beta  occ. eigenvalues --  -38.44780 -38.44615 -38.43791 -38.43757 -38.43644
  Beta  occ. eigenvalues --  -38.43315 -38.43140  -2.20557  -2.20414  -2.19657
  Beta  occ. eigenvalues --   -2.19638  -2.19405  -2.19217  -2.18970  -1.14281
  Beta  occ. eigenvalues --   -1.14235  -1.14194  -1.14119  -1.14088  -1.14020
  Beta  occ. eigenvalues --   -1.13377  -1.13350  -1.13337  -1.13321  -1.13274
  Beta  occ. eigenvalues --   -1.13233  -1.13081  -1.13074  -1.13037  -1.12941
  Beta  occ. eigenvalues --   -1.12869  -1.12840  -1.12652  -1.12616  -1.12601
  Beta  occ. eigenvalues --   -0.17640  -0.13547  -0.10605
  Beta virt. eigenvalues --   -0.07739  -0.05883  -0.05018  -0.04662  -0.02731
  Beta virt. eigenvalues --   -0.02283  -0.01980  -0.01725  -0.00873  -0.00667
  Beta virt. eigenvalues --   -0.00048   0.00222   0.00354   0.00490   0.00602

 Mulliken charges and spin densities:
               1          2
     1  Na  -0.029250   0.127166
     2  Na   0.016764  -0.052863
     3  Na   0.416012  -0.074040
     4  Na  -0.615030   0.510686
     5  Na  -0.084400   0.128324
     6  Na   0.223119  -0.055363
     7  Na   0.072786   0.416089
 Sum of Mulliken charges =  -0.00000   1.00000

 Dipole moment (field-independent basis, Debye):
    X=              0.5419    Y=              0.0100    Z=              0.5577  Tot=              0.7777
 Quadrupole moment (field-independent basis, Debye-Ang):
   XX=            -55.5787   YY=            -62.8964   ZZ=            -76.9269
   XY=             -1.6119   XZ=             -2.5203   YZ=             -2.8686

 Normal termination of Gaussian 16 at Thu Dec  7 10:48:50 2023.
