 Gaussian 16, Revision B.01,
 Gaussian 16:  ES64L-G16RevB.01 20-Dec-2017

 -------------------------
 #P B3LYP/6-311+g(d) force
 -------------------------

 -----
 DPGEN
 -----
 Symbolic Z-matrix:
 Charge =  0 Multiplicity = 2

                         Standard orientation:
 ---------------------------------------------------------------------
 Center     Atomic      Atomic             Coordinates (Angstroms)
 Number     Number       Type             X           Y           Z
 ---------------------------------------------------------------------
      1         11           0        1.116926    2.462203    0.393064
      2         11           0        3.872652   -1.317937   -0.900962
      3         11           0        0.656145    0.540636   -2.122085
      4         11           0       -2.492436    1.423356   -0.064595
      5         11           0       -0.743490   -1.992866    0.314967
      6         11           0        1.904707   -0.120166    2.376908
      7         11           0       -4.314504   -0.995226    0.002701
 ---------------------------------------------------------------------

 SCF Done:  E(UB3LYP) =  -1136.11364119     A.U. after   26 cycles

 The electronic state is 2-A.
 Alpha  occ. eigenvalues --  -38.45218 -38.45076 -38.44577 -38.44243 -38.44133
 Alpha  occ. eigenvalues --  -38.44054 -38.42913  -2.20966  -2.20817  -2.20394
 Alpha  occ. eigenvalues --   -2.20065  -2.19982  -2.19895  -2.18773  -1.14680
 Alpha  occ. eigenvalues --   -1.14665  -1.14553  -1.14485  -1.14473  -1.14437
 Alpha  occ. eigenvalues --   -1.14121  -1.14046  -1.14014  -1.13721  -1.13720
 Alpha  occ. eigenvalues --   -1.13666  -1.13665  -1.13649  -1.13581  -1.13574
 Alpha  occ. eigenvalues --   -1.13561  -1.13508  -1.12449  -1.12443  -1.12398
 Alpha  occ. eigenvalues --   -0.17438  -0.13829  -0.11365  -0.11086
 Alpha virt. eigenvalues --   -0.07356  -0.05256  -0.04340  -0.03292  -0.03060
 Alpha virt. eigenvalues --   -0.02800  -0.02534  -0.01551  -0.00817  -0.00263
 Alpha virt. eigenvalues --   -0.00077   0.00020   0.00112   0.00577   0.00747

  Beta  occ. eigenvalues --  -38.45222 -38.45038 -38.44580 -38.44155 -38.44070
  Beta  occ. eigenvalues --  -38.44059 -38.42897  -2.20975  -2.20746  -2.20400
  Beta  occ. eigenvalues --   -2.19906  -2.19902  -2.19864  -2.18746  -1.14677
  Beta  occ. eigenvalues --   -1.14664  -1.14564  -1.14438  -1.14410  -1.14393
  Beta  occ. eigenvalues --   -1.14127  -1.14049  -1.14018  -1.13610  -1.13607
  Beta  occ. eigenvalues --   -1.13586  -1.13582  -1.13577  -1.13569  -1.13553
  Beta  occ. eigenvalues --   -1.13519  -1.13475  -1.12435  -1.12408  -1.12370
  Beta  occ. eigenvalues --   -0.16880  -0.13484  -0.10978
  Beta virt. eigenvalues --   -0.07437  -0.07170  -0.05164  -0.03808  -0.03032
  Beta virt. eigenvalues --   -0.02743  -0.02319  -0.01892  -0.01431  -0.00508
  Beta virt. eigenvalues --   -0.00257  -0.00011   0.00095   0.00298   0.00691

 Mulliken charges and spin densities:
               1          2
     1  Na   0.193221  -0.021692
     2  Na  -0.002524   0.044785
     3  Na  -0.154822   0.646202
     4  Na  -0.194622  -0.010266
     5  Na  -0.236721  -0.024977
     6  Na  -0.021832   0.463018
     7  Na   0.417299  -0.097069
 Sum of Mulliken charges =  -0.00000   1.00000

 Dipole moment (field-independent basis, Debye):
    X=             -0.5907    Y=             -0.4029    Z=             -0.1624  Tot=              0.7332
 Quadrupole moment (field-independent basis, Debye-Ang):
   XX=            -51.1630   YY=            -74.4865   ZZ=            -70.9513
   XY=              1.4008   XZ=             -0.1593   YZ=              2.6386

 Normal termination of Gaussian 16 at Sun Dec  3 22:34:43 2023.
