 Gaussian 16, Revision B.01,
 Gaussian 16:  ES64L-G16RevB.01 20-Dec-2017

 -------------------------
 #P B3LYP/6-311+g(d) force
 -------------------------

 -----
 DPGEN
 -----
 Symbolic Z-matrix:
 Charge =  0 Multiplicity = 2

                         Standard orientation:
 ---------------------------------------------------------------------
 Center     Atomic      Atomic             Coordinates (Angstroms)
 Number     Number       Type             X           Y           Z
 ---------------------------------------------------------------------
      1         11           0       -3.543481   -0.936291   -0.228763
      2         11           0       -0.351045   -1.390105   -1.549185
      3         11           0        0.174430    2.357661    1.649490
      4         11           0       -0.403751   -1.016976    1.914138
      5         11           0        2.233130   -2.553551    0.237595
      6         11           0        3.122345    1.248031   -0.893859
      7         11           0       -1.231628    2.291230   -1.129415
 ---------------------------------------------------------------------

 SCF Done:  E(UB3LYP) =  -1136.12412635     A.U. after   21 cycles

 The electronic state is 2-A.
 Alpha  occ. eigenvalues --  -38.45085 -38.44228 -38.44167 -38.43887 -38.43821
 Alpha  occ. eigenvalues --  -38.43635 -38.43516  -2.20810  -2.19999  -2.19976
 Alpha  occ. eigenvalues --   -2.19760  -2.19684  -2.19440  -2.19363  -1.14491
 Alpha  occ. eigenvalues --   -1.14452  -1.14439  -1.13684  -1.13674  -1.13660
 Alpha  occ. eigenvalues --   -1.13650  -1.13641  -1.13584  -1.13442  -1.13408
 Alpha  occ. eigenvalues --   -1.13384  -1.13363  -1.13345  -1.13299  -1.13114
 Alpha  occ. eigenvalues --   -1.13099  -1.13074  -1.13032  -1.13021  -1.12976
 Alpha  occ. eigenvalues --   -0.17578  -0.12455  -0.12222  -0.11227
 Alpha virt. eigenvalues --   -0.06412  -0.05099  -0.04296  -0.03630  -0.03190
 Alpha virt. eigenvalues --   -0.02908  -0.01907  -0.01100  -0.00388  -0.00254
 Alpha virt. eigenvalues --    0.00034   0.00191   0.00344   0.00630   0.00789

  Beta  occ. eigenvalues --  -38.45056 -38.44233 -38.44154 -38.43805 -38.43791
  Beta  occ. eigenvalues --  -38.43636 -38.43478  -2.20757  -2.20009  -2.19953
  Beta  occ. eigenvalues --   -2.19629  -2.19610  -2.19445  -2.19297  -1.14449
  Beta  occ. eigenvalues --   -1.14418  -1.14404  -1.13673  -1.13666  -1.13663
  Beta  occ. eigenvalues --   -1.13648  -1.13627  -1.13570  -1.13364  -1.13322
  Beta  occ. eigenvalues --   -1.13305  -1.13285  -1.13264  -1.13260  -1.13108
  Beta  occ. eigenvalues --   -1.13098  -1.13073  -1.12991  -1.12966  -1.12921
  Beta  occ. eigenvalues --   -0.16864  -0.12291  -0.12036
  Beta virt. eigenvalues --   -0.07429  -0.06222  -0.04967  -0.03848  -0.03246
  Beta virt. eigenvalues --   -0.02677  -0.02075  -0.01691  -0.01037  -0.00267
  Beta virt. eigenvalues --   -0.00134   0.00089   0.00316   0.00391   0.00661

 Mulliken charges and spin densities:
               1          2
     1  Na   0.202080  -0.072373
     2  Na  -0.497343   0.512098
     3  Na  -0.076181   0.090875
     4  Na   0.156453   0.308621
     5  Na   0.234444   0.002174
     6  Na  -0.080993   0.067656
     7  Na   0.061540   0.090950
 Sum of Mulliken charges =  -0.00000   1.00000

 Dipole moment (field-independent basis, Debye):
    X=              0.0160    Y=             -0.0308    Z=             -0.2741  Tot=              0.2763
 Quadrupole moment (field-independent basis, Debye-Ang):
   XX=            -57.6474   YY=            -68.5255   ZZ=            -69.1482
   XY=              0.1396   XZ=             -0.6120   YZ=             -1.6666

 Normal termination of Gaussian 16 at Sun Dec  3 21:16:45 2023.
