 Gaussian 16, Revision B.01,
 Gaussian 16:  ES64L-G16RevB.01 20-Dec-2017

 -------------------------
 #P B3LYP/6-311+g(d) force
 -------------------------

 -----
 DPGEN
 -----
 Symbolic Z-matrix:
 Charge =  0 Multiplicity = 2

                         Standard orientation:
 ---------------------------------------------------------------------
 Center     Atomic      Atomic             Coordinates (Angstroms)
 Number     Number       Type             X           Y           Z
 ---------------------------------------------------------------------
      1         11           0        2.939962    0.864340    0.616185
      2         11           0        0.084281    2.926083   -0.068667
      3         11           0       -3.244075   -2.199363   -0.039379
      4         11           0       -2.795288    1.338081   -0.216366
      5         11           0        2.998841   -2.122108   -0.358576
      6         11           0       -0.391310   -0.638985    1.865365
      7         11           0        0.407590   -0.168047   -1.798562
 ---------------------------------------------------------------------

 SCF Done:  E(UB3LYP) =  -1136.12744372     A.U. after   21 cycles

 The electronic state is 2-A.
 Alpha  occ. eigenvalues --  -38.44398 -38.44346 -38.44281 -38.44186 -38.44113
 Alpha  occ. eigenvalues --  -38.44084 -38.42580  -2.20229  -2.20205  -2.20095
 Alpha  occ. eigenvalues --   -2.20008  -2.19940  -2.19875  -2.18430  -1.13916
 Alpha  occ. eigenvalues --   -1.13900  -1.13899  -1.13865  -1.13860  -1.13851
 Alpha  occ. eigenvalues --   -1.13782  -1.13746  -1.13693  -1.13668  -1.13656
 Alpha  occ. eigenvalues --   -1.13643  -1.13622  -1.13586  -1.13548  -1.13544
 Alpha  occ. eigenvalues --   -1.13541  -1.13511  -1.12104  -1.12095  -1.12080
 Alpha  occ. eigenvalues --   -0.17950  -0.13669  -0.11716  -0.10468
 Alpha virt. eigenvalues --   -0.06333  -0.06081  -0.04277  -0.03474  -0.02599
 Alpha virt. eigenvalues --   -0.02414  -0.02134  -0.01485  -0.00927  -0.00262
 Alpha virt. eigenvalues --   -0.00130   0.00259   0.00579   0.00599   0.00685

  Beta  occ. eigenvalues --  -38.44393 -38.44327 -38.44209 -38.44178 -38.44122
  Beta  occ. eigenvalues --  -38.44013 -38.42577  -2.20220  -2.20173  -2.19996
  Beta  occ. eigenvalues --   -2.19964  -2.19894  -2.19810  -2.18428  -1.13905
  Beta  occ. eigenvalues --   -1.13887  -1.13881  -1.13848  -1.13843  -1.13819
  Beta  occ. eigenvalues --   -1.13692  -1.13658  -1.13655  -1.13635  -1.13628
  Beta  occ. eigenvalues --   -1.13595  -1.13561  -1.13549  -1.13533  -1.13521
  Beta  occ. eigenvalues --   -1.13496  -1.13443  -1.12106  -1.12094  -1.12055
  Beta  occ. eigenvalues --   -0.17242  -0.13520  -0.11533
  Beta virt. eigenvalues --   -0.06688  -0.06101  -0.05997  -0.04183  -0.02869
  Beta virt. eigenvalues --   -0.02026  -0.01923  -0.01644  -0.01182  -0.00978
  Beta virt. eigenvalues --   -0.00222   0.00046   0.00302   0.00672   0.00700

 Mulliken charges and spin densities:
               1          2
     1  Na   0.272723   0.205663
     2  Na  -0.093462   0.010773
     3  Na   0.098011  -0.103159
     4  Na   0.119645   0.010608
     5  Na   0.150032   0.013453
     6  Na  -0.331956   0.412644
     7  Na  -0.214993   0.450018
 Sum of Mulliken charges =  -0.00000   1.00000

 Dipole moment (field-independent basis, Debye):
    X=              0.0401    Y=             -0.4670    Z=              0.0042  Tot=              0.4687
 Quadrupole moment (field-independent basis, Debye-Ang):
   XX=            -54.2522   YY=            -65.1102   ZZ=            -75.4387
   XY=             -0.5987   XZ=              2.1447   YZ=              1.4748

 Normal termination of Gaussian 16 at Thu Dec  7 05:30:33 2023.
