 Gaussian 16, Revision B.01,
 Gaussian 16:  ES64L-G16RevB.01 20-Dec-2017

 -------------------------
 #P B3LYP/6-311+g(d) force
 -------------------------

 -----
 DPGEN
 -----
 Symbolic Z-matrix:
 Charge =  0 Multiplicity = 2

                         Standard orientation:
 ---------------------------------------------------------------------
 Center     Atomic      Atomic             Coordinates (Angstroms)
 Number     Number       Type             X           Y           Z
 ---------------------------------------------------------------------
      1         11           0        2.125661    2.308302   -0.026931
      2         11           0       -0.568844   -2.679160    0.191751
      3         11           0        2.956205   -1.367134    0.044070
      4         11           0        0.715741    0.053093   -1.720323
      5         11           0       -0.364953   -0.108712    2.045908
      6         11           0       -1.743790    2.273796    0.251727
      7         11           0       -3.120020   -0.480184   -0.786202
 ---------------------------------------------------------------------

 SCF Done:  E(UB3LYP) =  -1136.13420442     A.U. after   19 cycles

 The electronic state is 2-A.
 Alpha  occ. eigenvalues --  -38.44373 -38.44034 -38.43798 -38.43654 -38.43609
 Alpha  occ. eigenvalues --  -38.43413 -38.43109  -2.20190  -2.19870  -2.19620
 Alpha  occ. eigenvalues --   -2.19565  -2.19546  -2.19268  -2.18977  -1.13894
 Alpha  occ. eigenvalues --   -1.13849  -1.13812  -1.13543  -1.13526  -1.13508
 Alpha  occ. eigenvalues --   -1.13365  -1.13283  -1.13243  -1.13239  -1.13219
 Alpha  occ. eigenvalues --   -1.13209  -1.13178  -1.13175  -1.13152  -1.12946
 Alpha  occ. eigenvalues --   -1.12931  -1.12893  -1.12672  -1.12641  -1.12591
 Alpha  occ. eigenvalues --   -0.18484  -0.13247  -0.12182  -0.10882
 Alpha virt. eigenvalues --   -0.05804  -0.05362  -0.04280  -0.03497  -0.02914
 Alpha virt. eigenvalues --   -0.02644  -0.01638  -0.01108  -0.00382  -0.00177
 Alpha virt. eigenvalues --   -0.00027   0.00345   0.00776   0.00842   0.00910

  Beta  occ. eigenvalues --  -38.44373 -38.44009 -38.43799 -38.43559 -38.43557
  Beta  occ. eigenvalues --  -38.43405 -38.43100  -2.20192  -2.19824  -2.19623
  Beta  occ. eigenvalues --   -2.19451  -2.19390  -2.19258  -2.18965  -1.13887
  Beta  occ. eigenvalues --   -1.13846  -1.13813  -1.13513  -1.13484  -1.13475
  Beta  occ. eigenvalues --   -1.13350  -1.13276  -1.13242  -1.13153  -1.13121
  Beta  occ. eigenvalues --   -1.13111  -1.13094  -1.13089  -1.13060  -1.12931
  Beta  occ. eigenvalues --   -1.12899  -1.12889  -1.12658  -1.12610  -1.12585
  Beta  occ. eigenvalues --   -0.17779  -0.12999  -0.11938
  Beta virt. eigenvalues --   -0.07046  -0.05740  -0.05251  -0.04242  -0.02783
  Beta virt. eigenvalues --   -0.02139  -0.01694  -0.01485  -0.01043  -0.00395
  Beta virt. eigenvalues --   -0.00184   0.00102   0.00386   0.00833   0.00877

 Mulliken charges and spin densities:
               1          2
     1  Na   0.016280  -0.135813
     2  Na   0.166702   0.036366
     3  Na   0.108985  -0.129532
     4  Na  -0.111942   0.501147
     5  Na  -0.236552   0.584738
     6  Na   0.126938   0.013361
     7  Na  -0.070411   0.129734
 Sum of Mulliken charges =  -0.00000   1.00000

 Dipole moment (field-independent basis, Debye):
    X=              0.4678    Y=             -0.0347    Z=              0.0183  Tot=              0.4694
 Quadrupole moment (field-independent basis, Debye-Ang):
   XX=            -55.8175   YY=            -65.5571   ZZ=            -72.9208
   XY=             -0.2364   XZ=              2.7581   YZ=              0.6927

 Normal termination of Gaussian 16 at Tue Dec  5 16:24:27 2023.
