 Gaussian 16, Revision B.01,
 Gaussian 16:  ES64L-G16RevB.01 20-Dec-2017

 -------------------------
 #P B3LYP/6-311+g(d) force
 -------------------------

 -----
 DPGEN
 -----
 Symbolic Z-matrix:
 Charge =  0 Multiplicity = 2

                         Standard orientation:
 ---------------------------------------------------------------------
 Center     Atomic      Atomic             Coordinates (Angstroms)
 Number     Number       Type             X           Y           Z
 ---------------------------------------------------------------------
      1         11           0       -0.147152   -0.670439    1.759229
      2         11           0       -3.687642   -0.664706    1.016649
      3         11           0        2.626888   -1.778104   -0.630231
      4         11           0        1.008000    1.573768   -1.101861
      5         11           0        3.461348    0.902644    1.102478
      6         11           0       -1.189302   -1.438638   -1.686928
      7         11           0       -2.072140    2.075474   -0.459336
 ---------------------------------------------------------------------

 SCF Done:  E(UB3LYP) =  -1136.12416256     A.U. after   25 cycles

 The electronic state is 2-A.
 Alpha  occ. eigenvalues --  -38.44873 -38.44766 -38.44489 -38.44460 -38.44360
 Alpha  occ. eigenvalues --  -38.42956 -38.42310  -2.20673  -2.20603  -2.20297
 Alpha  occ. eigenvalues --   -2.20287  -2.20179  -2.18804  -2.18203  -1.14373
 Alpha  occ. eigenvalues --   -1.14343  -1.14283  -1.14268  -1.14248  -1.14234
 Alpha  occ. eigenvalues --   -1.13965  -1.13963  -1.13953  -1.13929  -1.13916
 Alpha  occ. eigenvalues --   -1.13902  -1.13847  -1.13832  -1.13822  -1.12496
 Alpha  occ. eigenvalues --   -1.12472  -1.12441  -1.11898  -1.11871  -1.11832
 Alpha  occ. eigenvalues --   -0.18128  -0.14186  -0.11289  -0.10790
 Alpha virt. eigenvalues --   -0.06788  -0.05568  -0.04784  -0.03160  -0.02637
 Alpha virt. eigenvalues --   -0.02550  -0.02322  -0.01164  -0.00953  -0.00321
 Alpha virt. eigenvalues --    0.00123   0.00251   0.00275   0.00467   0.00597

  Beta  occ. eigenvalues --  -38.44849 -38.44729 -38.44465 -38.44389 -38.44344
  Beta  occ. eigenvalues --  -38.42955 -38.42299  -2.20630  -2.20534  -2.20252
  Beta  occ. eigenvalues --   -2.20158  -2.20152  -2.18805  -2.18188  -1.14339
  Beta  occ. eigenvalues --   -1.14307  -1.14250  -1.14223  -1.14201  -1.14187
  Beta  occ. eigenvalues --   -1.13925  -1.13922  -1.13898  -1.13876  -1.13829
  Beta  occ. eigenvalues --   -1.13823  -1.13818  -1.13808  -1.13780  -1.12498
  Beta  occ. eigenvalues --   -1.12460  -1.12441  -1.11892  -1.11835  -1.11821
  Beta  occ. eigenvalues --   -0.17457  -0.13899  -0.10612
  Beta virt. eigenvalues --   -0.07544  -0.06566  -0.05280  -0.04315  -0.02899
  Beta virt. eigenvalues --   -0.02450  -0.01965  -0.01655  -0.00939  -0.00671
  Beta virt. eigenvalues --   -0.00225   0.00177   0.00281   0.00372   0.00598

 Mulliken charges and spin densities:
               1          2
     1  Na  -0.543812   0.218793
     2  Na   0.494965   0.162591
     3  Na   0.112662   0.100025
     4  Na  -0.502860   0.195859
     5  Na   0.740228   0.079501
     6  Na  -0.165277   0.314126
     7  Na  -0.135907  -0.070896
 Sum of Mulliken charges =  -0.00000   1.00000

 Dipole moment (field-independent basis, Debye):
    X=              0.2061    Y=             -0.5727    Z=              0.4193  Tot=              0.7390
 Quadrupole moment (field-independent basis, Debye-Ang):
   XX=            -48.1127   YY=            -77.7684   ZZ=            -69.0311
   XY=              0.2135   XZ=              1.4147   YZ=              6.1400

 Normal termination of Gaussian 16 at Thu Dec  7 17:38:48 2023.
