 Gaussian 16, Revision B.01,
 Gaussian 16:  ES64L-G16RevB.01 20-Dec-2017

 -------------------------
 #P B3LYP/6-311+g(d) force
 -------------------------

 -----
 DPGEN
 -----
 Symbolic Z-matrix:
 Charge =  0 Multiplicity = 2

                         Standard orientation:
 ---------------------------------------------------------------------
 Center     Atomic      Atomic             Coordinates (Angstroms)
 Number     Number       Type             X           Y           Z
 ---------------------------------------------------------------------
      1         11           0       -3.001074    0.061533   -1.841024
      2         11           0       -3.237632   -1.273456    1.056948
      3         11           0       -1.391267    1.132739    1.840520
      4         11           0        2.806940   -3.126612   -0.373264
      5         11           0        2.877496    0.273660    1.034329
      6         11           0        1.764336    3.218347   -0.732545
      7         11           0        0.181201   -0.286211   -0.984965
 ---------------------------------------------------------------------

 SCF Done:  E(UB3LYP) =  -1136.11819440     A.U. after   22 cycles

 The electronic state is 2-A.
 Alpha  occ. eigenvalues --  -38.44882 -38.44875 -38.44546 -38.44373 -38.44031
 Alpha  occ. eigenvalues --  -38.43662 -38.42740  -2.20746  -2.20719  -2.20413
 Alpha  occ. eigenvalues --   -2.20181  -2.19907  -2.19430  -2.18501  -1.14489
 Alpha  occ. eigenvalues --   -1.14413  -1.14395  -1.14375  -1.14355  -1.14285
 Alpha  occ. eigenvalues --   -1.14081  -1.14046  -1.14019  -1.13885  -1.13873
 Alpha  occ. eigenvalues --   -1.13761  -1.13630  -1.13546  -1.13530  -1.13103
 Alpha  occ. eigenvalues --   -1.13100  -1.13054  -1.12176  -1.12172  -1.12130
 Alpha  occ. eigenvalues --   -0.17662  -0.13896  -0.11430  -0.10899
 Alpha virt. eigenvalues --   -0.06420  -0.05311  -0.05123  -0.03411  -0.02978
 Alpha virt. eigenvalues --   -0.02301  -0.02064  -0.01378  -0.00981  -0.00404
 Alpha virt. eigenvalues --   -0.00049   0.00143   0.00304   0.00383   0.00567

  Beta  occ. eigenvalues --  -38.44856 -38.44804 -38.44474 -38.44370 -38.44002
  Beta  occ. eigenvalues --  -38.43657 -38.42743  -2.20703  -2.20590  -2.20281
  Beta  occ. eigenvalues --   -2.20175  -2.19856  -2.19421  -2.18508  -1.14428
  Beta  occ. eigenvalues --   -1.14380  -1.14345  -1.14301  -1.14266  -1.14193
  Beta  occ. eigenvalues --   -1.13980  -1.13958  -1.13934  -1.13879  -1.13866
  Beta  occ. eigenvalues --   -1.13759  -1.13584  -1.13508  -1.13486  -1.13096
  Beta  occ. eigenvalues --   -1.13093  -1.13049  -1.12181  -1.12176  -1.12135
  Beta  occ. eigenvalues --   -0.16944  -0.13696  -0.10923
  Beta virt. eigenvalues --   -0.07305  -0.06239  -0.05032  -0.04818  -0.03119
  Beta virt. eigenvalues --   -0.02341  -0.01880  -0.01796  -0.01186  -0.00649
  Beta virt. eigenvalues --   -0.00273   0.00128   0.00266   0.00399   0.00430

 Mulliken charges and spin densities:
               1          2
     1  Na   0.164134   0.183539
     2  Na   0.231686   0.078454
     3  Na  -0.215993   0.377307
     4  Na   0.227043  -0.061743
     5  Na   0.609140   0.004887
     6  Na  -0.037948  -0.046427
     7  Na  -0.978062   0.463982
 Sum of Mulliken charges =  -0.00000   1.00000

 Dipole moment (field-independent basis, Debye):
    X=             -1.5971    Y=              0.5804    Z=              0.3639  Tot=              1.7378
 Quadrupole moment (field-independent basis, Debye-Ang):
   XX=            -59.0928   YY=            -68.4520   ZZ=            -69.3226
   XY=              5.7379   XZ=              2.4670   YZ=             -1.6525

 Normal termination of Gaussian 16 at Tue Dec  5 17:01:21 2023.
