 Gaussian 16, Revision B.01,
 Gaussian 16:  ES64L-G16RevB.01 20-Dec-2017

 -------------------------
 #P B3LYP/6-311+g(d) force
 -------------------------

 -----
 DPGEN
 -----
 Symbolic Z-matrix:
 Charge =  0 Multiplicity = 2

                         Standard orientation:
 ---------------------------------------------------------------------
 Center     Atomic      Atomic             Coordinates (Angstroms)
 Number     Number       Type             X           Y           Z
 ---------------------------------------------------------------------
      1         11           0        2.886941    1.163387    0.195436
      2         11           0       -0.306021    3.094363   -0.451006
      3         11           0       -3.169276   -0.908106   -0.709119
      4         11           0        5.456683   -0.962863   -0.291735
      5         11           0       -6.174325   -0.633513    0.061635
      6         11           0       -0.707766    0.153054    1.243119
      7         11           0        2.013764   -1.906321   -0.048331
 ---------------------------------------------------------------------

 SCF Done:  E(UB3LYP) =  -1136.11894665     A.U. after   20 cycles

 The electronic state is 2-A.
 Alpha  occ. eigenvalues --  -38.44662 -38.44468 -38.44264 -38.44008 -38.43999
 Alpha  occ. eigenvalues --  -38.43780 -38.43589  -2.20510  -2.20326  -2.20069
 Alpha  occ. eigenvalues --   -2.19858  -2.19808  -2.19575  -2.19415  -1.14232
 Alpha  occ. eigenvalues --   -1.14184  -1.14096  -1.14027  -1.14016  -1.13905
 Alpha  occ. eigenvalues --   -1.13733  -1.13731  -1.13684  -1.13559  -1.13519
 Alpha  occ. eigenvalues --   -1.13499  -1.13467  -1.13450  -1.13413  -1.13270
 Alpha  occ. eigenvalues --   -1.13223  -1.13222  -1.13093  -1.13073  -1.13024
 Alpha  occ. eigenvalues --   -0.17022  -0.13937  -0.12067  -0.10855
 Alpha virt. eigenvalues --   -0.06305  -0.05531  -0.04868  -0.03257  -0.02994
 Alpha virt. eigenvalues --   -0.02388  -0.02056  -0.01413  -0.01095  -0.00877
 Alpha virt. eigenvalues --   -0.00327   0.00014   0.00101   0.00435   0.00596

  Beta  occ. eigenvalues --  -38.44607 -38.44447 -38.44248 -38.43972 -38.43962
  Beta  occ. eigenvalues --  -38.43755 -38.43592  -2.20412  -2.20289  -2.20041
  Beta  occ. eigenvalues --   -2.19812  -2.19720  -2.19529  -2.19423  -1.14173
  Beta  occ. eigenvalues --   -1.14119  -1.14013  -1.14000  -1.13968  -1.13876
  Beta  occ. eigenvalues --   -1.13712  -1.13706  -1.13668  -1.13534  -1.13475
  Beta  occ. eigenvalues --   -1.13449  -1.13407  -1.13385  -1.13360  -1.13244
  Beta  occ. eigenvalues --   -1.13192  -1.13191  -1.13098  -1.13080  -1.13007
  Beta  occ. eigenvalues --   -0.16371  -0.13781  -0.11626
  Beta virt. eigenvalues --   -0.07380  -0.06036  -0.05032  -0.04595  -0.02999
  Beta virt. eigenvalues --   -0.02661  -0.02266  -0.01660  -0.01226  -0.00836
  Beta virt. eigenvalues --   -0.00508  -0.00110   0.00160   0.00282   0.00518

 Mulliken charges and spin densities:
               1          2
     1  Na  -0.562321   0.241561
     2  Na   0.157871   0.224905
     3  Na  -0.426045  -0.027659
     4  Na   0.729142   0.109169
     5  Na   0.370701   0.114041
     6  Na   0.021040   0.175864
     7  Na  -0.290387   0.162119
 Sum of Mulliken charges =  -0.00000   1.00000

 Dipole moment (field-independent basis, Debye):
    X=              1.4872    Y=             -0.0360    Z=             -0.0336  Tot=              1.4881
 Quadrupole moment (field-independent basis, Debye-Ang):
   XX=            -57.5035   YY=            -68.9745   ZZ=            -69.5839
   XY=             -6.6617   XZ=             -2.7144   YZ=              0.3239

 Normal termination of Gaussian 16 at Tue Nov 28 23:15:53 2023.
