 Gaussian 16, Revision B.01,
 Gaussian 16:  ES64L-G16RevB.01 20-Dec-2017

 -------------------------
 #P B3LYP/6-311+g(d) force
 -------------------------

 -----
 DPGEN
 -----
 Symbolic Z-matrix:
 Charge =  0 Multiplicity = 2

                         Standard orientation:
 ---------------------------------------------------------------------
 Center     Atomic      Atomic             Coordinates (Angstroms)
 Number     Number       Type             X           Y           Z
 ---------------------------------------------------------------------
      1         11           0        1.383354   -2.372741   -1.266544
      2         11           0       -0.410704    2.316768    0.640832
      3         11           0       -2.739744   -1.775972   -1.017905
      4         11           0        3.504287   -0.882784    1.089730
      5         11           0       -0.908777   -1.200040    1.880947
      6         11           0       -3.682503    1.499558   -0.138399
      7         11           0        2.854088    2.415210   -1.188661
 ---------------------------------------------------------------------

 SCF Done:  E(UB3LYP) =  -1136.11168950     A.U. after   25 cycles

 The electronic state is 2-A.
 Alpha  occ. eigenvalues --  -38.45671 -38.45047 -38.44719 -38.44308 -38.44116
 Alpha  occ. eigenvalues --  -38.43988 -38.43610  -2.21400  -2.20822  -2.20465
 Alpha  occ. eigenvalues --   -2.20057  -2.19927  -2.19789  -2.19392  -1.15078
 Alpha  occ. eigenvalues --   -1.15058  -1.15044  -1.14498  -1.14478  -1.14464
 Alpha  occ. eigenvalues --   -1.14148  -1.14123  -1.14097  -1.13728  -1.13704
 Alpha  occ. eigenvalues --   -1.13689  -1.13597  -1.13585  -1.13541  -1.13463
 Alpha  occ. eigenvalues --   -1.13440  -1.13416  -1.13079  -1.13065  -1.13019
 Alpha  occ. eigenvalues --   -0.16642  -0.13481  -0.11887  -0.10151
 Alpha virt. eigenvalues --   -0.07216  -0.06370  -0.04347  -0.03493  -0.03135
 Alpha virt. eigenvalues --   -0.02388  -0.01971  -0.01784  -0.01136  -0.00543
 Alpha virt. eigenvalues --   -0.00365  -0.00172   0.00093   0.00319   0.00547

  Beta  occ. eigenvalues --  -38.45676 -38.45038 -38.44709 -38.44272 -38.44044
  Beta  occ. eigenvalues --  -38.43954 -38.43597  -2.21413  -2.20807  -2.20448
  Beta  occ. eigenvalues --   -2.19989  -2.19794  -2.19725  -2.19370  -1.15084
  Beta  occ. eigenvalues --   -1.15065  -1.15046  -1.14490  -1.14457  -1.14450
  Beta  occ. eigenvalues --   -1.14135  -1.14105  -1.14088  -1.13681  -1.13658
  Beta  occ. eigenvalues --   -1.13643  -1.13508  -1.13489  -1.13448  -1.13415
  Beta  occ. eigenvalues --   -1.13394  -1.13366  -1.13067  -1.13041  -1.12996
  Beta  occ. eigenvalues --   -0.16080  -0.13218  -0.11687
  Beta virt. eigenvalues --   -0.07128  -0.06616  -0.06141  -0.03821  -0.03341
  Beta virt. eigenvalues --   -0.02630  -0.02196  -0.01665  -0.01370  -0.00967
  Beta virt. eigenvalues --   -0.00346  -0.00193  -0.00052   0.00256   0.00384

 Mulliken charges and spin densities:
               1          2
     1  Na  -0.110617   0.025949
     2  Na  -0.605809  -0.082592
     3  Na   0.034806   0.267686
     4  Na   0.154974   0.024494
     5  Na  -0.077394   0.479218
     6  Na   0.445889   0.054194
     7  Na   0.158151   0.231050
 Sum of Mulliken charges =  -0.00000   1.00000

 Dipole moment (field-independent basis, Debye):
    X=              0.3972    Y=             -0.3607    Z=              0.1735  Tot=              0.5639
 Quadrupole moment (field-independent basis, Debye-Ang):
   XX=            -55.0515   YY=            -71.9458   ZZ=            -70.5870
   XY=             -4.9058   XZ=              1.6161   YZ=             -1.1824

 Normal termination of Gaussian 16 at Mon Dec  4 04:35:27 2023.
