 Gaussian 16, Revision B.01,
 Gaussian 16:  ES64L-G16RevB.01 20-Dec-2017

 -------------------------
 #P B3LYP/6-311+g(d) force
 -------------------------

 -----
 DPGEN
 -----
 Symbolic Z-matrix:
 Charge =  0 Multiplicity = 2

                         Standard orientation:
 ---------------------------------------------------------------------
 Center     Atomic      Atomic             Coordinates (Angstroms)
 Number     Number       Type             X           Y           Z
 ---------------------------------------------------------------------
      1         11           0       -2.404788    1.527480    1.007299
      2         11           0       -0.747175   -1.001456   -0.409056
      3         11           0        2.651950   -2.359204    0.183065
      4         11           0        0.649945    2.753809   -0.985408
      5         11           0        1.208760    0.266172    1.888692
      6         11           0       -4.123554   -1.502707   -0.674520
      7         11           0        2.764862    0.315907   -1.010072
 ---------------------------------------------------------------------

 SCF Done:  E(UB3LYP) =  -1136.12420149     A.U. after   21 cycles

 The electronic state is 2-A.
 Alpha  occ. eigenvalues --  -38.44699 -38.44130 -38.43953 -38.43921 -38.43876
 Alpha  occ. eigenvalues --  -38.43817 -38.42911  -2.20499  -2.20050  -2.19844
 Alpha  occ. eigenvalues --   -2.19795  -2.19757  -2.19708  -2.18749  -1.14191
 Alpha  occ. eigenvalues --   -1.14178  -1.14099  -1.13770  -1.13723  -1.13638
 Alpha  occ. eigenvalues --   -1.13609  -1.13561  -1.13512  -1.13470  -1.13446
 Alpha  occ. eigenvalues --   -1.13437  -1.13392  -1.13382  -1.13368  -1.13365
 Alpha  occ. eigenvalues --   -1.13321  -1.13298  -1.12431  -1.12413  -1.12368
 Alpha  occ. eigenvalues --   -0.18400  -0.13888  -0.11889  -0.10662
 Alpha virt. eigenvalues --   -0.06229  -0.05954  -0.04374  -0.03253  -0.02669
 Alpha virt. eigenvalues --   -0.02368  -0.01939  -0.01439  -0.00652  -0.00397
 Alpha virt. eigenvalues --   -0.00155   0.00158   0.00408   0.00592   0.00673

  Beta  occ. eigenvalues --  -38.44685 -38.44059 -38.43945 -38.43892 -38.43872
  Beta  occ. eigenvalues --  -38.43771 -38.42889  -2.20476  -2.19920  -2.19834
  Beta  occ. eigenvalues --   -2.19761  -2.19703  -2.19655  -2.18710  -1.14176
  Beta  occ. eigenvalues --   -1.14156  -1.14079  -1.13687  -1.13631  -1.13586
  Beta  occ. eigenvalues --   -1.13533  -1.13516  -1.13509  -1.13460  -1.13408
  Beta  occ. eigenvalues --   -1.13390  -1.13367  -1.13356  -1.13330  -1.13329
  Beta  occ. eigenvalues --   -1.13289  -1.13255  -1.12397  -1.12390  -1.12329
  Beta  occ. eigenvalues --   -0.17784  -0.13629  -0.11491
  Beta virt. eigenvalues --   -0.07042  -0.06040  -0.05686  -0.04098  -0.02816
  Beta virt. eigenvalues --   -0.02321  -0.02081  -0.01438  -0.01126  -0.00518
  Beta virt. eigenvalues --   -0.00176   0.00054   0.00228   0.00547   0.00646

 Mulliken charges and spin densities:
               1          2
     1  Na   0.267133   0.057012
     2  Na  -2.139965   0.173386
     3  Na   1.620364   0.077669
     4  Na  -0.248489   0.077189
     5  Na   0.126545   0.322911
     6  Na   0.118934   0.120096
     7  Na   0.255478   0.171737
 Sum of Mulliken charges =  -0.00000   1.00000

 Dipole moment (field-independent basis, Debye):
    X=             -0.3087    Y=              0.0084    Z=              0.7013  Tot=              0.7663
 Quadrupole moment (field-independent basis, Debye-Ang):
   XX=            -56.4289   YY=            -67.1624   ZZ=            -71.3585
   XY=             -5.5094   XZ=              0.3193   YZ=              1.9876

 Normal termination of Gaussian 16 at Tue Dec  5 14:48:05 2023.
