 Gaussian 16, Revision B.01,
 Gaussian 16:  ES64L-G16RevB.01 20-Dec-2017

 -------------------------
 #P B3LYP/6-311+g(d) force
 -------------------------

 -----
 DPGEN
 -----
 Symbolic Z-matrix:
 Charge =  0 Multiplicity = 2

                         Standard orientation:
 ---------------------------------------------------------------------
 Center     Atomic      Atomic             Coordinates (Angstroms)
 Number     Number       Type             X           Y           Z
 ---------------------------------------------------------------------
      1         11           0       -2.123927   -1.923962   -0.697673
      2         11           0       -0.296749    2.292233   -0.707682
      3         11           0       -3.452356    0.834744    0.619378
      4         11           0        2.616255   -1.635542    0.944931
      5         11           0        0.778457   -1.080127   -1.762134
      6         11           0        2.648969    1.721388   -0.134895
      7         11           0       -0.170649   -0.208734    1.738075
 ---------------------------------------------------------------------

 SCF Done:  E(UB3LYP) =  -1136.13037439     A.U. after   21 cycles

 The electronic state is 2-A.
 Alpha  occ. eigenvalues --  -38.44487 -38.44072 -38.43846 -38.43831 -38.43829
 Alpha  occ. eigenvalues --  -38.43508 -38.42836  -2.20302  -2.19986  -2.19711
 Alpha  occ. eigenvalues --   -2.19700  -2.19690  -2.19426  -2.18716  -1.13972
 Alpha  occ. eigenvalues --   -1.13957  -1.13940  -1.13677  -1.13636  -1.13621
 Alpha  occ. eigenvalues --   -1.13414  -1.13396  -1.13372  -1.13369  -1.13363
 Alpha  occ. eigenvalues --   -1.13343  -1.13340  -1.13318  -1.13309  -1.13100
 Alpha  occ. eigenvalues --   -1.13054  -1.13037  -1.12407  -1.12373  -1.12344
 Alpha  occ. eigenvalues --   -0.18615  -0.13729  -0.11791  -0.11232
 Alpha virt. eigenvalues --   -0.06220  -0.05345  -0.04149  -0.03427  -0.02921
 Alpha virt. eigenvalues --   -0.02514  -0.02064  -0.01134  -0.00397  -0.00076
 Alpha virt. eigenvalues --    0.00170   0.00270   0.00525   0.00749   0.00807

  Beta  occ. eigenvalues --  -38.44476 -38.44014 -38.43842 -38.43809 -38.43801
  Beta  occ. eigenvalues --  -38.43441 -38.42824  -2.20282  -2.19880  -2.19707
  Beta  occ. eigenvalues --   -2.19653  -2.19651  -2.19303  -2.18697  -1.13954
  Beta  occ. eigenvalues --   -1.13942  -1.13926  -1.13604  -1.13562  -1.13539
  Beta  occ. eigenvalues --   -1.13409  -1.13364  -1.13355  -1.13347  -1.13319
  Beta  occ. eigenvalues --   -1.13311  -1.13308  -1.13288  -1.13284  -1.13019
  Beta  occ. eigenvalues --   -1.12966  -1.12944  -1.12398  -1.12352  -1.12319
  Beta  occ. eigenvalues --   -0.17930  -0.13487  -0.11487
  Beta virt. eigenvalues --   -0.07353  -0.06077  -0.05324  -0.03692  -0.03093
  Beta virt. eigenvalues --   -0.02225  -0.01908  -0.01591  -0.01067  -0.00211
  Beta virt. eigenvalues --   -0.00001   0.00173   0.00320   0.00676   0.00803

 Mulliken charges and spin densities:
               1          2
     1  Na  -0.410367   0.071048
     2  Na  -0.515732  -0.016425
     3  Na   0.746502   0.069006
     4  Na   0.386683   0.101857
     5  Na   0.136599   0.362328
     6  Na   0.081764   0.040195
     7  Na  -0.425450   0.371991
 Sum of Mulliken charges =  -0.00000   1.00000

 Dipole moment (field-independent basis, Debye):
    X=             -0.2645    Y=             -0.1209    Z=              0.2110  Tot=              0.3593
 Quadrupole moment (field-independent basis, Debye-Ang):
   XX=            -50.5450   YY=            -72.8060   ZZ=            -71.3177
   XY=             -1.0011   XZ=              0.0544   YZ=              0.1445

 Normal termination of Gaussian 16 at Tue Dec  5 12:39:16 2023.
