 Gaussian 16, Revision B.01,
 Gaussian 16:  ES64L-G16RevB.01 20-Dec-2017

 -------------------------
 #P B3LYP/6-311+g(d) force
 -------------------------

 -----
 DPGEN
 -----
 Symbolic Z-matrix:
 Charge =  0 Multiplicity = 2

                         Standard orientation:
 ---------------------------------------------------------------------
 Center     Atomic      Atomic             Coordinates (Angstroms)
 Number     Number       Type             X           Y           Z
 ---------------------------------------------------------------------
      1         11           0        0.778728   -1.112604    1.324671
      2         11           0        0.406641   -0.559595   -1.560929
      3         11           0        2.929371   -0.154155   -0.288229
      4         11           0        0.907196    1.767293    0.305571
      5         11           0       -1.445735    0.458848    1.572771
      6         11           0       -1.824215    1.312257   -0.999729
      7         11           0       -1.751986   -1.712044   -0.354129
 ---------------------------------------------------------------------

 SCF Done:  E(UB3LYP) =  -1136.07772210     A.U. after   23 cycles

 The electronic state is 2-A.
 Alpha  occ. eigenvalues --  -38.44515 -38.44509 -38.44191 -38.43886 -38.43786
 Alpha  occ. eigenvalues --  -38.43261 -38.42713  -2.20724  -2.20562  -2.20466
 Alpha  occ. eigenvalues --   -2.20112  -2.19896  -2.19366  -2.18881  -1.14598
 Alpha  occ. eigenvalues --   -1.14508  -1.14489  -1.14319  -1.14308  -1.14213
 Alpha  occ. eigenvalues --   -1.14196  -1.14088  -1.14023  -1.13754  -1.13693
 Alpha  occ. eigenvalues --   -1.13655  -1.13560  -1.13520  -1.13476  -1.13046
 Alpha  occ. eigenvalues --   -1.13010  -1.12926  -1.12596  -1.12528  -1.12480
 Alpha  occ. eigenvalues --   -0.21652  -0.14298  -0.12911  -0.11985
 Alpha virt. eigenvalues --   -0.05638  -0.04266  -0.03949  -0.03765  -0.02942
 Alpha virt. eigenvalues --   -0.02834  -0.01230  -0.00355  -0.00293   0.00297
 Alpha virt. eigenvalues --    0.00734   0.00946   0.00996   0.01066   0.01084

  Beta  occ. eigenvalues --  -38.44510 -38.44440 -38.44116 -38.43825 -38.43754
  Beta  occ. eigenvalues --  -38.43247 -38.42695  -2.20603  -2.20552  -2.20336
  Beta  occ. eigenvalues --   -2.20005  -2.19842  -2.19346  -2.18856  -1.14495
  Beta  occ. eigenvalues --   -1.14452  -1.14424  -1.14263  -1.14225  -1.14187
  Beta  occ. eigenvalues --   -1.14154  -1.13995  -1.13950  -1.13685  -1.13604
  Beta  occ. eigenvalues --   -1.13570  -1.13519  -1.13465  -1.13425  -1.13033
  Beta  occ. eigenvalues --   -1.12965  -1.12900  -1.12584  -1.12483  -1.12440
  Beta  occ. eigenvalues --   -0.20794  -0.14042  -0.11733
  Beta virt. eigenvalues --   -0.08442  -0.05567  -0.03966  -0.03470  -0.03286
  Beta virt. eigenvalues --   -0.02156  -0.01962  -0.01178  -0.00301  -0.00074
  Beta virt. eigenvalues --    0.00330   0.00802   0.00981   0.01068   0.01103

 Mulliken charges and spin densities:
               1          2
     1  Na  -0.606213   0.190908
     2  Na  -0.078012   0.412311
     3  Na   1.090829   0.003159
     4  Na  -0.958065   0.140147
     5  Na   0.710006   0.217582
     6  Na   0.056261   0.044737
     7  Na  -0.214807  -0.008844
 Sum of Mulliken charges =  -0.00000   1.00000

 Dipole moment (field-independent basis, Debye):
    X=              0.2311    Y=              0.0124    Z=             -0.1286  Tot=              0.2647
 Quadrupole moment (field-independent basis, Debye-Ang):
   XX=            -56.9842   YY=            -75.2092   ZZ=            -65.0388
   XY=              0.0287   XZ=              0.1710   YZ=             -0.7486

 Normal termination of Gaussian 16 at Fri Dec  8 18:39:37 2023.
