 Gaussian 16, Revision B.01,
 Gaussian 16:  ES64L-G16RevB.01 20-Dec-2017

 -------------------------
 #P B3LYP/6-311+g(d) force
 -------------------------

 -----
 DPGEN
 -----
 Symbolic Z-matrix:
 Charge =  0 Multiplicity = 2

                         Standard orientation:
 ---------------------------------------------------------------------
 Center     Atomic      Atomic             Coordinates (Angstroms)
 Number     Number       Type             X           Y           Z
 ---------------------------------------------------------------------
      1         11           0       -3.195290   -1.308657   -1.354955
      2         11           0        2.923780    1.341055   -1.064765
      3         11           0       -1.066506    3.074174   -0.604680
      4         11           0       -3.106964    0.019757    1.977978
      5         11           0       -0.301545   -0.234872   -0.155761
      6         11           0        1.708336   -2.971373   -0.439780
      7         11           0        3.038189    0.079915    1.641964
 ---------------------------------------------------------------------

 SCF Done:  E(UB3LYP) =  -1136.10895676     A.U. after   26 cycles

 The electronic state is 2-A.
 Alpha  occ. eigenvalues --  -38.45682 -38.44989 -38.44464 -38.44222 -38.43769
 Alpha  occ. eigenvalues --  -38.43558 -38.42768  -2.21440  -2.20800  -2.20311
 Alpha  occ. eigenvalues --   -2.20034  -2.19542  -2.19326  -2.18723  -1.15124
 Alpha  occ. eigenvalues --   -1.15098  -1.15078  -1.14548  -1.14455  -1.14413
 Alpha  occ. eigenvalues --   -1.13979  -1.13952  -1.13904  -1.13700  -1.13664
 Alpha  occ. eigenvalues --   -1.13642  -1.13216  -1.13213  -1.13166  -1.12992
 Alpha  occ. eigenvalues --   -1.12990  -1.12951  -1.12457  -1.12369  -1.12353
 Alpha  occ. eigenvalues --   -0.17078  -0.14005  -0.11210  -0.10013
 Alpha virt. eigenvalues --   -0.07005  -0.05592  -0.05048  -0.03398  -0.02520
 Alpha virt. eigenvalues --   -0.02200  -0.01977  -0.01379  -0.01095  -0.00527
 Alpha virt. eigenvalues --   -0.00198  -0.00061   0.00154   0.00359   0.00473

  Beta  occ. eigenvalues --  -38.45692 -38.44985 -38.44417 -38.44139 -38.43754
  Beta  occ. eigenvalues --  -38.43531 -38.42746  -2.21462  -2.20797  -2.20223
  Beta  occ. eigenvalues --   -2.19878  -2.19517  -2.19277  -2.18688  -1.15131
  Beta  occ. eigenvalues --   -1.15114  -1.15082  -1.14529  -1.14449  -1.14408
  Beta  occ. eigenvalues --   -1.13919  -1.13894  -1.13845  -1.13592  -1.13557
  Beta  occ. eigenvalues --   -1.13540  -1.13201  -1.13190  -1.13147  -1.12961
  Beta  occ. eigenvalues --   -1.12951  -1.12918  -1.12402  -1.12356  -1.12327
  Beta  occ. eigenvalues --   -0.16623  -0.13566  -0.10853
  Beta virt. eigenvalues --   -0.06905  -0.06734  -0.04885  -0.04851  -0.03278
  Beta virt. eigenvalues --   -0.02329  -0.01822  -0.01453  -0.01224  -0.00655
  Beta virt. eigenvalues --   -0.00437   0.00000   0.00115   0.00259   0.00455

 Mulliken charges and spin densities:
               1          2
     1  Na   1.490890  -0.001149
     2  Na   0.019198   0.049482
     3  Na   1.190176   0.138430
     4  Na   0.819603   0.316813
     5  Na  -4.163097   0.325852
     6  Na  -0.065793  -0.063351
     7  Na   0.709023   0.233922
 Sum of Mulliken charges =  -0.00000   1.00000

 Dipole moment (field-independent basis, Debye):
    X=             -0.1590    Y=             -0.2669    Z=             -0.7004  Tot=              0.7662
 Quadrupole moment (field-independent basis, Debye-Ang):
   XX=            -57.4790   YY=            -72.2532   ZZ=            -65.2663
   XY=              0.8173   XZ=              3.1909   YZ=              1.7201

 Normal termination of Gaussian 16 at Wed Dec  6 00:51:59 2023.
