 Gaussian 16, Revision B.01,
 Gaussian 16:  ES64L-G16RevB.01 20-Dec-2017

 -------------------------
 #P B3LYP/6-311+g(d) force
 -------------------------

 -----
 DPGEN
 -----
 Symbolic Z-matrix:
 Charge =  0 Multiplicity = 2

                         Standard orientation:
 ---------------------------------------------------------------------
 Center     Atomic      Atomic             Coordinates (Angstroms)
 Number     Number       Type             X           Y           Z
 ---------------------------------------------------------------------
      1         11           0        0.030027   -2.566407   -1.089997
      2         11           0       -2.452458    1.760359    0.589576
      3         11           0        0.020842   -0.224345    1.462710
      4         11           0       -0.024838    2.658094   -1.103525
      5         11           0        3.425549   -0.157810    1.335114
      6         11           0       -3.040073   -1.575573    0.140938
      7         11           0        2.040951    0.105682   -1.334816
 ---------------------------------------------------------------------

 SCF Done:  E(UB3LYP) =  -1136.12651170     A.U. after   20 cycles

 The electronic state is 2-A.
 Alpha  occ. eigenvalues --  -38.44545 -38.44126 -38.44030 -38.43613 -38.43608
 Alpha  occ. eigenvalues --  -38.43537 -38.43336  -2.20406  -2.19963  -2.19943
 Alpha  occ. eigenvalues --   -2.19562  -2.19456  -2.19421  -2.19201  -1.14094
 Alpha  occ. eigenvalues --   -1.14049  -1.14023  -1.13670  -1.13628  -1.13619
 Alpha  occ. eigenvalues --   -1.13614  -1.13594  -1.13566  -1.13253  -1.13215
 Alpha  occ. eigenvalues --   -1.13211  -1.13126  -1.13116  -1.13107  -1.13094
 Alpha  occ. eigenvalues --   -1.13066  -1.13057  -1.12855  -1.12837  -1.12821
 Alpha  occ. eigenvalues --   -0.18348  -0.13753  -0.12212  -0.11122
 Alpha virt. eigenvalues --   -0.06199  -0.05082  -0.04806  -0.03395  -0.02814
 Alpha virt. eigenvalues --   -0.02424  -0.02125  -0.00732  -0.00404  -0.00150
 Alpha virt. eigenvalues --   -0.00004   0.00262   0.00482   0.00625   0.00835

  Beta  occ. eigenvalues --  -38.44490 -38.44131 -38.43993 -38.43579 -38.43567
  Beta  occ. eigenvalues --  -38.43535 -38.43306  -2.20303  -2.19953  -2.19895
  Beta  occ. eigenvalues --   -2.19503  -2.19418  -2.19381  -2.19144  -1.14031
  Beta  occ. eigenvalues --   -1.13968  -1.13953  -1.13627  -1.13616  -1.13606
  Beta  occ. eigenvalues --   -1.13594  -1.13583  -1.13522  -1.13204  -1.13167
  Beta  occ. eigenvalues --   -1.13150  -1.13122  -1.13083  -1.13068  -1.13054
  Beta  occ. eigenvalues --   -1.13049  -1.13018  -1.12812  -1.12802  -1.12782
  Beta  occ. eigenvalues --   -0.17733  -0.13417  -0.11992
  Beta virt. eigenvalues --   -0.07390  -0.06026  -0.04817  -0.04322  -0.03076
  Beta virt. eigenvalues --   -0.02400  -0.01978  -0.01530  -0.00712  -0.00111
  Beta virt. eigenvalues --   -0.00039   0.00080   0.00317   0.00642   0.00766

 Mulliken charges and spin densities:
               1          2
     1  Na  -0.420934   0.185973
     2  Na   0.697307   0.022677
     3  Na  -0.710096   0.180046
     4  Na  -0.476610   0.112306
     5  Na   0.050548   0.228516
     6  Na   0.356642   0.001473
     7  Na   0.503145   0.269010
 Sum of Mulliken charges =  -0.00000   1.00000

 Dipole moment (field-independent basis, Debye):
    X=             -0.0302    Y=             -0.2971    Z=              0.0979  Tot=              0.3143
 Quadrupole moment (field-independent basis, Debye-Ang):
   XX=            -54.3299   YY=            -70.5023   ZZ=            -70.6297
   XY=              0.4512   XZ=              0.2519   YZ=              0.3298

 Normal termination of Gaussian 16 at Wed Nov 29 01:29:03 2023.
