 Gaussian 16, Revision B.01,
 Gaussian 16:  ES64L-G16RevB.01 20-Dec-2017

 -------------------------
 #P B3LYP/6-311+g(d) force
 -------------------------

 -----
 DPGEN
 -----
 Symbolic Z-matrix:
 Charge =  0 Multiplicity = 2

                         Standard orientation:
 ---------------------------------------------------------------------
 Center     Atomic      Atomic             Coordinates (Angstroms)
 Number     Number       Type             X           Y           Z
 ---------------------------------------------------------------------
      1         11           0       -0.833171    2.756503    0.050273
      2         11           0        2.663956    1.577400   -0.162413
      3         11           0        2.157276   -1.985480    0.211559
      4         11           0        0.484818   -0.464729   -1.575492
      5         11           0       -1.471415   -2.412007    0.181462
      6         11           0        0.021984    0.213865    1.629710
      7         11           0       -3.023450    0.314447   -0.335100
 ---------------------------------------------------------------------

 SCF Done:  E(UB3LYP) =  -1136.13349947     A.U. after   20 cycles

 The electronic state is 2-A.
 Alpha  occ. eigenvalues --  -38.43994 -38.43879 -38.43804 -38.43448 -38.43406
 Alpha  occ. eigenvalues --  -38.43068 -38.42782  -2.19845  -2.19796  -2.19678
 Alpha  occ. eigenvalues --   -2.19323  -2.19313  -2.19112  -2.18818  -1.13583
 Alpha  occ. eigenvalues --   -1.13529  -1.13511  -1.13475  -1.13448  -1.13388
 Alpha  occ. eigenvalues --   -1.13367  -1.13342  -1.13327  -1.13042  -1.13009
 Alpha  occ. eigenvalues --   -1.12978  -1.12976  -1.12944  -1.12938  -1.12795
 Alpha  occ. eigenvalues --   -1.12739  -1.12704  -1.12499  -1.12444  -1.12423
 Alpha  occ. eigenvalues --   -0.19265  -0.13353  -0.12743  -0.10384
 Alpha virt. eigenvalues --   -0.05581  -0.05357  -0.04659  -0.03115  -0.02766
 Alpha virt. eigenvalues --   -0.01962  -0.01519  -0.01200  -0.00312  -0.00221
 Alpha virt. eigenvalues --    0.00055   0.00353   0.00848   0.00874   0.00922

  Beta  occ. eigenvalues --  -38.43987 -38.43869 -38.43797 -38.43443 -38.43397
  Beta  occ. eigenvalues --  -38.43004 -38.42703  -2.19836  -2.19782  -2.19667
  Beta  occ. eigenvalues --   -2.19317  -2.19302  -2.18995  -2.18675  -1.13568
  Beta  occ. eigenvalues --   -1.13517  -1.13488  -1.13469  -1.13411  -1.13380
  Beta  occ. eigenvalues --   -1.13363  -1.13337  -1.13299  -1.13030  -1.13002
  Beta  occ. eigenvalues --   -1.12954  -1.12947  -1.12943  -1.12923  -1.12714
  Beta  occ. eigenvalues --   -1.12657  -1.12619  -1.12402  -1.12336  -1.12323
  Beta  occ. eigenvalues --   -0.18553  -0.13082  -0.12479
  Beta virt. eigenvalues --   -0.06491  -0.05564  -0.05302  -0.04647  -0.02319
  Beta virt. eigenvalues --   -0.01991  -0.01437  -0.01142  -0.00973  -0.00344
  Beta virt. eigenvalues --   -0.00270   0.00184   0.00393   0.00869   0.00899

 Mulliken charges and spin densities:
               1          2
     1  Na   0.137526  -0.050870
     2  Na   0.081366  -0.116600
     3  Na   0.422430  -0.072190
     4  Na  -0.510749   0.635436
     5  Na   0.289175   0.028389
     6  Na  -0.343931   0.569413
     7  Na  -0.075818   0.006422
 Sum of Mulliken charges =  -0.00000   1.00000

 Dipole moment (field-independent basis, Debye):
    X=              0.2430    Y=              0.0800    Z=              0.0174  Tot=              0.2564
 Quadrupole moment (field-independent basis, Debye-Ang):
   XX=            -55.2067   YY=            -60.7898   ZZ=            -76.2071
   XY=              0.3796   XZ=              1.1331   YZ=             -1.6288

 Normal termination of Gaussian 16 at Tue Nov 28 22:25:11 2023.
