 Gaussian 16, Revision B.01,
 Gaussian 16:  ES64L-G16RevB.01 20-Dec-2017

 -------------------------
 #P B3LYP/6-311+g(d) force
 -------------------------

 -----
 DPGEN
 -----
 Symbolic Z-matrix:
 Charge =  0 Multiplicity = 2

                         Standard orientation:
 ---------------------------------------------------------------------
 Center     Atomic      Atomic             Coordinates (Angstroms)
 Number     Number       Type             X           Y           Z
 ---------------------------------------------------------------------
      1         11           0        1.925447    0.197458    1.273832
      2         11           0        4.209125   -1.158516   -0.401308
      3         11           0       -2.799433    0.858439   -0.707790
      4         11           0        0.351649    2.613061   -0.509976
      5         11           0        0.303356   -0.740939   -1.546181
      6         11           0       -0.863489    0.297174    1.686687
      7         11           0       -3.126654   -2.066677    0.204736
 ---------------------------------------------------------------------

 SCF Done:  E(UB3LYP) =  -1136.11742915     A.U. after   22 cycles

 The electronic state is 2-A.
 Alpha  occ. eigenvalues --  -38.44943 -38.44506 -38.44193 -38.43666 -38.43558
 Alpha  occ. eigenvalues --  -38.43463 -38.42922  -2.20799  -2.20437  -2.19981
 Alpha  occ. eigenvalues --   -2.19704  -2.19469  -2.19401  -2.18808  -1.14512
 Alpha  occ. eigenvalues --   -1.14450  -1.14395  -1.14154  -1.14100  -1.14050
 Alpha  occ. eigenvalues --   -1.13689  -1.13639  -1.13616  -1.13577  -1.13335
 Alpha  occ. eigenvalues --   -1.13275  -1.13117  -1.13094  -1.13077  -1.13051
 Alpha  occ. eigenvalues --   -1.13041  -1.13021  -1.12477  -1.12464  -1.12446
 Alpha  occ. eigenvalues --   -0.18951  -0.13917  -0.11476  -0.11251
 Alpha virt. eigenvalues --   -0.06873  -0.05068  -0.04245  -0.03154  -0.02787
 Alpha virt. eigenvalues --   -0.02500  -0.02237  -0.01234  -0.00670  -0.00248
 Alpha virt. eigenvalues --    0.00092   0.00304   0.00362   0.00682   0.00766

  Beta  occ. eigenvalues --  -38.44889 -38.44488 -38.44200 -38.43586 -38.43557
  Beta  occ. eigenvalues --  -38.43420 -38.42907  -2.20702  -2.20406  -2.19994
  Beta  occ. eigenvalues --   -2.19561  -2.19400  -2.19395  -2.18784  -1.14444
  Beta  occ. eigenvalues --   -1.14373  -1.14323  -1.14128  -1.14070  -1.14022
  Beta  occ. eigenvalues --   -1.13694  -1.13648  -1.13619  -1.13480  -1.13230
  Beta  occ. eigenvalues --   -1.13177  -1.13078  -1.13064  -1.13041  -1.13036
  Beta  occ. eigenvalues --   -1.13033  -1.12950  -1.12464  -1.12440  -1.12413
  Beta  occ. eigenvalues --   -0.18178  -0.13785  -0.11282
  Beta virt. eigenvalues --   -0.07187  -0.06691  -0.05025  -0.03712  -0.02858
  Beta virt. eigenvalues --   -0.02489  -0.01955  -0.01548  -0.01035  -0.00399
  Beta virt. eigenvalues --   -0.00205   0.00123   0.00357   0.00491   0.00749

 Mulliken charges and spin densities:
               1          2
     1  Na   0.205677   0.039077
     2  Na   0.283837  -0.013857
     3  Na   0.735608   0.196677
     4  Na  -0.124269   0.114152
     5  Na  -0.864279   0.436284
     6  Na  -0.499529   0.336362
     7  Na   0.262957  -0.108696
 Sum of Mulliken charges =  -0.00000   1.00000

 Dipole moment (field-independent basis, Debye):
    X=             -0.2348    Y=              0.3027    Z=             -0.7163  Tot=              0.8123
 Quadrupole moment (field-independent basis, Debye-Ang):
   XX=            -56.4757   YY=            -67.5644   ZZ=            -71.7660
   XY=             -0.0756   XZ=             -0.5737   YZ=             -0.6906

 Normal termination of Gaussian 16 at Tue Dec  5 12:08:23 2023.
