 Gaussian 16, Revision B.01,
 Gaussian 16:  ES64L-G16RevB.01 20-Dec-2017

 -------------------------
 #P B3LYP/6-311+g(d) force
 -------------------------

 -----
 DPGEN
 -----
 Symbolic Z-matrix:
 Charge =  0 Multiplicity = 2

                         Standard orientation:
 ---------------------------------------------------------------------
 Center     Atomic      Atomic             Coordinates (Angstroms)
 Number     Number       Type             X           Y           Z
 ---------------------------------------------------------------------
      1         11           0       -2.372949   -0.358646    1.679786
      2         11           0       -0.606772    2.986634   -1.022430
      3         11           0       -2.810801   -3.048236   -0.166761
      4         11           0       -3.001893    2.574728    0.011413
      5         11           0        3.165918   -1.516704   -0.579033
      6         11           0        0.216075   -1.612258   -0.836991
      7         11           0        5.410422    0.974482    0.914017
 ---------------------------------------------------------------------

 SCF Done:  E(UB3LYP) =  -1136.10367459     A.U. after   19 cycles

 The electronic state is 2-A.
 Alpha  occ. eigenvalues --  -38.45222 -38.44910 -38.44642 -38.44567 -38.44289
 Alpha  occ. eigenvalues --  -38.43469 -38.43347  -2.21085  -2.20739  -2.20466
 Alpha  occ. eigenvalues --   -2.20443  -2.20074  -2.19357  -2.19164  -1.15021
 Alpha  occ. eigenvalues --   -1.14699  -1.14681  -1.14417  -1.14395  -1.14368
 Alpha  occ. eigenvalues --   -1.14114  -1.14104  -1.14083  -1.14078  -1.14067
 Alpha  occ. eigenvalues --   -1.14065  -1.13712  -1.13711  -1.13677  -1.13119
 Alpha  occ. eigenvalues --   -1.13011  -1.12991  -1.12825  -1.12808  -1.12781
 Alpha  occ. eigenvalues --   -0.16698  -0.13739  -0.12903  -0.10714
 Alpha virt. eigenvalues --   -0.06920  -0.05359  -0.04460  -0.03828  -0.02869
 Alpha virt. eigenvalues --   -0.02555  -0.01996  -0.01549  -0.01023  -0.00811
 Alpha virt. eigenvalues --   -0.00449  -0.00098   0.00077   0.00396   0.00453

  Beta  occ. eigenvalues --  -38.45207 -38.44874 -38.44651 -38.44565 -38.44171
  Beta  occ. eigenvalues --  -38.43417 -38.43354  -2.21056  -2.20673  -2.20465
  Beta  occ. eigenvalues --   -2.20462  -2.19854  -2.19262  -2.19185  -1.15006
  Beta  occ. eigenvalues --   -1.14678  -1.14661  -1.14367  -1.14350  -1.14328
  Beta  occ. eigenvalues --   -1.14125  -1.14112  -1.14088  -1.14075  -1.14067
  Beta  occ. eigenvalues --   -1.14054  -1.13562  -1.13561  -1.13533  -1.13070
  Beta  occ. eigenvalues --   -1.12944  -1.12928  -1.12844  -1.12824  -1.12738
  Beta  occ. eigenvalues --   -0.16355  -0.13376  -0.12302
  Beta virt. eigenvalues --   -0.07335  -0.06402  -0.05225  -0.04155  -0.03461
  Beta virt. eigenvalues --   -0.02763  -0.02143  -0.01778  -0.01216  -0.00940
  Beta virt. eigenvalues --   -0.00471  -0.00101   0.00083   0.00235   0.00544

 Mulliken charges and spin densities:
               1          2
     1  Na   0.058002   0.257136
     2  Na   0.184459  -0.000499
     3  Na   0.674587  -0.012951
     4  Na   0.033989   0.028321
     5  Na   0.097881  -0.176366
     6  Na  -0.896999   0.267847
     7  Na  -0.151918   0.636511
 Sum of Mulliken charges =  -0.00000   1.00000

 Dipole moment (field-independent basis, Debye):
    X=             -2.4167    Y=              0.3327    Z=              0.0498  Tot=              2.4400
 Quadrupole moment (field-independent basis, Debye-Ang):
   XX=            -69.5915   YY=            -63.9890   ZZ=            -69.5584
   XY=              5.0164   XZ=              0.7894   YZ=              1.5076

 Normal termination of Gaussian 16 at Sun Dec  3 22:04:58 2023.
