 Gaussian 16, Revision B.01,
 Gaussian 16:  ES64L-G16RevB.01 20-Dec-2017

 -------------------------
 #P B3LYP/6-311+g(d) force
 -------------------------

 -----
 DPGEN
 -----
 Symbolic Z-matrix:
 Charge =  0 Multiplicity = 2

                         Standard orientation:
 ---------------------------------------------------------------------
 Center     Atomic      Atomic             Coordinates (Angstroms)
 Number     Number       Type             X           Y           Z
 ---------------------------------------------------------------------
      1         11           0       -3.220933   -0.025883   -0.061741
      2         11           0       -3.137585   -3.264374    0.161801
      3         11           0        4.074021   -1.272201    0.204674
      4         11           0       -3.013142    3.630905   -0.169481
      5         11           0        5.909677    1.091228   -0.148964
      6         11           0       -0.122212   -1.983695   -0.404411
      7         11           0       -0.489825    1.824019    0.418122
 ---------------------------------------------------------------------

 SCF Done:  E(UB3LYP) =  -1136.11916634     A.U. after   20 cycles

 The electronic state is 2-A.
 Alpha  occ. eigenvalues --  -38.44737 -38.44555 -38.44406 -38.43854 -38.43850
 Alpha  occ. eigenvalues --  -38.43617 -38.43592  -2.20585  -2.20373  -2.20283
 Alpha  occ. eigenvalues --   -2.19696  -2.19688  -2.19438  -2.19384  -1.14278
 Alpha  occ. eigenvalues --   -1.14258  -1.14224  -1.14031  -1.14028  -1.13986
 Alpha  occ. eigenvalues --   -1.13982  -1.13977  -1.13874  -1.13379  -1.13362
 Alpha  occ. eigenvalues --   -1.13355  -1.13348  -1.13342  -1.13259  -1.13213
 Alpha  occ. eigenvalues --   -1.13081  -1.13077  -1.13044  -1.13028  -1.12960
 Alpha  occ. eigenvalues --   -0.16930  -0.13423  -0.13072  -0.10526
 Alpha virt. eigenvalues --   -0.06266  -0.05550  -0.04644  -0.03788  -0.02794
 Alpha virt. eigenvalues --   -0.02282  -0.01990  -0.01940  -0.01173  -0.00955
 Alpha virt. eigenvalues --   -0.00242  -0.00023   0.00312   0.00486   0.00612

  Beta  occ. eigenvalues --  -38.44709 -38.44547 -38.44377 -38.43819 -38.43804
  Beta  occ. eigenvalues --  -38.43600 -38.43569  -2.20533  -2.20357  -2.20232
  Beta  occ. eigenvalues --   -2.19639  -2.19596  -2.19406  -2.19347  -1.14245
  Beta  occ. eigenvalues --   -1.14225  -1.14177  -1.14018  -1.14013  -1.13970
  Beta  occ. eigenvalues --   -1.13951  -1.13923  -1.13834  -1.13327  -1.13311
  Beta  occ. eigenvalues --   -1.13306  -1.13296  -1.13287  -1.13195  -1.13181
  Beta  occ. eigenvalues --   -1.13075  -1.13047  -1.13007  -1.13004  -1.12924
  Beta  occ. eigenvalues --   -0.16344  -0.13152  -0.12643
  Beta virt. eigenvalues --   -0.07113  -0.05954  -0.05185  -0.04313  -0.03410
  Beta virt. eigenvalues --   -0.02445  -0.02161  -0.01880  -0.01797  -0.00921
  Beta virt. eigenvalues --   -0.00519   0.00040   0.00242   0.00392   0.00634

 Mulliken charges and spin densities:
               1          2
     1  Na  -1.133896   0.437197
     2  Na   1.520913   0.159035
     3  Na  -0.552578  -0.081192
     4  Na   1.588375   0.106202
     5  Na   0.256603   0.226464
     6  Na  -0.782617   0.103407
     7  Na  -0.896801   0.048887
 Sum of Mulliken charges =  -0.00000   1.00000

 Dipole moment (field-independent basis, Debye):
    X=             -1.8752    Y=              1.1154    Z=             -0.0160  Tot=              2.1819
 Quadrupole moment (field-independent basis, Debye-Ang):
   XX=            -72.3822   YY=            -52.9508   ZZ=            -73.3422
   XY=              0.0332   XZ=              0.0796   YZ=             -1.4203

 Normal termination of Gaussian 16 at Tue Nov 28 23:46:23 2023.
