 Gaussian 16, Revision B.01,
 Gaussian 16:  ES64L-G16RevB.01 20-Dec-2017

 -------------------------
 #P B3LYP/6-311+g(d) force
 -------------------------

 -----
 DPGEN
 -----
 Symbolic Z-matrix:
 Charge =  0 Multiplicity = 2

                         Standard orientation:
 ---------------------------------------------------------------------
 Center     Atomic      Atomic             Coordinates (Angstroms)
 Number     Number       Type             X           Y           Z
 ---------------------------------------------------------------------
      1         11           0       -3.856137    0.089702   -0.568296
      2         11           0        2.094736    2.810831   -0.108508
      3         11           0        0.406347    0.173225    2.884184
      4         11           0        3.087757   -0.508247   -0.483176
      5         11           0        1.187463   -2.560049   -1.751980
      6         11           0       -1.682459    2.270673   -1.058137
      7         11           0       -1.237707   -2.276135    1.085912
 ---------------------------------------------------------------------

 SCF Done:  E(UB3LYP) =  -1136.11424283     A.U. after   21 cycles

 The electronic state is 2-A.
 Alpha  occ. eigenvalues --  -38.45832 -38.44301 -38.44277 -38.44223 -38.44116
 Alpha  occ. eigenvalues --  -38.44109 -38.43678  -2.21618  -2.20100  -2.20078
 Alpha  occ. eigenvalues --   -2.20042  -2.19909  -2.19897  -2.19445  -1.15260
 Alpha  occ. eigenvalues --   -1.15257  -1.15217  -1.13869  -1.13769  -1.13761
 Alpha  occ. eigenvalues --   -1.13743  -1.13738  -1.13713  -1.13684  -1.13666
 Alpha  occ. eigenvalues --   -1.13650  -1.13641  -1.13581  -1.13559  -1.13554
 Alpha  occ. eigenvalues --   -1.13530  -1.13474  -1.13118  -1.13100  -1.13097
 Alpha  occ. eigenvalues --   -0.16665  -0.13137  -0.12160  -0.11962
 Alpha virt. eigenvalues --   -0.06062  -0.05920  -0.04250  -0.03721  -0.03530
 Alpha virt. eigenvalues --   -0.02885  -0.01563  -0.01213  -0.00813  -0.00623
 Alpha virt. eigenvalues --   -0.00302   0.00159   0.00243   0.00429   0.00661

  Beta  occ. eigenvalues --  -38.45710 -38.44286 -38.44260 -38.44178 -38.44104
  Beta  occ. eigenvalues --  -38.44097 -38.43679  -2.21393  -2.20072  -2.20055
  Beta  occ. eigenvalues --   -2.19959  -2.19887  -2.19877  -2.19446  -1.15109
  Beta  occ. eigenvalues --   -1.15105  -1.15053  -1.13825  -1.13745  -1.13741
  Beta  occ. eigenvalues --   -1.13719  -1.13706  -1.13705  -1.13648  -1.13629
  Beta  occ. eigenvalues --   -1.13602  -1.13588  -1.13567  -1.13544  -1.13540
  Beta  occ. eigenvalues --   -1.13518  -1.13456  -1.13116  -1.13100  -1.13099
  Beta  occ. eigenvalues --   -0.15963  -0.12714  -0.11941
  Beta virt. eigenvalues --   -0.08153  -0.05961  -0.05601  -0.03670  -0.03372
  Beta virt. eigenvalues --   -0.03029  -0.02379  -0.01492  -0.01102  -0.00753
  Beta virt. eigenvalues --   -0.00398  -0.00077   0.00330   0.00498   0.00510

 Mulliken charges and spin densities:
               1          2
     1  Na   0.270014  -0.001176
     2  Na   0.103123   0.022465
     3  Na  -0.045464   0.560713
     4  Na  -0.189690   0.128155
     5  Na   0.169429   0.122905
     6  Na  -0.296414   0.078160
     7  Na  -0.010998   0.088778
 Sum of Mulliken charges =  -0.00000   1.00000

 Dipole moment (field-independent basis, Debye):
    X=             -0.1311    Y=             -0.2817    Z=              0.4093  Tot=              0.5139
 Quadrupole moment (field-independent basis, Debye-Ang):
   XX=            -64.7329   YY=            -69.6218   ZZ=            -66.6377
   XY=              3.7100   XZ=              0.8197   YZ=              1.9650

 Normal termination of Gaussian 16 at Mon Dec  4 01:02:43 2023.
