 Gaussian 16, Revision B.01,
 Gaussian 16:  ES64L-G16RevB.01 20-Dec-2017

 -------------------------
 #P B3LYP/6-311+g(d) force
 -------------------------

 -----
 DPGEN
 -----
 Symbolic Z-matrix:
 Charge =  0 Multiplicity = 2

                         Standard orientation:
 ---------------------------------------------------------------------
 Center     Atomic      Atomic             Coordinates (Angstroms)
 Number     Number       Type             X           Y           Z
 ---------------------------------------------------------------------
      1         11           0        2.744218    3.214858   -0.222494
      2         11           0        3.785440   -0.142610    0.502093
      3         11           0       -0.578742    3.300748    0.147613
      4         11           0       -3.762320   -1.711284    0.536571
      5         11           0       -1.043259   -3.109244   -0.244704
      6         11           0       -4.081994    1.637811   -0.380487
      7         11           0        2.936658   -3.190279   -0.338592
 ---------------------------------------------------------------------

 SCF Done:  E(UB3LYP) =  -1136.11010778     A.U. after   21 cycles

 The electronic state is 2-A.
 Alpha  occ. eigenvalues --  -38.45362 -38.45184 -38.44801 -38.44430 -38.44279
 Alpha  occ. eigenvalues --  -38.44068 -38.43792  -2.21105  -2.20962  -2.20596
 Alpha  occ. eigenvalues --   -2.20242  -2.20070  -2.19861  -2.19602  -1.14797
 Alpha  occ. eigenvalues --   -1.14787  -1.14733  -1.14643  -1.14630  -1.14599
 Alpha  occ. eigenvalues --   -1.14273  -1.14254  -1.14228  -1.13909  -1.13905
 Alpha  occ. eigenvalues --   -1.13885  -1.13724  -1.13705  -1.13696  -1.13519
 Alpha  occ. eigenvalues --   -1.13517  -1.13500  -1.13255  -1.13250  -1.13245
 Alpha  occ. eigenvalues --   -0.15559  -0.14109  -0.13432  -0.10925
 Alpha virt. eigenvalues --   -0.07640  -0.04741  -0.04529  -0.03516  -0.03392
 Alpha virt. eigenvalues --   -0.02576  -0.02254  -0.02139  -0.01544  -0.00548
 Alpha virt. eigenvalues --   -0.00348  -0.00125   0.00246   0.00305   0.00469

  Beta  occ. eigenvalues --  -38.45358 -38.45165 -38.44746 -38.44415 -38.44208
  Beta  occ. eigenvalues --  -38.44040 -38.43755  -2.21102  -2.20931  -2.20499
  Beta  occ. eigenvalues --   -2.20223  -2.19938  -2.19811  -2.19532  -1.14800
  Beta  occ. eigenvalues --   -1.14790  -1.14696  -1.14625  -1.14613  -1.14548
  Beta  occ. eigenvalues --   -1.14206  -1.14191  -1.14151  -1.13899  -1.13892
  Beta  occ. eigenvalues --   -1.13836  -1.13635  -1.13618  -1.13608  -1.13487
  Beta  occ. eigenvalues --   -1.13480  -1.13463  -1.13208  -1.13203  -1.13200
  Beta  occ. eigenvalues --   -0.15018  -0.13396  -0.12707
  Beta virt. eigenvalues --   -0.07802  -0.07705  -0.04366  -0.04103  -0.03254
  Beta virt. eigenvalues --   -0.02974  -0.02324  -0.02058  -0.01958  -0.01404
  Beta virt. eigenvalues --   -0.00172  -0.00040   0.00025   0.00284   0.00371

 Mulliken charges and spin densities:
               1          2
     1  Na   0.145352   0.186898
     2  Na  -0.341614   0.112324
     3  Na  -0.193927   0.073542
     4  Na   0.054770  -0.131927
     5  Na  -0.179229   0.307028
     6  Na   0.101312   0.298396
     7  Na   0.413336   0.153739
 Sum of Mulliken charges =  -0.00000   1.00000

 Dipole moment (field-independent basis, Debye):
    X=              0.1668    Y=             -0.0849    Z=              0.0197  Tot=              0.1882
 Quadrupole moment (field-independent basis, Debye-Ang):
   XX=            -61.1423   YY=            -66.7408   ZZ=            -72.7683
   XY=              1.0325   XZ=             -0.5131   YZ=              0.8681

 Normal termination of Gaussian 16 at Mon Dec  4 00:12:05 2023.
