 Gaussian 16, Revision B.01,
 Gaussian 16:  ES64L-G16RevB.01 20-Dec-2017

 -------------------------
 #P B3LYP/6-311+g(d) force
 -------------------------

 -----
 DPGEN
 -----
 Symbolic Z-matrix:
 Charge =  0 Multiplicity = 2

                         Standard orientation:
 ---------------------------------------------------------------------
 Center     Atomic      Atomic             Coordinates (Angstroms)
 Number     Number       Type             X           Y           Z
 ---------------------------------------------------------------------
      1         11           0        0.044835   -0.073837   -1.641359
      2         11           0        1.352066    2.626688   -0.086797
      3         11           0        3.326435   -0.645563   -0.072416
      4         11           0        0.226822   -2.808720   -0.252753
      5         11           0        0.119858    0.092840    2.199697
      6         11           0       -2.876657   -1.461678    0.139814
      7         11           0       -2.193359    2.270270   -0.286187
 ---------------------------------------------------------------------

 SCF Done:  E(UB3LYP) =  -1136.13697808     A.U. after   19 cycles

 The electronic state is 2-A.
 Alpha  occ. eigenvalues --  -38.44154 -38.43903 -38.43857 -38.43728 -38.43663
 Alpha  occ. eigenvalues --  -38.43426 -38.43299  -2.19933  -2.19710  -2.19701
 Alpha  occ. eigenvalues --   -2.19534  -2.19495  -2.19298  -2.19259  -1.13608
 Alpha  occ. eigenvalues --   -1.13585  -1.13581  -1.13379  -1.13374  -1.13362
 Alpha  occ. eigenvalues --   -1.13357  -1.13332  -1.13317  -1.13218  -1.13200
 Alpha  occ. eigenvalues --   -1.13186  -1.13176  -1.13162  -1.13107  -1.13093
 Alpha  occ. eigenvalues --   -1.12957  -1.12923  -1.12905  -1.12867  -1.12856
 Alpha  occ. eigenvalues --   -0.18284  -0.12662  -0.12504  -0.10739
 Alpha virt. eigenvalues --   -0.05681  -0.05319  -0.04749  -0.03069  -0.02923
 Alpha virt. eigenvalues --   -0.02704  -0.01647  -0.01213  -0.00492  -0.00401
 Alpha virt. eigenvalues --   -0.00043   0.00339   0.00756   0.00843   0.00865

  Beta  occ. eigenvalues --  -38.44154 -38.43901 -38.43754 -38.43724 -38.43658
  Beta  occ. eigenvalues --  -38.43417 -38.43238  -2.19937  -2.19709  -2.19529
  Beta  occ. eigenvalues --   -2.19510  -2.19489  -2.19286  -2.19150  -1.13598
  Beta  occ. eigenvalues --   -1.13586  -1.13585  -1.13375  -1.13363  -1.13359
  Beta  occ. eigenvalues --   -1.13236  -1.13209  -1.13199  -1.13186  -1.13185
  Beta  occ. eigenvalues --   -1.13176  -1.13168  -1.13138  -1.13106  -1.13060
  Beta  occ. eigenvalues --   -1.12926  -1.12899  -1.12854  -1.12800  -1.12781
  Beta  occ. eigenvalues --   -0.17558  -0.12471  -0.12284
  Beta virt. eigenvalues --   -0.06797  -0.05652  -0.05311  -0.04684  -0.02301
  Beta virt. eigenvalues --   -0.02180  -0.01624  -0.01554  -0.01142  -0.00548
  Beta virt. eigenvalues --   -0.00445   0.00111   0.00362   0.00819   0.00834

 Mulliken charges and spin densities:
               1          2
     1  Na  -0.077756   0.414385
     2  Na   0.141567  -0.065645
     3  Na   0.096512  -0.075357
     4  Na   0.257298  -0.036285
     5  Na  -0.552745   0.820915
     6  Na   0.057432  -0.011513
     7  Na   0.077692  -0.046501
 Sum of Mulliken charges =  -0.00000   1.00000

 Dipole moment (field-independent basis, Debye):
    X=              0.0897    Y=              0.0536    Z=              0.1570  Tot=              0.1886
 Quadrupole moment (field-independent basis, Debye-Ang):
   XX=            -55.5775   YY=            -62.9434   ZZ=            -74.7316
   XY=             -0.1061   XZ=             -0.2466   YZ=             -0.4556

 Normal termination of Gaussian 16 at Thu Dec  7 19:34:50 2023.
