 Gaussian 16, Revision B.01,
 Gaussian 16:  ES64L-G16RevB.01 20-Dec-2017

 -------------------------
 #P B3LYP/6-311+g(d) force
 -------------------------

 -----
 DPGEN
 -----
 Symbolic Z-matrix:
 Charge =  0 Multiplicity = 2

                         Standard orientation:
 ---------------------------------------------------------------------
 Center     Atomic      Atomic             Coordinates (Angstroms)
 Number     Number       Type             X           Y           Z
 ---------------------------------------------------------------------
      1         11           0       -0.513445   -0.350759    1.435521
      2         11           0        1.435058   -2.340503    0.214462
      3         11           0       -3.771091    0.410555   -0.102224
      4         11           0        2.072221    2.214165    0.463090
      5         11           0       -1.638323    2.612885   -0.627674
      6         11           0       -2.011830   -2.437107   -0.649103
      7         11           0        4.427411   -0.109236   -0.734073
 ---------------------------------------------------------------------

 SCF Done:  E(UB3LYP) =  -1136.12356128     A.U. after   19 cycles

 The electronic state is 2-A.
 Alpha  occ. eigenvalues --  -38.44285 -38.44198 -38.44153 -38.44148 -38.44020
 Alpha  occ. eigenvalues --  -38.43768 -38.43732  -2.20124  -2.19988  -2.19972
 Alpha  occ. eigenvalues --   -2.19965  -2.19953  -2.19609  -2.19577  -1.13823
 Alpha  occ. eigenvalues --   -1.13803  -1.13792  -1.13751  -1.13668  -1.13664
 Alpha  occ. eigenvalues --   -1.13662  -1.13644  -1.13637  -1.13616  -1.13607
 Alpha  occ. eigenvalues --   -1.13595  -1.13582  -1.13580  -1.13520  -1.13264
 Alpha  occ. eigenvalues --   -1.13245  -1.13240  -1.13223  -1.13217  -1.13190
 Alpha  occ. eigenvalues --   -0.17536  -0.13936  -0.12552  -0.10454
 Alpha virt. eigenvalues --   -0.06391  -0.06007  -0.04098  -0.03852  -0.02783
 Alpha virt. eigenvalues --   -0.02366  -0.01818  -0.01396  -0.01025  -0.00621
 Alpha virt. eigenvalues --   -0.00278   0.00205   0.00486   0.00594   0.00689

  Beta  occ. eigenvalues --  -38.44277 -38.44194 -38.44151 -38.44138 -38.43970
  Beta  occ. eigenvalues --  -38.43691 -38.43678  -2.20111  -2.19974  -2.19970
  Beta  occ. eigenvalues --   -2.19963  -2.19864  -2.19533  -2.19409  -1.13811
  Beta  occ. eigenvalues --   -1.13796  -1.13756  -1.13718  -1.13668  -1.13664
  Beta  occ. eigenvalues --   -1.13653  -1.13642  -1.13639  -1.13588  -1.13572
  Beta  occ. eigenvalues --   -1.13568  -1.13552  -1.13523  -1.13458  -1.13212
  Beta  occ. eigenvalues --   -1.13199  -1.13185  -1.13108  -1.13102  -1.13083
  Beta  occ. eigenvalues --   -0.17041  -0.13190  -0.12322
  Beta virt. eigenvalues --   -0.07026  -0.06258  -0.05815  -0.03890  -0.03232
  Beta virt. eigenvalues --   -0.02287  -0.02019  -0.01639  -0.01196  -0.00745
  Beta virt. eigenvalues --   -0.00564   0.00051   0.00383   0.00569   0.00663

 Mulliken charges and spin densities:
               1          2
     1  Na   0.643357   0.187364
     2  Na  -0.494173  -0.035243
     3  Na   0.139519   0.306945
     4  Na  -0.340075  -0.033513
     5  Na  -0.151301  -0.007670
     6  Na  -0.007437   0.044768
     7  Na   0.210109   0.537348
 Sum of Mulliken charges =  -0.00000   1.00000

 Dipole moment (field-independent basis, Debye):
    X=             -0.7623    Y=             -0.2918    Z=             -0.1131  Tot=              0.8241
 Quadrupole moment (field-independent basis, Debye-Ang):
   XX=            -69.4385   YY=            -64.0796   ZZ=            -68.9892
   XY=              0.3176   XZ=              0.4894   YZ=              1.1188

 Normal termination of Gaussian 16 at Tue Nov 28 22:19:14 2023.
