 Gaussian 16, Revision B.01,
 Gaussian 16:  ES64L-G16RevB.01 20-Dec-2017

 -------------------------
 #P B3LYP/6-311+g(d) force
 -------------------------

 -----
 DPGEN
 -----
 Symbolic Z-matrix:
 Charge =  0 Multiplicity = 2

                         Standard orientation:
 ---------------------------------------------------------------------
 Center     Atomic      Atomic             Coordinates (Angstroms)
 Number     Number       Type             X           Y           Z
 ---------------------------------------------------------------------
      1         11           0        1.399796    2.339296   -0.446743
      2         11           0        1.003263   -0.671814   -2.166389
      3         11           0       -3.894874   -0.184009   -0.161591
      4         11           0       -1.453664    0.845204   -0.526473
      5         11           0        3.033872   -0.900783    0.378537
      6         11           0       -0.258614   -2.069186    0.563885
      7         11           0        0.170222    0.641291    2.358773
 ---------------------------------------------------------------------

 SCF Done:  E(UB3LYP) =  -1136.11592003     A.U. after   26 cycles

 The electronic state is 2-A.
 Alpha  occ. eigenvalues --  -38.45258 -38.44725 -38.44225 -38.44051 -38.43291
 Alpha  occ. eigenvalues --  -38.42992 -38.42495  -2.21099  -2.20562  -2.20122
 Alpha  occ. eigenvalues --   -2.19977  -2.19206  -2.19071  -2.18384  -1.14931
 Alpha  occ. eigenvalues --   -1.14709  -1.14689  -1.14252  -1.14221  -1.14187
 Alpha  occ. eigenvalues --   -1.13819  -1.13745  -1.13720  -1.13668  -1.13608
 Alpha  occ. eigenvalues --   -1.13581  -1.12930  -1.12884  -1.12794  -1.12786
 Alpha  occ. eigenvalues --   -1.12712  -1.12655  -1.12075  -1.12027  -1.12015
 Alpha  occ. eigenvalues --   -0.19160  -0.13361  -0.12280  -0.11159
 Alpha virt. eigenvalues --   -0.06810  -0.04071  -0.03923  -0.03526  -0.03156
 Alpha virt. eigenvalues --   -0.02778  -0.02306  -0.00722  -0.00394   0.00020
 Alpha virt. eigenvalues --    0.00191   0.00337   0.00349   0.00869   0.01028

  Beta  occ. eigenvalues --  -38.45263 -38.44720 -38.44142 -38.43986 -38.43260
  Beta  occ. eigenvalues --  -38.42970 -38.42479  -2.21109  -2.20555  -2.19969
  Beta  occ. eigenvalues --   -2.19858  -2.19153  -2.19036  -2.18358  -1.14937
  Beta  occ. eigenvalues --   -1.14711  -1.14696  -1.14232  -1.14207  -1.14187
  Beta  occ. eigenvalues --   -1.13713  -1.13633  -1.13613  -1.13588  -1.13530
  Beta  occ. eigenvalues --   -1.13486  -1.12900  -1.12810  -1.12771  -1.12755
  Beta  occ. eigenvalues --   -1.12658  -1.12629  -1.12050  -1.12015  -1.11981
  Beta  occ. eigenvalues --   -0.18262  -0.13220  -0.11014
  Beta virt. eigenvalues --   -0.08069  -0.06635  -0.03821  -0.03312  -0.03036
  Beta virt. eigenvalues --   -0.02786  -0.02255  -0.01910  -0.00562  -0.00235
  Beta virt. eigenvalues --    0.00112   0.00297   0.00336   0.00421   0.00935

 Mulliken charges and spin densities:
               1          2
     1  Na   0.454662  -0.175855
     2  Na  -0.259111   0.244090
     3  Na   0.465099  -0.013956
     4  Na  -0.488328   0.294040
     5  Na   0.261882   0.053797
     6  Na   0.117349   0.220064
     7  Na  -0.551553   0.377820
 Sum of Mulliken charges =  -0.00000   1.00000

 Dipole moment (field-independent basis, Debye):
    X=              0.0661    Y=             -0.3790    Z=              0.3789  Tot=              0.5400
 Quadrupole moment (field-independent basis, Debye-Ang):
   XX=            -51.0984   YY=            -77.6155   ZZ=            -64.6304
   XY=              1.5767   XZ=              0.2249   YZ=             -2.9181

 Normal termination of Gaussian 16 at Thu Dec  7 04:49:01 2023.
