 Gaussian 16, Revision B.01,
 Gaussian 16:  ES64L-G16RevB.01 20-Dec-2017

 -------------------------
 #P B3LYP/6-311+g(d) force
 -------------------------

 -----
 DPGEN
 -----
 Symbolic Z-matrix:
 Charge =  0 Multiplicity = 2

                         Standard orientation:
 ---------------------------------------------------------------------
 Center     Atomic      Atomic             Coordinates (Angstroms)
 Number     Number       Type             X           Y           Z
 ---------------------------------------------------------------------
      1         11           0       -0.621093   -2.914080   -0.164729
      2         11           0       -1.509836    2.550405    0.392492
      3         11           0       -2.855023   -0.484632   -0.126633
      4         11           0        2.857013   -1.222869   -0.150486
      5         11           0        1.949663    2.230358   -0.249298
      6         11           0        0.374867   -0.400878    1.933789
      7         11           0       -0.195592    0.241696   -1.635136
 ---------------------------------------------------------------------

 SCF Done:  E(UB3LYP) =  -1136.13954018     A.U. after   19 cycles

 The electronic state is 2-A.
 Alpha  occ. eigenvalues --  -38.43877 -38.43662 -38.43576 -38.43511 -38.43456
 Alpha  occ. eigenvalues --  -38.43350 -38.43062  -2.19706  -2.19518  -2.19435
 Alpha  occ. eigenvalues --   -2.19410  -2.19319  -2.19265  -2.19068  -1.13391
 Alpha  occ. eigenvalues --   -1.13370  -1.13342  -1.13222  -1.13178  -1.13159
 Alpha  occ. eigenvalues --   -1.13142  -1.13120  -1.13105  -1.13087  -1.13066
 Alpha  occ. eigenvalues --   -1.13019  -1.12986  -1.12976  -1.12947  -1.12932
 Alpha  occ. eigenvalues --   -1.12888  -1.12882  -1.12740  -1.12699  -1.12679
 Alpha  occ. eigenvalues --   -0.18861  -0.12976  -0.12730  -0.10654
 Alpha virt. eigenvalues --   -0.05455  -0.05036  -0.04926  -0.03127  -0.03016
 Alpha virt. eigenvalues --   -0.02368  -0.01311  -0.01216  -0.00339  -0.00267
 Alpha virt. eigenvalues --    0.00017   0.00372   0.00858   0.00886   0.00913

  Beta  occ. eigenvalues --  -38.43873 -38.43655 -38.43571 -38.43505 -38.43447
  Beta  occ. eigenvalues --  -38.43266 -38.42996  -2.19703  -2.19507  -2.19428
  Beta  occ. eigenvalues --   -2.19402  -2.19304  -2.19110  -2.18948  -1.13381
  Beta  occ. eigenvalues --   -1.13355  -1.13340  -1.13208  -1.13153  -1.13150
  Beta  occ. eigenvalues --   -1.13139  -1.13113  -1.13085  -1.13073  -1.13035
  Beta  occ. eigenvalues --   -1.13017  -1.12976  -1.12944  -1.12940  -1.12832
  Beta  occ. eigenvalues --   -1.12780  -1.12770  -1.12658  -1.12611  -1.12596
  Beta  occ. eigenvalues --   -0.18139  -0.12712  -0.12498
  Beta virt. eigenvalues --   -0.06765  -0.05454  -0.05002  -0.04860  -0.02342
  Beta virt. eigenvalues --   -0.02233  -0.01352  -0.01222  -0.01136  -0.00385
  Beta virt. eigenvalues --   -0.00311   0.00148   0.00396   0.00865   0.00902

 Mulliken charges and spin densities:
               1          2
     1  Na   0.143491  -0.106872
     2  Na   0.051414   0.040219
     3  Na   0.254018   0.007293
     4  Na   0.102574  -0.127467
     5  Na   0.137327  -0.050622
     6  Na  -0.466219   0.755778
     7  Na  -0.222605   0.481672
 Sum of Mulliken charges =  -0.00000   1.00000

 Dipole moment (field-independent basis, Debye):
    X=              0.2396    Y=             -0.0876    Z=              0.0993  Tot=              0.2737
 Quadrupole moment (field-independent basis, Debye-Ang):
   XX=            -58.8107   YY=            -59.8739   ZZ=            -74.5585
   XY=             -0.3531   XZ=             -1.3175   YZ=              1.5247

 Normal termination of Gaussian 16 at Tue Dec  5 23:27:51 2023.
