 Gaussian 16, Revision B.01,
 Gaussian 16:  ES64L-G16RevB.01 20-Dec-2017

 -------------------------
 #P B3LYP/6-311+g(d) force
 -------------------------

 -----
 DPGEN
 -----
 Symbolic Z-matrix:
 Charge =  0 Multiplicity = 2

                         Standard orientation:
 ---------------------------------------------------------------------
 Center     Atomic      Atomic             Coordinates (Angstroms)
 Number     Number       Type             X           Y           Z
 ---------------------------------------------------------------------
      1         11           0        1.099711   -1.291363    1.717756
      2         11           0       -0.627988    2.791389    0.042345
      3         11           0        4.464128   -0.679516   -1.148220
      4         11           0        3.178483    1.590411    0.004471
      5         11           0       -0.819495   -2.951428    0.241226
      6         11           0       -3.870489   -1.308193   -1.143551
      7         11           0       -3.424350    1.848699    0.285973
 ---------------------------------------------------------------------

 SCF Done:  E(UB3LYP) =  -1136.10729687     A.U. after   19 cycles

 The electronic state is 2-A.
 Alpha  occ. eigenvalues --  -38.45148 -38.44784 -38.44581 -38.44501 -38.44125
 Alpha  occ. eigenvalues --  -38.43799 -38.43418  -2.20995  -2.20574  -2.20423
 Alpha  occ. eigenvalues --   -2.20335  -2.19948  -2.19621  -2.19238  -1.14758
 Alpha  occ. eigenvalues --   -1.14617  -1.14598  -1.14229  -1.14210  -1.14194
 Alpha  occ. eigenvalues --   -1.14089  -1.14064  -1.14056  -1.14050  -1.13971
 Alpha  occ. eigenvalues --   -1.13945  -1.13708  -1.13606  -1.13589  -1.13268
 Alpha  occ. eigenvalues --   -1.13260  -1.13237  -1.12939  -1.12891  -1.12867
 Alpha  occ. eigenvalues --   -0.16319  -0.14298  -0.12458  -0.11212
 Alpha virt. eigenvalues --   -0.06678  -0.05666  -0.04025  -0.03478  -0.03274
 Alpha virt. eigenvalues --   -0.02558  -0.02346  -0.01382  -0.01139  -0.00529
 Alpha virt. eigenvalues --   -0.00322  -0.00060   0.00228   0.00405   0.00615

  Beta  occ. eigenvalues --  -38.45086 -38.44703 -38.44577 -38.44447 -38.44133
  Beta  occ. eigenvalues --  -38.43764 -38.43421  -2.20879  -2.20424  -2.20422
  Beta  occ. eigenvalues --   -2.20237  -2.19968  -2.19553  -2.19249  -1.14684
  Beta  occ. eigenvalues --   -1.14538  -1.14517  -1.14127  -1.14110  -1.14094
  Beta  occ. eigenvalues --   -1.14083  -1.14066  -1.14021  -1.13985  -1.13901
  Beta  occ. eigenvalues --   -1.13881  -1.13706  -1.13622  -1.13589  -1.13225
  Beta  occ. eigenvalues --   -1.13216  -1.13196  -1.12927  -1.12902  -1.12866
  Beta  occ. eigenvalues --   -0.15761  -0.13588  -0.12123
  Beta virt. eigenvalues --   -0.07955  -0.06346  -0.05214  -0.03836  -0.03188
  Beta virt. eigenvalues --   -0.02805  -0.02234  -0.02097  -0.01012  -0.00952
  Beta virt. eigenvalues --   -0.00482  -0.00028   0.00082   0.00353   0.00509

 Mulliken charges and spin densities:
               1          2
     1  Na  -0.264624   0.236132
     2  Na  -0.035831   0.080455
     3  Na   0.352656   0.210762
     4  Na  -0.090413   0.097910
     5  Na   0.023301  -0.105305
     6  Na   0.102215   0.437151
     7  Na  -0.087304   0.042896
 Sum of Mulliken charges =  -0.00000   1.00000

 Dipole moment (field-independent basis, Debye):
    X=              0.9116    Y=             -0.4251    Z=             -0.4436  Tot=              1.0993
 Quadrupole moment (field-independent basis, Debye-Ang):
   XX=            -61.1163   YY=            -70.6911   ZZ=            -68.8384
   XY=             -1.5414   XZ=             -0.1754   YZ=              4.7253

 Normal termination of Gaussian 16 at Mon Dec  4 02:42:21 2023.
