 Gaussian 16, Revision B.01,
 Gaussian 16:  ES64L-G16RevB.01 20-Dec-2017

 -------------------------
 #P B3LYP/6-311+g(d) force
 -------------------------

 -----
 DPGEN
 -----
 Symbolic Z-matrix:
 Charge =  0 Multiplicity = 2

                         Standard orientation:
 ---------------------------------------------------------------------
 Center     Atomic      Atomic             Coordinates (Angstroms)
 Number     Number       Type             X           Y           Z
 ---------------------------------------------------------------------
      1         11           0        0.277983    0.653339    1.998238
      2         11           0       -1.877872    2.248418    0.051962
      3         11           0       -0.415178   -2.314796    0.280254
      4         11           0        2.880278   -1.415502    0.133712
      5         11           0        2.459662    1.803088   -0.605921
      6         11           0       -3.457898   -0.794019   -0.281511
      7         11           0        0.133024   -0.180528   -1.576735
 ---------------------------------------------------------------------

 SCF Done:  E(UB3LYP) =  -1136.12923043     A.U. after   21 cycles

 The electronic state is 2-A.
 Alpha  occ. eigenvalues --  -38.44698 -38.44228 -38.43825 -38.43675 -38.43504
 Alpha  occ. eigenvalues --  -38.43420 -38.42752  -2.20500  -2.20087  -2.19689
 Alpha  occ. eigenvalues --   -2.19682  -2.19341  -2.19328  -2.18689  -1.14170
 Alpha  occ. eigenvalues --   -1.14154  -1.14140  -1.13758  -1.13746  -1.13741
 Alpha  occ. eigenvalues --   -1.13455  -1.13415  -1.13341  -1.13317  -1.13297
 Alpha  occ. eigenvalues --   -1.13255  -1.13057  -1.13011  -1.12988  -1.12972
 Alpha  occ. eigenvalues --   -1.12948  -1.12924  -1.12416  -1.12337  -1.12276
 Alpha  occ. eigenvalues --   -0.18841  -0.13616  -0.11836  -0.10825
 Alpha virt. eigenvalues --   -0.06356  -0.05437  -0.03751  -0.03327  -0.02758
 Alpha virt. eigenvalues --   -0.02395  -0.02177  -0.01244  -0.00349  -0.00087
 Alpha virt. eigenvalues --    0.00049   0.00275   0.00672   0.00814   0.00855

  Beta  occ. eigenvalues --  -38.44695 -38.44224 -38.43804 -38.43621 -38.43500
  Beta  occ. eigenvalues --  -38.43327 -38.42740  -2.20495  -2.20082  -2.19653
  Beta  occ. eigenvalues --   -2.19586  -2.19337  -2.19158  -2.18671  -1.14161
  Beta  occ. eigenvalues --   -1.14151  -1.14136  -1.13754  -1.13745  -1.13714
  Beta  occ. eigenvalues --   -1.13390  -1.13364  -1.13312  -1.13279  -1.13245
  Beta  occ. eigenvalues --   -1.13189  -1.13029  -1.12992  -1.12971  -1.12882
  Beta  occ. eigenvalues --   -1.12834  -1.12809  -1.12403  -1.12300  -1.12259
  Beta  occ. eigenvalues --   -0.18120  -0.13368  -0.11586
  Beta virt. eigenvalues --   -0.06913  -0.06243  -0.05426  -0.03674  -0.02667
  Beta virt. eigenvalues --   -0.02100  -0.01957  -0.01378  -0.01182  -0.00354
  Beta virt. eigenvalues --    0.00032   0.00080   0.00314   0.00745   0.00816

 Mulliken charges and spin densities:
               1          2
     1  Na  -0.532169   0.522114
     2  Na   0.274432  -0.047122
     3  Na   0.267593   0.133036
     4  Na   0.325315   0.056161
     5  Na   0.322119   0.037044
     6  Na  -0.017525  -0.008247
     7  Na  -0.639764   0.307014
 Sum of Mulliken charges =  -0.00000   1.00000

 Dipole moment (field-independent basis, Debye):
    X=             -0.0728    Y=              0.0537    Z=              0.1135  Tot=              0.1451
 Quadrupole moment (field-independent basis, Debye-Ang):
   XX=            -49.1018   YY=            -69.6680   ZZ=            -73.7196
   XY=             -0.2290   XZ=              0.7232   YZ=             -1.7291

 Normal termination of Gaussian 16 at Thu Dec  7 02:51:25 2023.
