 Gaussian 16, Revision B.01,
 Gaussian 16:  ES64L-G16RevB.01 20-Dec-2017

 -------------------------
 #P B3LYP/6-311+g(d) force
 -------------------------

 -----
 DPGEN
 -----
 Symbolic Z-matrix:
 Charge =  0 Multiplicity = 2

                         Standard orientation:
 ---------------------------------------------------------------------
 Center     Atomic      Atomic             Coordinates (Angstroms)
 Number     Number       Type             X           Y           Z
 ---------------------------------------------------------------------
      1         11           0        1.862767    2.484366   -0.345282
      2         11           0       -2.638069    2.340735    0.244234
      3         11           0       -2.976026   -1.461246   -0.090228
      4         11           0        0.830713    0.100220    1.655693
      5         11           0        0.260885   -2.822415    0.049247
      6         11           0       -0.393693    0.054873   -1.233660
      7         11           0        3.053421   -0.696533   -0.280005
 ---------------------------------------------------------------------

 SCF Done:  E(UB3LYP) =  -1136.12712269     A.U. after   22 cycles

 The electronic state is 2-A.
 Alpha  occ. eigenvalues --  -38.44480 -38.44417 -38.44343 -38.43854 -38.43089
 Alpha  occ. eigenvalues --  -38.42943 -38.42845  -2.20298  -2.20238  -2.20177
 Alpha  occ. eigenvalues --   -2.19711  -2.18980  -2.18948  -2.18877  -1.13992
 Alpha  occ. eigenvalues --   -1.13958  -1.13949  -1.13921  -1.13890  -1.13868
 Alpha  occ. eigenvalues --   -1.13853  -1.13825  -1.13822  -1.13392  -1.13374
 Alpha  occ. eigenvalues --   -1.13338  -1.12750  -1.12675  -1.12647  -1.12609
 Alpha  occ. eigenvalues --   -1.12577  -1.12542  -1.12532  -1.12498  -1.12482
 Alpha  occ. eigenvalues --   -0.18728  -0.13510  -0.12349  -0.09724
 Alpha virt. eigenvalues --   -0.06106  -0.05870  -0.04683  -0.02984  -0.02409
 Alpha virt. eigenvalues --   -0.01913  -0.01545  -0.01480  -0.00824  -0.00548
 Alpha virt. eigenvalues --    0.00035   0.00305   0.00694   0.00752   0.00834

  Beta  occ. eigenvalues --  -38.44477 -38.44413 -38.44331 -38.43838 -38.43081
  Beta  occ. eigenvalues --  -38.42865 -38.42801  -2.20295  -2.20221  -2.20171
  Beta  occ. eigenvalues --   -2.19685  -2.18969  -2.18808  -2.18799  -1.13984
  Beta  occ. eigenvalues --   -1.13949  -1.13932  -1.13920  -1.13871  -1.13841
  Beta  occ. eigenvalues --   -1.13834  -1.13820  -1.13819  -1.13377  -1.13339
  Beta  occ. eigenvalues --   -1.13313  -1.12715  -1.12622  -1.12614  -1.12587
  Beta  occ. eigenvalues --   -1.12483  -1.12458  -1.12445  -1.12431  -1.12420
  Beta  occ. eigenvalues --   -0.18055  -0.13265  -0.12097
  Beta virt. eigenvalues --   -0.06153  -0.05847  -0.05742  -0.04656  -0.02306
  Beta virt. eigenvalues --   -0.01875  -0.01684  -0.01432  -0.00855  -0.00675
  Beta virt. eigenvalues --   -0.00540   0.00209   0.00378   0.00727   0.00795

 Mulliken charges and spin densities:
               1          2
     1  Na   0.027891   0.053393
     2  Na  -0.140505  -0.053931
     3  Na   0.070309  -0.054135
     4  Na  -0.402717   0.736640
     5  Na   0.013392  -0.093358
     6  Na   0.005174   0.307173
     7  Na   0.426457   0.104217
 Sum of Mulliken charges =  -0.00000   1.00000

 Dipole moment (field-independent basis, Debye):
    X=             -0.3152    Y=              0.1424    Z=              0.0411  Tot=              0.3483
 Quadrupole moment (field-independent basis, Debye-Ang):
   XX=            -51.2263   YY=            -59.7205   ZZ=            -78.9310
   XY=             -0.0446   XZ=             -2.4128   YZ=              0.1634

 Normal termination of Gaussian 16 at Tue Nov 28 22:25:33 2023.
