 Gaussian 16, Revision B.01,
 Gaussian 16:  ES64L-G16RevB.01 20-Dec-2017

 -------------------------
 #P B3LYP/6-311+g(d) force
 -------------------------

 -----
 DPGEN
 -----
 Symbolic Z-matrix:
 Charge =  0 Multiplicity = 2

                         Standard orientation:
 ---------------------------------------------------------------------
 Center     Atomic      Atomic             Coordinates (Angstroms)
 Number     Number       Type             X           Y           Z
 ---------------------------------------------------------------------
      1         11           0        2.323996    2.022037    0.242788
      2         11           0       -0.350064   -0.154375    2.024007
      3         11           0       -2.291451   -2.227755    0.270766
      4         11           0        1.164101   -2.234302    0.288038
      5         11           0        3.555230   -0.784008   -1.336758
      6         11           0       -3.256526    0.284441   -1.646788
      7         11           0       -1.145286    3.093961    0.157946
 ---------------------------------------------------------------------

 SCF Done:  E(UB3LYP) =  -1136.12434715     A.U. after   20 cycles

 The electronic state is 2-A.
 Alpha  occ. eigenvalues --  -38.44525 -38.44412 -38.44327 -38.43895 -38.43858
 Alpha  occ. eigenvalues --  -38.43778 -38.43762  -2.20328  -2.20302  -2.20110
 Alpha  occ. eigenvalues --   -2.19745  -2.19692  -2.19641  -2.19541  -1.14012
 Alpha  occ. eigenvalues --   -1.13979  -1.13977  -1.13950  -1.13941  -1.13894
 Alpha  occ. eigenvalues --   -1.13805  -1.13782  -1.13736  -1.13425  -1.13415
 Alpha  occ. eigenvalues --   -1.13397  -1.13380  -1.13344  -1.13337  -1.13320
 Alpha  occ. eigenvalues --   -1.13300  -1.13224  -1.13218  -1.13204  -1.13181
 Alpha  occ. eigenvalues --   -0.17387  -0.13681  -0.12400  -0.11166
 Alpha virt. eigenvalues --   -0.06101  -0.05288  -0.04763  -0.03840  -0.03320
 Alpha virt. eigenvalues --   -0.02319  -0.01432  -0.00888  -0.00869  -0.00606
 Alpha virt. eigenvalues --   -0.00326   0.00280   0.00342   0.00486   0.00627

  Beta  occ. eigenvalues --  -38.44443 -38.44336 -38.44325 -38.43891 -38.43810
  Beta  occ. eigenvalues --  -38.43782 -38.43752  -2.20175  -2.20164  -2.20110
  Beta  occ. eigenvalues --   -2.19744  -2.19629  -2.19601  -2.19551  -1.13920
  Beta  occ. eigenvalues --   -1.13876  -1.13873  -1.13864  -1.13838  -1.13803
  Beta  occ. eigenvalues --   -1.13793  -1.13779  -1.13722  -1.13428  -1.13419
  Beta  occ. eigenvalues --   -1.13351  -1.13335  -1.13319  -1.13297  -1.13271
  Beta  occ. eigenvalues --   -1.13260  -1.13230  -1.13213  -1.13186  -1.13178
  Beta  occ. eigenvalues --   -0.16779  -0.12965  -0.12197
  Beta virt. eigenvalues --   -0.07744  -0.06012  -0.04979  -0.04242  -0.03594
  Beta virt. eigenvalues --   -0.02654  -0.01808  -0.01339  -0.00889  -0.00720
  Beta virt. eigenvalues --   -0.00485  -0.00020   0.00458   0.00489   0.00686

 Mulliken charges and spin densities:
               1          2
     1  Na  -0.331641  -0.044869
     2  Na   0.841759   0.114348
     3  Na  -0.043730   0.190977
     4  Na  -0.726479  -0.033871
     5  Na   0.631681   0.341636
     6  Na  -0.142067   0.367379
     7  Na  -0.229523   0.064400
 Sum of Mulliken charges =  -0.00000   1.00000

 Dipole moment (field-independent basis, Debye):
    X=             -0.0177    Y=              0.0066    Z=             -0.0889  Tot=              0.0908
 Quadrupole moment (field-independent basis, Debye-Ang):
   XX=            -64.8114   YY=            -66.4120   ZZ=            -68.3228
   XY=              1.3332   XZ=             -0.8588   YZ=              0.0915

 Normal termination of Gaussian 16 at Wed Nov 29 01:32:42 2023.
