 Gaussian 16, Revision B.01,
 Gaussian 16:  ES64L-G16RevB.01 20-Dec-2017

 -------------------------
 #P B3LYP/6-311+g(d) force
 -------------------------

 -----
 DPGEN
 -----
 Symbolic Z-matrix:
 Charge =  0 Multiplicity = 2

                         Standard orientation:
 ---------------------------------------------------------------------
 Center     Atomic      Atomic             Coordinates (Angstroms)
 Number     Number       Type             X           Y           Z
 ---------------------------------------------------------------------
      1         11           0       -1.161445    2.588669   -0.194535
      2         11           0        0.248191   -0.148607   -1.899398
      3         11           0        2.847041   -1.789101   -0.357837
      4         11           0       -3.412042   -0.304317   -0.387868
      5         11           0        2.498656    1.888560    0.271750
      6         11           0       -0.951554   -2.521823    0.635988
      7         11           0       -0.068847    0.286618    1.931901
 ---------------------------------------------------------------------

 SCF Done:  E(UB3LYP) =  -1136.13563605     A.U. after   19 cycles

 The electronic state is 2-A.
 Alpha  occ. eigenvalues --  -38.44402 -38.44001 -38.43929 -38.43846 -38.43616
 Alpha  occ. eigenvalues --  -38.43240 -38.43218  -2.20193  -2.19814  -2.19728
 Alpha  occ. eigenvalues --   -2.19719  -2.19538  -2.19094  -2.19065  -1.13864
 Alpha  occ. eigenvalues --   -1.13849  -1.13836  -1.13504  -1.13479  -1.13442
 Alpha  occ. eigenvalues --   -1.13419  -1.13403  -1.13372  -1.13366  -1.13357
 Alpha  occ. eigenvalues --   -1.13327  -1.13215  -1.13187  -1.13156  -1.12791
 Alpha  occ. eigenvalues --   -1.12750  -1.12749  -1.12744  -1.12704  -1.12678
 Alpha  occ. eigenvalues --   -0.18301  -0.12952  -0.12109  -0.10967
 Alpha virt. eigenvalues --   -0.05934  -0.05338  -0.04242  -0.03299  -0.02972
 Alpha virt. eigenvalues --   -0.02723  -0.01811  -0.01209  -0.00342  -0.00251
 Alpha virt. eigenvalues --   -0.00034   0.00324   0.00718   0.00806   0.00876

  Beta  occ. eigenvalues --  -38.44398 -38.43996 -38.43925 -38.43776 -38.43530
  Beta  occ. eigenvalues --  -38.43220 -38.43212  -2.20187  -2.19806  -2.19713
  Beta  occ. eigenvalues --   -2.19600  -2.19381  -2.19061  -2.19057  -1.13857
  Beta  occ. eigenvalues --   -1.13837  -1.13833  -1.13487  -1.13468  -1.13437
  Beta  occ. eigenvalues --   -1.13390  -1.13367  -1.13358  -1.13319  -1.13277
  Beta  occ. eigenvalues --   -1.13240  -1.13111  -1.13073  -1.13045  -1.12758
  Beta  occ. eigenvalues --   -1.12745  -1.12722  -1.12712  -1.12686  -1.12667
  Beta  occ. eigenvalues --   -0.17568  -0.12727  -0.11844
  Beta virt. eigenvalues --   -0.07113  -0.05819  -0.05321  -0.04173  -0.02600
  Beta virt. eigenvalues --   -0.02228  -0.01753  -0.01655  -0.01145  -0.00368
  Beta virt. eigenvalues --   -0.00225   0.00071   0.00353   0.00797   0.00824

 Mulliken charges and spin densities:
               1          2
     1  Na   0.032484  -0.057836
     2  Na  -0.275460   0.682777
     3  Na   0.018921  -0.061645
     4  Na  -0.020758  -0.020938
     5  Na   0.117522  -0.094970
     6  Na   0.131527   0.008115
     7  Na  -0.004235   0.544497
 Sum of Mulliken charges =  -0.00000   1.00000

 Dipole moment (field-independent basis, Debye):
    X=              0.0496    Y=              0.0841    Z=             -0.1440  Tot=              0.1740
 Quadrupole moment (field-independent basis, Debye-Ang):
   XX=            -53.9161   YY=            -66.4454   ZZ=            -73.1325
   XY=              0.1515   XZ=              1.4032   YZ=             -0.5855

 Normal termination of Gaussian 16 at Mon Dec  4 03:09:05 2023.
