 Gaussian 16, Revision B.01,
 Gaussian 16:  ES64L-G16RevB.01 20-Dec-2017

 -------------------------
 #P B3LYP/6-311+g(d) force
 -------------------------

 -----
 DPGEN
 -----
 Symbolic Z-matrix:
 Charge =  0 Multiplicity = 2

                         Standard orientation:
 ---------------------------------------------------------------------
 Center     Atomic      Atomic             Coordinates (Angstroms)
 Number     Number       Type             X           Y           Z
 ---------------------------------------------------------------------
      1         11           0        3.272480    1.117104    0.206595
      2         11           0       -3.144160    0.581698    0.085490
      3         11           0       -0.054631   -0.447258    1.883576
      4         11           0       -0.654772    3.151602    0.040898
      5         11           0       -0.165402    0.178918   -1.825086
      6         11           0        2.128458   -1.734915   -0.319187
      7         11           0       -1.381974   -2.847149   -0.072287
 ---------------------------------------------------------------------

 SCF Done:  E(UB3LYP) =  -1136.13460039     A.U. after   19 cycles

 The electronic state is 2-A.
 Alpha  occ. eigenvalues --  -38.44411 -38.44199 -38.43836 -38.43538 -38.43457
 Alpha  occ. eigenvalues --  -38.43452 -38.43389  -2.20216  -2.19999  -2.19619
 Alpha  occ. eigenvalues --   -2.19433  -2.19367  -2.19296  -2.19280  -1.13898
 Alpha  occ. eigenvalues --   -1.13881  -1.13842  -1.13697  -1.13655  -1.13634
 Alpha  occ. eigenvalues --   -1.13298  -1.13283  -1.13257  -1.13138  -1.13079
 Alpha  occ. eigenvalues --   -1.13066  -1.13061  -1.13014  -1.12989  -1.12967
 Alpha  occ. eigenvalues --   -1.12946  -1.12934  -1.12924  -1.12917  -1.12905
 Alpha  occ. eigenvalues --   -0.18286  -0.13079  -0.12222  -0.10517
 Alpha virt. eigenvalues --   -0.05965  -0.05113  -0.04948  -0.03222  -0.02797
 Alpha virt. eigenvalues --   -0.02417  -0.01679  -0.01277  -0.00719  -0.00355
 Alpha virt. eigenvalues --   -0.00024   0.00350   0.00746   0.00817   0.00879

  Beta  occ. eigenvalues --  -38.44407 -38.44199 -38.43836 -38.43461 -38.43449
  Beta  occ. eigenvalues --  -38.43445 -38.43310  -2.20211  -2.20000  -2.19621
  Beta  occ. eigenvalues --   -2.19349  -2.19291  -2.19277  -2.19150  -1.13881
  Beta  occ. eigenvalues --   -1.13872  -1.13842  -1.13701  -1.13642  -1.13637
  Beta  occ. eigenvalues --   -1.13290  -1.13278  -1.13260  -1.13079  -1.13019
  Beta  occ. eigenvalues --   -1.12995  -1.12986  -1.12972  -1.12943  -1.12929
  Beta  occ. eigenvalues --   -1.12919  -1.12902  -1.12872  -1.12818  -1.12803
  Beta  occ. eigenvalues --   -0.17547  -0.12877  -0.12026
  Beta virt. eigenvalues --   -0.06636  -0.05931  -0.05086  -0.04868  -0.02453
  Beta virt. eigenvalues --   -0.02084  -0.01588  -0.01401  -0.01206  -0.00768
  Beta virt. eigenvalues --   -0.00386   0.00124   0.00375   0.00773   0.00842

 Mulliken charges and spin densities:
               1          2
     1  Na  -0.147964  -0.090584
     2  Na   0.059298  -0.113893
     3  Na  -0.317476   0.756665
     4  Na  -0.117277  -0.140750
     5  Na  -0.054789   0.621479
     6  Na   0.354646   0.047389
     7  Na   0.223561  -0.080307
 Sum of Mulliken charges =  -0.00000   1.00000

 Dipole moment (field-independent basis, Debye):
    X=             -0.2796    Y=              0.2629    Z=              0.0755  Tot=              0.3911
 Quadrupole moment (field-independent basis, Debye-Ang):
   XX=            -56.2765   YY=            -61.3671   ZZ=            -75.5510
   XY=              2.2300   XZ=              0.0984   YZ=              1.7029

 Normal termination of Gaussian 16 at Tue Dec  5 23:23:50 2023.
