 Gaussian 16, Revision B.01,
 Gaussian 16:  ES64L-G16RevB.01 20-Dec-2017

 -------------------------
 #P B3LYP/6-311+g(d) force
 -------------------------

 -----
 DPGEN
 -----
 Symbolic Z-matrix:
 Charge =  0 Multiplicity = 2

                         Standard orientation:
 ---------------------------------------------------------------------
 Center     Atomic      Atomic             Coordinates (Angstroms)
 Number     Number       Type             X           Y           Z
 ---------------------------------------------------------------------
      1         11           0       -0.693637    3.049850   -0.328171
      2         11           0       -1.759808   -2.417975   -0.485432
      3         11           0        0.478405    0.027958   -1.716192
      4         11           0        1.879244   -2.258653   -0.017180
      5         11           0        2.957889    1.310158    0.194649
      6         11           0       -2.952785    0.594708    0.334376
      7         11           0        0.090692   -0.306047    2.017950
 ---------------------------------------------------------------------

 SCF Done:  E(UB3LYP) =  -1136.13760190     A.U. after   19 cycles

 The electronic state is 2-A.
 Alpha  occ. eigenvalues --  -38.44208 -38.43752 -38.43677 -38.43630 -38.43593
 Alpha  occ. eigenvalues --  -38.43523 -38.43292  -2.20011  -2.19626  -2.19566
 Alpha  occ. eigenvalues --   -2.19435  -2.19432  -2.19365  -2.19242  -1.13692
 Alpha  occ. eigenvalues --   -1.13673  -1.13644  -1.13343  -1.13322  -1.13235
 Alpha  occ. eigenvalues --   -1.13227  -1.13192  -1.13182  -1.13133  -1.13121
 Alpha  occ. eigenvalues --   -1.13109  -1.13099  -1.13079  -1.13046  -1.13040
 Alpha  occ. eigenvalues --   -1.13011  -1.12994  -1.12916  -1.12876  -1.12857
 Alpha  occ. eigenvalues --   -0.18484  -0.12939  -0.12421  -0.10800
 Alpha virt. eigenvalues --   -0.05721  -0.05108  -0.04808  -0.03225  -0.02935
 Alpha virt. eigenvalues --   -0.02612  -0.01477  -0.01179  -0.00447  -0.00331
 Alpha virt. eigenvalues --   -0.00011   0.00370   0.00805   0.00856   0.00896

  Beta  occ. eigenvalues --  -38.44205 -38.43743 -38.43628 -38.43589 -38.43587
  Beta  occ. eigenvalues --  -38.43514 -38.43225  -2.20007  -2.19615  -2.19431
  Beta  occ. eigenvalues --   -2.19429  -2.19399  -2.19351  -2.19120  -1.13680
  Beta  occ. eigenvalues --   -1.13665  -1.13641  -1.13332  -1.13277  -1.13226
  Beta  occ. eigenvalues --   -1.13137  -1.13130  -1.13110  -1.13098  -1.13085
  Beta  occ. eigenvalues --   -1.13079  -1.13075  -1.13049  -1.13045  -1.13018
  Beta  occ. eigenvalues --   -1.12997  -1.12982  -1.12835  -1.12791  -1.12764
  Beta  occ. eigenvalues --   -0.17750  -0.12727  -0.12183
  Beta virt. eigenvalues --   -0.06901  -0.05719  -0.05026  -0.04737  -0.02459
  Beta virt. eigenvalues --   -0.02209  -0.01570  -0.01394  -0.01100  -0.00464
  Beta virt. eigenvalues --   -0.00384   0.00123   0.00399   0.00817   0.00896

 Mulliken charges and spin densities:
               1          2
     1  Na  -0.080182  -0.098049
     2  Na   0.039214  -0.005173
     3  Na  -0.057966   0.522821
     4  Na   0.327995  -0.032543
     5  Na   0.016026  -0.092292
     6  Na   0.037240   0.006237
     7  Na  -0.282327   0.698999
 Sum of Mulliken charges =  -0.00000   1.00000

 Dipole moment (field-independent basis, Debye):
    X=              0.4054    Y=              0.0215    Z=              0.1280  Tot=              0.4257
 Quadrupole moment (field-independent basis, Debye-Ang):
   XX=            -58.2245   YY=            -61.5371   ZZ=            -74.0319
   XY=              0.8543   XZ=              0.8121   YZ=              0.8658

 Normal termination of Gaussian 16 at Thu Dec  7 15:49:50 2023.
