 Gaussian 16, Revision B.01,
 Gaussian 16:  ES64L-G16RevB.01 20-Dec-2017

 -------------------------
 #P B3LYP/6-311+g(d) force
 -------------------------

 -----
 DPGEN
 -----
 Symbolic Z-matrix:
 Charge =  0 Multiplicity = 2

                         Standard orientation:
 ---------------------------------------------------------------------
 Center     Atomic      Atomic             Coordinates (Angstroms)
 Number     Number       Type             X           Y           Z
 ---------------------------------------------------------------------
      1         11           0        1.915796    2.321587   -1.174402
      2         11           0       -3.013657   -1.412696   -1.473418
      3         11           0        0.541734   -0.909485   -1.064856
      4         11           0       -2.142026   -0.723587    1.600714
      5         11           0        3.129643   -1.892318    0.019547
      6         11           0       -1.607168    2.485295    0.253698
      7         11           0        1.175678    0.131204    1.838717
 ---------------------------------------------------------------------

 SCF Done:  E(UB3LYP) =  -1136.12529022     A.U. after   20 cycles

 The electronic state is 2-A.
 Alpha  occ. eigenvalues --  -38.44038 -38.44012 -38.43999 -38.43856 -38.43784
 Alpha  occ. eigenvalues --  -38.43767 -38.43439  -2.19959  -2.19853  -2.19785
 Alpha  occ. eigenvalues --   -2.19675  -2.19660  -2.19566  -2.19409  -1.13697
 Alpha  occ. eigenvalues --   -1.13619  -1.13586  -1.13563  -1.13481  -1.13474
 Alpha  occ. eigenvalues --   -1.13467  -1.13457  -1.13418  -1.13369  -1.13341
 Alpha  occ. eigenvalues --   -1.13327  -1.13319  -1.13300  -1.13250  -1.13247
 Alpha  occ. eigenvalues --   -1.13214  -1.13179  -1.13112  -1.13043  -1.13010
 Alpha  occ. eigenvalues --   -0.18191  -0.13447  -0.11583  -0.11299
 Alpha virt. eigenvalues --   -0.05779  -0.05364  -0.04766  -0.03386  -0.02873
 Alpha virt. eigenvalues --   -0.02418  -0.01784  -0.01103  -0.00749  -0.00005
 Alpha virt. eigenvalues --    0.00272   0.00279   0.00376   0.00572   0.00657

  Beta  occ. eigenvalues --  -38.44014 -38.43999 -38.43975 -38.43817 -38.43752
  Beta  occ. eigenvalues --  -38.43733 -38.43410  -2.19855  -2.19846  -2.19792
  Beta  occ. eigenvalues --   -2.19606  -2.19602  -2.19503  -2.19359  -1.13633
  Beta  occ. eigenvalues --   -1.13588  -1.13530  -1.13496  -1.13476  -1.13464
  Beta  occ. eigenvalues --   -1.13455  -1.13438  -1.13424  -1.13323  -1.13295
  Beta  occ. eigenvalues --   -1.13277  -1.13269  -1.13260  -1.13199  -1.13191
  Beta  occ. eigenvalues --   -1.13174  -1.13139  -1.13063  -1.13004  -1.12975
  Beta  occ. eigenvalues --   -0.17477  -0.13232  -0.11329
  Beta virt. eigenvalues --   -0.07498  -0.05652  -0.05146  -0.04132  -0.03202
  Beta virt. eigenvalues --   -0.02277  -0.01758  -0.01689  -0.00978  -0.00378
  Beta virt. eigenvalues --    0.00037   0.00301   0.00362   0.00521   0.00748

 Mulliken charges and spin densities:
               1          2
     1  Na  -0.025733   0.020104
     2  Na   0.321880   0.097731
     3  Na  -1.044683   0.472175
     4  Na   0.161921   0.172400
     5  Na   0.469486  -0.042359
     6  Na  -0.224709   0.042908
     7  Na   0.341837   0.237041
 Sum of Mulliken charges =  -0.00000   1.00000

 Dipole moment (field-independent basis, Debye):
    X=              0.2562    Y=              0.1055    Z=              0.0820  Tot=              0.2890
 Quadrupole moment (field-independent basis, Debye-Ang):
   XX=            -54.9447   YY=            -71.4152   ZZ=            -67.6380
   XY=             -2.1836   XZ=              0.2012   YZ=             -0.3361

 Normal termination of Gaussian 16 at Wed Nov 29 03:57:36 2023.
