 Gaussian 16, Revision B.01,
 Gaussian 16:  ES64L-G16RevB.01 20-Dec-2017

 -------------------------
 #P B3LYP/6-311+g(d) force
 -------------------------

 -----
 DPGEN
 -----
 Symbolic Z-matrix:
 Charge =  0 Multiplicity = 2

                         Standard orientation:
 ---------------------------------------------------------------------
 Center     Atomic      Atomic             Coordinates (Angstroms)
 Number     Number       Type             X           Y           Z
 ---------------------------------------------------------------------
      1         11           0        0.802504   -2.902438   -1.128450
      2         11           0        5.332097    0.097393    1.866218
      3         11           0        3.113903   -0.291898   -0.894777
      4         11           0        0.688236    2.982234   -1.497429
      5         11           0       -0.366900    0.026942    0.198353
      6         11           0       -3.574963    0.496881    1.476662
      7         11           0       -5.994877   -0.409114   -0.020576
 ---------------------------------------------------------------------

 SCF Done:  E(UB3LYP) =  -1136.10184858     A.U. after   25 cycles

 The electronic state is 2-A.
 Alpha  occ. eigenvalues --  -38.45397 -38.44468 -38.44448 -38.44202 -38.44067
 Alpha  occ. eigenvalues --  -38.43996 -38.43930  -2.21221  -2.20251  -2.20230
 Alpha  occ. eigenvalues --   -2.19977  -2.19894  -2.19795  -2.19766  -1.14863
 Alpha  occ. eigenvalues --   -1.14850  -1.14832  -1.13976  -1.13908  -1.13905
 Alpha  occ. eigenvalues --   -1.13881  -1.13874  -1.13845  -1.13624  -1.13621
 Alpha  occ. eigenvalues --   -1.13596  -1.13595  -1.13568  -1.13552  -1.13494
 Alpha  occ. eigenvalues --   -1.13480  -1.13421  -1.13419  -1.13415  -1.13385
 Alpha  occ. eigenvalues --   -0.16485  -0.13538  -0.12033  -0.11553
 Alpha virt. eigenvalues --   -0.07067  -0.05351  -0.04452  -0.03438  -0.03123
 Alpha virt. eigenvalues --   -0.02392  -0.02234  -0.01562  -0.01201  -0.00890
 Alpha virt. eigenvalues --   -0.00734  -0.00618   0.00189   0.00289   0.00438

  Beta  occ. eigenvalues --  -38.45297 -38.44497 -38.44374 -38.44123 -38.44085
  Beta  occ. eigenvalues --  -38.44005 -38.43925  -2.21033  -2.20307  -2.20091
  Beta  occ. eigenvalues --   -2.19932  -2.19830  -2.19818  -2.19754  -1.14734
  Beta  occ. eigenvalues --   -1.14722  -1.14711  -1.14009  -1.13946  -1.13943
  Beta  occ. eigenvalues --   -1.13786  -1.13779  -1.13757  -1.13619  -1.13597
  Beta  occ. eigenvalues --   -1.13544  -1.13526  -1.13521  -1.13518  -1.13496
  Beta  occ. eigenvalues --   -1.13474  -1.13418  -1.13415  -1.13405  -1.13394
  Beta  occ. eigenvalues --   -0.15895  -0.13569  -0.10702
  Beta virt. eigenvalues --   -0.08325  -0.07064  -0.04631  -0.04334  -0.03204
  Beta virt. eigenvalues --   -0.02881  -0.02228  -0.01725  -0.01448  -0.00967
  Beta virt. eigenvalues --   -0.00728  -0.00434  -0.00324   0.00265   0.00504

 Mulliken charges and spin densities:
               1          2
     1  Na   0.771661   0.387448
     2  Na   0.245553   0.423554
     3  Na   0.563468  -0.040105
     4  Na   0.331267   0.434102
     5  Na  -1.437329  -0.059001
     6  Na  -0.618892  -0.003424
     7  Na   0.144272  -0.142574
 Sum of Mulliken charges =  -0.00000   1.00000

 Dipole moment (field-independent basis, Debye):
    X=             -0.9250    Y=             -0.5237    Z=             -0.7672  Tot=              1.3109
 Quadrupole moment (field-independent basis, Debye-Ang):
   XX=            -70.6819   YY=            -64.9018   ZZ=            -65.2838
   XY=              4.7757   XZ=              4.4262   YZ=              2.2377

 Normal termination of Gaussian 16 at Tue Nov 28 21:49:30 2023.
