 Gaussian 16, Revision B.01,
 Gaussian 16:  ES64L-G16RevB.01 20-Dec-2017

 -------------------------
 #P B3LYP/6-311+g(d) force
 -------------------------

 -----
 DPGEN
 -----
 Symbolic Z-matrix:
 Charge =  0 Multiplicity = 2

                         Standard orientation:
 ---------------------------------------------------------------------
 Center     Atomic      Atomic             Coordinates (Angstroms)
 Number     Number       Type             X           Y           Z
 ---------------------------------------------------------------------
      1         11           0        3.044126   -0.523077   -0.218688
      2         11           0       -2.148098    1.820999   -0.494982
      3         11           0       -0.058114   -0.223686   -1.622056
      4         11           0        0.491199   -2.923271   -0.210774
      5         11           0        1.182600    2.919507   -0.028551
      6         11           0       -2.809971   -1.220494    0.361156
      7         11           0        0.298258    0.150022    2.213895
 ---------------------------------------------------------------------

 SCF Done:  E(UB3LYP) =  -1136.13721467     A.U. after   18 cycles

 The electronic state is 2-A.
 Alpha  occ. eigenvalues --  -38.43967 -38.43952 -38.43605 -38.43598 -38.43593
 Alpha  occ. eigenvalues --  -38.43431 -38.43256  -2.19801  -2.19789  -2.19452
 Alpha  occ. eigenvalues --   -2.19448  -2.19404  -2.19320  -2.19254  -1.13476
 Alpha  occ. eigenvalues --   -1.13468  -1.13450  -1.13426  -1.13422  -1.13413
 Alpha  occ. eigenvalues --   -1.13201  -1.13156  -1.13109  -1.13108  -1.13096
 Alpha  occ. eigenvalues --   -1.13079  -1.13077  -1.13060  -1.13052  -1.13049
 Alpha  occ. eigenvalues --   -1.12963  -1.12923  -1.12912  -1.12864  -1.12857
 Alpha  occ. eigenvalues --   -0.18548  -0.12881  -0.12469  -0.10966
 Alpha virt. eigenvalues --   -0.05474  -0.05054  -0.04790  -0.03231  -0.03048
 Alpha virt. eigenvalues --   -0.02778  -0.01337  -0.01193  -0.00309  -0.00289
 Alpha virt. eigenvalues --   -0.00015   0.00364   0.00819   0.00876   0.00895

  Beta  occ. eigenvalues --  -38.43963 -38.43851 -38.43599 -38.43598 -38.43588
  Beta  occ. eigenvalues --  -38.43419 -38.43196  -2.19785  -2.19614  -2.19445
  Beta  occ. eigenvalues --   -2.19439  -2.19406  -2.19301  -2.19146  -1.13465
  Beta  occ. eigenvalues --   -1.13446  -1.13415  -1.13333  -1.13301  -1.13283
  Beta  occ. eigenvalues --   -1.13183  -1.13150  -1.13098  -1.13085  -1.13079
  Beta  occ. eigenvalues --   -1.13076  -1.13063  -1.13055  -1.13049  -1.13027
  Beta  occ. eigenvalues --   -1.12937  -1.12915  -1.12843  -1.12793  -1.12784
  Beta  occ. eigenvalues --   -0.17823  -0.12642  -0.12258
  Beta virt. eigenvalues --   -0.07023  -0.05489  -0.04950  -0.04752  -0.02452
  Beta virt. eigenvalues --   -0.02276  -0.01723  -0.01247  -0.01119  -0.00361
  Beta virt. eigenvalues --   -0.00305   0.00123   0.00391   0.00841   0.00898

 Mulliken charges and spin densities:
               1          2
     1  Na   0.100190  -0.074588
     2  Na   0.263178   0.006560
     3  Na  -0.073798   0.277135
     4  Na   0.218387  -0.001707
     5  Na   0.046238  -0.068511
     6  Na   0.054787   0.075038
     7  Na  -0.608981   0.786072
 Sum of Mulliken charges =  -0.00000   1.00000

 Dipole moment (field-independent basis, Debye):
    X=              0.2821    Y=             -0.0947    Z=              0.2353  Tot=              0.3794
 Quadrupole moment (field-independent basis, Debye-Ang):
   XX=            -59.3405   YY=            -61.5194   ZZ=            -73.2798
   XY=              0.8091   XZ=             -0.8811   YZ=             -1.0334

 Normal termination of Gaussian 16 at Thu Dec  7 23:54:33 2023.
