 Gaussian 16, Revision B.01,
 Gaussian 16:  ES64L-G16RevB.01 20-Dec-2017

 -------------------------
 #P B3LYP/6-311+g(d) force
 -------------------------

 -----
 DPGEN
 -----
 Symbolic Z-matrix:
 Charge =  0 Multiplicity = 2

                         Standard orientation:
 ---------------------------------------------------------------------
 Center     Atomic      Atomic             Coordinates (Angstroms)
 Number     Number       Type             X           Y           Z
 ---------------------------------------------------------------------
      1         11           0        3.586117    1.478081   -0.086691
      2         11           0       -1.323628   -2.394982    0.657508
      3         11           0        2.310512   -1.922525   -0.196961
      4         11           0        0.378673    0.684752    1.663749
      5         11           0        0.410565   -0.248079   -1.517334
      6         11           0       -3.461881   -0.243369   -0.410182
      7         11           0       -1.900358    2.646123   -0.110088
 ---------------------------------------------------------------------

 SCF Done:  E(UB3LYP) =  -1136.12173378     A.U. after   25 cycles

 The electronic state is 2-A.
 Alpha  occ. eigenvalues --  -38.45239 -38.44624 -38.44222 -38.44208 -38.43576
 Alpha  occ. eigenvalues --  -38.43041 -38.42979  -2.21000  -2.20458  -2.20162
 Alpha  occ. eigenvalues --   -2.20105  -2.19388  -2.18949  -2.18843  -1.14678
 Alpha  occ. eigenvalues --   -1.14659  -1.14631  -1.14133  -1.14113  -1.14099
 Alpha  occ. eigenvalues --   -1.14071  -1.13849  -1.13751  -1.13744  -1.13685
 Alpha  occ. eigenvalues --   -1.13669  -1.13057  -1.13050  -1.13042  -1.12649
 Alpha  occ. eigenvalues --   -1.12568  -1.12561  -1.12522  -1.12493  -1.12484
 Alpha  occ. eigenvalues --   -0.18351  -0.13837  -0.11744  -0.10142
 Alpha virt. eigenvalues --   -0.06993  -0.05618  -0.04076  -0.03362  -0.02738
 Alpha virt. eigenvalues --   -0.02373  -0.01860  -0.01486  -0.00763  -0.00254
 Alpha virt. eigenvalues --   -0.00047   0.00165   0.00545   0.00632   0.00709

  Beta  occ. eigenvalues --  -38.45236 -38.44609 -38.44208 -38.44166 -38.43575
  Beta  occ. eigenvalues --  -38.42964 -38.42955  -2.20998  -2.20430  -2.20104
  Beta  occ. eigenvalues --   -2.20067  -2.19390  -2.18818  -2.18791  -1.14676
  Beta  occ. eigenvalues --   -1.14643  -1.14631  -1.14110  -1.14090  -1.14082
  Beta  occ. eigenvalues --   -1.14035  -1.13781  -1.13716  -1.13699  -1.13661
  Beta  occ. eigenvalues --   -1.13630  -1.13056  -1.13054  -1.13026  -1.12544
  Beta  occ. eigenvalues --   -1.12509  -1.12473  -1.12460  -1.12457  -1.12430
  Beta  occ. eigenvalues --   -0.17686  -0.13532  -0.11540
  Beta virt. eigenvalues --   -0.06924  -0.06415  -0.05493  -0.03986  -0.02708
  Beta virt. eigenvalues --   -0.02431  -0.01861  -0.01417  -0.01034  -0.00727
  Beta virt. eigenvalues --   -0.00173   0.00067   0.00228   0.00665   0.00698

 Mulliken charges and spin densities:
               1          2
     1  Na  -0.004182  -0.017686
     2  Na  -0.089963   0.105356
     3  Na   0.387226   0.176788
     4  Na  -0.253451   0.388015
     5  Na  -0.157616   0.202314
     6  Na  -0.017141   0.093022
     7  Na   0.135127   0.052192
 Sum of Mulliken charges =  -0.00000   1.00000

 Dipole moment (field-independent basis, Debye):
    X=              0.8260    Y=              0.1984    Z=              0.0453  Tot=              0.8507
 Quadrupole moment (field-independent basis, Debye-Ang):
   XX=            -49.5212   YY=            -66.4948   ZZ=            -76.3196
   XY=              2.6807   XZ=              0.5504   YZ=             -2.1906

 Normal termination of Gaussian 16 at Wed Dec  6 00:06:29 2023.
