 Gaussian 16, Revision B.01,
 Gaussian 16:  ES64L-G16RevB.01 20-Dec-2017

 -------------------------
 #P B3LYP/6-311+g(d) force
 -------------------------

 -----
 DPGEN
 -----
 Symbolic Z-matrix:
 Charge =  0 Multiplicity = 2

                         Standard orientation:
 ---------------------------------------------------------------------
 Center     Atomic      Atomic             Coordinates (Angstroms)
 Number     Number       Type             X           Y           Z
 ---------------------------------------------------------------------
      1         11           0        3.751454    1.028629    0.462524
      2         11           0        1.112092    3.867291    0.143718
      3         11           0        3.393538   -2.574370   -0.162477
      4         11           0       -0.466619   -3.541488   -0.372080
      5         11           0       -2.075855    2.871918   -0.569192
      6         11           0       -2.474649   -0.609696   -1.420158
      7         11           0       -3.239962   -1.042284    1.917666
 ---------------------------------------------------------------------

 SCF Done:  E(UB3LYP) =  -1136.10523386     A.U. after   24 cycles

 The electronic state is 2-A.
 Alpha  occ. eigenvalues --  -38.45235 -38.45011 -38.44748 -38.44735 -38.44673
 Alpha  occ. eigenvalues --  -38.44199 -38.44157  -2.21009  -2.20764  -2.20491
 Alpha  occ. eigenvalues --   -2.20472  -2.20456  -2.19988  -2.19913  -1.14691
 Alpha  occ. eigenvalues --   -1.14683  -1.14656  -1.14444  -1.14423  -1.14372
 Alpha  occ. eigenvalues --   -1.14178  -1.14163  -1.14149  -1.14137  -1.14128
 Alpha  occ. eigenvalues --   -1.14117  -1.14111  -1.14098  -1.14078  -1.13656
 Alpha  occ. eigenvalues --   -1.13643  -1.13616  -1.13586  -1.13571  -1.13528
 Alpha  occ. eigenvalues --   -0.15884  -0.13357  -0.12987  -0.10275
 Alpha virt. eigenvalues --   -0.07421  -0.06885  -0.03697  -0.03520  -0.02975
 Alpha virt. eigenvalues --   -0.02784  -0.02356  -0.01894  -0.01417  -0.01393
 Alpha virt. eigenvalues --   -0.00278  -0.00079   0.00023   0.00248   0.00467

  Beta  occ. eigenvalues --  -38.45246 -38.44966 -38.44760 -38.44753 -38.44572
  Beta  occ. eigenvalues --  -38.44165 -38.44109  -2.21033  -2.20681  -2.20517
  Beta  occ. eigenvalues --   -2.20491  -2.20283  -2.19925  -2.19822  -1.14709
  Beta  occ. eigenvalues --   -1.14686  -1.14663  -1.14385  -1.14368  -1.14310
  Beta  occ. eigenvalues --   -1.14198  -1.14183  -1.14175  -1.14154  -1.14133
  Beta  occ. eigenvalues --   -1.14104  -1.13987  -1.13982  -1.13954  -1.13610
  Beta  occ. eigenvalues --   -1.13601  -1.13575  -1.13523  -1.13510  -1.13472
  Beta  occ. eigenvalues --   -0.15431  -0.12917  -0.12593
  Beta virt. eigenvalues --   -0.07377  -0.07082  -0.06152  -0.03633  -0.03153
  Beta virt. eigenvalues --   -0.02624  -0.02404  -0.02170  -0.01565  -0.01353
  Beta virt. eigenvalues --   -0.01116  -0.00076   0.00183   0.00223   0.00368

 Mulliken charges and spin densities:
               1          2
     1  Na  -0.407654   0.243883
     2  Na   0.260231  -0.062330
     3  Na   0.239902  -0.057044
     4  Na  -0.171244   0.252326
     5  Na  -0.208245   0.141802
     6  Na   0.281332   0.018627
     7  Na   0.005678   0.462736
 Sum of Mulliken charges =  -0.00000   1.00000

 Dipole moment (field-independent basis, Debye):
    X=             -0.7484    Y=             -0.3099    Z=             -0.0066  Tot=              0.8100
 Quadrupole moment (field-independent basis, Debye-Ang):
   XX=            -68.3498   YY=            -64.7308   ZZ=            -70.4471
   XY=             -0.5211   XZ=              1.9624   YZ=              1.1820

 Normal termination of Gaussian 16 at Sun Dec  3 17:04:23 2023.
