 Gaussian 16, Revision B.01,
 Gaussian 16:  ES64L-G16RevB.01 20-Dec-2017

 -------------------------
 #P B3LYP/6-311+g(d) force
 -------------------------

 -----
 DPGEN
 -----
 Symbolic Z-matrix:
 Charge =  0 Multiplicity = 2

                         Standard orientation:
 ---------------------------------------------------------------------
 Center     Atomic      Atomic             Coordinates (Angstroms)
 Number     Number       Type             X           Y           Z
 ---------------------------------------------------------------------
      1         11           0        4.515703    0.566049   -0.487525
      2         11           0        1.886006    2.721630    0.315320
      3         11           0       -0.420465   -3.198852    1.205213
      4         11           0       -3.411287   -2.517235   -0.731636
      5         11           0       -3.514161    1.287750   -0.227034
      6         11           0       -1.630172    3.813073    0.235152
      7         11           0        2.574376   -2.672416   -0.309490
 ---------------------------------------------------------------------

 SCF Done:  E(UB3LYP) =  -1136.10999416     A.U. after   23 cycles

 The electronic state is 2-A.
 Alpha  occ. eigenvalues --  -38.45470 -38.45299 -38.44713 -38.44575 -38.44219
 Alpha  occ. eigenvalues --  -38.44057 -38.43575  -2.21216  -2.21067  -2.20493
 Alpha  occ. eigenvalues --   -2.20348  -2.20000  -2.19842  -2.19396  -1.14907
 Alpha  occ. eigenvalues --   -1.14893  -1.14831  -1.14753  -1.14741  -1.14707
 Alpha  occ. eigenvalues --   -1.14163  -1.14161  -1.14117  -1.14027  -1.14014
 Alpha  occ. eigenvalues --   -1.13976  -1.13666  -1.13646  -1.13642  -1.13500
 Alpha  occ. eigenvalues --   -1.13480  -1.13471  -1.13060  -1.13044  -1.13033
 Alpha  occ. eigenvalues --   -0.15475  -0.13736  -0.13532  -0.10758
 Alpha virt. eigenvalues --   -0.07612  -0.04913  -0.04555  -0.03445  -0.03348
 Alpha virt. eigenvalues --   -0.02349  -0.02245  -0.01985  -0.01605  -0.00920
 Alpha virt. eigenvalues --   -0.00418  -0.00072   0.00113   0.00423   0.00588

  Beta  occ. eigenvalues --  -38.45449 -38.45287 -38.44666 -38.44561 -38.44190
  Beta  occ. eigenvalues --  -38.43995 -38.43542  -2.21183  -2.21049  -2.20408
  Beta  occ. eigenvalues --   -2.20329  -2.19949  -2.19727  -2.19334  -1.14887
  Beta  occ. eigenvalues --   -1.14875  -1.14782  -1.14745  -1.14733  -1.14658
  Beta  occ. eigenvalues --   -1.14106  -1.14103  -1.14052  -1.14018  -1.14002
  Beta  occ. eigenvalues --   -1.13930  -1.13632  -1.13614  -1.13598  -1.13422
  Beta  occ. eigenvalues --   -1.13404  -1.13392  -1.13018  -1.13002  -1.12992
  Beta  occ. eigenvalues --   -0.14963  -0.13087  -0.12795
  Beta virt. eigenvalues --   -0.07783  -0.07531  -0.04465  -0.04209  -0.03204
  Beta virt. eigenvalues --   -0.02962  -0.02112  -0.02013  -0.01807  -0.01428
  Beta virt. eigenvalues --   -0.00596  -0.00199   0.00170   0.00218   0.00404

 Mulliken charges and spin densities:
               1          2
     1  Na   0.543060   0.029532
     2  Na  -0.425515   0.188861
     3  Na  -0.174648  -0.025772
     4  Na   0.140779   0.262138
     5  Na  -0.363850   0.122951
     6  Na   0.478803   0.197462
     7  Na  -0.198629   0.224829
 Sum of Mulliken charges =  -0.00000   1.00000

 Dipole moment (field-independent basis, Debye):
    X=              0.4052    Y=              0.0615    Z=             -0.0072  Tot=              0.4099
 Quadrupole moment (field-independent basis, Debye-Ang):
   XX=            -62.7459   YY=            -67.0344   ZZ=            -70.8240
   XY=             -1.4088   XZ=             -1.2389   YZ=              1.5157

 Normal termination of Gaussian 16 at Mon Dec  4 05:16:13 2023.
