 Gaussian 16, Revision B.01,
 Gaussian 16:  ES64L-G16RevB.01 20-Dec-2017

 -------------------------
 #P B3LYP/6-311+g(d) force
 -------------------------

 -----
 DPGEN
 -----
 Symbolic Z-matrix:
 Charge =  0 Multiplicity = 2

                         Standard orientation:
 ---------------------------------------------------------------------
 Center     Atomic      Atomic             Coordinates (Angstroms)
 Number     Number       Type             X           Y           Z
 ---------------------------------------------------------------------
      1         11           0        1.036722    2.573588    0.529118
      2         11           0        0.812822   -2.716426    0.102277
      3         11           0       -2.096057    1.789137   -0.259110
      4         11           0        0.153099    0.190458   -1.859307
      5         11           0       -0.220256   -0.310780    2.084533
      6         11           0        2.948452   -0.148340   -0.359167
      7         11           0       -2.634783   -1.377636   -0.238344
 ---------------------------------------------------------------------

 SCF Done:  E(UB3LYP) =  -1136.13931113     A.U. after   18 cycles

 The electronic state is 2-A.
 Alpha  occ. eigenvalues --  -38.43879 -38.43611 -38.43606 -38.43570 -38.43286
 Alpha  occ. eigenvalues --  -38.43267 -38.43181  -2.19792  -2.19587  -2.19480
 Alpha  occ. eigenvalues --   -2.19433  -2.19204  -2.19136  -2.19064  -1.13458
 Alpha  occ. eigenvalues --   -1.13428  -1.13415  -1.13295  -1.13273  -1.13212
 Alpha  occ. eigenvalues --   -1.13137  -1.13127  -1.13120  -1.13115  -1.13096
 Alpha  occ. eigenvalues --   -1.13070  -1.12886  -1.12860  -1.12835  -1.12821
 Alpha  occ. eigenvalues --   -1.12799  -1.12758  -1.12734  -1.12713  -1.12694
 Alpha  occ. eigenvalues --   -0.19060  -0.13004  -0.12532  -0.11404
 Alpha virt. eigenvalues --   -0.05206  -0.04813  -0.04589  -0.03376  -0.03273
 Alpha virt. eigenvalues --   -0.02980  -0.01199  -0.00917  -0.00147   0.00018
 Alpha virt. eigenvalues --    0.00110   0.00388   0.00883   0.00954   0.00971

  Beta  occ. eigenvalues --  -38.43787 -38.43598 -38.43565 -38.43537 -38.43278
  Beta  occ. eigenvalues --  -38.43263 -38.43168  -2.19624  -2.19471  -2.19452
  Beta  occ. eigenvalues --   -2.19428  -2.19194  -2.19131  -2.19042  -1.13350
  Beta  occ. eigenvalues --   -1.13308  -1.13294  -1.13229  -1.13187  -1.13132
  Beta  occ. eigenvalues --   -1.13119  -1.13112  -1.13108  -1.13084  -1.13066
  Beta  occ. eigenvalues --   -1.13057  -1.12876  -1.12834  -1.12822  -1.12812
  Beta  occ. eigenvalues --   -1.12779  -1.12755  -1.12716  -1.12687  -1.12675
  Beta  occ. eigenvalues --   -0.18292  -0.12734  -0.12287
  Beta virt. eigenvalues --   -0.07442  -0.05182  -0.04809  -0.04510  -0.02579
  Beta virt. eigenvalues --   -0.02448  -0.01923  -0.01117  -0.00844  -0.00091
  Beta virt. eigenvalues --    0.00013   0.00117   0.00406   0.00936   0.00953

 Mulliken charges and spin densities:
               1          2
     1  Na   0.119208   0.065314
     2  Na   0.144850  -0.077343
     3  Na   0.278225   0.004461
     4  Na  -0.329889   0.482448
     5  Na  -0.522109   0.641552
     6  Na   0.198561  -0.028717
     7  Na   0.111155  -0.087715
 Sum of Mulliken charges =  -0.00000   1.00000

 Dipole moment (field-independent basis, Debye):
    X=              0.0070    Y=             -0.1411    Z=              0.0940  Tot=              0.1696
 Quadrupole moment (field-independent basis, Debye-Ang):
   XX=            -60.4790   YY=            -64.4353   ZZ=            -70.5334
   XY=              0.5723   XZ=              0.6254   YZ=              1.1398

 Normal termination of Gaussian 16 at Tue Dec  5 12:29:39 2023.
