 Gaussian 16, Revision B.01,
 Gaussian 16:  ES64L-G16RevB.01 20-Dec-2017

 -------------------------
 #P B3LYP/6-311+g(d) force
 -------------------------

 -----
 DPGEN
 -----
 Symbolic Z-matrix:
 Charge =  0 Multiplicity = 2

                         Standard orientation:
 ---------------------------------------------------------------------
 Center     Atomic      Atomic             Coordinates (Angstroms)
 Number     Number       Type             X           Y           Z
 ---------------------------------------------------------------------
      1         11           0        0.215846    0.020652   -1.634222
      2         11           0       -1.407117   -2.860674   -0.733833
      3         11           0        3.559382   -0.430783   -0.840843
      4         11           0        0.880337   -1.858818    2.073786
      5         11           0        1.186760    3.020769   -0.048793
      6         11           0       -1.156483    1.163564    2.086006
      7         11           0       -3.278724    0.945289   -0.902102
 ---------------------------------------------------------------------

 SCF Done:  E(UB3LYP) =  -1136.12106505     A.U. after   21 cycles

 The electronic state is 2-A.
 Alpha  occ. eigenvalues --  -38.44496 -38.44401 -38.44353 -38.44192 -38.44159
 Alpha  occ. eigenvalues --  -38.43931 -38.43626  -2.20256  -2.20192  -2.20106
 Alpha  occ. eigenvalues --   -2.20006  -2.19921  -2.19701  -2.19510  -1.13939
 Alpha  occ. eigenvalues --   -1.13904  -1.13890  -1.13864  -1.13828  -1.13810
 Alpha  occ. eigenvalues --   -1.13789  -1.13756  -1.13740  -1.13676  -1.13650
 Alpha  occ. eigenvalues --   -1.13627  -1.13607  -1.13586  -1.13542  -1.13397
 Alpha  occ. eigenvalues --   -1.13357  -1.13334  -1.13196  -1.13162  -1.13130
 Alpha  occ. eigenvalues --   -0.17261  -0.12202  -0.11856  -0.11736
 Alpha virt. eigenvalues --   -0.06320  -0.04941  -0.04767  -0.03408  -0.03175
 Alpha virt. eigenvalues --   -0.03109  -0.01782  -0.01242  -0.00659  -0.00127
 Alpha virt. eigenvalues --    0.00085   0.00093   0.00347   0.00627   0.00688

  Beta  occ. eigenvalues --  -38.44484 -38.44345 -38.44329 -38.44159 -38.44127
  Beta  occ. eigenvalues --  -38.43929 -38.43584  -2.20234  -2.20093  -2.20059
  Beta  occ. eigenvalues --   -2.19923  -2.19888  -2.19700  -2.19432  -1.13918
  Beta  occ. eigenvalues --   -1.13892  -1.13872  -1.13774  -1.13765  -1.13750
  Beta  occ. eigenvalues --   -1.13740  -1.13732  -1.13714  -1.13605  -1.13603
  Beta  occ. eigenvalues --   -1.13586  -1.13568  -1.13544  -1.13526  -1.13389
  Beta  occ. eigenvalues --   -1.13357  -1.13328  -1.13143  -1.13112  -1.13068
  Beta  occ. eigenvalues --   -0.16522  -0.11962  -0.11664
  Beta virt. eigenvalues --   -0.07843  -0.06309  -0.04758  -0.04091  -0.03142
  Beta virt. eigenvalues --   -0.02637  -0.02305  -0.01665  -0.01205  -0.00326
  Beta virt. eigenvalues --   -0.00103   0.00077   0.00206   0.00375   0.00694

 Mulliken charges and spin densities:
               1          2
     1  Na   0.619480  -0.038913
     2  Na  -0.333616   0.107069
     3  Na   0.060376   0.098818
     4  Na  -0.199883   0.413836
     5  Na  -0.343882   0.046017
     6  Na   0.151030   0.292820
     7  Na   0.046495   0.080353
 Sum of Mulliken charges =  -0.00000   1.00000

 Dipole moment (field-independent basis, Debye):
    X=             -0.0206    Y=              0.0922    Z=              0.0332  Tot=              0.1001
 Quadrupole moment (field-independent basis, Debye-Ang):
   XX=            -59.3313   YY=            -66.6905   ZZ=            -68.5974
   XY=             -0.5874   XZ=              2.1113   YZ=             -0.3769

 Normal termination of Gaussian 16 at Wed Dec  6 00:20:05 2023.
