 Gaussian 16, Revision B.01,
 Gaussian 16:  ES64L-G16RevB.01 20-Dec-2017

 -------------------------
 #P B3LYP/6-311+g(d) force
 -------------------------

 -----
 DPGEN
 -----
 Symbolic Z-matrix:
 Charge =  0 Multiplicity = 2

                         Standard orientation:
 ---------------------------------------------------------------------
 Center     Atomic      Atomic             Coordinates (Angstroms)
 Number     Number       Type             X           Y           Z
 ---------------------------------------------------------------------
      1         11           0        1.198505    1.681609    0.878261
      2         11           0        4.941528    0.817354    0.275235
      3         11           0        2.574516   -1.515537   -1.270090
      4         11           0       -0.223956   -2.604762    0.160970
      5         11           0       -3.733495   -0.868231   -0.537239
      6         11           0       -2.358803   -0.171970    1.759536
      7         11           0       -2.398295    2.661538   -1.266672
 ---------------------------------------------------------------------

 SCF Done:  E(UB3LYP) =  -1136.10320152     A.U. after   58 cycles

 The electronic state is 2-A.
 Alpha  occ. eigenvalues --  -38.45457 -38.45242 -38.44763 -38.44246 -38.44206
 Alpha  occ. eigenvalues --  -38.44133 -38.43224  -2.21327  -2.20983  -2.20535
 Alpha  occ. eigenvalues --   -2.20137  -2.19982  -2.19887  -2.19023  -1.15151
 Alpha  occ. eigenvalues --   -1.14961  -1.14923  -1.14665  -1.14621  -1.14608
 Alpha  occ. eigenvalues --   -1.14234  -1.14218  -1.14156  -1.13842  -1.13750
 Alpha  occ. eigenvalues --   -1.13707  -1.13645  -1.13632  -1.13602  -1.13581
 Alpha  occ. eigenvalues --   -1.13558  -1.13496  -1.12712  -1.12695  -1.12662
 Alpha  occ. eigenvalues --   -0.16890  -0.14001  -0.11649  -0.10259
 Alpha virt. eigenvalues --   -0.07780  -0.05148  -0.04749  -0.03451  -0.03334
 Alpha virt. eigenvalues --   -0.02658  -0.01805  -0.01627  -0.00869  -0.00620
 Alpha virt. eigenvalues --   -0.00534  -0.00262   0.00173   0.00420   0.00600

  Beta  occ. eigenvalues --  -38.45441 -38.45197 -38.44781 -38.44181 -38.44158
  Beta  occ. eigenvalues --  -38.44100 -38.43233  -2.21306  -2.20900  -2.20568
  Beta  occ. eigenvalues --   -2.20018  -2.19892  -2.19828  -2.19041  -1.15109
  Beta  occ. eigenvalues --   -1.14926  -1.14904  -1.14610  -1.14557  -1.14544
  Beta  occ. eigenvalues --   -1.14257  -1.14232  -1.14183  -1.13766  -1.13670
  Beta  occ. eigenvalues --   -1.13612  -1.13583  -1.13568  -1.13545  -1.13541
  Beta  occ. eigenvalues --   -1.13513  -1.13443  -1.12727  -1.12695  -1.12681
  Beta  occ. eigenvalues --   -0.16248  -0.13573  -0.11349
  Beta virt. eigenvalues --   -0.07635  -0.06860  -0.05120  -0.04190  -0.03102
  Beta virt. eigenvalues --   -0.02944  -0.02510  -0.01409  -0.01313  -0.00555
  Beta virt. eigenvalues --   -0.00490  -0.00259  -0.00193   0.00260   0.00466

 Mulliken charges and spin densities:
               1          2
     1  Na  -0.787373   0.094525
     2  Na   0.259482   0.311658
     3  Na   0.122399  -0.028633
     4  Na  -0.387539  -0.110538
     5  Na   0.110752   0.433854
     6  Na   0.644754   0.050918
     7  Na   0.037525   0.248216
 Sum of Mulliken charges =  -0.00000   1.00000

 Dipole moment (field-independent basis, Debye):
    X=             -0.4015    Y=              0.3477    Z=             -0.1883  Tot=              0.5635
 Quadrupole moment (field-independent basis, Debye-Ang):
   XX=            -68.2666   YY=            -72.3938   ZZ=            -62.3029
   XY=             -0.6510   XZ=              0.6321   YZ=              0.3509

 Normal termination of Gaussian 16 at Sun Dec  3 14:08:59 2023.
