 Gaussian 16, Revision B.01,
 Gaussian 16:  ES64L-G16RevB.01 20-Dec-2017

 -------------------------
 #P B3LYP/6-311+g(d) force
 -------------------------

 -----
 DPGEN
 -----
 Symbolic Z-matrix:
 Charge =  0 Multiplicity = 2

                         Standard orientation:
 ---------------------------------------------------------------------
 Center     Atomic      Atomic             Coordinates (Angstroms)
 Number     Number       Type             X           Y           Z
 ---------------------------------------------------------------------
      1         11           0       -3.279697   -0.329250    0.132185
      2         11           0       -1.255356    2.380554   -0.358521
      3         11           0        0.108127   -0.350930   -1.852632
      4         11           0       -0.318656   -0.002326    1.884912
      5         11           0       -0.186820   -2.658361   -0.105187
      6         11           0        2.733585   -1.238630    0.199676
      7         11           0        2.198817    2.198943    0.099567
 ---------------------------------------------------------------------

 SCF Done:  E(UB3LYP) =  -1136.13662092     A.U. after   19 cycles

 The electronic state is 2-A.
 Alpha  occ. eigenvalues --  -38.44169 -38.43826 -38.43544 -38.43518 -38.43410
 Alpha  occ. eigenvalues --  -38.43297 -38.43184  -2.19988  -2.19695  -2.19496
 Alpha  occ. eigenvalues --   -2.19478  -2.19234  -2.19178  -2.19124  -1.13661
 Alpha  occ. eigenvalues --   -1.13649  -1.13630  -1.13379  -1.13362  -1.13340
 Alpha  occ. eigenvalues --   -1.13263  -1.13167  -1.13134  -1.13127  -1.13090
 Alpha  occ. eigenvalues --   -1.13086  -1.12900  -1.12899  -1.12891  -1.12857
 Alpha  occ. eigenvalues --   -1.12845  -1.12790  -1.12786  -1.12774  -1.12714
 Alpha  occ. eigenvalues --   -0.18940  -0.13104  -0.12463  -0.10938
 Alpha virt. eigenvalues --   -0.05706  -0.05013  -0.04470  -0.03300  -0.02924
 Alpha virt. eigenvalues --   -0.02638  -0.01662  -0.00962  -0.00169  -0.00119
 Alpha virt. eigenvalues --   -0.00018   0.00351   0.00814   0.00903   0.00932

  Beta  occ. eigenvalues --  -38.44166 -38.43821 -38.43465 -38.43434 -38.43410
  Beta  occ. eigenvalues --  -38.43286 -38.43172  -2.19987  -2.19688  -2.19343
  Beta  occ. eigenvalues --   -2.19333  -2.19236  -2.19162  -2.19108  -1.13653
  Beta  occ. eigenvalues --   -1.13640  -1.13629  -1.13373  -1.13347  -1.13325
  Beta  occ. eigenvalues --   -1.13172  -1.13071  -1.13031  -1.13023  -1.12984
  Beta  occ. eigenvalues --   -1.12978  -1.12901  -1.12895  -1.12882  -1.12843
  Beta  occ. eigenvalues --   -1.12808  -1.12781  -1.12770  -1.12722  -1.12705
  Beta  occ. eigenvalues --   -0.18187  -0.12871  -0.12207
  Beta virt. eigenvalues --   -0.07005  -0.05654  -0.05017  -0.04434  -0.02498
  Beta virt. eigenvalues --   -0.02143  -0.01601  -0.01544  -0.00910  -0.00207
  Beta virt. eigenvalues --   -0.00152   0.00108   0.00372   0.00868   0.00891

 Mulliken charges and spin densities:
               1          2
     1  Na   0.199611  -0.093788
     2  Na   0.064258  -0.048685
     3  Na  -0.315631   0.609278
     4  Na  -0.454347   0.753918
     5  Na   0.468923  -0.082800
     6  Na   0.100007  -0.044593
     7  Na  -0.062821  -0.093330
 Sum of Mulliken charges =  -0.00000   1.00000

 Dipole moment (field-independent basis, Debye):
    X=             -0.2001    Y=             -0.0590    Z=              0.1121  Tot=              0.2369
 Quadrupole moment (field-independent basis, Debye-Ang):
   XX=            -55.1085   YY=            -65.4788   ZZ=            -73.2611
   XY=              0.3425   XZ=              0.8784   YZ=             -0.7982

 Normal termination of Gaussian 16 at Thu Dec  7 20:29:24 2023.
