 Gaussian 16, Revision B.01,
 Gaussian 16:  ES64L-G16RevB.01 20-Dec-2017

 -------------------------
 #P B3LYP/6-311+g(d) force
 -------------------------

 -----
 DPGEN
 -----
 Symbolic Z-matrix:
 Charge =  0 Multiplicity = 2

                         Standard orientation:
 ---------------------------------------------------------------------
 Center     Atomic      Atomic             Coordinates (Angstroms)
 Number     Number       Type             X           Y           Z
 ---------------------------------------------------------------------
      1         11           0        2.645288    2.869977   -0.141456
      2         11           0       -1.852946    1.053738    1.545644
      3         11           0        2.835180   -2.386476   -0.851986
      4         11           0        1.697525   -0.432199    1.510117
      5         11           0       -0.277609    0.938829   -1.830181
      6         11           0       -0.880178   -1.945903    0.491258
      7         11           0       -4.167259   -0.097966   -0.723396
 ---------------------------------------------------------------------

 SCF Done:  E(UB3LYP) =  -1136.11958011     A.U. after   22 cycles

 The electronic state is 2-A.
 Alpha  occ. eigenvalues --  -38.44993 -38.44721 -38.44359 -38.44120 -38.43965
 Alpha  occ. eigenvalues --  -38.43509 -38.43328  -2.20773  -2.20500  -2.20219
 Alpha  occ. eigenvalues --   -2.19912  -2.19835  -2.19404  -2.19070  -1.14447
 Alpha  occ. eigenvalues --   -1.14429  -1.14395  -1.14191  -1.14168  -1.14090
 Alpha  occ. eigenvalues --   -1.13911  -1.13868  -1.13830  -1.13593  -1.13574
 Alpha  occ. eigenvalues --   -1.13560  -1.13530  -1.13521  -1.13415  -1.13107
 Alpha  occ. eigenvalues --   -1.13061  -1.13002  -1.12748  -1.12744  -1.12704
 Alpha  occ. eigenvalues --   -0.17823  -0.13399  -0.11226  -0.10800
 Alpha virt. eigenvalues --   -0.06828  -0.05562  -0.04637  -0.03110  -0.02715
 Alpha virt. eigenvalues --   -0.02451  -0.02344  -0.01463  -0.01061  -0.00115
 Alpha virt. eigenvalues --    0.00005   0.00083   0.00374   0.00416   0.00552

  Beta  occ. eigenvalues --  -38.44972 -38.44676 -38.44310 -38.44089 -38.43949
  Beta  occ. eigenvalues --  -38.43481 -38.43341  -2.20734  -2.20415  -2.20132
  Beta  occ. eigenvalues --   -2.19854  -2.19812  -2.19357  -2.19094  -1.14420
  Beta  occ. eigenvalues --   -1.14396  -1.14370  -1.14135  -1.14106  -1.14026
  Beta  occ. eigenvalues --   -1.13850  -1.13800  -1.13758  -1.13556  -1.13550
  Beta  occ. eigenvalues --   -1.13517  -1.13493  -1.13475  -1.13404  -1.13073
  Beta  occ. eigenvalues --   -1.13005  -1.12972  -1.12765  -1.12756  -1.12720
  Beta  occ. eigenvalues --   -0.17066  -0.13203  -0.11107
  Beta virt. eigenvalues --   -0.07098  -0.06533  -0.05363  -0.04206  -0.02921
  Beta virt. eigenvalues --   -0.02375  -0.02021  -0.01804  -0.01222  -0.00659
  Beta virt. eigenvalues --   -0.00071   0.00088   0.00135   0.00478   0.00520

 Mulliken charges and spin densities:
               1          2
     1  Na  -0.138625  -0.097083
     2  Na   0.194375   0.112237
     3  Na  -0.091889   0.129442
     4  Na   0.646739   0.046980
     5  Na  -0.517832   0.446847
     6  Na  -0.353380   0.191379
     7  Na   0.260612   0.170198
 Sum of Mulliken charges =  -0.00000   1.00000

 Dipole moment (field-independent basis, Debye):
    X=             -1.2381    Y=             -0.3455    Z=             -0.2017  Tot=              1.3012
 Quadrupole moment (field-independent basis, Debye-Ang):
   XX=            -51.2671   YY=            -73.2498   ZZ=            -69.8537
   XY=             -1.2293   XZ=              0.2923   YZ=              4.2517

 Normal termination of Gaussian 16 at Thu Dec  7 18:24:02 2023.
