 Gaussian 16, Revision B.01,
 Gaussian 16:  ES64L-G16RevB.01 20-Dec-2017

 -------------------------
 #P B3LYP/6-311+g(d) force
 -------------------------

 -----
 DPGEN
 -----
 Symbolic Z-matrix:
 Charge =  0 Multiplicity = 2

                         Standard orientation:
 ---------------------------------------------------------------------
 Center     Atomic      Atomic             Coordinates (Angstroms)
 Number     Number       Type             X           Y           Z
 ---------------------------------------------------------------------
      1         11           0        1.825654   -2.256542    0.142500
      2         11           0       -2.287701   -2.092823    0.005385
      3         11           0       -2.569656    1.233132   -0.084953
      4         11           0       -0.122209   -0.219829   -1.627940
      5         11           0        0.222722    2.768795    0.109569
      6         11           0       -0.042509   -0.056433    1.663522
      7         11           0        2.973698    0.623701   -0.208082
 ---------------------------------------------------------------------

 SCF Done:  E(UB3LYP) =  -1136.13585069     A.U. after   20 cycles

 The electronic state is 2-A.
 Alpha  occ. eigenvalues --  -38.43974 -38.43704 -38.43693 -38.43640 -38.42940
 Alpha  occ. eigenvalues --  -38.42927 -38.42886  -2.19855  -2.19639  -2.19556
 Alpha  occ. eigenvalues --   -2.19538  -2.18975  -2.18921  -2.18841  -1.13554
 Alpha  occ. eigenvalues --   -1.13514  -1.13502  -1.13347  -1.13305  -1.13298
 Alpha  occ. eigenvalues --   -1.13229  -1.13224  -1.13210  -1.13200  -1.13181
 Alpha  occ. eigenvalues --   -1.13157  -1.12708  -1.12612  -1.12603  -1.12585
 Alpha  occ. eigenvalues --   -1.12568  -1.12535  -1.12493  -1.12477  -1.12470
 Alpha  occ. eigenvalues --   -0.19399  -0.13535  -0.12537  -0.10534
 Alpha virt. eigenvalues --   -0.05549  -0.05325  -0.04487  -0.03223  -0.02655
 Alpha virt. eigenvalues --   -0.02104  -0.01561  -0.01142  -0.00262  -0.00100
 Alpha virt. eigenvalues --    0.00051   0.00360   0.00817   0.00901   0.00925

  Beta  occ. eigenvalues --  -38.43968 -38.43696 -38.43689 -38.43633 -38.42921
  Beta  occ. eigenvalues --  -38.42868 -38.42805  -2.19847  -2.19628  -2.19551
  Beta  occ. eigenvalues --   -2.19528  -2.18843  -2.18833  -2.18775  -1.13553
  Beta  occ. eigenvalues --   -1.13503  -1.13479  -1.13342  -1.13299  -1.13257
  Beta  occ. eigenvalues --   -1.13223  -1.13213  -1.13192  -1.13178  -1.13164
  Beta  occ. eigenvalues --   -1.13154  -1.12623  -1.12549  -1.12511  -1.12491
  Beta  occ. eigenvalues --   -1.12483  -1.12475  -1.12451  -1.12431  -1.12399
  Beta  occ. eigenvalues --   -0.18668  -0.13255  -0.12265
  Beta virt. eigenvalues --   -0.06601  -0.05521  -0.05323  -0.04491  -0.02378
  Beta virt. eigenvalues --   -0.01881  -0.01474  -0.01115  -0.01042  -0.00321
  Beta virt. eigenvalues --   -0.00137   0.00176   0.00386   0.00867   0.00895

 Mulliken charges and spin densities:
               1          2
     1  Na   0.217095  -0.097870
     2  Na   0.200585  -0.111390
     3  Na   0.280996  -0.000401
     4  Na  -0.492383   0.584912
     5  Na   0.162333  -0.029720
     6  Na  -0.482241   0.649373
     7  Na   0.113615   0.005096
 Sum of Mulliken charges =  -0.00000   1.00000

 Dipole moment (field-independent basis, Debye):
    X=              0.0476    Y=             -0.2339    Z=             -0.0119  Tot=              0.2389
 Quadrupole moment (field-independent basis, Debye-Ang):
   XX=            -54.7831   YY=            -61.7638   ZZ=            -75.7844
   XY=              0.8004   XZ=             -0.3049   YZ=             -0.4999

 Normal termination of Gaussian 16 at Tue Nov 28 22:55:27 2023.
