 Gaussian 16, Revision B.01,
 Gaussian 16:  ES64L-G16RevB.01 20-Dec-2017

 -------------------------
 #P B3LYP/6-311+g(d) force
 -------------------------

 -----
 DPGEN
 -----
 Symbolic Z-matrix:
 Charge =  0 Multiplicity = 2

                         Standard orientation:
 ---------------------------------------------------------------------
 Center     Atomic      Atomic             Coordinates (Angstroms)
 Number     Number       Type             X           Y           Z
 ---------------------------------------------------------------------
      1         11           0        0.083393   -0.086119   -1.489714
      2         11           0        0.083693   -0.086119    1.489886
      3         11           0        2.132368   -1.568252   -0.000214
      4         11           0        2.192415    1.289147   -0.000114
      5         11           0       -0.533570    2.141392    0.000186
      6         11           0       -1.243438   -1.980077    0.000186
      7         11           0       -2.714861    0.290028   -0.000214
 ---------------------------------------------------------------------

 SCF Done:  E(UB3LYP) =  -1136.07309906     A.U. after   18 cycles

 The electronic state is 2-A.
 Alpha  occ. eigenvalues --  -38.44318 -38.43868 -38.43804 -38.43740 -38.43656
 Alpha  occ. eigenvalues --  -38.43656 -38.43420  -2.20408  -2.20078  -2.20022
 Alpha  occ. eigenvalues --   -2.20002  -2.19936  -2.19802  -2.19610  -1.14351
 Alpha  occ. eigenvalues --   -1.14190  -1.14117  -1.14039  -1.14014  -1.13888
 Alpha  occ. eigenvalues --   -1.13884  -1.13724  -1.13724  -1.13703  -1.13596
 Alpha  occ. eigenvalues --   -1.13537  -1.13447  -1.13404  -1.13404  -1.13391
 Alpha  occ. eigenvalues --   -1.13388  -1.13345  -1.13178  -1.13149  -1.13144
 Alpha  occ. eigenvalues --   -0.21659  -0.14385  -0.12949  -0.11521
 Alpha virt. eigenvalues --   -0.05565  -0.04680  -0.03992  -0.03559  -0.02703
 Alpha virt. eigenvalues --   -0.02028  -0.01444  -0.00663   0.00043   0.00338
 Alpha virt. eigenvalues --    0.00569   0.00634   0.00926   0.01089   0.01128

  Beta  occ. eigenvalues --  -38.44308 -38.43855 -38.43789 -38.43729 -38.43571
  Beta  occ. eigenvalues --  -38.43571 -38.43402  -2.20396  -2.19999  -2.19957
  Beta  occ. eigenvalues --   -2.19874  -2.19870  -2.19787  -2.19584  -1.14336
  Beta  occ. eigenvalues --   -1.14173  -1.14075  -1.13984  -1.13955  -1.13857
  Beta  occ. eigenvalues --   -1.13783  -1.13692  -1.13629  -1.13611  -1.13564
  Beta  occ. eigenvalues --   -1.13456  -1.13440  -1.13370  -1.13341  -1.13328
  Beta  occ. eigenvalues --   -1.13324  -1.13310  -1.13143  -1.13142  -1.13056
  Beta  occ. eigenvalues --   -0.20874  -0.13996  -0.12591
  Beta virt. eigenvalues --   -0.07330  -0.05594  -0.04656  -0.03979  -0.02573
  Beta virt. eigenvalues --   -0.01822  -0.01367  -0.00990  -0.00622   0.00176
  Beta virt. eigenvalues --    0.00381   0.00536   0.00608   0.00942   0.01095

 Mulliken charges and spin densities:
               1          2
     1  Na  -0.812782   0.384847
     2  Na  -0.812382   0.385006
     3  Na   0.319009   0.006317
     4  Na   0.288362   0.045061
     5  Na   0.534746   0.120332
     6  Na   0.435256   0.066591
     7  Na   0.047791  -0.008155
 Sum of Mulliken charges =  -0.00000   1.00000

 Dipole moment (field-independent basis, Debye):
    X=              0.0245    Y=             -0.1632    Z=              0.0001  Tot=              0.1650
 Quadrupole moment (field-independent basis, Debye-Ang):
   XX=            -55.1882   YY=            -67.2626   ZZ=            -73.0211
   XY=             -0.6355   XZ=             -0.0004   YZ=             -0.0001

 Normal termination of Gaussian 16 at Fri Dec  8 18:46:10 2023.
