 Gaussian 16, Revision B.01,
 Gaussian 16:  ES64L-G16RevB.01 20-Dec-2017

 -------------------------
 #P B3LYP/6-311+g(d) force
 -------------------------

 -----
 DPGEN
 -----
 Symbolic Z-matrix:
 Charge =  0 Multiplicity = 2

                         Standard orientation:
 ---------------------------------------------------------------------
 Center     Atomic      Atomic             Coordinates (Angstroms)
 Number     Number       Type             X           Y           Z
 ---------------------------------------------------------------------
      1         11           0       -2.165150   -1.137400    0.110122
      2         11           0       -5.124357   -2.176920   -0.241185
      3         11           0       -4.160455    1.985588   -1.063465
      4         11           0       -1.368527    2.074316    0.894913
      5         11           0        1.530683   -0.288893    1.466826
      6         11           0        3.952121   -0.376556   -0.626492
      7         11           0        7.335685   -0.080136   -0.540719
 ---------------------------------------------------------------------

 SCF Done:  E(UB3LYP) =  -1136.11169622     A.U. after   22 cycles

 The electronic state is 2-A.
 Alpha  occ. eigenvalues --  -38.45525 -38.44536 -38.44509 -38.44303 -38.44021
 Alpha  occ. eigenvalues --  -38.43871 -38.43778  -2.21321  -2.20366  -2.20355
 Alpha  occ. eigenvalues --   -2.20071  -2.19831  -2.19685  -2.19574  -1.14986
 Alpha  occ. eigenvalues --   -1.14973  -1.14921  -1.14082  -1.14065  -1.14036
 Alpha  occ. eigenvalues --   -1.14011  -1.13983  -1.13962  -1.13725  -1.13724
 Alpha  occ. eigenvalues --   -1.13698  -1.13495  -1.13478  -1.13444  -1.13400
 Alpha  occ. eigenvalues --   -1.13351  -1.13304  -1.13248  -1.13239  -1.13192
 Alpha  occ. eigenvalues --   -0.16608  -0.13930  -0.12092  -0.11488
 Alpha virt. eigenvalues --   -0.06883  -0.05201  -0.04368  -0.03627  -0.03251
 Alpha virt. eigenvalues --   -0.02503  -0.02212  -0.01709  -0.01215  -0.00835
 Alpha virt. eigenvalues --   -0.00816  -0.00206   0.00093   0.00453   0.00490

  Beta  occ. eigenvalues --  -38.45450 -38.44520 -38.44481 -38.44261 -38.43978
  Beta  occ. eigenvalues --  -38.43845 -38.43789  -2.21184  -2.20329  -2.20316
  Beta  occ. eigenvalues --   -2.19993  -2.19753  -2.19637  -2.19599  -1.14895
  Beta  occ. eigenvalues --   -1.14871  -1.14824  -1.14061  -1.14031  -1.14020
  Beta  occ. eigenvalues --   -1.13978  -1.13945  -1.13912  -1.13672  -1.13671
  Beta  occ. eigenvalues --   -1.13647  -1.13432  -1.13425  -1.13399  -1.13379
  Beta  occ. eigenvalues --   -1.13315  -1.13285  -1.13266  -1.13249  -1.13184
  Beta  occ. eigenvalues --   -0.15997  -0.13594  -0.11268
  Beta virt. eigenvalues --   -0.08244  -0.06501  -0.04999  -0.04047  -0.03427
  Beta virt. eigenvalues --   -0.02664  -0.02306  -0.01922  -0.01541  -0.00878
  Beta virt. eigenvalues --   -0.00622  -0.00444  -0.00081   0.00258   0.00484

 Mulliken charges and spin densities:
               1          2
     1  Na  -1.091785   0.283879
     2  Na  -0.158273   0.253731
     3  Na   0.192269   0.244941
     4  Na   0.104206   0.095858
     5  Na   0.592036   0.041657
     6  Na  -0.409427  -0.018096
     7  Na   0.770973   0.098028
 Sum of Mulliken charges =  -0.00000   1.00000

 Dipole moment (field-independent basis, Debye):
    X=             -1.6593    Y=              0.8774    Z=             -0.1171  Tot=              1.8806
 Quadrupole moment (field-independent basis, Debye-Ang):
   XX=            -55.6891   YY=            -68.7465   ZZ=            -70.0573
   XY=             -1.9288   XZ=              3.9121   YZ=             -1.2525

 Normal termination of Gaussian 16 at Wed Nov 29 02:39:38 2023.
