 Gaussian 16, Revision B.01,
 Gaussian 16:  ES64L-G16RevB.01 20-Dec-2017

 -------------------------
 #P B3LYP/6-311+g(d) force
 -------------------------

 -----
 DPGEN
 -----
 Symbolic Z-matrix:
 Charge =  0 Multiplicity = 2

                         Standard orientation:
 ---------------------------------------------------------------------
 Center     Atomic      Atomic             Coordinates (Angstroms)
 Number     Number       Type             X           Y           Z
 ---------------------------------------------------------------------
      1         11           0        2.221210   -1.345822   -0.675535
      2         11           0        4.679531   -1.985062    1.066215
      3         11           0        4.018927    1.809925    0.565787
      4         11           0        0.935253    2.260124   -0.446113
      5         11           0       -1.218401   -0.018421   -1.515375
      6         11           0       -4.554138   -0.991674   -0.705991
      7         11           0       -6.082382    0.270930    1.711012
 ---------------------------------------------------------------------

 SCF Done:  E(UB3LYP) =  -1136.11619963     A.U. after   21 cycles

 The electronic state is 2-A.
 Alpha  occ. eigenvalues --  -38.44970 -38.44488 -38.44486 -38.43967 -38.43949
 Alpha  occ. eigenvalues --  -38.43715 -38.43421  -2.20796  -2.20341  -2.20277
 Alpha  occ. eigenvalues --   -2.19796  -2.19769  -2.19539  -2.19250  -1.14469
 Alpha  occ. eigenvalues --   -1.14461  -1.14385  -1.14033  -1.13998  -1.13971
 Alpha  occ. eigenvalues --   -1.13941  -1.13926  -1.13924  -1.13473  -1.13466
 Alpha  occ. eigenvalues --   -1.13434  -1.13431  -1.13429  -1.13420  -1.13218
 Alpha  occ. eigenvalues --   -1.13189  -1.13156  -1.12918  -1.12913  -1.12874
 Alpha  occ. eigenvalues --   -0.16647  -0.14031  -0.12123  -0.11498
 Alpha virt. eigenvalues --   -0.06708  -0.05129  -0.04031  -0.03892  -0.03157
 Alpha virt. eigenvalues --   -0.02460  -0.02388  -0.01314  -0.01007  -0.00870
 Alpha virt. eigenvalues --   -0.00527  -0.00187   0.00138   0.00377   0.00687

  Beta  occ. eigenvalues --  -38.44890 -38.44460 -38.44446 -38.43975 -38.43922
  Beta  occ. eigenvalues --  -38.43695 -38.43393  -2.20651  -2.20267  -2.20225
  Beta  occ. eigenvalues --   -2.19785  -2.19751  -2.19503  -2.19196  -1.14365
  Beta  occ. eigenvalues --   -1.14365  -1.14274  -1.13984  -1.13944  -1.13911
  Beta  occ. eigenvalues --   -1.13909  -1.13890  -1.13888  -1.13447  -1.13444
  Beta  occ. eigenvalues --   -1.13442  -1.13437  -1.13413  -1.13372  -1.13181
  Beta  occ. eigenvalues --   -1.13165  -1.13137  -1.12878  -1.12875  -1.12846
  Beta  occ. eigenvalues --   -0.15940  -0.13748  -0.11708
  Beta virt. eigenvalues --   -0.07926  -0.06271  -0.04935  -0.03730  -0.03511
  Beta virt. eigenvalues --   -0.02578  -0.02324  -0.02165  -0.01111  -0.00813
  Beta virt. eigenvalues --   -0.00588  -0.00222   0.00034   0.00265   0.00442

 Mulliken charges and spin densities:
               1          2
     1  Na  -0.418254   0.391371
     2  Na   0.587197  -0.020412
     3  Na   0.042738   0.259348
     4  Na   0.457008   0.257829
     5  Na  -0.852980   0.060826
     6  Na   0.135645  -0.054310
     7  Na   0.048646   0.105348
 Sum of Mulliken charges =  -0.00000   1.00000

 Dipole moment (field-independent basis, Debye):
    X=              0.6047    Y=              0.4479    Z=              0.7740  Tot=              1.0795
 Quadrupole moment (field-independent basis, Debye-Ang):
   XX=            -61.4062   YY=            -67.6476   ZZ=            -66.5369
   XY=             -1.2039   XZ=             -0.4255   YZ=              3.2995

 Normal termination of Gaussian 16 at Wed Nov 29 00:25:05 2023.
