 Gaussian 16, Revision B.01,
 Gaussian 16:  ES64L-G16RevB.01 20-Dec-2017

 -------------------------
 #P B3LYP/6-311+g(d) force
 -------------------------

 -----
 DPGEN
 -----
 Symbolic Z-matrix:
 Charge =  0 Multiplicity = 2

                         Standard orientation:
 ---------------------------------------------------------------------
 Center     Atomic      Atomic             Coordinates (Angstroms)
 Number     Number       Type             X           Y           Z
 ---------------------------------------------------------------------
      1         11           0        0.076298    0.093996   -1.790309
      2         11           0       -1.984961    2.053516   -0.342992
      3         11           0        0.800779   -2.515395    0.234478
      4         11           0       -0.342415   -0.096771    1.896328
      5         11           0       -3.018713   -1.584451   -0.154895
      6         11           0        1.136735    2.532893    0.489496
      7         11           0        3.332278   -0.483787   -0.332107
 ---------------------------------------------------------------------

 SCF Done:  E(UB3LYP) =  -1136.13603014     A.U. after   19 cycles

 The electronic state is 2-A.
 Alpha  occ. eigenvalues --  -38.44092 -38.44069 -38.43541 -38.43529 -38.43454
 Alpha  occ. eigenvalues --  -38.43354 -38.43172  -2.19907  -2.19849  -2.19488
 Alpha  occ. eigenvalues --   -2.19421  -2.19402  -2.19244  -2.19053  -1.13573
 Alpha  occ. eigenvalues --   -1.13572  -1.13550  -1.13527  -1.13505  -1.13491
 Alpha  occ. eigenvalues --   -1.13219  -1.13170  -1.13117  -1.13104  -1.13097
 Alpha  occ. eigenvalues --   -1.13059  -1.13043  -1.13038  -1.13007  -1.12914
 Alpha  occ. eigenvalues --   -1.12909  -1.12840  -1.12729  -1.12707  -1.12678
 Alpha  occ. eigenvalues --   -0.18745  -0.12979  -0.12376  -0.10919
 Alpha virt. eigenvalues --   -0.05797  -0.05094  -0.04375  -0.03198  -0.02988
 Alpha virt. eigenvalues --   -0.02602  -0.01763  -0.01114  -0.00281  -0.00052
 Alpha virt. eigenvalues --    0.00005   0.00327   0.00778   0.00878   0.00896

  Beta  occ. eigenvalues --  -38.44089 -38.44070 -38.43519 -38.43470 -38.43367
  Beta  occ. eigenvalues --  -38.43343 -38.43159  -2.19902  -2.19853  -2.19406
  Beta  occ. eigenvalues --   -2.19357  -2.19243  -2.19229  -2.19032  -1.13573
  Beta  occ. eigenvalues --   -1.13555  -1.13547  -1.13523  -1.13500  -1.13494
  Beta  occ. eigenvalues --   -1.13166  -1.13087  -1.13060  -1.13039  -1.13027
  Beta  occ. eigenvalues --   -1.13016  -1.12981  -1.12944  -1.12899  -1.12887
  Beta  occ. eigenvalues --   -1.12859  -1.12826  -1.12710  -1.12673  -1.12663
  Beta  occ. eigenvalues --   -0.17999  -0.12733  -0.12134
  Beta virt. eigenvalues --   -0.06998  -0.05731  -0.05075  -0.04343  -0.02457
  Beta virt. eigenvalues --   -0.02211  -0.01674  -0.01557  -0.01041  -0.00274
  Beta virt. eigenvalues --   -0.00076   0.00102   0.00346   0.00846   0.00877

 Mulliken charges and spin densities:
               1          2
     1  Na  -0.263183   0.673311
     2  Na   0.170237  -0.029616
     3  Na   0.135139  -0.100276
     4  Na  -0.100006   0.590129
     5  Na  -0.070530  -0.127707
     6  Na   0.114156   0.025260
     7  Na   0.014189  -0.031100
 Sum of Mulliken charges =  -0.00000   1.00000

 Dipole moment (field-independent basis, Debye):
    X=             -0.0378    Y=             -0.0742    Z=             -0.0804  Tot=              0.1157
 Quadrupole moment (field-independent basis, Debye-Ang):
   XX=            -54.2842   YY=            -65.3651   ZZ=            -73.5067
   XY=              1.0168   XZ=              0.6875   YZ=              0.5261

 Normal termination of Gaussian 16 at Thu Dec  7 02:57:25 2023.
