 Gaussian 16, Revision B.01,
 Gaussian 16:  ES64L-G16RevB.01 20-Dec-2017

 -------------------------
 #P B3LYP/6-311+g(d) force
 -------------------------

 -----
 DPGEN
 -----
 Symbolic Z-matrix:
 Charge =  0 Multiplicity = 2

                         Standard orientation:
 ---------------------------------------------------------------------
 Center     Atomic      Atomic             Coordinates (Angstroms)
 Number     Number       Type             X           Y           Z
 ---------------------------------------------------------------------
      1         11           0        1.164521    2.163054   -0.602779
      2         11           0        3.407465   -0.035234    0.287635
      3         11           0        0.110959   -0.253240    2.278377
      4         11           0       -2.198779    2.194707    0.176598
      5         11           0       -0.588231    0.032450   -1.570871
      6         11           0       -2.659992   -1.637816    0.184572
      7         11           0        0.764057   -2.463921   -0.753532
 ---------------------------------------------------------------------

 SCF Done:  E(UB3LYP) =  -1136.12970034     A.U. after   19 cycles

 The electronic state is 2-A.
 Alpha  occ. eigenvalues --  -38.44395 -38.44138 -38.43988 -38.43476 -38.43448
 Alpha  occ. eigenvalues --  -38.43319 -38.43177  -2.20230  -2.19944  -2.19825
 Alpha  occ. eigenvalues --   -2.19402  -2.19324  -2.19321  -2.19097  -1.13886
 Alpha  occ. eigenvalues --   -1.13863  -1.13845  -1.13624  -1.13605  -1.13581
 Alpha  occ. eigenvalues --   -1.13529  -1.13485  -1.13449  -1.13224  -1.13163
 Alpha  occ. eigenvalues --   -1.13065  -1.12989  -1.12979  -1.12957  -1.12953
 Alpha  occ. eigenvalues --   -1.12914  -1.12899  -1.12764  -1.12736  -1.12685
 Alpha  occ. eigenvalues --   -0.18731  -0.12966  -0.12233  -0.11311
 Alpha virt. eigenvalues --   -0.05809  -0.05054  -0.04036  -0.03424  -0.03112
 Alpha virt. eigenvalues --   -0.02926  -0.01646  -0.01041  -0.00269   0.00027
 Alpha virt. eigenvalues --    0.00116   0.00346   0.00763   0.00793   0.00893

  Beta  occ. eigenvalues --  -38.44296 -38.44139 -38.43984 -38.43475 -38.43426
  Beta  occ. eigenvalues --  -38.43257 -38.43163  -2.20046  -2.19947  -2.19822
  Beta  occ. eigenvalues --   -2.19321  -2.19299  -2.19278  -2.19075  -1.13764
  Beta  occ. eigenvalues --   -1.13737  -1.13711  -1.13629  -1.13592  -1.13585
  Beta  occ. eigenvalues --   -1.13523  -1.13470  -1.13445  -1.13163  -1.13100
  Beta  occ. eigenvalues --   -1.13027  -1.12977  -1.12948  -1.12936  -1.12914
  Beta  occ. eigenvalues --   -1.12888  -1.12846  -1.12731  -1.12703  -1.12674
  Beta  occ. eigenvalues --   -0.17987  -0.12793  -0.11978
  Beta virt. eigenvalues --   -0.07313  -0.05680  -0.05040  -0.04005  -0.02692
  Beta virt. eigenvalues --   -0.02269  -0.01922  -0.01525  -0.00991  -0.00196
  Beta virt. eigenvalues --    0.00072   0.00132   0.00370   0.00826   0.00873

 Mulliken charges and spin densities:
               1          2
     1  Na   0.236416   0.029484
     2  Na   0.010792   0.012365
     3  Na  -0.631303   0.770636
     4  Na   0.025412   0.058619
     5  Na   0.113878   0.065591
     6  Na   0.035862   0.048204
     7  Na   0.208943   0.015101
 Sum of Mulliken charges =  -0.00000   1.00000

 Dipole moment (field-independent basis, Debye):
    X=             -0.0941    Y=             -0.2415    Z=              0.6271  Tot=              0.6786
 Quadrupole moment (field-independent basis, Debye-Ang):
   XX=            -54.8996   YY=            -67.6142   ZZ=            -71.5449
   XY=             -0.5604   XZ=             -1.1966   YZ=              0.6203

 Normal termination of Gaussian 16 at Tue Dec  5 22:49:10 2023.
