 Gaussian 16, Revision B.01,
 Gaussian 16:  ES64L-G16RevB.01 20-Dec-2017

 -------------------------
 #P B3LYP/6-311+g(d) force
 -------------------------

 -----
 DPGEN
 -----
 Symbolic Z-matrix:
 Charge =  0 Multiplicity = 2

                         Standard orientation:
 ---------------------------------------------------------------------
 Center     Atomic      Atomic             Coordinates (Angstroms)
 Number     Number       Type             X           Y           Z
 ---------------------------------------------------------------------
      1         11           0       -1.983316    1.951996   -0.410313
      2         11           0        0.228925    0.038999    1.861491
      3         11           0        2.916534   -1.067380    0.032635
      4         11           0       -0.198776   -2.469145   -0.350127
      5         11           0        1.536742    2.337706    0.194379
      6         11           0       -2.969641   -0.949136    0.313983
      7         11           0        0.469532    0.156960   -1.642048
 ---------------------------------------------------------------------

 SCF Done:  E(UB3LYP) =  -1136.13259311     A.U. after   20 cycles

 The electronic state is 2-A.
 Alpha  occ. eigenvalues --  -38.44059 -38.43834 -38.43494 -38.43430 -38.43326
 Alpha  occ. eigenvalues --  -38.43196 -38.43020  -2.19939  -2.19703  -2.19415
 Alpha  occ. eigenvalues --   -2.19381  -2.19277  -2.19248  -2.18966  -1.13630
 Alpha  occ. eigenvalues --   -1.13606  -1.13568  -1.13399  -1.13367  -1.13353
 Alpha  occ. eigenvalues --   -1.13146  -1.13085  -1.13078  -1.13053  -1.13039
 Alpha  occ. eigenvalues --   -1.13015  -1.13003  -1.12980  -1.12895  -1.12870
 Alpha  occ. eigenvalues --   -1.12838  -1.12834  -1.12640  -1.12616  -1.12567
 Alpha  occ. eigenvalues --   -0.19457  -0.13399  -0.12498  -0.11006
 Alpha virt. eigenvalues --   -0.05692  -0.05064  -0.04170  -0.03304  -0.02893
 Alpha virt. eigenvalues --   -0.02527  -0.01614  -0.00947  -0.00128   0.00075
 Alpha virt. eigenvalues --    0.00111   0.00352   0.00850   0.00920   0.00959

  Beta  occ. eigenvalues --  -38.44053 -38.43832 -38.43485 -38.43344 -38.43316
  Beta  occ. eigenvalues --  -38.43120 -38.43007  -2.19932  -2.19702  -2.19368
  Beta  occ. eigenvalues --   -2.19257  -2.19236  -2.19137  -2.18949  -1.13621
  Beta  occ. eigenvalues --   -1.13585  -1.13558  -1.13401  -1.13368  -1.13333
  Beta  occ. eigenvalues --   -1.13086  -1.13047  -1.13012  -1.13001  -1.12986
  Beta  occ. eigenvalues --   -1.12970  -1.12906  -1.12899  -1.12849  -1.12827
  Beta  occ. eigenvalues --   -1.12769  -1.12769  -1.12618  -1.12572  -1.12554
  Beta  occ. eigenvalues --   -0.18714  -0.13154  -0.12196
  Beta virt. eigenvalues --   -0.07029  -0.05655  -0.05046  -0.04171  -0.02517
  Beta virt. eigenvalues --   -0.02065  -0.01546  -0.01437  -0.00892  -0.00093
  Beta virt. eigenvalues --    0.00056   0.00151   0.00376   0.00898   0.00914

 Mulliken charges and spin densities:
               1          2
     1  Na   0.175882  -0.019669
     2  Na  -0.506265   0.735279
     3  Na   0.260541  -0.067355
     4  Na   0.257007   0.006453
     5  Na   0.205705  -0.063628
     6  Na  -0.060473  -0.017365
     7  Na  -0.332397   0.426284
 Sum of Mulliken charges =  -0.00000   1.00000

 Dipole moment (field-independent basis, Debye):
    X=              0.2165    Y=              0.0121    Z=              0.2161  Tot=              0.3061
 Quadrupole moment (field-independent basis, Debye-Ang):
   XX=            -54.4279   YY=            -65.8781   ZZ=            -73.2999
   XY=             -0.3600   XZ=              0.2089   YZ=             -0.1869

 Normal termination of Gaussian 16 at Thu Dec  7 12:22:44 2023.
