 Gaussian 16, Revision B.01,
 Gaussian 16:  ES64L-G16RevB.01 20-Dec-2017

 -------------------------
 #P B3LYP/6-311+g(d) force
 -------------------------

 -----
 DPGEN
 -----
 Symbolic Z-matrix:
 Charge =  0 Multiplicity = 2

                         Standard orientation:
 ---------------------------------------------------------------------
 Center     Atomic      Atomic             Coordinates (Angstroms)
 Number     Number       Type             X           Y           Z
 ---------------------------------------------------------------------
      1         11           0       -0.367405   -2.773742   -0.608648
      2         11           0        1.801564    2.210169    0.770453
      3         11           0       -0.316144   -0.931726    2.097052
      4         11           0        3.161668   -0.831655   -0.352470
      5         11           0        0.235698    0.243317   -1.490688
      6         11           0       -1.589368    2.523791   -0.523147
      7         11           0       -2.926013   -0.440153    0.107449
 ---------------------------------------------------------------------

 SCF Done:  E(UB3LYP) =  -1136.13475838     A.U. after   18 cycles

 The electronic state is 2-A.
 Alpha  occ. eigenvalues --  -38.44139 -38.43847 -38.43796 -38.43758 -38.43498
 Alpha  occ. eigenvalues --  -38.43180 -38.42998  -2.19947  -2.19721  -2.19680
 Alpha  occ. eigenvalues --   -2.19590  -2.19377  -2.19054  -2.19025  -1.13635
 Alpha  occ. eigenvalues --   -1.13602  -1.13583  -1.13432  -1.13388  -1.13366
 Alpha  occ. eigenvalues --   -1.13331  -1.13318  -1.13284  -1.13265  -1.13252
 Alpha  occ. eigenvalues --   -1.13217  -1.13089  -1.13035  -1.12984  -1.12834
 Alpha  occ. eigenvalues --   -1.12708  -1.12687  -1.12680  -1.12648  -1.12610
 Alpha  occ. eigenvalues --   -0.18630  -0.13002  -0.12501  -0.10923
 Alpha virt. eigenvalues --   -0.05663  -0.04966  -0.04598  -0.03426  -0.02992
 Alpha virt. eigenvalues --   -0.02602  -0.01502  -0.01006  -0.00278  -0.00174
 Alpha virt. eigenvalues --    0.00028   0.00370   0.00838   0.00856   0.00879

  Beta  occ. eigenvalues --  -38.44137 -38.43841 -38.43739 -38.43712 -38.43483
  Beta  occ. eigenvalues --  -38.43173 -38.42942  -2.19945  -2.19713  -2.19557
  Beta  occ. eigenvalues --   -2.19523  -2.19353  -2.19042  -2.18927  -1.13627
  Beta  occ. eigenvalues --   -1.13595  -1.13579  -1.13410  -1.13368  -1.13351
  Beta  occ. eigenvalues --   -1.13247  -1.13237  -1.13217  -1.13212  -1.13197
  Beta  occ. eigenvalues --   -1.13176  -1.13062  -1.13003  -1.12964  -1.12801
  Beta  occ. eigenvalues --   -1.12690  -1.12667  -1.12626  -1.12578  -1.12550
  Beta  occ. eigenvalues --   -0.17927  -0.12783  -0.12249
  Beta virt. eigenvalues --   -0.07045  -0.05633  -0.04800  -0.04525  -0.02708
  Beta virt. eigenvalues --   -0.02317  -0.01587  -0.01436  -0.00926  -0.00228
  Beta virt. eigenvalues --   -0.00163   0.00143   0.00413   0.00860   0.00877

 Mulliken charges and spin densities:
               1          2
     1  Na   0.107217  -0.043910
     2  Na  -0.141386   0.191458
     3  Na  -0.491550   0.593830
     4  Na   0.025115  -0.059059
     5  Na   0.113892   0.235494
     6  Na   0.162821   0.001860
     7  Na   0.223891   0.080327
 Sum of Mulliken charges =  -0.00000   1.00000

 Dipole moment (field-independent basis, Debye):
    X=              0.2651    Y=             -0.2430    Z=              0.2884  Tot=              0.4610
 Quadrupole moment (field-independent basis, Debye-Ang):
   XX=            -57.7201   YY=            -63.4974   ZZ=            -72.6270
   XY=             -0.4719   XZ=              0.8659   YZ=              2.3144

 Normal termination of Gaussian 16 at Tue Dec  5 12:21:39 2023.
