 Gaussian 16, Revision B.01,
 Gaussian 16:  ES64L-G16RevB.01 20-Dec-2017

 -------------------------
 #P B3LYP/6-311+g(d) force
 -------------------------

 -----
 DPGEN
 -----
 Symbolic Z-matrix:
 Charge =  0 Multiplicity = 2

                         Standard orientation:
 ---------------------------------------------------------------------
 Center     Atomic      Atomic             Coordinates (Angstroms)
 Number     Number       Type             X           Y           Z
 ---------------------------------------------------------------------
      1         11           0       -0.178389    0.307817    1.909488
      2         11           0        2.563450   -1.196657   -0.327212
      3         11           0       -0.114939   -2.448978    0.466072
      4         11           0       -2.870401   -0.860391   -0.281151
      5         11           0       -1.212994    2.446254   -0.037373
      6         11           0       -0.150261    0.047973   -1.786934
      7         11           0        1.963534    1.703984    0.057110
 ---------------------------------------------------------------------

 SCF Done:  E(UB3LYP) =  -1136.13044623     A.U. after   19 cycles

 The electronic state is 2-A.
 Alpha  occ. eigenvalues --  -38.43704 -38.43670 -38.43433 -38.43411 -38.43313
 Alpha  occ. eigenvalues --  -38.43258 -38.43087  -2.19697  -2.19582  -2.19483
 Alpha  occ. eigenvalues --   -2.19361  -2.19298  -2.19201  -2.19058  -1.13398
 Alpha  occ. eigenvalues --   -1.13373  -1.13322  -1.13294  -1.13239  -1.13217
 Alpha  occ. eigenvalues --   -1.13198  -1.13158  -1.13135  -1.13093  -1.13045
 Alpha  occ. eigenvalues --   -1.12989  -1.12960  -1.12939  -1.12882  -1.12867
 Alpha  occ. eigenvalues --   -1.12849  -1.12785  -1.12740  -1.12700  -1.12664
 Alpha  occ. eigenvalues --   -0.19882  -0.13182  -0.12820  -0.11505
 Alpha virt. eigenvalues --   -0.05201  -0.04762  -0.04300  -0.03349  -0.03221
 Alpha virt. eigenvalues --   -0.02870  -0.01242  -0.00841  -0.00078   0.00272
 Alpha virt. eigenvalues --    0.00365   0.00371   0.00925   0.00985   0.01044

  Beta  occ. eigenvalues --  -38.43698 -38.43579 -38.43405 -38.43353 -38.43303
  Beta  occ. eigenvalues --  -38.43250 -38.43072  -2.19574  -2.19530  -2.19354
  Beta  occ. eigenvalues --   -2.19338  -2.19286  -2.19191  -2.19036  -1.13302
  Beta  occ. eigenvalues --   -1.13277  -1.13251  -1.13224  -1.13219  -1.13190
  Beta  occ. eigenvalues --   -1.13156  -1.13100  -1.13079  -1.13015  -1.13003
  Beta  occ. eigenvalues --   -1.12948  -1.12936  -1.12893  -1.12872  -1.12846
  Beta  occ. eigenvalues --   -1.12816  -1.12780  -1.12719  -1.12659  -1.12651
  Beta  occ. eigenvalues --   -0.19103  -0.12890  -0.12525
  Beta virt. eigenvalues --   -0.07476  -0.05184  -0.04753  -0.04298  -0.02510
  Beta virt. eigenvalues --   -0.02355  -0.01761  -0.01163  -0.00797   0.00063
  Beta virt. eigenvalues --    0.00226   0.00324   0.00383   0.00965   0.00972

 Mulliken charges and spin densities:
               1          2
     1  Na  -0.620614   0.483858
     2  Na   0.022904  -0.022197
     3  Na   0.416162   0.097076
     4  Na   0.093824  -0.084750
     5  Na   0.318661  -0.091206
     6  Na  -0.692104   0.574822
     7  Na   0.461166   0.042397
 Sum of Mulliken charges =  -0.00000   1.00000

 Dipole moment (field-independent basis, Debye):
    X=             -0.3371    Y=              0.0707    Z=             -0.0156  Tot=              0.3447
 Quadrupole moment (field-independent basis, Debye-Ang):
   XX=            -59.1697   YY=            -65.4262   ZZ=            -70.7805
   XY=             -0.2634   XZ=              0.0819   YZ=             -0.2772

 Normal termination of Gaussian 16 at Thu Dec  7 05:24:58 2023.
