 Gaussian 16, Revision B.01,
 Gaussian 16:  ES64L-G16RevB.01 20-Dec-2017

 -------------------------
 #P B3LYP/6-311+g(d) force
 -------------------------

 -----
 DPGEN
 -----
 Symbolic Z-matrix:
 Charge =  0 Multiplicity = 2

                         Standard orientation:
 ---------------------------------------------------------------------
 Center     Atomic      Atomic             Coordinates (Angstroms)
 Number     Number       Type             X           Y           Z
 ---------------------------------------------------------------------
      1         11           0        1.662282    0.512130   -1.135041
      2         11           0       -1.655021   -1.640864   -0.810271
      3         11           0        3.867637   -1.533854   -0.282959
      4         11           0        1.009013   -1.778456    1.638459
      5         11           0        1.271165    3.442365   -0.315309
      6         11           0       -1.692979    1.531282    1.598506
      7         11           0       -4.462095   -0.532603   -0.693385
 ---------------------------------------------------------------------

 SCF Done:  E(UB3LYP) =  -1136.11478413     A.U. after   21 cycles

 The electronic state is 2-A.
 Alpha  occ. eigenvalues --  -38.45086 -38.44641 -38.44522 -38.44264 -38.43993
 Alpha  occ. eigenvalues --  -38.43529 -38.43108  -2.20833  -2.20464  -2.20360
 Alpha  occ. eigenvalues --   -2.20094  -2.19831  -2.19445  -2.18908  -1.14508
 Alpha  occ. eigenvalues --   -1.14490  -1.14446  -1.14156  -1.14119  -1.14086
 Alpha  occ. eigenvalues --   -1.14082  -1.14038  -1.14006  -1.13733  -1.13729
 Alpha  occ. eigenvalues --   -1.13703  -1.13501  -1.13491  -1.13435  -1.13143
 Alpha  occ. eigenvalues --   -1.13105  -1.13088  -1.12592  -1.12566  -1.12530
 Alpha  occ. eigenvalues --   -0.17242  -0.13842  -0.11894  -0.10659
 Alpha virt. eigenvalues --   -0.07054  -0.05445  -0.04112  -0.03586  -0.03064
 Alpha virt. eigenvalues --   -0.02610  -0.02080  -0.01234  -0.00963  -0.00266
 Alpha virt. eigenvalues --   -0.00201  -0.00110   0.00172   0.00517   0.00603

  Beta  occ. eigenvalues --  -38.45043 -38.44625 -38.44514 -38.44215 -38.43933
  Beta  occ. eigenvalues --  -38.43503 -38.43113  -2.20754  -2.20436  -2.20350
  Beta  occ. eigenvalues --   -2.20003  -2.19721  -2.19399  -2.18920  -1.14441
  Beta  occ. eigenvalues --   -1.14438  -1.14399  -1.14129  -1.14100  -1.14065
  Beta  occ. eigenvalues --   -1.14061  -1.14029  -1.13976  -1.13669  -1.13665
  Beta  occ. eigenvalues --   -1.13649  -1.13428  -1.13417  -1.13350  -1.13115
  Beta  occ. eigenvalues --   -1.13068  -1.13048  -1.12595  -1.12575  -1.12533
  Beta  occ. eigenvalues --   -0.16668  -0.13318  -0.11737
  Beta virt. eigenvalues --   -0.07212  -0.06836  -0.04985  -0.03869  -0.03184
  Beta virt. eigenvalues --   -0.02728  -0.02392  -0.01583  -0.01084  -0.00559
  Beta virt. eigenvalues --   -0.00134  -0.00095   0.00011   0.00339   0.00648

 Mulliken charges and spin densities:
               1          2
     1  Na  -0.400684   0.269053
     2  Na  -0.248786   0.154733
     3  Na   0.215700   0.013329
     4  Na   0.027261   0.283207
     5  Na   0.305823  -0.104796
     6  Na  -0.229819   0.223554
     7  Na   0.330506   0.160920
 Sum of Mulliken charges =  -0.00000   1.00000

 Dipole moment (field-independent basis, Debye):
    X=             -0.1281    Y=             -0.4406    Z=              0.7935  Tot=              0.9166
 Quadrupole moment (field-independent basis, Debye-Ang):
   XX=            -56.0363   YY=            -70.2119   ZZ=            -70.0908
   XY=             -7.0274   XZ=             -1.6764   YZ=              2.3304

 Normal termination of Gaussian 16 at Mon Dec  4 01:39:24 2023.
