 Gaussian 16, Revision B.01,
 Gaussian 16:  ES64L-G16RevB.01 20-Dec-2017

 -------------------------
 #P B3LYP/6-311+g(d) force
 -------------------------

 -----
 DPGEN
 -----
 Symbolic Z-matrix:
 Charge =  0 Multiplicity = 2

                         Standard orientation:
 ---------------------------------------------------------------------
 Center     Atomic      Atomic             Coordinates (Angstroms)
 Number     Number       Type             X           Y           Z
 ---------------------------------------------------------------------
      1         11           0        2.531617    1.902368    0.011465
      2         11           0       -0.591515   -2.446348    0.251292
      3         11           0       -0.210271   -0.258553   -1.528313
      4         11           0       -1.419725    2.515752   -0.398707
      5         11           0        2.901765   -1.556923   -0.390065
      6         11           0       -3.528028   -0.473815    0.074244
      7         11           0        0.316157    0.317518    1.980084
 ---------------------------------------------------------------------

 SCF Done:  E(UB3LYP) =  -1136.13044144     A.U. after   21 cycles

 The electronic state is 2-A.
 Alpha  occ. eigenvalues --  -38.44955 -38.44089 -38.43981 -38.43406 -38.43383
 Alpha  occ. eigenvalues --  -38.43361 -38.43029  -2.20737  -2.19906  -2.19799
 Alpha  occ. eigenvalues --   -2.19414  -2.19270  -2.19215  -2.18956  -1.14411
 Alpha  occ. eigenvalues --   -1.14392  -1.14377  -1.13580  -1.13564  -1.13548
 Alpha  occ. eigenvalues --   -1.13485  -1.13456  -1.13431  -1.13234  -1.13094
 Alpha  occ. eigenvalues --   -1.13001  -1.12945  -1.12900  -1.12896  -1.12890
 Alpha  occ. eigenvalues --   -1.12865  -1.12825  -1.12641  -1.12605  -1.12530
 Alpha  occ. eigenvalues --   -0.18603  -0.13282  -0.12058  -0.10527
 Alpha virt. eigenvalues --   -0.06380  -0.05347  -0.04050  -0.03200  -0.02694
 Alpha virt. eigenvalues --   -0.02286  -0.02194  -0.01261  -0.00420  -0.00171
 Alpha virt. eigenvalues --   -0.00034   0.00275   0.00694   0.00811   0.00881

  Beta  occ. eigenvalues --  -38.44957 -38.44078 -38.43977 -38.43372 -38.43351
  Beta  occ. eigenvalues --  -38.43267 -38.43016  -2.20743  -2.19889  -2.19796
  Beta  occ. eigenvalues --   -2.19315  -2.19199  -2.19097  -2.18937  -1.14408
  Beta  occ. eigenvalues --   -1.14391  -1.14382  -1.13563  -1.13543  -1.13538
  Beta  occ. eigenvalues --   -1.13469  -1.13444  -1.13431  -1.13168  -1.13029
  Beta  occ. eigenvalues --   -1.12934  -1.12866  -1.12857  -1.12829  -1.12815
  Beta  occ. eigenvalues --   -1.12766  -1.12764  -1.12621  -1.12556  -1.12518
  Beta  occ. eigenvalues --   -0.17890  -0.13066  -0.11794
  Beta virt. eigenvalues --   -0.06644  -0.06311  -0.05315  -0.04031  -0.02492
  Beta virt. eigenvalues --   -0.02106  -0.01920  -0.01282  -0.01181  -0.00446
  Beta virt. eigenvalues --   -0.00165   0.00101   0.00309   0.00756   0.00819

 Mulliken charges and spin densities:
               1          2
     1  Na   0.142782  -0.059668
     2  Na   0.315907   0.060270
     3  Na  -0.420088   0.463796
     4  Na   0.053352  -0.089372
     5  Na   0.166188   0.031928
     6  Na   0.108733  -0.063373
     7  Na  -0.366874   0.656420
 Sum of Mulliken charges =  -0.00000   1.00000

 Dipole moment (field-independent basis, Debye):
    X=             -0.2584    Y=              0.0693    Z=              0.1380  Tot=              0.3010
 Quadrupole moment (field-independent basis, Debye-Ang):
   XX=            -48.6914   YY=            -67.1000   ZZ=            -75.4849
   XY=              0.2698   XZ=             -1.5123   YZ=             -0.9450

 Normal termination of Gaussian 16 at Tue Dec  5 22:51:39 2023.
