 Gaussian 16, Revision B.01,
 Gaussian 16:  ES64L-G16RevB.01 20-Dec-2017

 -------------------------
 #P B3LYP/6-311+g(d) force
 -------------------------

 -----
 DPGEN
 -----
 Symbolic Z-matrix:
 Charge =  0 Multiplicity = 2

                         Standard orientation:
 ---------------------------------------------------------------------
 Center     Atomic      Atomic             Coordinates (Angstroms)
 Number     Number       Type             X           Y           Z
 ---------------------------------------------------------------------
      1         11           0       -3.817143   -1.703742   -0.797684
      2         11           0       -1.965865    0.045294    2.007104
      3         11           0        0.639230    2.565299    0.517826
      4         11           0        3.925768   -1.835601    0.587900
      5         11           0        3.433926    0.757626   -1.116685
      6         11           0       -2.399918    1.347246   -0.896695
      7         11           0        0.184003   -1.176121   -0.301766
 ---------------------------------------------------------------------

 SCF Done:  E(UB3LYP) =  -1136.11884023     A.U. after   25 cycles

 The electronic state is 2-A.
 Alpha  occ. eigenvalues --  -38.45113 -38.44539 -38.44519 -38.44359 -38.44189
 Alpha  occ. eigenvalues --  -38.43586 -38.42535  -2.20929  -2.20347  -2.20332
 Alpha  occ. eigenvalues --   -2.20240  -2.20083  -2.19402  -2.18348  -1.14649
 Alpha  occ. eigenvalues --   -1.14598  -1.14529  -1.14087  -1.14020  -1.13997
 Alpha  occ. eigenvalues --   -1.13986  -1.13970  -1.13937  -1.13908  -1.13907
 Alpha  occ. eigenvalues --   -1.13827  -1.13783  -1.13739  -1.13667  -1.13068
 Alpha  occ. eigenvalues --   -1.13062  -1.13026  -1.12022  -1.12019  -1.11991
 Alpha  occ. eigenvalues --   -0.17727  -0.14403  -0.11304  -0.10232
 Alpha virt. eigenvalues --   -0.06726  -0.06211  -0.04662  -0.03103  -0.02905
 Alpha virt. eigenvalues --   -0.02295  -0.02052  -0.01479  -0.00936  -0.00716
 Alpha virt. eigenvalues --   -0.00075   0.00032   0.00221   0.00326   0.00613

  Beta  occ. eigenvalues --  -38.45087 -38.44538 -38.44497 -38.44291 -38.44157
  Beta  occ. eigenvalues --  -38.43556 -38.42533  -2.20886  -2.20333  -2.20304
  Beta  occ. eigenvalues --   -2.20116  -2.20026  -2.19349  -2.18346  -1.14583
  Beta  occ. eigenvalues --   -1.14571  -1.14508  -1.14073  -1.13999  -1.13986
  Beta  occ. eigenvalues --   -1.13975  -1.13953  -1.13889  -1.13859  -1.13812
  Beta  occ. eigenvalues --   -1.13746  -1.13743  -1.13691  -1.13612  -1.13034
  Beta  occ. eigenvalues --   -1.13011  -1.12992  -1.12021  -1.12017  -1.11977
  Beta  occ. eigenvalues --   -0.17157  -0.14128  -0.11081
  Beta virt. eigenvalues --   -0.06727  -0.06560  -0.05678  -0.04439  -0.02986
  Beta virt. eigenvalues --   -0.02692  -0.01844  -0.01482  -0.01229  -0.00718
  Beta virt. eigenvalues --   -0.00327   0.00078   0.00106   0.00357   0.00469

 Mulliken charges and spin densities:
               1          2
     1  Na   0.517267   0.287841
     2  Na   0.123600   0.124695
     3  Na  -0.050652   0.098832
     4  Na   0.460477  -0.114822
     5  Na   0.183597   0.073716
     6  Na   0.144601   0.373236
     7  Na  -1.378891   0.156502
 Sum of Mulliken charges =  -0.00000   1.00000

 Dipole moment (field-independent basis, Debye):
    X=              0.6542    Y=             -0.4681    Z=              0.6197  Tot=              1.0155
 Quadrupole moment (field-independent basis, Debye-Ang):
   XX=            -58.0583   YY=            -71.0442   ZZ=            -68.9991
   XY=             -0.7445   XZ=             -2.3744   YZ=             -0.2247

 Normal termination of Gaussian 16 at Tue Dec  5 18:02:20 2023.
