 Gaussian 16, Revision B.01,
 Gaussian 16:  ES64L-G16RevB.01 20-Dec-2017

 -------------------------
 #P B3LYP/6-311+g(d) force
 -------------------------

 -----
 DPGEN
 -----
 Symbolic Z-matrix:
 Charge =  0 Multiplicity = 2

                         Standard orientation:
 ---------------------------------------------------------------------
 Center     Atomic      Atomic             Coordinates (Angstroms)
 Number     Number       Type             X           Y           Z
 ---------------------------------------------------------------------
      1         11           0        3.967520    0.325386    0.506290
      2         11           0       -1.204618   -1.458074   -0.380798
      3         11           0       -2.303058    1.559684    0.140269
      4         11           0        0.761686    1.517265   -1.469144
      5         11           0       -4.783894   -0.618564    0.138757
      6         11           0        0.971530    0.083689    1.926650
      7         11           0        2.590833   -1.409387   -0.862024
 ---------------------------------------------------------------------

 SCF Done:  E(UB3LYP) =  -1136.09911842     A.U. after   37 cycles

 The electronic state is 2-A.
 Alpha  occ. eigenvalues --  -38.46429 -38.45692 -38.44419 -38.44318 -38.43682
 Alpha  occ. eigenvalues --  -38.42426 -38.42425  -2.22290  -2.21655  -2.20300
 Alpha  occ. eigenvalues --   -2.20272  -2.19578  -2.18310  -2.18245  -1.15977
 Alpha  occ. eigenvalues --   -1.15945  -1.15892  -1.15569  -1.15257  -1.15244
 Alpha  occ. eigenvalues --   -1.14004  -1.13964  -1.13957  -1.13906  -1.13886
 Alpha  occ. eigenvalues --   -1.13830  -1.13279  -1.13266  -1.13162  -1.12004
 Alpha  occ. eigenvalues --   -1.11961  -1.11931  -1.11914  -1.11902  -1.11874
 Alpha  occ. eigenvalues --   -0.18879  -0.14565  -0.10947  -0.10529
 Alpha virt. eigenvalues --   -0.08553  -0.05017  -0.04218  -0.03715  -0.03064
 Alpha virt. eigenvalues --   -0.02225  -0.02057  -0.01641  -0.01024  -0.00649
 Alpha virt. eigenvalues --   -0.00173   0.00109   0.00169   0.00595   0.00744

  Beta  occ. eigenvalues --  -38.46390 -38.45668 -38.44382 -38.44286 -38.43661
  Beta  occ. eigenvalues --  -38.42405 -38.42401  -2.22222  -2.21620  -2.20235
  Beta  occ. eigenvalues --   -2.20213  -2.19541  -2.18267  -2.18206  -1.15917
  Beta  occ. eigenvalues --   -1.15886  -1.15850  -1.15529  -1.15239  -1.15183
  Beta  occ. eigenvalues --   -1.13963  -1.13915  -1.13914  -1.13848  -1.13838
  Beta  occ. eigenvalues --   -1.13780  -1.13254  -1.13239  -1.13129  -1.11973
  Beta  occ. eigenvalues --   -1.11932  -1.11896  -1.11880  -1.11875  -1.11854
  Beta  occ. eigenvalues --   -0.18185  -0.14197  -0.10304
  Beta virt. eigenvalues --   -0.08335  -0.07187  -0.04817  -0.03965  -0.03222
  Beta virt. eigenvalues --   -0.02829  -0.01835  -0.01737  -0.01222  -0.00848
  Beta virt. eigenvalues --   -0.00290  -0.00050   0.00139   0.00294   0.00675

 Mulliken charges and spin densities:
               1          2
     1  Na   0.608451   0.123469
     2  Na  -0.372051   0.156263
     3  Na   0.023637   0.227883
     4  Na  -0.579979   0.173926
     5  Na   0.259316   0.093953
     6  Na  -0.066793   0.104757
     7  Na   0.127420   0.119750
 Sum of Mulliken charges =  -0.00000   1.00000

 Dipole moment (field-independent basis, Debye):
    X=              1.4049    Y=              0.2347    Z=              0.7236  Tot=              1.5976
 Quadrupole moment (field-independent basis, Debye-Ang):
   XX=            -80.0177   YY=            -71.3123   ZZ=            -61.3060
   XY=              0.6035   XZ=              0.2710   YZ=             10.9054

 Normal termination of Gaussian 16 at Wed Dec  6 00:57:38 2023.
