 Gaussian 16, Revision B.01,
 Gaussian 16:  ES64L-G16RevB.01 20-Dec-2017

 -------------------------
 #P B3LYP/6-311+g(d) force
 -------------------------

 -----
 DPGEN
 -----
 Symbolic Z-matrix:
 Charge =  0 Multiplicity = 2

                         Standard orientation:
 ---------------------------------------------------------------------
 Center     Atomic      Atomic             Coordinates (Angstroms)
 Number     Number       Type             X           Y           Z
 ---------------------------------------------------------------------
      1         11           0       -0.365008    0.044946   -1.334379
      2         11           0       -1.878351   -2.593405   -0.029853
      3         11           0       -0.009378    3.129110   -0.303873
      4         11           0       -3.037553    0.829657    0.064323
      5         11           0        1.891495   -2.380961   -0.214839
      6         11           0        2.971878    0.700890   -0.283162
      7         11           0        0.426918    0.269763    2.101782
 ---------------------------------------------------------------------

 SCF Done:  E(UB3LYP) =  -1136.13656378     A.U. after   19 cycles

 The electronic state is 2-A.
 Alpha  occ. eigenvalues --  -38.44228 -38.43874 -38.43800 -38.43710 -38.43655
 Alpha  occ. eigenvalues --  -38.43340 -38.42820  -2.20058  -2.19726  -2.19613
 Alpha  occ. eigenvalues --   -2.19533  -2.19495  -2.19216  -2.18847  -1.13770
 Alpha  occ. eigenvalues --   -1.13716  -1.13674  -1.13411  -1.13392  -1.13368
 Alpha  occ. eigenvalues --   -1.13300  -1.13273  -1.13248  -1.13225  -1.13189
 Alpha  occ. eigenvalues --   -1.13169  -1.13163  -1.13152  -1.13128  -1.12883
 Alpha  occ. eigenvalues --   -1.12837  -1.12828  -1.12541  -1.12492  -1.12474
 Alpha  occ. eigenvalues --   -0.18475  -0.13055  -0.12508  -0.10320
 Alpha virt. eigenvalues --   -0.05677  -0.05295  -0.05044  -0.03029  -0.02687
 Alpha virt. eigenvalues --   -0.02264  -0.01500  -0.01366  -0.00616  -0.00594
 Alpha virt. eigenvalues --    0.00006   0.00337   0.00799   0.00825   0.00854

  Beta  occ. eigenvalues --  -38.44225 -38.43866 -38.43800 -38.43702 -38.43649
  Beta  occ. eigenvalues --  -38.43236 -38.42776  -2.20056  -2.19714  -2.19614
  Beta  occ. eigenvalues --   -2.19522  -2.19487  -2.19024  -2.18768  -1.13766
  Beta  occ. eigenvalues --   -1.13699  -1.13677  -1.13406  -1.13364  -1.13356
  Beta  occ. eigenvalues --   -1.13297  -1.13263  -1.13252  -1.13212  -1.13166
  Beta  occ. eigenvalues --   -1.13160  -1.13158  -1.13130  -1.13127  -1.12755
  Beta  occ. eigenvalues --   -1.12701  -1.12694  -1.12473  -1.12435  -1.12415
  Beta  occ. eigenvalues --   -0.17784  -0.12840  -0.12292
  Beta virt. eigenvalues --   -0.06403  -0.05662  -0.05282  -0.04966  -0.02270
  Beta virt. eigenvalues --   -0.01985  -0.01418  -0.01299  -0.01188  -0.00654
  Beta virt. eigenvalues --   -0.00635   0.00178   0.00389   0.00815   0.00847

 Mulliken charges and spin densities:
               1          2
     1  Na  -0.456645   0.234664
     2  Na   0.123919  -0.016047
     3  Na   0.215568  -0.019285
     4  Na   0.232476  -0.013067
     5  Na   0.124380  -0.000583
     6  Na   0.318703   0.035635
     7  Na  -0.558402   0.778683
 Sum of Mulliken charges =  -0.00000   1.00000

 Dipole moment (field-independent basis, Debye):
    X=             -0.2126    Y=              0.0849    Z=              0.1450  Tot=              0.2709
 Quadrupole moment (field-independent basis, Debye-Ang):
   XX=            -56.5380   YY=            -58.6403   ZZ=            -76.8364
   XY=              0.1608   XZ=             -1.7928   YZ=             -0.5541

 Normal termination of Gaussian 16 at Fri Dec  8 00:20:03 2023.
