 Gaussian 16, Revision B.01,
 Gaussian 16:  ES64L-G16RevB.01 20-Dec-2017

 -------------------------
 #P B3LYP/6-311+g(d) force
 -------------------------

 -----
 DPGEN
 -----
 Symbolic Z-matrix:
 Charge =  0 Multiplicity = 2

                         Standard orientation:
 ---------------------------------------------------------------------
 Center     Atomic      Atomic             Coordinates (Angstroms)
 Number     Number       Type             X           Y           Z
 ---------------------------------------------------------------------
      1         11           0        0.023244    0.156087   -1.772613
      2         11           0       -1.532187   -2.413110    0.506401
      3         11           0        2.861875    0.906738    0.023191
      4         11           0       -3.209630    0.265871   -0.316472
      5         11           0        0.249513    0.401113    2.004448
      6         11           0       -0.364553    2.949100   -0.048015
      7         11           0        1.971738   -2.265800   -0.396941
 ---------------------------------------------------------------------

 SCF Done:  E(UB3LYP) =  -1136.13836211     A.U. after   19 cycles

 The electronic state is 2-A.
 Alpha  occ. eigenvalues --  -38.44091 -38.43967 -38.43653 -38.43412 -38.43404
 Alpha  occ. eigenvalues --  -38.43392 -38.43341  -2.19907  -2.19837  -2.19562
 Alpha  occ. eigenvalues --   -2.19361  -2.19252  -2.19241  -2.19186  -1.13584
 Alpha  occ. eigenvalues --   -1.13575  -1.13543  -1.13532  -1.13512  -1.13463
 Alpha  occ. eigenvalues --   -1.13227  -1.13194  -1.13186  -1.13049  -1.13029
 Alpha  occ. eigenvalues --   -1.12987  -1.12925  -1.12916  -1.12897  -1.12893
 Alpha  occ. eigenvalues --   -1.12889  -1.12869  -1.12857  -1.12844  -1.12820
 Alpha  occ. eigenvalues --   -0.18640  -0.13031  -0.12404  -0.10956
 Alpha virt. eigenvalues --   -0.05692  -0.04937  -0.04697  -0.03279  -0.03026
 Alpha virt. eigenvalues --   -0.02705  -0.01498  -0.01061  -0.00307  -0.00230
 Alpha virt. eigenvalues --   -0.00005   0.00374   0.00839   0.00856   0.00923

  Beta  occ. eigenvalues --  -38.44088 -38.43961 -38.43564 -38.43399 -38.43385
  Beta  occ. eigenvalues --  -38.43341 -38.43331  -2.19905  -2.19829  -2.19398
  Beta  occ. eigenvalues --   -2.19247  -2.19233  -2.19231  -2.19170  -1.13583
  Beta  occ. eigenvalues --   -1.13558  -1.13544  -1.13524  -1.13482  -1.13458
  Beta  occ. eigenvalues --   -1.13122  -1.13082  -1.13066  -1.12979  -1.12957
  Beta  occ. eigenvalues --   -1.12905  -1.12903  -1.12892  -1.12884  -1.12873
  Beta  occ. eigenvalues --   -1.12866  -1.12846  -1.12842  -1.12819  -1.12812
  Beta  occ. eigenvalues --   -0.17903  -0.12798  -0.12152
  Beta virt. eigenvalues --   -0.07058  -0.05664  -0.04912  -0.04605  -0.02514
  Beta virt. eigenvalues --   -0.02254  -0.01663  -0.01418  -0.00998  -0.00349
  Beta virt. eigenvalues --   -0.00234   0.00113   0.00399   0.00847   0.00897

 Mulliken charges and spin densities:
               1          2
     1  Na  -0.126528   0.557727
     2  Na   0.007498   0.027241
     3  Na   0.317718  -0.057357
     4  Na   0.007538  -0.074755
     5  Na  -0.273094   0.700551
     6  Na   0.064762  -0.152169
     7  Na   0.002105  -0.001238
 Sum of Mulliken charges =  -0.00000   1.00000

 Dipole moment (field-independent basis, Debye):
    X=             -0.0139    Y=              0.2512    Z=              0.0285  Tot=              0.2531
 Quadrupole moment (field-independent basis, Debye-Ang):
   XX=            -57.6142   YY=            -63.4500   ZZ=            -73.1805
   XY=             -0.5532   XZ=             -0.0785   YZ=             -0.5735

 Normal termination of Gaussian 16 at Fri Dec  8 03:16:10 2023.
