 Gaussian 16, Revision B.01,
 Gaussian 16:  ES64L-G16RevB.01 20-Dec-2017

 -------------------------
 #P B3LYP/6-311+g(d) force
 -------------------------

 -----
 DPGEN
 -----
 Symbolic Z-matrix:
 Charge =  0 Multiplicity = 2

                         Standard orientation:
 ---------------------------------------------------------------------
 Center     Atomic      Atomic             Coordinates (Angstroms)
 Number     Number       Type             X           Y           Z
 ---------------------------------------------------------------------
      1         11           0        0.274003   -0.338267    2.264986
      2         11           0        2.224085   -1.974573   -0.111649
      3         11           0       -1.296445   -2.172985   -0.314025
      4         11           0        2.589335    0.980340   -0.515217
      5         11           0       -0.034599    2.952379    0.346939
      6         11           0       -0.540203    0.377342   -1.796611
      7         11           0       -3.216176    0.175764    0.125576
 ---------------------------------------------------------------------

 SCF Done:  E(UB3LYP) =  -1136.13251595     A.U. after   19 cycles

 The electronic state is 2-A.
 Alpha  occ. eigenvalues --  -38.44309 -38.44191 -38.43697 -38.43648 -38.43290
 Alpha  occ. eigenvalues --  -38.43278 -38.43155  -2.20162  -2.20053  -2.19617
 Alpha  occ. eigenvalues --   -2.19598  -2.19222  -2.19175  -2.18986  -1.13865
 Alpha  occ. eigenvalues --   -1.13822  -1.13794  -1.13709  -1.13681  -1.13672
 Alpha  occ. eigenvalues --   -1.13340  -1.13325  -1.13281  -1.13255  -1.13240
 Alpha  occ. eigenvalues --   -1.13211  -1.12908  -1.12878  -1.12848  -1.12840
 Alpha  occ. eigenvalues --   -1.12819  -1.12792  -1.12654  -1.12649  -1.12627
 Alpha  occ. eigenvalues --   -0.18848  -0.13291  -0.12195  -0.11364
 Alpha virt. eigenvalues --   -0.05725  -0.04605  -0.04499  -0.03599  -0.03210
 Alpha virt. eigenvalues --   -0.02948  -0.01490  -0.00809  -0.00147  -0.00055
 Alpha virt. eigenvalues --    0.00098   0.00383   0.00826   0.00890   0.00929

  Beta  occ. eigenvalues --  -38.44309 -38.44091 -38.43685 -38.43589 -38.43287
  Beta  occ. eigenvalues --  -38.43266 -38.43149  -2.20164  -2.19869  -2.19579
  Beta  occ. eigenvalues --   -2.19508  -2.19205  -2.19171  -2.18978  -1.13867
  Beta  occ. eigenvalues --   -1.13815  -1.13787  -1.13589  -1.13553  -1.13539
  Beta  occ. eigenvalues --   -1.13315  -1.13269  -1.13250  -1.13214  -1.13175
  Beta  occ. eigenvalues --   -1.13146  -1.12892  -1.12855  -1.12841  -1.12825
  Beta  occ. eigenvalues --   -1.12790  -1.12789  -1.12651  -1.12631  -1.12619
  Beta  occ. eigenvalues --   -0.18080  -0.13070  -0.11994
  Beta virt. eigenvalues --   -0.07390  -0.05635  -0.04623  -0.04387  -0.02810
  Beta virt. eigenvalues --   -0.02404  -0.01935  -0.01395  -0.00747  -0.00103
  Beta virt. eigenvalues --    0.00004   0.00115   0.00413   0.00896   0.00933

 Mulliken charges and spin densities:
               1          2
     1  Na  -0.706486   0.680553
     2  Na   0.206534   0.014771
     3  Na   0.304292   0.036618
     4  Na   0.225592   0.011055
     5  Na   0.015861   0.001784
     6  Na  -0.227543   0.296068
     7  Na   0.181750  -0.040847
 Sum of Mulliken charges =  -0.00000   1.00000

 Dipole moment (field-independent basis, Debye):
    X=             -0.4480    Y=              0.1146    Z=              0.2991  Tot=              0.5507
 Quadrupole moment (field-independent basis, Debye-Ang):
   XX=            -58.5580   YY=            -67.2370   ZZ=            -70.1954
   XY=             -1.3585   XZ=             -1.8759   YZ=              1.4204

 Normal termination of Gaussian 16 at Tue Dec  5 21:41:53 2023.
