 Gaussian 16, Revision B.01,
 Gaussian 16:  ES64L-G16RevB.01 20-Dec-2017

 -------------------------
 #P B3LYP/6-311+g(d) force
 -------------------------

 -----
 DPGEN
 -----
 Symbolic Z-matrix:
 Charge =  0 Multiplicity = 2

                         Standard orientation:
 ---------------------------------------------------------------------
 Center     Atomic      Atomic             Coordinates (Angstroms)
 Number     Number       Type             X           Y           Z
 ---------------------------------------------------------------------
      1         11           0        4.061575   -0.423623   -0.185032
      2         11           0       -1.838188   -0.147722    2.136743
      3         11           0       -0.494220    3.508914   -0.445562
      4         11           0       -2.349994   -2.415313   -0.764201
      5         11           0       -1.344849    0.736316   -1.484241
      6         11           0        0.908853    1.165362    0.793206
      7         11           0        1.056822   -2.423933   -0.050913
 ---------------------------------------------------------------------

 SCF Done:  E(UB3LYP) =  -1136.12723432     A.U. after   19 cycles

 The electronic state is 2-A.
 Alpha  occ. eigenvalues --  -38.44237 -38.44106 -38.43948 -38.43833 -38.43813
 Alpha  occ. eigenvalues --  -38.43611 -38.43259  -2.20089  -2.19906  -2.19833
 Alpha  occ. eigenvalues --   -2.19763  -2.19580  -2.19447  -2.19227  -1.13762
 Alpha  occ. eigenvalues --   -1.13720  -1.13685  -1.13601  -1.13598  -1.13585
 Alpha  occ. eigenvalues --   -1.13530  -1.13510  -1.13457  -1.13454  -1.13407
 Alpha  occ. eigenvalues --   -1.13333  -1.13251  -1.13247  -1.13207  -1.13111
 Alpha  occ. eigenvalues --   -1.13104  -1.13076  -1.12934  -1.12902  -1.12813
 Alpha  occ. eigenvalues --   -0.18155  -0.13081  -0.12440  -0.11031
 Alpha virt. eigenvalues --   -0.05828  -0.05441  -0.04742  -0.03245  -0.02641
 Alpha virt. eigenvalues --   -0.02624  -0.01658  -0.01560  -0.00575  -0.00433
 Alpha virt. eigenvalues --    0.00021   0.00241   0.00553   0.00722   0.00773

  Beta  occ. eigenvalues --  -38.44132 -38.44101 -38.43938 -38.43817 -38.43791
  Beta  occ. eigenvalues --  -38.43594 -38.43236  -2.19899  -2.19894  -2.19818
  Beta  occ. eigenvalues --   -2.19687  -2.19587  -2.19419  -2.19189  -1.13623
  Beta  occ. eigenvalues --   -1.13597  -1.13589  -1.13580  -1.13565  -1.13551
  Beta  occ. eigenvalues --   -1.13511  -1.13507  -1.13436  -1.13409  -1.13352
  Beta  occ. eigenvalues --   -1.13285  -1.13255  -1.13253  -1.13212  -1.13091
  Beta  occ. eigenvalues --   -1.13075  -1.13056  -1.12914  -1.12840  -1.12788
  Beta  occ. eigenvalues --   -0.17465  -0.12846  -0.12327
  Beta virt. eigenvalues --   -0.06998  -0.05696  -0.05296  -0.04509  -0.02655
  Beta virt. eigenvalues --   -0.02259  -0.01820  -0.01503  -0.01377  -0.00433
  Beta virt. eigenvalues --   -0.00170   0.00138   0.00315   0.00690   0.00761

 Mulliken charges and spin densities:
               1          2
     1  Na   0.256837  -0.147229
     2  Na  -0.005544   0.290743
     3  Na   0.538449  -0.057403
     4  Na   0.607907   0.185799
     5  Na  -0.593016   0.193800
     6  Na  -0.443964   0.493107
     7  Na  -0.360669   0.041183
 Sum of Mulliken charges =  -0.00000   1.00000

 Dipole moment (field-independent basis, Debye):
    X=             -0.3080    Y=              0.2128    Z=             -0.0913  Tot=              0.3853
 Quadrupole moment (field-independent basis, Debye-Ang):
   XX=            -61.1324   YY=            -59.4403   ZZ=            -72.8757
   XY=              2.0646   XZ=             -1.3987   YZ=              0.1801

 Normal termination of Gaussian 16 at Fri Dec  8 03:43:19 2023.
