 Gaussian 16, Revision B.01,
 Gaussian 16:  ES64L-G16RevB.01 20-Dec-2017

 -------------------------
 #P B3LYP/6-311+g(d) force
 -------------------------

 -----
 DPGEN
 -----
 Symbolic Z-matrix:
 Charge =  0 Multiplicity = 2

                         Standard orientation:
 ---------------------------------------------------------------------
 Center     Atomic      Atomic             Coordinates (Angstroms)
 Number     Number       Type             X           Y           Z
 ---------------------------------------------------------------------
      1         11           0       -0.616135   -0.800420   -1.175297
      2         11           0       -3.836191   -1.430383   -1.190686
      3         11           0       -1.830407   -1.445710    1.907217
      4         11           0       -3.356076    1.600536    0.519844
      5         11           0        0.487436    2.547640    0.311840
      6         11           0        3.529634    0.882054   -0.902550
      7         11           0        5.621739   -1.353718    0.529631
 ---------------------------------------------------------------------

 SCF Done:  E(UB3LYP) =  -1136.10313817     A.U. after   37 cycles

 The electronic state is 2-A.
 Alpha  occ. eigenvalues --  -38.46805 -38.45641 -38.44519 -38.44347 -38.43552
 Alpha  occ. eigenvalues --  -38.43464 -38.42907  -2.22602  -2.21485  -2.20363
 Alpha  occ. eigenvalues --   -2.20183  -2.19312  -2.19243  -2.18681  -1.16276
 Alpha  occ. eigenvalues --   -1.16250  -1.16213  -1.15185  -1.15141  -1.15083
 Alpha  occ. eigenvalues --   -1.14064  -1.14011  -1.13984  -1.13869  -1.13821
 Alpha  occ. eigenvalues --   -1.13774  -1.12978  -1.12975  -1.12970  -1.12937
 Alpha  occ. eigenvalues --   -1.12915  -1.12843  -1.12368  -1.12344  -1.12326
 Alpha  occ. eigenvalues --   -0.17773  -0.13377  -0.11233  -0.10638
 Alpha virt. eigenvalues --   -0.08304  -0.05802  -0.04483  -0.03260  -0.02837
 Alpha virt. eigenvalues --   -0.02458  -0.02192  -0.02134  -0.01454  -0.00720
 Alpha virt. eigenvalues --   -0.00675  -0.00093   0.00022   0.00344   0.00369

  Beta  occ. eigenvalues --  -38.46762 -38.45601 -38.44493 -38.44260 -38.43542
  Beta  occ. eigenvalues --  -38.43467 -38.42916  -2.22525  -2.21415  -2.20319
  Beta  occ. eigenvalues --   -2.20024  -2.19293  -2.19248  -2.18699  -1.16202
  Beta  occ. eigenvalues --   -1.16194  -1.16163  -1.15118  -1.15100  -1.15032
  Beta  occ. eigenvalues --   -1.14038  -1.13971  -1.13932  -1.13761  -1.13719
  Beta  occ. eigenvalues --   -1.13651  -1.12967  -1.12962  -1.12960  -1.12940
  Beta  occ. eigenvalues --   -1.12916  -1.12844  -1.12382  -1.12353  -1.12336
  Beta  occ. eigenvalues --   -0.17017  -0.13273  -0.10734
  Beta virt. eigenvalues --   -0.08005  -0.07106  -0.05631  -0.04247  -0.02890
  Beta virt. eigenvalues --   -0.02490  -0.02163  -0.01939  -0.01513  -0.01177
  Beta virt. eigenvalues --   -0.00595  -0.00394  -0.00021   0.00089   0.00400

 Mulliken charges and spin densities:
               1          2
     1  Na  -0.764285   0.107042
     2  Na   0.869888   0.252139
     3  Na   0.235053   0.159622
     4  Na  -0.236723   0.497843
     5  Na  -0.138696  -0.105482
     6  Na  -0.013265   0.049958
     7  Na   0.048028   0.038877
 Sum of Mulliken charges =  -0.00000   1.00000

 Dipole moment (field-independent basis, Debye):
    X=             -2.4600    Y=             -1.4240    Z=              1.0047  Tot=              3.0148
 Quadrupole moment (field-independent basis, Debye-Ang):
   XX=            -77.1102   YY=            -73.2313   ZZ=            -58.9394
   XY=              2.9670   XZ=             -0.4535   YZ=             -3.0040

 Normal termination of Gaussian 16 at Thu Dec  7 15:15:57 2023.
