 Gaussian 16, Revision B.01,
 Gaussian 16:  ES64L-G16RevB.01 20-Dec-2017

 -------------------------
 #P B3LYP/6-311+g(d) force
 -------------------------

 -----
 DPGEN
 -----
 Symbolic Z-matrix:
 Charge =  0 Multiplicity = 2

                         Standard orientation:
 ---------------------------------------------------------------------
 Center     Atomic      Atomic             Coordinates (Angstroms)
 Number     Number       Type             X           Y           Z
 ---------------------------------------------------------------------
      1         11           0        1.412285   -3.089525    0.568999
      2         11           0       -0.699592    3.484406   -0.757478
      3         11           0       -3.453001   -0.784856   -0.081629
      4         11           0       -1.457696   -2.925190   -1.184327
      5         11           0        3.971812   -0.760114    0.473773
      6         11           0       -2.762505    1.622954    1.417861
      7         11           0        2.988697    2.452325   -0.437199
 ---------------------------------------------------------------------

 SCF Done:  E(UB3LYP) =  -1136.10651142     A.U. after   24 cycles

 The electronic state is 2-A.
 Alpha  occ. eigenvalues --  -38.45169 -38.45168 -38.45026 -38.44791 -38.44010
 Alpha  occ. eigenvalues --  -38.43945 -38.43504  -2.20942  -2.20922  -2.20896
 Alpha  occ. eigenvalues --   -2.20542  -2.19875  -2.19743  -2.19354  -1.14638
 Alpha  occ. eigenvalues --   -1.14625  -1.14613  -1.14604  -1.14587  -1.14579
 Alpha  occ. eigenvalues --   -1.14548  -1.14543  -1.14532  -1.14226  -1.14211
 Alpha  occ. eigenvalues --   -1.14172  -1.13559  -1.13499  -1.13484  -1.13406
 Alpha  occ. eigenvalues --   -1.13398  -1.13380  -1.13024  -1.12987  -1.12984
 Alpha  occ. eigenvalues --   -0.16107  -0.13941  -0.13435  -0.10528
 Alpha virt. eigenvalues --   -0.07705  -0.05069  -0.04141  -0.03729  -0.03454
 Alpha virt. eigenvalues --   -0.02152  -0.02097  -0.01574  -0.01288  -0.01103
 Alpha virt. eigenvalues --   -0.00627   0.00044   0.00142   0.00424   0.00797

  Beta  occ. eigenvalues --  -38.45155 -38.45142 -38.44996 -38.44779 -38.43959
  Beta  occ. eigenvalues --  -38.43910 -38.43453  -2.20924  -2.20875  -2.20852
  Beta  occ. eigenvalues --   -2.20521  -2.19783  -2.19678  -2.19258  -1.14617
  Beta  occ. eigenvalues --   -1.14607  -1.14574  -1.14567  -1.14558  -1.14532
  Beta  occ. eigenvalues --   -1.14515  -1.14499  -1.14491  -1.14214  -1.14199
  Beta  occ. eigenvalues --   -1.14142  -1.13489  -1.13437  -1.13423  -1.13362
  Beta  occ. eigenvalues --   -1.13355  -1.13333  -1.12958  -1.12923  -1.12921
  Beta  occ. eigenvalues --   -0.15565  -0.13357  -0.12764
  Beta virt. eigenvalues --   -0.07862  -0.07298  -0.04592  -0.03579  -0.03553
  Beta virt. eigenvalues --   -0.03126  -0.01952  -0.01907  -0.01434  -0.01148
  Beta virt. eigenvalues --   -0.00780  -0.00387   0.00275   0.00374   0.00405

 Mulliken charges and spin densities:
               1          2
     1  Na  -0.171061   0.091073
     2  Na  -0.048432   0.137008
     3  Na  -0.025128   0.138752
     4  Na   0.080200   0.207610
     5  Na   0.199263   0.157744
     6  Na   0.031897   0.198223
     7  Na  -0.066739   0.069590
 Sum of Mulliken charges =  -0.00000   1.00000

 Dipole moment (field-independent basis, Debye):
    X=             -0.1377    Y=              0.2674    Z=              0.0387  Tot=              0.3032
 Quadrupole moment (field-independent basis, Debye-Ang):
   XX=            -65.2041   YY=            -67.1132   ZZ=            -69.9749
   XY=             -0.2303   XZ=              1.4992   YZ=             -1.6783

 Normal termination of Gaussian 16 at Sun Dec  3 23:06:46 2023.
