 Gaussian 16, Revision B.01,
 Gaussian 16:  ES64L-G16RevB.01 20-Dec-2017

 -------------------------
 #P B3LYP/6-311+g(d) force
 -------------------------

 -----
 DPGEN
 -----
 Symbolic Z-matrix:
 Charge =  0 Multiplicity = 2

                         Standard orientation:
 ---------------------------------------------------------------------
 Center     Atomic      Atomic             Coordinates (Angstroms)
 Number     Number       Type             X           Y           Z
 ---------------------------------------------------------------------
      1         11           0        0.403437   -0.357196    2.006827
      2         11           0        0.124280    2.936783    0.055975
      3         11           0       -2.937431    1.573402    0.123209
      4         11           0       -0.443343   -0.110156   -1.652505
      5         11           0       -2.106560   -2.568747   -0.074672
      6         11           0        1.608334   -2.226632   -0.110780
      7         11           0        3.351283    0.752546   -0.348053
 ---------------------------------------------------------------------

 SCF Done:  E(UB3LYP) =  -1136.13389257     A.U. after   20 cycles

 The electronic state is 2-A.
 Alpha  occ. eigenvalues --  -38.44213 -38.44076 -38.43944 -38.43655 -38.43625
 Alpha  occ. eigenvalues --  -38.43551 -38.43288  -2.20013  -2.19862  -2.19742
 Alpha  occ. eigenvalues --   -2.19557  -2.19448  -2.19442  -2.19220  -1.13686
 Alpha  occ. eigenvalues --   -1.13674  -1.13657  -1.13531  -1.13524  -1.13505
 Alpha  occ. eigenvalues --   -1.13422  -1.13401  -1.13384  -1.13329  -1.13243
 Alpha  occ. eigenvalues --   -1.13147  -1.13130  -1.13121  -1.13089  -1.13073
 Alpha  occ. eigenvalues --   -1.13059  -1.13036  -1.12905  -1.12854  -1.12840
 Alpha  occ. eigenvalues --   -0.18252  -0.12924  -0.12435  -0.10429
 Alpha virt. eigenvalues --   -0.05691  -0.05597  -0.04806  -0.03120  -0.02818
 Alpha virt. eigenvalues --   -0.02354  -0.01703  -0.01407  -0.00537  -0.00448
 Alpha virt. eigenvalues --   -0.00029   0.00318   0.00738   0.00798   0.00851

  Beta  occ. eigenvalues --  -38.44213 -38.44069 -38.43943 -38.43643 -38.43621
  Beta  occ. eigenvalues --  -38.43457 -38.43229  -2.20015  -2.19851  -2.19742
  Beta  occ. eigenvalues --   -2.19541  -2.19442  -2.19270  -2.19111  -1.13682
  Beta  occ. eigenvalues --   -1.13668  -1.13662  -1.13523  -1.13505  -1.13499
  Beta  occ. eigenvalues --   -1.13413  -1.13396  -1.13382  -1.13295  -1.13199
  Beta  occ. eigenvalues --   -1.13141  -1.13125  -1.13098  -1.13074  -1.12982
  Beta  occ. eigenvalues --   -1.12943  -1.12916  -1.12831  -1.12774  -1.12761
  Beta  occ. eigenvalues --   -0.17541  -0.12712  -0.12225
  Beta virt. eigenvalues --   -0.06578  -0.05622  -0.05565  -0.04735  -0.02376
  Beta virt. eigenvalues --   -0.02115  -0.01612  -0.01360  -0.01322  -0.00583
  Beta virt. eigenvalues --   -0.00472   0.00127   0.00355   0.00788   0.00803

 Mulliken charges and spin densities:
               1          2
     1  Na  -0.379999   0.699220
     2  Na  -0.022059  -0.063907
     3  Na   0.009063  -0.116503
     4  Na  -0.060050   0.599873
     5  Na   0.112660  -0.140341
     6  Na   0.427303   0.040962
     7  Na  -0.086918  -0.019304
 Sum of Mulliken charges =  -0.00000   1.00000

 Dipole moment (field-independent basis, Debye):
    X=             -0.3057    Y=              0.0486    Z=              0.0732  Tot=              0.3181
 Quadrupole moment (field-independent basis, Debye-Ang):
   XX=            -54.9787   YY=            -62.0020   ZZ=            -75.8897
   XY=              1.6152   XZ=             -2.0357   YZ=              0.3890

 Normal termination of Gaussian 16 at Thu Dec  7 08:21:13 2023.
