 Gaussian 16, Revision B.01,
 Gaussian 16:  ES64L-G16RevB.01 20-Dec-2017

 -------------------------
 #P B3LYP/6-311+g(d) force
 -------------------------

 -----
 DPGEN
 -----
 Symbolic Z-matrix:
 Charge =  0 Multiplicity = 2

                         Standard orientation:
 ---------------------------------------------------------------------
 Center     Atomic      Atomic             Coordinates (Angstroms)
 Number     Number       Type             X           Y           Z
 ---------------------------------------------------------------------
      1         11           0       -2.833404   -1.581981    0.413893
      2         11           0       -5.775425   -0.401346    0.577320
      3         11           0       -3.690272    1.970333    0.452365
      4         11           0        0.278313    1.395496   -1.080627
      5         11           0        0.467210   -1.629244   -1.150544
      6         11           0        4.539629    0.358520   -0.602396
      7         11           0        7.013949   -0.111778    1.389987
 ---------------------------------------------------------------------

 SCF Done:  E(UB3LYP) =  -1136.11344980     A.U. after   19 cycles

 The electronic state is 2-A.
 Alpha  occ. eigenvalues --  -38.44812 -38.44755 -38.44593 -38.44520 -38.44306
 Alpha  occ. eigenvalues --  -38.43689 -38.43688  -2.20662  -2.20589  -2.20445
 Alpha  occ. eigenvalues --   -2.20334  -2.20136  -2.19463  -2.19457  -1.14366
 Alpha  occ. eigenvalues --   -1.14352  -1.14312  -1.14251  -1.14237  -1.14168
 Alpha  occ. eigenvalues --   -1.14122  -1.14098  -1.14064  -1.14042  -1.13996
 Alpha  occ. eigenvalues --   -1.13963  -1.13792  -1.13772  -1.13757  -1.13173
 Alpha  occ. eigenvalues --   -1.13145  -1.13133  -1.13116  -1.13115  -1.13027
 Alpha  occ. eigenvalues --   -0.16808  -0.14068  -0.12049  -0.11039
 Alpha virt. eigenvalues --   -0.06928  -0.05614  -0.04715  -0.03750  -0.03038
 Alpha virt. eigenvalues --   -0.02603  -0.02163  -0.01694  -0.01098  -0.00861
 Alpha virt. eigenvalues --   -0.00483  -0.00274   0.00006   0.00141   0.00517

  Beta  occ. eigenvalues --  -38.44807 -38.44691 -38.44530 -38.44492 -38.44291
  Beta  occ. eigenvalues --  -38.43693 -38.43686  -2.20655  -2.20469  -2.20330
  Beta  occ. eigenvalues --   -2.20280  -2.20109  -2.19468  -2.19457  -1.14351
  Beta  occ. eigenvalues --   -1.14319  -1.14309  -1.14170  -1.14156  -1.14093
  Beta  occ. eigenvalues --   -1.14045  -1.14032  -1.14012  -1.13960  -1.13959
  Beta  occ. eigenvalues --   -1.13921  -1.13774  -1.13751  -1.13724  -1.13176
  Beta  occ. eigenvalues --   -1.13143  -1.13134  -1.13122  -1.13119  -1.13030
  Beta  occ. eigenvalues --   -0.16113  -0.14015  -0.11976
  Beta virt. eigenvalues --   -0.07309  -0.06548  -0.04845  -0.04554  -0.03608
  Beta virt. eigenvalues --   -0.02598  -0.02312  -0.01910  -0.01595  -0.00959
  Beta virt. eigenvalues --   -0.00513  -0.00211   0.00073   0.00108   0.00367

 Mulliken charges and spin densities:
               1          2
     1  Na  -0.469480   0.433605
     2  Na   0.606814  -0.028399
     3  Na  -0.166822   0.292795
     4  Na  -0.076635   0.252787
     5  Na   0.105270   0.063257
     6  Na  -0.445557   0.010306
     7  Na   0.446409  -0.024351
 Sum of Mulliken charges =  -0.00000   1.00000

 Dipole moment (field-independent basis, Debye):
    X=             -2.5650    Y=             -0.2290    Z=              0.1516  Tot=              2.5796
 Quadrupole moment (field-independent basis, Debye-Ang):
   XX=            -57.6313   YY=            -70.3014   ZZ=            -69.7869
   XY=             -1.3505   XZ=              1.3464   YZ=             -0.2914

 Normal termination of Gaussian 16 at Wed Nov 29 00:37:07 2023.
