 Gaussian 16, Revision B.01,
 Gaussian 16:  ES64L-G16RevB.01 20-Dec-2017

 -------------------------
 #P B3LYP/6-311+g(d) force
 -------------------------

 -----
 DPGEN
 -----
 Symbolic Z-matrix:
 Charge =  0 Multiplicity = 2

                         Standard orientation:
 ---------------------------------------------------------------------
 Center     Atomic      Atomic             Coordinates (Angstroms)
 Number     Number       Type             X           Y           Z
 ---------------------------------------------------------------------
      1         11           0        3.929113   -0.837897    0.704788
      2         11           0       -2.414697   -1.519608   -0.790732
      3         11           0       -4.161645    0.514417    0.984820
      4         11           0        0.472579   -0.503540    1.967414
      5         11           0        2.281483    2.089561   -0.452084
      6         11           0       -0.914202    1.727064   -0.854290
      7         11           0        0.807369   -1.469997   -1.559916
 ---------------------------------------------------------------------

 SCF Done:  E(UB3LYP) =  -1136.11747898     A.U. after   44 cycles

 The electronic state is 2-A.
 Alpha  occ. eigenvalues --  -38.46262 -38.44966 -38.44698 -38.44197 -38.43805
 Alpha  occ. eigenvalues --  -38.42779 -38.42407  -2.22025  -2.20778  -2.20484
 Alpha  occ. eigenvalues --   -2.20064  -2.19681  -2.18622  -2.18275  -1.15709
 Alpha  occ. eigenvalues --   -1.15679  -1.15639  -1.14440  -1.14417  -1.14396
 Alpha  occ. eigenvalues --   -1.14156  -1.14145  -1.14110  -1.13755  -1.13692
 Alpha  occ. eigenvalues --   -1.13685  -1.13362  -1.13336  -1.13328  -1.12298
 Alpha  occ. eigenvalues --   -1.12296  -1.12263  -1.11973  -1.11956  -1.11882
 Alpha  occ. eigenvalues --   -0.18038  -0.14202  -0.11477  -0.10674
 Alpha virt. eigenvalues --   -0.07473  -0.05052  -0.04787  -0.03284  -0.03034
 Alpha virt. eigenvalues --   -0.02495  -0.02212  -0.01386  -0.01173  -0.00318
 Alpha virt. eigenvalues --   -0.00185   0.00203   0.00250   0.00564   0.00681

  Beta  occ. eigenvalues --  -38.46236 -38.44903 -38.44686 -38.44119 -38.43784
  Beta  occ. eigenvalues --  -38.42776 -38.42402  -2.21977  -2.20660  -2.20462
  Beta  occ. eigenvalues --   -2.19926  -2.19650  -2.18618  -2.18268  -1.15669
  Beta  occ. eigenvalues --   -1.15648  -1.15605  -1.14364  -1.14334  -1.14318
  Beta  occ. eigenvalues --   -1.14139  -1.14128  -1.14097  -1.13657  -1.13590
  Beta  occ. eigenvalues --   -1.13581  -1.13330  -1.13321  -1.13266  -1.12302
  Beta  occ. eigenvalues --   -1.12286  -1.12257  -1.11973  -1.11930  -1.11880
  Beta  occ. eigenvalues --   -0.17373  -0.13742  -0.10517
  Beta virt. eigenvalues --   -0.07790  -0.07164  -0.04882  -0.04302  -0.02912
  Beta virt. eigenvalues --   -0.02813  -0.01960  -0.01696  -0.01099  -0.00978
  Beta virt. eigenvalues --   -0.00210  -0.00080   0.00281   0.00310   0.00657

 Mulliken charges and spin densities:
               1          2
     1  Na   0.626217   0.110725
     2  Na   0.194989   0.052518
     3  Na   0.541047   0.346704
     4  Na  -0.447169   0.171226
     5  Na  -0.232889   0.015037
     6  Na  -0.475559   0.040613
     7  Na  -0.206637   0.263177
 Sum of Mulliken charges =  -0.00000   1.00000

 Dipole moment (field-independent basis, Debye):
    X=              0.0368    Y=             -0.4868    Z=              0.7480  Tot=              0.8932
 Quadrupole moment (field-independent basis, Debye-Ang):
   XX=            -49.8131   YY=            -80.8958   ZZ=            -66.6684
   XY=             -1.0652   XZ=             -3.0023   YZ=              4.6354

 Normal termination of Gaussian 16 at Thu Dec  7 19:57:21 2023.
