 Gaussian 16, Revision B.01,
 Gaussian 16:  ES64L-G16RevB.01 20-Dec-2017

 -------------------------
 #P B3LYP/6-311+g(d) force
 -------------------------

 -----
 DPGEN
 -----
 Symbolic Z-matrix:
 Charge =  0 Multiplicity = 2

                         Standard orientation:
 ---------------------------------------------------------------------
 Center     Atomic      Atomic             Coordinates (Angstroms)
 Number     Number       Type             X           Y           Z
 ---------------------------------------------------------------------
      1         11           0       -0.195865    0.027870    1.949774
      2         11           0       -1.547501    2.700260   -0.272072
      3         11           0        2.715267    2.032312   -0.148340
      4         11           0       -0.655852   -2.896829   -0.379994
      5         11           0        2.341706   -1.437171    0.496657
      6         11           0       -3.028434   -0.085156    0.128990
      7         11           0        0.370679   -0.341285   -1.775015
 ---------------------------------------------------------------------

 SCF Done:  E(UB3LYP) =  -1136.13501334     A.U. after   19 cycles

 The electronic state is 2-A.
 Alpha  occ. eigenvalues --  -38.43907 -38.43879 -38.43786 -38.43673 -38.43669
 Alpha  occ. eigenvalues --  -38.43484 -38.43224  -2.19695  -2.19684  -2.19646
 Alpha  occ. eigenvalues --   -2.19582  -2.19580  -2.19434  -2.19105  -1.13422
 Alpha  occ. eigenvalues --   -1.13365  -1.13359  -1.13348  -1.13344  -1.13338
 Alpha  occ. eigenvalues --   -1.13330  -1.13321  -1.13292  -1.13284  -1.13248
 Alpha  occ. eigenvalues --   -1.13228  -1.13197  -1.13182  -1.13178  -1.13124
 Alpha  occ. eigenvalues --   -1.13070  -1.13054  -1.12778  -1.12744  -1.12736
 Alpha  occ. eigenvalues --   -0.18607  -0.13119  -0.12304  -0.10881
 Alpha virt. eigenvalues --   -0.05569  -0.05155  -0.04781  -0.03363  -0.02880
 Alpha virt. eigenvalues --   -0.02617  -0.01417  -0.01177  -0.00429  -0.00294
 Alpha virt. eigenvalues --    0.00002   0.00361   0.00825   0.00855   0.00890

  Beta  occ. eigenvalues --  -38.43908 -38.43877 -38.43782 -38.43656 -38.43582
  Beta  occ. eigenvalues --  -38.43413 -38.43214  -2.19692  -2.19688  -2.19641
  Beta  occ. eigenvalues --   -2.19555  -2.19421  -2.19306  -2.19090  -1.13422
  Beta  occ. eigenvalues --   -1.13353  -1.13349  -1.13343  -1.13341  -1.13334
  Beta  occ. eigenvalues --   -1.13313  -1.13292  -1.13277  -1.13249  -1.13223
  Beta  occ. eigenvalues --   -1.13171  -1.13134  -1.13085  -1.13075  -1.13046
  Beta  occ. eigenvalues --   -1.12975  -1.12966  -1.12752  -1.12731  -1.12713
  Beta  occ. eigenvalues --   -0.17864  -0.12906  -0.12072
  Beta virt. eigenvalues --   -0.06954  -0.05559  -0.05054  -0.04744  -0.02576
  Beta virt. eigenvalues --   -0.02167  -0.01599  -0.01336  -0.01085  -0.00465
  Beta virt. eigenvalues --   -0.00290   0.00123   0.00387   0.00847   0.00882

 Mulliken charges and spin densities:
               1          2
     1  Na  -0.104919   0.572877
     2  Na  -0.165351  -0.108601
     3  Na  -0.179058  -0.135146
     4  Na   0.276975  -0.017644
     5  Na   0.305833   0.035746
     6  Na   0.143440  -0.036549
     7  Na  -0.276920   0.689319
 Sum of Mulliken charges =  -0.00000   1.00000

 Dipole moment (field-independent basis, Debye):
    X=             -0.0424    Y=              0.2152    Z=              0.0598  Tot=              0.2273
 Quadrupole moment (field-independent basis, Debye-Ang):
   XX=            -59.5141   YY=            -61.0643   ZZ=            -73.7589
   XY=              1.1705   XZ=              0.9496   YZ=             -1.0687

 Normal termination of Gaussian 16 at Thu Dec  7 07:59:01 2023.
