 Gaussian 16, Revision B.01,
 Gaussian 16:  ES64L-G16RevB.01 20-Dec-2017

 -------------------------
 #P B3LYP/6-311+g(d) force
 -------------------------

 -----
 DPGEN
 -----
 Symbolic Z-matrix:
 Charge =  0 Multiplicity = 2

                         Standard orientation:
 ---------------------------------------------------------------------
 Center     Atomic      Atomic             Coordinates (Angstroms)
 Number     Number       Type             X           Y           Z
 ---------------------------------------------------------------------
      1         11           0        2.146341    0.585504   -0.954024
      2         11           0        8.232563   -0.530761    0.648704
      3         11           0        5.460258   -1.188287    0.086334
      4         11           0       -0.747507    1.650796   -1.076031
      5         11           0       -3.346507    2.709318    0.636211
      6         11           0       -5.305697   -0.772145    1.590150
      7         11           0       -6.439451   -2.454426   -0.931345
 ---------------------------------------------------------------------

 SCF Done:  E(UB3LYP) =  -1136.10385164     A.U. after   19 cycles

 The electronic state is 2-A.
 Alpha  occ. eigenvalues --  -38.45030 -38.44744 -38.44624 -38.44459 -38.44364
 Alpha  occ. eigenvalues --  -38.44030 -38.43860  -2.20834  -2.20526  -2.20448
 Alpha  occ. eigenvalues --   -2.20219  -2.20189  -2.19849  -2.19682  -1.14479
 Alpha  occ. eigenvalues --   -1.14473  -1.14449  -1.14179  -1.14176  -1.14174
 Alpha  occ. eigenvalues --   -1.14171  -1.14078  -1.14077  -1.13897  -1.13882
 Alpha  occ. eigenvalues --   -1.13863  -1.13853  -1.13827  -1.13825  -1.13508
 Alpha  occ. eigenvalues --   -1.13500  -1.13493  -1.13358  -1.13345  -1.13342
 Alpha  occ. eigenvalues --   -0.15229  -0.14156  -0.13009  -0.11518
 Alpha virt. eigenvalues --   -0.06808  -0.05580  -0.03868  -0.03350  -0.03082
 Alpha virt. eigenvalues --   -0.02696  -0.02598  -0.01930  -0.01591  -0.01341
 Alpha virt. eigenvalues --   -0.00605  -0.00507  -0.00328   0.00297   0.00554

  Beta  occ. eigenvalues --  -38.44935 -38.44697 -38.44589 -38.44473 -38.44288
  Beta  occ. eigenvalues --  -38.44035 -38.43869  -2.20658  -2.20438  -2.20383
  Beta  occ. eigenvalues --   -2.20249  -2.20047  -2.19863  -2.19707  -1.14362
  Beta  occ. eigenvalues --   -1.14354  -1.14332  -1.14139  -1.14119  -1.14115
  Beta  occ. eigenvalues --   -1.14113  -1.14033  -1.14032  -1.13920  -1.13903
  Beta  occ. eigenvalues --   -1.13858  -1.13768  -1.13730  -1.13728  -1.13513
  Beta  occ. eigenvalues --   -1.13513  -1.13480  -1.13371  -1.13368  -1.13311
  Beta  occ. eigenvalues --   -0.14495  -0.13623  -0.12487
  Beta virt. eigenvalues --   -0.08402  -0.06394  -0.05148  -0.03548  -0.03134
  Beta virt. eigenvalues --   -0.02880  -0.02490  -0.02419  -0.01653  -0.01261
  Beta virt. eigenvalues --   -0.01143  -0.00390  -0.00233   0.00009   0.00408

 Mulliken charges and spin densities:
               1          2
     1  Na  -0.417338   0.413246
     2  Na   0.046213   0.137633
     3  Na  -0.250889  -0.027841
     4  Na  -0.214030  -0.075703
     5  Na   0.838502   0.388245
     6  Na  -0.202165  -0.048383
     7  Na   0.199707   0.212803
 Sum of Mulliken charges =  -0.00000   1.00000

 Dipole moment (field-independent basis, Debye):
    X=             -0.3623    Y=             -0.0728    Z=              0.0892  Tot=              0.3802
 Quadrupole moment (field-independent basis, Debye-Ang):
   XX=            -51.9781   YY=            -69.2119   ZZ=            -67.4709
   XY=              1.2949   XZ=              4.9810   YZ=              4.5280

 Normal termination of Gaussian 16 at Sun Dec  3 16:37:31 2023.
