 Gaussian 16, Revision B.01,
 Gaussian 16:  ES64L-G16RevB.01 20-Dec-2017

 -------------------------
 #P B3LYP/6-311+g(d) force
 -------------------------

 -----
 DPGEN
 -----
 Symbolic Z-matrix:
 Charge =  0 Multiplicity = 2

                         Standard orientation:
 ---------------------------------------------------------------------
 Center     Atomic      Atomic             Coordinates (Angstroms)
 Number     Number       Type             X           Y           Z
 ---------------------------------------------------------------------
      1         11           0        1.503125   -0.169030    2.298236
      2         11           0       -3.536148   -0.828427   -0.332238
      3         11           0       -0.412116   -2.464276    0.670512
      4         11           0        2.986653   -1.481529   -0.956818
      5         11           0       -0.429108    0.126277   -2.147258
      6         11           0        1.523740    2.743566   -0.522729
      7         11           0       -1.636145    2.073420    0.990296
 ---------------------------------------------------------------------

 SCF Done:  E(UB3LYP) =  -1136.12980261     A.U. after   19 cycles

 The electronic state is 2-A.
 Alpha  occ. eigenvalues --  -38.44563 -38.44528 -38.44384 -38.44013 -38.43642
 Alpha  occ. eigenvalues --  -38.43623 -38.43425  -2.20381  -2.20286  -2.20197
 Alpha  occ. eigenvalues --   -2.19802  -2.19433  -2.19428  -2.19208  -1.14056
 Alpha  occ. eigenvalues --   -1.14020  -1.14002  -1.13958  -1.13941  -1.13920
 Alpha  occ. eigenvalues --   -1.13879  -1.13827  -1.13807  -1.13482  -1.13465
 Alpha  occ. eigenvalues --   -1.13427  -1.13133  -1.13110  -1.13104  -1.13087
 Alpha  occ. eigenvalues --   -1.13076  -1.13028  -1.12885  -1.12865  -1.12854
 Alpha  occ. eigenvalues --   -0.17460  -0.12562  -0.11865  -0.11493
 Alpha virt. eigenvalues --   -0.05854  -0.05161  -0.04777  -0.03530  -0.03225
 Alpha virt. eigenvalues --   -0.03151  -0.01604  -0.01021  -0.00598  -0.00199
 Alpha virt. eigenvalues --    0.00025   0.00384   0.00422   0.00549   0.00737

  Beta  occ. eigenvalues --  -38.44512 -38.44494 -38.44312 -38.43995 -38.43644
  Beta  occ. eigenvalues --  -38.43611 -38.43425  -2.20259  -2.20254  -2.20064
  Beta  occ. eigenvalues --   -2.19769  -2.19434  -2.19412  -2.19210  -1.13975
  Beta  occ. eigenvalues --   -1.13935  -1.13931  -1.13918  -1.13902  -1.13900
  Beta  occ. eigenvalues --   -1.13783  -1.13738  -1.13713  -1.13455  -1.13438
  Beta  occ. eigenvalues --   -1.13406  -1.13115  -1.13099  -1.13092  -1.13081
  Beta  occ. eigenvalues --   -1.13077  -1.13021  -1.12877  -1.12868  -1.12850
  Beta  occ. eigenvalues --   -0.16707  -0.12394  -0.11709
  Beta virt. eigenvalues --   -0.07683  -0.05623  -0.05051  -0.04358  -0.03154
  Beta virt. eigenvalues --   -0.02604  -0.02311  -0.01488  -0.00962  -0.00359
  Beta virt. eigenvalues --   -0.00077   0.00023   0.00428   0.00582   0.00717

 Mulliken charges and spin densities:
               1          2
     1  Na  -0.039073   0.395728
     2  Na   0.246187  -0.066482
     3  Na  -0.092742   0.092155
     4  Na   0.178948  -0.027294
     5  Na  -0.297437   0.586076
     6  Na   0.101570  -0.099106
     7  Na  -0.097454   0.118922
 Sum of Mulliken charges =  -0.00000   1.00000

 Dipole moment (field-independent basis, Debye):
    X=              0.2762    Y=             -0.0816    Z=             -0.0975  Tot=              0.3040
 Quadrupole moment (field-independent basis, Debye-Ang):
   XX=            -58.1076   YY=            -70.9294   ZZ=            -67.1596
   XY=             -0.0813   XZ=             -2.0260   YZ=              1.5834

 Normal termination of Gaussian 16 at Sun Dec  3 19:19:13 2023.
