 Gaussian 16, Revision B.01,
 Gaussian 16:  ES64L-G16RevB.01 20-Dec-2017

 -------------------------
 #P B3LYP/6-311+g(d) force
 -------------------------

 -----
 DPGEN
 -----
 Symbolic Z-matrix:
 Charge =  0 Multiplicity = 2

                         Standard orientation:
 ---------------------------------------------------------------------
 Center     Atomic      Atomic             Coordinates (Angstroms)
 Number     Number       Type             X           Y           Z
 ---------------------------------------------------------------------
      1         11           0       -1.496592    0.348260   -1.524139
      2         11           0       -1.463489   -1.519890    0.396294
      3         11           0        0.687221   -0.516280    1.627743
      4         11           0        2.845915    0.141452   -0.030891
      5         11           0        0.660005   -1.154638   -1.202141
      6         11           0        0.504118    1.652369   -0.296591
      7         11           0       -1.737177    1.048726    1.029725
 ---------------------------------------------------------------------

 SCF Done:  E(UB3LYP) =  -1136.02850751     A.U. after   33 cycles

 The electronic state is 2-A.
 Alpha  occ. eigenvalues --  -38.45354 -38.44833 -38.44771 -38.44615 -38.44542
 Alpha  occ. eigenvalues --  -38.44040 -38.43262  -2.21699  -2.21116  -2.20956
 Alpha  occ. eigenvalues --   -2.20899  -2.20831  -2.20347  -2.19600  -1.15729
 Alpha  occ. eigenvalues --   -1.15553  -1.15354  -1.15046  -1.14961  -1.14850
 Alpha  occ. eigenvalues --   -1.14823  -1.14705  -1.14632  -1.14539  -1.14506
 Alpha  occ. eigenvalues --   -1.14449  -1.14412  -1.14327  -1.14300  -1.13915
 Alpha  occ. eigenvalues --   -1.13870  -1.13805  -1.13278  -1.13210  -1.13159
 Alpha  occ. eigenvalues --   -0.22651  -0.14457  -0.13557  -0.12133
 Alpha virt. eigenvalues --   -0.05820  -0.04312  -0.04038  -0.03705  -0.02980
 Alpha virt. eigenvalues --   -0.02753  -0.01129  -0.00398  -0.00134   0.00254
 Alpha virt. eigenvalues --    0.00782   0.01006   0.01055   0.01111   0.01144

  Beta  occ. eigenvalues --  -38.45284 -38.44786 -38.44768 -38.44540 -38.44474
  Beta  occ. eigenvalues --  -38.44018 -38.43238  -2.21579  -2.21036  -2.20864
  Beta  occ. eigenvalues --   -2.20796  -2.20774  -2.20317  -2.19566  -1.15666
  Beta  occ. eigenvalues --   -1.15436  -1.15268  -1.14963  -1.14910  -1.14794
  Beta  occ. eigenvalues --   -1.14759  -1.14644  -1.14552  -1.14498  -1.14434
  Beta  occ. eigenvalues --   -1.14386  -1.14325  -1.14272  -1.14218  -1.13893
  Beta  occ. eigenvalues --   -1.13797  -1.13767  -1.13264  -1.13147  -1.13105
  Beta  occ. eigenvalues --   -0.21729  -0.14228  -0.11853
  Beta virt. eigenvalues --   -0.08894  -0.05735  -0.03711  -0.03514  -0.03365
  Beta virt. eigenvalues --   -0.02188  -0.02021  -0.01084  -0.00132  -0.00117
  Beta virt. eigenvalues --    0.00296   0.00856   0.01114   0.01130   0.01137

 Mulliken charges and spin densities:
               1          2
     1  Na   0.305273  -0.004232
     2  Na   0.339587   0.043357
     3  Na  -0.562899   0.189295
     4  Na   1.131420  -0.048220
     5  Na  -0.621533   0.289126
     6  Na  -0.746969   0.345338
     7  Na   0.155121   0.185336
 Sum of Mulliken charges =  -0.00000   1.00000

 Dipole moment (field-independent basis, Debye):
    X=              0.5093    Y=              0.0255    Z=              0.1470  Tot=              0.5307
 Quadrupole moment (field-independent basis, Debye-Ang):
   XX=            -58.3415   YY=            -77.2319   ZZ=            -63.6696
   XY=              0.0845   XZ=             -0.4956   YZ=              1.9084

 Normal termination of Gaussian 16 at Fri Dec  8 18:38:51 2023.
