 Gaussian 16, Revision B.01,
 Gaussian 16:  ES64L-G16RevB.01 20-Dec-2017

 -------------------------
 #P B3LYP/6-311+g(d) force
 -------------------------

 -----
 DPGEN
 -----
 Symbolic Z-matrix:
 Charge =  0 Multiplicity = 2

                         Standard orientation:
 ---------------------------------------------------------------------
 Center     Atomic      Atomic             Coordinates (Angstroms)
 Number     Number       Type             X           Y           Z
 ---------------------------------------------------------------------
      1         11           0        3.885217   -0.057842    0.803903
      2         11           0        1.391769    2.221132   -0.556616
      3         11           0       -0.128142   -0.202005    1.940064
      4         11           0       -3.417430   -1.380962    0.726411
      5         11           0       -2.484638    1.928061   -0.075346
      6         11           0       -0.892222   -0.514701   -1.917376
      7         11           0        1.645446   -1.993682   -0.921040
 ---------------------------------------------------------------------

 SCF Done:  E(UB3LYP) =  -1136.12246497     A.U. after   26 cycles

 The electronic state is 2-A.
 Alpha  occ. eigenvalues --  -38.45380 -38.45116 -38.44538 -38.43780 -38.43775
 Alpha  occ. eigenvalues --  -38.43178 -38.43025  -2.21180  -2.20903  -2.20332
 Alpha  occ. eigenvalues --   -2.19691  -2.19600  -2.19037  -2.18822  -1.14869
 Alpha  occ. eigenvalues --   -1.14827  -1.14794  -1.14573  -1.14551  -1.14533
 Alpha  occ. eigenvalues --   -1.14001  -1.13988  -1.13969  -1.13407  -1.13340
 Alpha  occ. eigenvalues --   -1.13297  -1.13278  -1.13254  -1.13219  -1.12735
 Alpha  occ. eigenvalues --   -1.12685  -1.12657  -1.12510  -1.12503  -1.12444
 Alpha  occ. eigenvalues --   -0.18051  -0.13840  -0.11414  -0.10895
 Alpha virt. eigenvalues --   -0.06965  -0.05374  -0.04471  -0.03139  -0.02904
 Alpha virt. eigenvalues --   -0.02582  -0.02454  -0.01204  -0.00828  -0.00288
 Alpha virt. eigenvalues --    0.00107   0.00144   0.00276   0.00568   0.00701

  Beta  occ. eigenvalues --  -38.45331 -38.45097 -38.44523 -38.43768 -38.43693
  Beta  occ. eigenvalues --  -38.43150 -38.43023  -2.21090  -2.20867  -2.20304
  Beta  occ. eigenvalues --   -2.19590  -2.19535  -2.18992  -2.18821  -1.14805
  Beta  occ. eigenvalues --   -1.14769  -1.14721  -1.14546  -1.14530  -1.14509
  Beta  occ. eigenvalues --   -1.13978  -1.13961  -1.13953  -1.13297  -1.13285
  Beta  occ. eigenvalues --   -1.13258  -1.13209  -1.13197  -1.13178  -1.12692
  Beta  occ. eigenvalues --   -1.12649  -1.12619  -1.12509  -1.12494  -1.12439
  Beta  occ. eigenvalues --   -0.17337  -0.13600  -0.10633
  Beta virt. eigenvalues --   -0.07617  -0.06668  -0.05354  -0.03970  -0.02871
  Beta virt. eigenvalues --   -0.02441  -0.02020  -0.01811  -0.01129  -0.00598
  Beta virt. eigenvalues --   -0.00209   0.00154   0.00179   0.00412   0.00655

 Mulliken charges and spin densities:
               1          2
     1  Na   0.394963   0.170962
     2  Na  -0.358084  -0.093956
     3  Na  -0.295917   0.457424
     4  Na   0.131547   0.047376
     5  Na   0.150824  -0.004156
     6  Na   0.196426   0.461549
     7  Na  -0.219758  -0.039200
 Sum of Mulliken charges =  -0.00000   1.00000

 Dipole moment (field-independent basis, Debye):
    X=             -0.0040    Y=             -0.0941    Z=              0.7769  Tot=              0.7826
 Quadrupole moment (field-independent basis, Debye-Ang):
   XX=            -47.6054   YY=            -77.3899   ZZ=            -69.4603
   XY=              0.2806   XZ=              1.7068   YZ=             -1.3225

 Normal termination of Gaussian 16 at Thu Dec  7 12:45:14 2023.
