 Gaussian 16, Revision B.01,
 Gaussian 16:  ES64L-G16RevB.01 20-Dec-2017

 -------------------------
 #P B3LYP/6-311+g(d) force
 -------------------------

 -----
 DPGEN
 -----
 Symbolic Z-matrix:
 Charge =  0 Multiplicity = 2

                         Standard orientation:
 ---------------------------------------------------------------------
 Center     Atomic      Atomic             Coordinates (Angstroms)
 Number     Number       Type             X           Y           Z
 ---------------------------------------------------------------------
      1         11           0       -0.620663   -2.260052    0.878147
      2         11           0       -1.135095    2.092257    0.427604
      3         11           0       -3.356098   -0.220071   -0.298587
      4         11           0       -0.374498   -0.132069   -1.885101
      5         11           0        2.013154    2.133164   -0.480614
      6         11           0        1.052849    0.150398    2.192518
      7         11           0        2.420351   -1.763626   -0.833967
 ---------------------------------------------------------------------

 SCF Done:  E(UB3LYP) =  -1136.13689285     A.U. after   19 cycles

 The electronic state is 2-A.
 Alpha  occ. eigenvalues --  -38.44145 -38.43863 -38.43734 -38.43615 -38.43306
 Alpha  occ. eigenvalues --  -38.43246 -38.42996  -2.20048  -2.19809  -2.19563
 Alpha  occ. eigenvalues --   -2.19460  -2.19164  -2.19127  -2.18920  -1.13736
 Alpha  occ. eigenvalues --   -1.13668  -1.13662  -1.13498  -1.13453  -1.13441
 Alpha  occ. eigenvalues --   -1.13240  -1.13205  -1.13199  -1.13131  -1.13120
 Alpha  occ. eigenvalues --   -1.13101  -1.12847  -1.12831  -1.12826  -1.12803
 Alpha  occ. eigenvalues --   -1.12786  -1.12730  -1.12609  -1.12596  -1.12522
 Alpha  occ. eigenvalues --   -0.18804  -0.12894  -0.12144  -0.11832
 Alpha virt. eigenvalues --   -0.05334  -0.04831  -0.04161  -0.03534  -0.03324
 Alpha virt. eigenvalues --   -0.03204  -0.01418  -0.00824  -0.00343   0.00220
 Alpha virt. eigenvalues --    0.00312   0.00377   0.00737   0.00894   0.00946

  Beta  occ. eigenvalues --  -38.44058 -38.43797 -38.43716 -38.43615 -38.43300
  Beta  occ. eigenvalues --  -38.43222 -38.42987  -2.19889  -2.19690  -2.19531
  Beta  occ. eigenvalues --   -2.19463  -2.19155  -2.19087  -2.18906  -1.13624
  Beta  occ. eigenvalues --   -1.13560  -1.13546  -1.13423  -1.13369  -1.13349
  Beta  occ. eigenvalues --   -1.13204  -1.13187  -1.13172  -1.13133  -1.13112
  Beta  occ. eigenvalues --   -1.13104  -1.12843  -1.12812  -1.12795  -1.12787
  Beta  occ. eigenvalues --   -1.12738  -1.12708  -1.12603  -1.12559  -1.12516
  Beta  occ. eigenvalues --   -0.18015  -0.12691  -0.11924
  Beta virt. eigenvalues --   -0.07787  -0.05212  -0.04777  -0.03959  -0.02988
  Beta virt. eigenvalues --   -0.02588  -0.02170  -0.01323  -0.00788  -0.00097
  Beta virt. eigenvalues --    0.00241   0.00297   0.00409   0.00899   0.00907

 Mulliken charges and spin densities:
               1          2
     1  Na  -0.036548   0.230835
     2  Na   0.042362   0.172097
     3  Na   0.356852  -0.093107
     4  Na  -0.400396   0.497874
     5  Na   0.114193  -0.050400
     6  Na  -0.140894   0.267662
     7  Na   0.064433  -0.024962
 Sum of Mulliken charges =  -0.00000   1.00000

 Dipole moment (field-independent basis, Debye):
    X=              0.1613    Y=             -0.1275    Z=             -0.0416  Tot=              0.2098
 Quadrupole moment (field-independent basis, Debye-Ang):
   XX=            -57.7018   YY=            -70.1788   ZZ=            -67.3920
   XY=              0.6206   XZ=             -1.7171   YZ=             -0.0885

 Normal termination of Gaussian 16 at Mon Dec  4 00:34:40 2023.
