 Gaussian 16, Revision B.01,
 Gaussian 16:  ES64L-G16RevB.01 20-Dec-2017

 -------------------------
 #P B3LYP/6-311+g(d) force
 -------------------------

 -----
 DPGEN
 -----
 Symbolic Z-matrix:
 Charge =  0 Multiplicity = 2

                         Standard orientation:
 ---------------------------------------------------------------------
 Center     Atomic      Atomic             Coordinates (Angstroms)
 Number     Number       Type             X           Y           Z
 ---------------------------------------------------------------------
      1         11           0       -3.885771   -0.766936   -0.912318
      2         11           0        2.709364   -1.826233   -0.713725
      3         11           0       -0.326919   -0.562974   -1.122157
      4         11           0       -1.393636   -0.888147    1.871181
      5         11           0        2.111663    0.078236    1.678856
      6         11           0       -1.382062    2.314485    0.331811
      7         11           0        2.167360    1.651569   -1.133648
 ---------------------------------------------------------------------

 SCF Done:  E(UB3LYP) =  -1136.12212325     A.U. after   27 cycles

 The electronic state is 2-A.
 Alpha  occ. eigenvalues --  -38.44861 -38.44498 -38.44357 -38.43659 -38.43580
 Alpha  occ. eigenvalues --  -38.43357 -38.42984  -2.20640  -2.20407  -2.20225
 Alpha  occ. eigenvalues --   -2.19634  -2.19460  -2.19237  -2.18802  -1.14313
 Alpha  occ. eigenvalues --   -1.14294  -1.14255  -1.14085  -1.14074  -1.14032
 Alpha  occ. eigenvalues --   -1.13941  -1.13859  -1.13822  -1.13361  -1.13287
 Alpha  occ. eigenvalues --   -1.13275  -1.13150  -1.13123  -1.13048  -1.12912
 Alpha  occ. eigenvalues --   -1.12896  -1.12862  -1.12490  -1.12480  -1.12413
 Alpha  occ. eigenvalues --   -0.18616  -0.14033  -0.11470  -0.10712
 Alpha virt. eigenvalues --   -0.06600  -0.05098  -0.04841  -0.03144  -0.02572
 Alpha virt. eigenvalues --   -0.02404  -0.02190  -0.01033  -0.00758  -0.00192
 Alpha virt. eigenvalues --    0.00191   0.00232   0.00315   0.00585   0.00703

  Beta  occ. eigenvalues --  -38.44836 -38.44454 -38.44296 -38.43631 -38.43556
  Beta  occ. eigenvalues --  -38.43352 -38.42980  -2.20592  -2.20327  -2.20117
  Beta  occ. eigenvalues --   -2.19586  -2.19417  -2.19228  -2.18798  -1.14275
  Beta  occ. eigenvalues --   -1.14261  -1.14227  -1.14033  -1.13996  -1.13978
  Beta  occ. eigenvalues --   -1.13873  -1.13784  -1.13725  -1.13304  -1.13253
  Beta  occ. eigenvalues --   -1.13241  -1.13116  -1.13093  -1.13016  -1.12901
  Beta  occ. eigenvalues --   -1.12891  -1.12846  -1.12490  -1.12459  -1.12414
  Beta  occ. eigenvalues --   -0.17889  -0.13803  -0.10567
  Beta virt. eigenvalues --   -0.07517  -0.06323  -0.05042  -0.04232  -0.02813
  Beta virt. eigenvalues --   -0.02315  -0.01796  -0.01676  -0.00865  -0.00457
  Beta virt. eigenvalues --   -0.00078   0.00250   0.00342   0.00410   0.00649

 Mulliken charges and spin densities:
               1          2
     1  Na   0.489982   0.137203
     2  Na   0.168327   0.051472
     3  Na  -0.626160   0.341134
     4  Na  -0.068977   0.239331
     5  Na   0.329102   0.182043
     6  Na  -0.357048   0.037338
     7  Na   0.064774   0.011479
 Sum of Mulliken charges =  -0.00000   1.00000

 Dipole moment (field-independent basis, Debye):
    X=             -0.5986    Y=              0.1035    Z=              0.1720  Tot=              0.6313
 Quadrupole moment (field-independent basis, Debye-Ang):
   XX=            -50.1828   YY=            -76.5253   ZZ=            -66.6124
   XY=              0.2838   XZ=              0.6742   YZ=              0.1633

 Normal termination of Gaussian 16 at Thu Dec  7 06:54:39 2023.
