 Gaussian 16, Revision B.01,
 Gaussian 16:  ES64L-G16RevB.01 20-Dec-2017

 -------------------------
 #P B3LYP/6-311+g(d) force
 -------------------------

 -----
 DPGEN
 -----
 Symbolic Z-matrix:
 Charge =  0 Multiplicity = 2

                         Standard orientation:
 ---------------------------------------------------------------------
 Center     Atomic      Atomic             Coordinates (Angstroms)
 Number     Number       Type             X           Y           Z
 ---------------------------------------------------------------------
      1         11           0        2.079126   -2.136042    0.068651
      2         11           0        3.107534    0.886793   -0.014831
      3         11           0       -3.395458    0.519595    0.067493
      4         11           0       -0.160078    0.174532    2.004951
      5         11           0       -1.575080   -2.448225   -0.324012
      6         11           0        0.068749   -0.019563   -1.455916
      7         11           0       -0.124794    3.022910   -0.346336
 ---------------------------------------------------------------------

 SCF Done:  E(UB3LYP) =  -1136.13453833     A.U. after   19 cycles

 The electronic state is 2-A.
 Alpha  occ. eigenvalues --  -38.44822 -38.44342 -38.43457 -38.43429 -38.43370
 Alpha  occ. eigenvalues --  -38.43362 -38.42885  -2.20600  -2.20176  -2.19337
 Alpha  occ. eigenvalues --   -2.19303  -2.19234  -2.19181  -2.18905  -1.14275
 Alpha  occ. eigenvalues --   -1.14254  -1.14241  -1.13861  -1.13840  -1.13809
 Alpha  occ. eigenvalues --   -1.13027  -1.12996  -1.12969  -1.12964  -1.12955
 Alpha  occ. eigenvalues --   -1.12944  -1.12939  -1.12888  -1.12884  -1.12850
 Alpha  occ. eigenvalues --   -1.12838  -1.12803  -1.12593  -1.12533  -1.12519
 Alpha  occ. eigenvalues --   -0.18555  -0.13203  -0.12234  -0.10387
 Alpha virt. eigenvalues --   -0.06282  -0.05011  -0.04640  -0.03133  -0.02638
 Alpha virt. eigenvalues --   -0.02263  -0.01996  -0.01141  -0.00579  -0.00378
 Alpha virt. eigenvalues --   -0.00007   0.00326   0.00753   0.00828   0.00878

  Beta  occ. eigenvalues --  -38.44821 -38.44340 -38.43424 -38.43363 -38.43361
  Beta  occ. eigenvalues --  -38.43353 -38.42826  -2.20601  -2.20174  -2.19298
  Beta  occ. eigenvalues --   -2.19219  -2.19170  -2.19163  -2.18800  -1.14259
  Beta  occ. eigenvalues --   -1.14256  -1.14244  -1.13863  -1.13816  -1.13811
  Beta  occ. eigenvalues --   -1.12994  -1.12957  -1.12935  -1.12928  -1.12906
  Beta  occ. eigenvalues --   -1.12872  -1.12860  -1.12845  -1.12840  -1.12820
  Beta  occ. eigenvalues --   -1.12812  -1.12796  -1.12513  -1.12455  -1.12446
  Beta  occ. eigenvalues --   -0.17847  -0.13002  -0.11966
  Beta virt. eigenvalues --   -0.06514  -0.06217  -0.05023  -0.04597  -0.02387
  Beta virt. eigenvalues --   -0.01898  -0.01891  -0.01212  -0.01074  -0.00620
  Beta virt. eigenvalues --   -0.00422   0.00143   0.00357   0.00785   0.00836

 Mulliken charges and spin densities:
               1          2
     1  Na   0.232753   0.034740
     2  Na   0.209859  -0.025031
     3  Na   0.110734  -0.044106
     4  Na  -0.504590   0.773210
     5  Na   0.278878   0.010306
     6  Na  -0.370360   0.335189
     7  Na   0.042726  -0.084309
 Sum of Mulliken charges =  -0.00000   1.00000

 Dipole moment (field-independent basis, Debye):
    X=             -0.2690    Y=              0.2241    Z=              0.1932  Tot=              0.3999
 Quadrupole moment (field-independent basis, Debye-Ang):
   XX=            -51.3192   YY=            -63.4670   ZZ=            -76.6316
   XY=             -0.3143   XZ=              0.4055   YZ=             -0.3195

 Normal termination of Gaussian 16 at Thu Dec  7 11:03:57 2023.
