 Gaussian 16, Revision B.01,
 Gaussian 16:  ES64L-G16RevB.01 20-Dec-2017

 -------------------------
 #P B3LYP/6-311+g(d) force
 -------------------------

 -----
 DPGEN
 -----
 Symbolic Z-matrix:
 Charge =  0 Multiplicity = 2

                         Standard orientation:
 ---------------------------------------------------------------------
 Center     Atomic      Atomic             Coordinates (Angstroms)
 Number     Number       Type             X           Y           Z
 ---------------------------------------------------------------------
      1         11           0        3.129752   -1.022871   -0.087558
      2         11           0       -2.830577   -1.953631   -1.005534
      3         11           0       -0.767219    3.217468   -0.107113
      4         11           0       -2.944049    1.080880    1.137200
      5         11           0        0.615874   -3.064024    1.032237
      6         11           0        2.752236    1.895143    0.037105
      7         11           0        0.043985   -0.152966   -1.006338
 ---------------------------------------------------------------------

 SCF Done:  E(UB3LYP) =  -1136.12351314     A.U. after   21 cycles

 The electronic state is 2-A.
 Alpha  occ. eigenvalues --  -38.44580 -38.44086 -38.44023 -38.43958 -38.43731
 Alpha  occ. eigenvalues --  -38.43700 -38.43607  -2.20388  -2.19988  -2.19890
 Alpha  occ. eigenvalues --   -2.19867  -2.19550  -2.19522  -2.19431  -1.14061
 Alpha  occ. eigenvalues --   -1.14048  -1.14014  -1.13800  -1.13672  -1.13634
 Alpha  occ. eigenvalues --   -1.13580  -1.13531  -1.13529  -1.13512  -1.13482
 Alpha  occ. eigenvalues --   -1.13471  -1.13213  -1.13197  -1.13195  -1.13186
 Alpha  occ. eigenvalues --   -1.13169  -1.13155  -1.13092  -1.13068  -1.13053
 Alpha  occ. eigenvalues --   -0.17534  -0.13851  -0.12955  -0.09810
 Alpha virt. eigenvalues --   -0.06591  -0.05687  -0.04698  -0.03194  -0.02872
 Alpha virt. eigenvalues --   -0.02234  -0.01519  -0.01410  -0.01232  -0.00809
 Alpha virt. eigenvalues --    0.00045   0.00256   0.00462   0.00593   0.00712

  Beta  occ. eigenvalues --  -38.44550 -38.44077 -38.44002 -38.43949 -38.43688
  Beta  occ. eigenvalues --  -38.43671 -38.43547  -2.20334  -2.19978  -2.19853
  Beta  occ. eigenvalues --   -2.19850  -2.19503  -2.19441  -2.19319  -1.14026
  Beta  occ. eigenvalues --   -1.14013  -1.13957  -1.13776  -1.13671  -1.13609
  Beta  occ. eigenvalues --   -1.13559  -1.13526  -1.13501  -1.13498  -1.13462
  Beta  occ. eigenvalues --   -1.13440  -1.13188  -1.13174  -1.13139  -1.13125
  Beta  occ. eigenvalues --   -1.13122  -1.13081  -1.13011  -1.12994  -1.12981
  Beta  occ. eigenvalues --   -0.17222  -0.13293  -0.12357
  Beta virt. eigenvalues --   -0.06555  -0.06468  -0.05526  -0.04413  -0.02821
  Beta virt. eigenvalues --   -0.02374  -0.01948  -0.01282  -0.01198  -0.00991
  Beta virt. eigenvalues --   -0.00552   0.00283   0.00393   0.00544   0.00682

 Mulliken charges and spin densities:
               1          2
     1  Na   0.407191   0.123561
     2  Na   0.429583   0.185330
     3  Na   0.199734   0.081370
     4  Na  -0.059558   0.114483
     5  Na  -0.112504   0.212015
     6  Na   0.203085   0.085829
     7  Na  -1.067531   0.197412
 Sum of Mulliken charges =  -0.00000   1.00000

 Dipole moment (field-independent basis, Debye):
    X=             -0.0043    Y=              0.2565    Z=              0.4088  Tot=              0.4826
 Quadrupole moment (field-independent basis, Debye-Ang):
   XX=            -59.5819   YY=            -67.6308   ZZ=            -71.3717
   XY=              4.6807   XZ=             -2.3646   YZ=             -1.0516

 Normal termination of Gaussian 16 at Wed Nov 29 16:18:03 2023.
