 Gaussian 16, Revision B.01,
 Gaussian 16:  ES64L-G16RevB.01 20-Dec-2017

 -------------------------
 #P B3LYP/6-311+g(d) force
 -------------------------

 -----
 DPGEN
 -----
 Symbolic Z-matrix:
 Charge =  0 Multiplicity = 2

                         Standard orientation:
 ---------------------------------------------------------------------
 Center     Atomic      Atomic             Coordinates (Angstroms)
 Number     Number       Type             X           Y           Z
 ---------------------------------------------------------------------
      1         11           0       -3.959397   -0.955454    0.352322
      2         11           0       -2.027052    2.215130   -0.055582
      3         11           0        0.900245   -0.524726    1.725142
      4         11           0       -1.638937   -0.863914   -1.415851
      5         11           0        3.998614    0.225758   -0.663324
      6         11           0        1.192950    2.908261    0.078420
      7         11           0        1.533577   -3.005056   -0.021126
 ---------------------------------------------------------------------

 SCF Done:  E(UB3LYP) =  -1136.11750886     A.U. after   20 cycles

 The electronic state is 2-A.
 Alpha  occ. eigenvalues --  -38.44909 -38.44545 -38.44399 -38.43921 -38.43874
 Alpha  occ. eigenvalues --  -38.43737 -38.43225  -2.20776  -2.20393  -2.20237
 Alpha  occ. eigenvalues --   -2.19763  -2.19687  -2.19538  -2.19026  -1.14544
 Alpha  occ. eigenvalues --   -1.14436  -1.14394  -1.14039  -1.14027  -1.14000
 Alpha  occ. eigenvalues --   -1.13923  -1.13893  -1.13870  -1.13467  -1.13430
 Alpha  occ. eigenvalues --   -1.13373  -1.13361  -1.13338  -1.13317  -1.13192
 Alpha  occ. eigenvalues --   -1.13163  -1.13145  -1.12709  -1.12689  -1.12669
 Alpha  occ. eigenvalues --   -0.17235  -0.13949  -0.12241  -0.10086
 Alpha virt. eigenvalues --   -0.06628  -0.05634  -0.04840  -0.03500  -0.02790
 Alpha virt. eigenvalues --   -0.02389  -0.01654  -0.01432  -0.01237  -0.00571
 Alpha virt. eigenvalues --   -0.00302  -0.00023   0.00356   0.00567   0.00692

  Beta  occ. eigenvalues --  -38.44908 -38.44516 -38.44365 -38.43910 -38.43865
  Beta  occ. eigenvalues --  -38.43622 -38.43226  -2.20775  -2.20340  -2.20176
  Beta  occ. eigenvalues --   -2.19744  -2.19673  -2.19325  -2.19031  -1.14538
  Beta  occ. eigenvalues --   -1.14435  -1.14382  -1.14005  -1.13987  -1.13967
  Beta  occ. eigenvalues --   -1.13883  -1.13848  -1.13822  -1.13457  -1.13416
  Beta  occ. eigenvalues --   -1.13353  -1.13344  -1.13331  -1.13300  -1.13047
  Beta  occ. eigenvalues --   -1.13018  -1.13001  -1.12716  -1.12695  -1.12645
  Beta  occ. eigenvalues --   -0.16888  -0.13333  -0.11931
  Beta virt. eigenvalues --   -0.06513  -0.06416  -0.05530  -0.04695  -0.03168
  Beta virt. eigenvalues --   -0.02188  -0.02096  -0.01412  -0.01153  -0.01043
  Beta virt. eigenvalues --   -0.00410  -0.00025   0.00282   0.00549   0.00650

 Mulliken charges and spin densities:
               1          2
     1  Na   0.256342   0.128430
     2  Na  -0.136493  -0.019297
     3  Na   0.248021   0.055436
     4  Na   0.029936   0.075277
     5  Na  -0.241003   0.694288
     6  Na  -0.129630   0.025415
     7  Na  -0.027171   0.040451
 Sum of Mulliken charges =  -0.00000   1.00000

 Dipole moment (field-independent basis, Debye):
    X=             -1.7873    Y=             -0.8547    Z=              0.4335  Tot=              2.0280
 Quadrupole moment (field-independent basis, Debye-Ang):
   XX=            -70.3244   YY=            -68.6446   ZZ=            -65.9274
   XY=             -3.5222   XZ=             -2.7851   YZ=              1.2633

 Normal termination of Gaussian 16 at Sun Dec  3 22:07:42 2023.
