 Gaussian 16, Revision B.01,
 Gaussian 16:  ES64L-G16RevB.01 20-Dec-2017

 -------------------------
 #P B3LYP/6-311+g(d) force
 -------------------------

 -----
 DPGEN
 -----
 Symbolic Z-matrix:
 Charge =  0 Multiplicity = 2

                         Standard orientation:
 ---------------------------------------------------------------------
 Center     Atomic      Atomic             Coordinates (Angstroms)
 Number     Number       Type             X           Y           Z
 ---------------------------------------------------------------------
      1         11           0       -2.421279    1.195530   -0.254265
      2         11           0        0.693756    0.572436   -1.852491
      3         11           0        3.076863   -2.088814   -0.214745
      4         11           0       -0.578147   -2.318801   -0.468860
      5         11           0       -3.920227   -1.187746    1.058262
      6         11           0        2.887558    0.733778    1.810653
      7         11           0        0.261476    3.093617   -0.078553
 ---------------------------------------------------------------------

 SCF Done:  E(UB3LYP) =  -1136.12658642     A.U. after   20 cycles

 The electronic state is 2-A.
 Alpha  occ. eigenvalues --  -38.44600 -38.44187 -38.44170 -38.44118 -38.43760
 Alpha  occ. eigenvalues --  -38.43684 -38.43355  -2.20395  -2.20015  -2.19986
 Alpha  occ. eigenvalues --   -2.19953  -2.19643  -2.19511  -2.19212  -1.14052
 Alpha  occ. eigenvalues --   -1.14022  -1.14016  -1.13729  -1.13688  -1.13671
 Alpha  occ. eigenvalues --   -1.13668  -1.13636  -1.13622  -1.13615  -1.13598
 Alpha  occ. eigenvalues --   -1.13562  -1.13352  -1.13328  -1.13317  -1.13155
 Alpha  occ. eigenvalues --   -1.13146  -1.13113  -1.12889  -1.12872  -1.12841
 Alpha  occ. eigenvalues --   -0.17441  -0.13640  -0.12431  -0.11000
 Alpha virt. eigenvalues --   -0.05900  -0.05356  -0.04924  -0.03725  -0.03113
 Alpha virt. eigenvalues --   -0.02239  -0.01674  -0.01134  -0.00788  -0.00549
 Alpha virt. eigenvalues --   -0.00311   0.00281   0.00432   0.00498   0.00602

  Beta  occ. eigenvalues --  -38.44511 -38.44175 -38.44165 -38.44063 -38.43752
  Beta  occ. eigenvalues --  -38.43645 -38.43356  -2.20227  -2.19967  -2.19949
  Beta  occ. eigenvalues --   -2.19915  -2.19632  -2.19439  -2.19216  -1.13938
  Beta  occ. eigenvalues --   -1.13913  -1.13898  -1.13676  -1.13652  -1.13644
  Beta  occ. eigenvalues --   -1.13624  -1.13622  -1.13606  -1.13588  -1.13549
  Beta  occ. eigenvalues --   -1.13533  -1.13328  -1.13321  -1.13296  -1.13106
  Beta  occ. eigenvalues --   -1.13097  -1.13074  -1.12889  -1.12876  -1.12831
  Beta  occ. eigenvalues --   -0.16858  -0.13028  -0.12249
  Beta virt. eigenvalues --   -0.07491  -0.05697  -0.05081  -0.04556  -0.03345
  Beta virt. eigenvalues --   -0.02518  -0.01857  -0.01475  -0.01029  -0.00655
  Beta virt. eigenvalues --   -0.00399   0.00019   0.00376   0.00595   0.00660

 Mulliken charges and spin densities:
               1          2
     1  Na  -0.494650  -0.037641
     2  Na   0.104763   0.214272
     3  Na   0.219014   0.022855
     4  Na  -0.393882  -0.045569
     5  Na   0.590235   0.254083
     6  Na  -0.172147   0.473926
     7  Na   0.146668   0.118075
 Sum of Mulliken charges =  -0.00000   1.00000

 Dipole moment (field-independent basis, Debye):
    X=              0.3612    Y=             -0.2350    Z=              0.0294  Tot=              0.4320
 Quadrupole moment (field-independent basis, Debye-Ang):
   XX=            -64.8833   YY=            -64.7622   ZZ=            -69.1034
   XY=             -1.2305   XZ=             -2.6956   YZ=              0.5377

 Normal termination of Gaussian 16 at Tue Nov 28 21:03:14 2023.
