 Gaussian 16, Revision B.01,
 Gaussian 16:  ES64L-G16RevB.01 20-Dec-2017

 -------------------------
 #P B3LYP/6-311+g(d) force
 -------------------------

 -----
 DPGEN
 -----
 Symbolic Z-matrix:
 Charge =  0 Multiplicity = 2

                         Standard orientation:
 ---------------------------------------------------------------------
 Center     Atomic      Atomic             Coordinates (Angstroms)
 Number     Number       Type             X           Y           Z
 ---------------------------------------------------------------------
      1         11           0       -3.361878    1.587877   -0.377029
      2         11           0        3.861725   -0.011325   -0.373823
      3         11           0        1.431528    2.429384    0.549242
      4         11           0       -0.184710    0.386723   -1.517139
      5         11           0        1.493659   -2.256306   -0.413998
      6         11           0       -3.207259   -1.661901    0.063487
      7         11           0       -0.033065   -0.474452    2.069260
 ---------------------------------------------------------------------

 SCF Done:  E(UB3LYP) =  -1136.11823020     A.U. after   25 cycles

 The electronic state is 2-A.
 Alpha  occ. eigenvalues --  -38.45355 -38.44900 -38.44857 -38.44492 -38.43704
 Alpha  occ. eigenvalues --  -38.42843 -38.42757  -2.21159  -2.20765  -2.20640
 Alpha  occ. eigenvalues --   -2.20290  -2.19574  -2.18711  -2.18596  -1.14825
 Alpha  occ. eigenvalues --   -1.14813  -1.14783  -1.14475  -1.14429  -1.14382
 Alpha  occ. eigenvalues --   -1.14322  -1.14303  -1.14276  -1.13958  -1.13936
 Alpha  occ. eigenvalues --   -1.13928  -1.13236  -1.13209  -1.13177  -1.12411
 Alpha  occ. eigenvalues --   -1.12378  -1.12339  -1.12279  -1.12255  -1.12231
 Alpha  occ. eigenvalues --   -0.17990  -0.13941  -0.11126  -0.10722
 Alpha virt. eigenvalues --   -0.07259  -0.05686  -0.03676  -0.03347  -0.03023
 Alpha virt. eigenvalues --   -0.02513  -0.02302  -0.01639  -0.00677  -0.00311
 Alpha virt. eigenvalues --   -0.00069   0.00039   0.00486   0.00542   0.00728

  Beta  occ. eigenvalues --  -38.45323 -38.44885 -38.44853 -38.44480 -38.43596
  Beta  occ. eigenvalues --  -38.42839 -38.42741  -2.21102  -2.20737  -2.20634
  Beta  occ. eigenvalues --   -2.20268  -2.19376  -2.18707  -2.18569  -1.14785
  Beta  occ. eigenvalues --   -1.14767  -1.14746  -1.14443  -1.14414  -1.14362
  Beta  occ. eigenvalues --   -1.14321  -1.14292  -1.14264  -1.13939  -1.13921
  Beta  occ. eigenvalues --   -1.13909  -1.13105  -1.13077  -1.13028  -1.12414
  Beta  occ. eigenvalues --   -1.12374  -1.12308  -1.12263  -1.12224  -1.12207
  Beta  occ. eigenvalues --   -0.17370  -0.13573  -0.10905
  Beta virt. eigenvalues --   -0.07149  -0.06904  -0.05564  -0.03445  -0.02911
  Beta virt. eigenvalues --   -0.02774  -0.01914  -0.01574  -0.01453  -0.00596
  Beta virt. eigenvalues --   -0.00119  -0.00053   0.00139   0.00619   0.00635

 Mulliken charges and spin densities:
               1          2
     1  Na   0.101515   0.113898
     2  Na   0.170514   0.090355
     3  Na  -0.188559   0.084917
     4  Na   0.035227   0.047255
     5  Na  -0.105304   0.147684
     6  Na   0.087792   0.026815
     7  Na  -0.101185   0.489076
 Sum of Mulliken charges =  -0.00000   1.00000

 Dipole moment (field-independent basis, Debye):
    X=             -0.4154    Y=             -0.0631    Z=              0.1521  Tot=              0.4469
 Quadrupole moment (field-independent basis, Debye-Ang):
   XX=            -49.4169   YY=            -73.1517   ZZ=            -72.1979
   XY=              1.8054   XZ=             -0.3756   YZ=              0.9621

 Normal termination of Gaussian 16 at Thu Dec  7 08:09:54 2023.
