 Gaussian 16, Revision B.01,
 Gaussian 16:  ES64L-G16RevB.01 20-Dec-2017

 -------------------------
 #P B3LYP/6-311+g(d) force
 -------------------------

 -----
 DPGEN
 -----
 Symbolic Z-matrix:
 Charge =  0 Multiplicity = 2

                         Standard orientation:
 ---------------------------------------------------------------------
 Center     Atomic      Atomic             Coordinates (Angstroms)
 Number     Number       Type             X           Y           Z
 ---------------------------------------------------------------------
      1         11           0       -2.653546    1.084008   -0.357813
      2         11           0       -0.165509    0.170390    2.005094
      3         11           0        1.360455   -2.443444   -0.165184
      4         11           0        0.266035    3.082174   -0.049515
      5         11           0        3.133861    0.371196    0.070442
      6         11           0       -2.015180   -2.112388    0.234279
      7         11           0        0.073883   -0.151936   -1.737303
 ---------------------------------------------------------------------

 SCF Done:  E(UB3LYP) =  -1136.13938397     A.U. after   19 cycles

 The electronic state is 2-A.
 Alpha  occ. eigenvalues --  -38.43909 -38.43618 -38.43586 -38.43577 -38.43344
 Alpha  occ. eigenvalues --  -38.43306 -38.43291  -2.19726  -2.19484  -2.19470
 Alpha  occ. eigenvalues --   -2.19430  -2.19295  -2.19250  -2.19182  -1.13399
 Alpha  occ. eigenvalues --   -1.13397  -1.13366  -1.13189  -1.13162  -1.13137
 Alpha  occ. eigenvalues --   -1.13131  -1.13114  -1.13100  -1.13094  -1.13077
 Alpha  occ. eigenvalues --   -1.13076  -1.13058  -1.12950  -1.12914  -1.12899
 Alpha  occ. eigenvalues --   -1.12875  -1.12855  -1.12842  -1.12831  -1.12808
 Alpha  occ. eigenvalues --   -0.18889  -0.12951  -0.12578  -0.10923
 Alpha virt. eigenvalues --   -0.05467  -0.04953  -0.04791  -0.03191  -0.03013
 Alpha virt. eigenvalues --   -0.02655  -0.01326  -0.01134  -0.00288  -0.00182
 Alpha virt. eigenvalues --    0.00007   0.00374   0.00859   0.00887   0.00942

  Beta  occ. eigenvalues --  -38.43908 -38.43616 -38.43575 -38.43487 -38.43336
  Beta  occ. eigenvalues --  -38.43284 -38.43233  -2.19727  -2.19454  -2.19431
  Beta  occ. eigenvalues --   -2.19318  -2.19242  -2.19172  -2.19161  -1.13400
  Beta  occ. eigenvalues --   -1.13384  -1.13366  -1.13166  -1.13119  -1.13104
  Beta  occ. eigenvalues --   -1.13089  -1.13086  -1.13058  -1.13051  -1.13024
  Beta  occ. eigenvalues --   -1.12989  -1.12982  -1.12891  -1.12878  -1.12861
  Beta  occ. eigenvalues --   -1.12837  -1.12809  -1.12806  -1.12788  -1.12784
  Beta  occ. eigenvalues --   -0.18135  -0.12703  -0.12340
  Beta virt. eigenvalues --   -0.06978  -0.05470  -0.04903  -0.04772  -0.02385
  Beta virt. eigenvalues --   -0.02223  -0.01594  -0.01240  -0.01059  -0.00336
  Beta virt. eigenvalues --   -0.00223   0.00126   0.00390   0.00874   0.00901

 Mulliken charges and spin densities:
               1          2
     1  Na   0.211835  -0.035917
     2  Na  -0.501392   0.763589
     3  Na   0.292514  -0.021360
     4  Na  -0.042310  -0.135211
     5  Na  -0.038607  -0.114917
     6  Na   0.278658   0.029007
     7  Na  -0.200698   0.514808
 Sum of Mulliken charges =  -0.00000   1.00000

 Dipole moment (field-independent basis, Debye):
    X=              0.1602    Y=              0.2232    Z=              0.1335  Tot=              0.3055
 Quadrupole moment (field-independent basis, Debye-Ang):
   XX=            -58.9455   YY=            -61.5060   ZZ=            -73.4278
   XY=              0.8781   XZ=              0.6148   YZ=             -0.7296

 Normal termination of Gaussian 16 at Wed Nov 29 15:36:32 2023.
