 Gaussian 16, Revision B.01,
 Gaussian 16:  ES64L-G16RevB.01 20-Dec-2017

 -------------------------
 #P B3LYP/6-311+g(d) force
 -------------------------

 -----
 DPGEN
 -----
 Symbolic Z-matrix:
 Charge =  0 Multiplicity = 2

                         Standard orientation:
 ---------------------------------------------------------------------
 Center     Atomic      Atomic             Coordinates (Angstroms)
 Number     Number       Type             X           Y           Z
 ---------------------------------------------------------------------
      1         11           0       -0.815938    2.903012    1.132106
      2         11           0       -0.164457   -0.526990    2.516339
      3         11           0        2.208244   -2.190222    0.496892
      4         11           0       -4.808356   -0.438137   -1.806251
      5         11           0        4.243030   -0.609513   -1.332084
      6         11           0        2.125636    2.035289   -1.139732
      7         11           0       -2.788159   -1.173440    0.132731
 ---------------------------------------------------------------------

 SCF Done:  E(UB3LYP) =  -1136.11043101     A.U. after   21 cycles

 The electronic state is 2-A.
 Alpha  occ. eigenvalues --  -38.45481 -38.45034 -38.44808 -38.44202 -38.43963
 Alpha  occ. eigenvalues --  -38.43458 -38.43390  -2.21260  -2.20853  -2.20618
 Alpha  occ. eigenvalues --   -2.19954  -2.19795  -2.19295  -2.19225  -1.14938
 Alpha  occ. eigenvalues --   -1.14906  -1.14867  -1.14520  -1.14507  -1.14494
 Alpha  occ. eigenvalues --   -1.14285  -1.14281  -1.14223  -1.13629  -1.13610
 Alpha  occ. eigenvalues --   -1.13593  -1.13459  -1.13448  -1.13447  -1.13139
 Alpha  occ. eigenvalues --   -1.12931  -1.12928  -1.12876  -1.12862  -1.12778
 Alpha  occ. eigenvalues --   -0.16641  -0.13739  -0.12299  -0.11676
 Alpha virt. eigenvalues --   -0.06240  -0.05750  -0.04886  -0.03592  -0.02963
 Alpha virt. eigenvalues --   -0.02317  -0.01928  -0.01507  -0.01174  -0.00701
 Alpha virt. eigenvalues --   -0.00525  -0.00274  -0.00028   0.00216   0.00733

  Beta  occ. eigenvalues --  -38.45411 -38.44987 -38.44752 -38.44195 -38.43958
  Beta  occ. eigenvalues --  -38.43428 -38.43393  -2.21132  -2.20767  -2.20516
  Beta  occ. eigenvalues --   -2.19942  -2.19787  -2.19250  -2.19223  -1.14852
  Beta  occ. eigenvalues --   -1.14823  -1.14768  -1.14462  -1.14450  -1.14422
  Beta  occ. eigenvalues --   -1.14221  -1.14207  -1.14144  -1.13621  -1.13595
  Beta  occ. eigenvalues --   -1.13586  -1.13452  -1.13443  -1.13432  -1.13108
  Beta  occ. eigenvalues --   -1.12913  -1.12903  -1.12866  -1.12860  -1.12751
  Beta  occ. eigenvalues --   -0.15827  -0.13471  -0.11396
  Beta virt. eigenvalues --   -0.08718  -0.05704  -0.05200  -0.04523  -0.03231
  Beta virt. eigenvalues --   -0.02720  -0.02207  -0.01848  -0.01141  -0.00902
  Beta virt. eigenvalues --   -0.00449  -0.00230  -0.00121   0.00169   0.00290

 Mulliken charges and spin densities:
               1          2
     1  Na   0.035539   0.097191
     2  Na  -0.126683   0.172489
     3  Na   0.070455   0.192941
     4  Na   0.619920   0.016099
     5  Na   0.415641  -0.013965
     6  Na  -0.228106   0.419685
     7  Na  -0.786765   0.115560
 Sum of Mulliken charges =  -0.00000   1.00000

 Dipole moment (field-independent basis, Debye):
    X=              1.4464    Y=              0.6087    Z=             -0.0010  Tot=              1.5692
 Quadrupole moment (field-independent basis, Debye-Ang):
   XX=            -68.1137   YY=            -67.6318   ZZ=            -65.8706
   XY=             -5.8174   XZ=             -1.6687   YZ=             -4.5844

 Normal termination of Gaussian 16 at Mon Dec  4 04:55:13 2023.
