 Gaussian 16, Revision B.01,
 Gaussian 16:  ES64L-G16RevB.01 20-Dec-2017

 -------------------------
 #P B3LYP/6-311+g(d) force
 -------------------------

 -----
 DPGEN
 -----
 Symbolic Z-matrix:
 Charge =  0 Multiplicity = 2

                         Standard orientation:
 ---------------------------------------------------------------------
 Center     Atomic      Atomic             Coordinates (Angstroms)
 Number     Number       Type             X           Y           Z
 ---------------------------------------------------------------------
      1         11           0       -0.565775    3.106981   -1.147098
      2         11           0        3.404892    1.881415    1.089439
      3         11           0        2.959031   -2.097843   -0.753414
      4         11           0       -3.082775   -0.286096    1.966345
      5         11           0       -0.145716    0.177729    0.757499
      6         11           0       -2.279846    0.051735   -1.753129
      7         11           0       -0.289810   -2.833922   -0.159642
 ---------------------------------------------------------------------

 SCF Done:  E(UB3LYP) =  -1136.11733169     A.U. after   24 cycles

 The electronic state is 2-A.
 Alpha  occ. eigenvalues --  -38.44514 -38.44465 -38.44401 -38.44396 -38.44086
 Alpha  occ. eigenvalues --  -38.43516 -38.43429  -2.20343  -2.20305  -2.20153
 Alpha  occ. eigenvalues --   -2.20131  -2.19860  -2.19392  -2.19361  -1.14021
 Alpha  occ. eigenvalues --   -1.13997  -1.13971  -1.13956  -1.13939  -1.13917
 Alpha  occ. eigenvalues --   -1.13835  -1.13810  -1.13801  -1.13795  -1.13771
 Alpha  occ. eigenvalues --   -1.13759  -1.13532  -1.13526  -1.13488  -1.13163
 Alpha  occ. eigenvalues --   -1.13096  -1.13026  -1.13014  -1.12990  -1.12953
 Alpha  occ. eigenvalues --   -0.17436  -0.12770  -0.12100  -0.10935
 Alpha virt. eigenvalues --   -0.06190  -0.05851  -0.04656  -0.03087  -0.02817
 Alpha virt. eigenvalues --   -0.02447  -0.01798  -0.01341  -0.01018  -0.00431
 Alpha virt. eigenvalues --   -0.00381   0.00117   0.00246   0.00372   0.00692

  Beta  occ. eigenvalues --  -38.44431 -38.44423 -38.44405 -38.44355 -38.44072
  Beta  occ. eigenvalues --  -38.43506 -38.43414  -2.20229  -2.20189  -2.20162
  Beta  occ. eigenvalues --   -2.20055  -2.19836  -2.19368  -2.19345  -1.13946
  Beta  occ. eigenvalues --   -1.13909  -1.13898  -1.13863  -1.13859  -1.13842
  Beta  occ. eigenvalues --   -1.13842  -1.13814  -1.13796  -1.13748  -1.13721
  Beta  occ. eigenvalues --   -1.13710  -1.13517  -1.13512  -1.13460  -1.13149
  Beta  occ. eigenvalues --   -1.13052  -1.13004  -1.12998  -1.12983  -1.12942
  Beta  occ. eigenvalues --   -0.16911  -0.12392  -0.11683
  Beta virt. eigenvalues --   -0.07485  -0.05709  -0.05630  -0.04532  -0.02776
  Beta virt. eigenvalues --   -0.02418  -0.01977  -0.01355  -0.01108  -0.00831
  Beta virt. eigenvalues --   -0.00313  -0.00169   0.00260   0.00394   0.00519

 Mulliken charges and spin densities:
               1          2
     1  Na  -0.111166   0.018474
     2  Na   0.523284   0.220389
     3  Na   0.305135  -0.096037
     4  Na   1.055810   0.060394
     5  Na  -2.323278   0.433615
     6  Na   0.246669   0.274993
     7  Na   0.303547   0.088172
 Sum of Mulliken charges =  -0.00000   1.00000

 Dipole moment (field-independent basis, Debye):
    X=             -0.5968    Y=             -0.1142    Z=             -0.5429  Tot=              0.8148
 Quadrupole moment (field-independent basis, Debye-Ang):
   XX=            -56.3391   YY=            -66.5781   ZZ=            -69.9319
   XY=              0.4844   XZ=             -0.6192   YZ=              1.1659

 Normal termination of Gaussian 16 at Tue Dec  5 11:44:12 2023.
