 Gaussian 16, Revision B.01,
 Gaussian 16:  ES64L-G16RevB.01 20-Dec-2017

 -------------------------
 #P B3LYP/6-311+g(d) force
 -------------------------

 -----
 DPGEN
 -----
 Symbolic Z-matrix:
 Charge =  0 Multiplicity = 2

                         Standard orientation:
 ---------------------------------------------------------------------
 Center     Atomic      Atomic             Coordinates (Angstroms)
 Number     Number       Type             X           Y           Z
 ---------------------------------------------------------------------
      1         11           0       -0.179702    0.008622    2.341271
      2         11           0        3.287547    1.142637   -0.266723
      3         11           0        0.144970    3.452255    0.273851
      4         11           0       -3.357354    1.144534   -0.340575
      5         11           0        0.061877   -0.197422   -2.263957
      6         11           0       -2.199266   -2.711776    0.071981
      7         11           0        2.241928   -2.838850    0.184152
 ---------------------------------------------------------------------

 SCF Done:  E(UB3LYP) =  -1136.11386807     A.U. after   19 cycles

 The electronic state is 2-A.
 Alpha  occ. eigenvalues --  -38.44914 -38.44831 -38.44628 -38.44625 -38.44508
 Alpha  occ. eigenvalues --  -38.44502 -38.44099  -2.20675  -2.20595  -2.20353
 Alpha  occ. eigenvalues --   -2.20348  -2.20238  -2.20219  -2.19833  -1.14338
 Alpha  occ. eigenvalues --   -1.14311  -1.14293  -1.14251  -1.14228  -1.14214
 Alpha  occ. eigenvalues --   -1.14035  -1.14030  -1.14013  -1.14005  -1.13998
 Alpha  occ. eigenvalues --   -1.13987  -1.13923  -1.13901  -1.13898  -1.13877
 Alpha  occ. eigenvalues --   -1.13872  -1.13866  -1.13514  -1.13493  -1.13477
 Alpha  occ. eigenvalues --   -0.16549  -0.12181  -0.11823  -0.10862
 Alpha virt. eigenvalues --   -0.06130  -0.05894  -0.05620  -0.03181  -0.03055
 Alpha virt. eigenvalues --   -0.02958  -0.01650  -0.01524  -0.01179  -0.01140
 Alpha virt. eigenvalues --   -0.00196   0.00287   0.00409   0.00563   0.00598

  Beta  occ. eigenvalues --  -38.44833 -38.44739 -38.44630 -38.44622 -38.44507
  Beta  occ. eigenvalues --  -38.44505 -38.44099  -2.20524  -2.20423  -2.20358
  Beta  occ. eigenvalues --   -2.20346  -2.20239  -2.20226  -2.19835  -1.14237
  Beta  occ. eigenvalues --   -1.14207  -1.14183  -1.14136  -1.14110  -1.14089
  Beta  occ. eigenvalues --   -1.14027  -1.14018  -1.14017  -1.14004  -1.14000
  Beta  occ. eigenvalues --   -1.13988  -1.13912  -1.13900  -1.13897  -1.13880
  Beta  occ. eigenvalues --   -1.13877  -1.13870  -1.13503  -1.13495  -1.13480
  Beta  occ. eigenvalues --   -0.15810  -0.12088  -0.11728
  Beta virt. eigenvalues --   -0.07043  -0.06191  -0.05736  -0.05174  -0.02527
  Beta virt. eigenvalues --   -0.02400  -0.02134  -0.01530  -0.01416  -0.01250
  Beta virt. eigenvalues --   -0.01170  -0.00031   0.00435   0.00674   0.00686

 Mulliken charges and spin densities:
               1          2
     1  Na  -0.070918   0.759955
     2  Na   0.019639  -0.071320
     3  Na  -0.027177  -0.068630
     4  Na   0.020859  -0.055064
     5  Na   0.019452   0.672021
     6  Na   0.052740  -0.120064
     7  Na  -0.014595  -0.116897
 Sum of Mulliken charges =  -0.00000   1.00000

 Dipole moment (field-independent basis, Debye):
    X=             -0.1316    Y=             -0.1962    Z=             -0.0701  Tot=              0.2464
 Quadrupole moment (field-independent basis, Debye-Ang):
   XX=            -60.2690   YY=            -62.5246   ZZ=            -73.7167
   XY=             -0.0770   XZ=              0.4647   YZ=             -0.6022

 Normal termination of Gaussian 16 at Mon Dec  4 00:02:27 2023.
