 Gaussian 16, Revision B.01,
 Gaussian 16:  ES64L-G16RevB.01 20-Dec-2017

 -------------------------
 #P B3LYP/6-311+g(d) force
 -------------------------

 -----
 DPGEN
 -----
 Symbolic Z-matrix:
 Charge =  0 Multiplicity = 2

                         Standard orientation:
 ---------------------------------------------------------------------
 Center     Atomic      Atomic             Coordinates (Angstroms)
 Number     Number       Type             X           Y           Z
 ---------------------------------------------------------------------
      1         11           0       -0.334999   -0.029017   -1.511548
      2         11           0        2.033649   -2.357546   -0.714077
      3         11           0       -1.266145   -1.686279    1.350195
      4         11           0        2.140188   -0.485038    1.240494
      5         11           0       -1.266208    2.381950    1.032401
      6         11           0       -3.401091   -0.390492   -0.770574
      7         11           0        2.094607    2.566421   -0.626891
 ---------------------------------------------------------------------

 SCF Done:  E(UB3LYP) =  -1136.12590198     A.U. after   20 cycles

 The electronic state is 2-A.
 Alpha  occ. eigenvalues --  -38.44300 -38.44074 -38.44071 -38.43920 -38.43732
 Alpha  occ. eigenvalues --  -38.43616 -38.43148  -2.20081  -2.19980  -2.19926
 Alpha  occ. eigenvalues --   -2.19851  -2.19600  -2.19406  -2.19112  -1.13984
 Alpha  occ. eigenvalues --   -1.13756  -1.13751  -1.13695  -1.13619  -1.13615
 Alpha  occ. eigenvalues --   -1.13591  -1.13576  -1.13552  -1.13483  -1.13447
 Alpha  occ. eigenvalues --   -1.13360  -1.13287  -1.13257  -1.13206  -1.13083
 Alpha  occ. eigenvalues --   -1.13066  -1.13039  -1.12797  -1.12758  -1.12732
 Alpha  occ. eigenvalues --   -0.18357  -0.13387  -0.12135  -0.10592
 Alpha virt. eigenvalues --   -0.05738  -0.05559  -0.04558  -0.03571  -0.02877
 Alpha virt. eigenvalues --   -0.02257  -0.01642  -0.01135  -0.00748   0.00007
 Alpha virt. eigenvalues --    0.00166   0.00351   0.00541   0.00692   0.00747

  Beta  occ. eigenvalues --  -38.44277 -38.44064 -38.44061 -38.43899 -38.43691
  Beta  occ. eigenvalues --  -38.43614 -38.43085  -2.20038  -2.19967  -2.19905
  Beta  occ. eigenvalues --   -2.19815  -2.19526  -2.19404  -2.18999  -1.13971
  Beta  occ. eigenvalues --   -1.13725  -1.13713  -1.13668  -1.13599  -1.13595
  Beta  occ. eigenvalues --   -1.13572  -1.13556  -1.13534  -1.13457  -1.13406
  Beta  occ. eigenvalues --   -1.13341  -1.13241  -1.13185  -1.13157  -1.13076
  Beta  occ. eigenvalues --   -1.13062  -1.13037  -1.12713  -1.12674  -1.12650
  Beta  occ. eigenvalues --   -0.17652  -0.13184  -0.11959
  Beta virt. eigenvalues --   -0.06812  -0.05601  -0.05422  -0.04345  -0.02958
  Beta virt. eigenvalues --   -0.02350  -0.01565  -0.01371  -0.01089  -0.00457
  Beta virt. eigenvalues --    0.00063   0.00223   0.00401   0.00647   0.00788

 Mulliken charges and spin densities:
               1          2
     1  Na  -0.517730   0.355000
     2  Na   0.183522  -0.080561
     3  Na  -0.450758   0.274032
     4  Na   0.193898   0.359790
     5  Na  -0.300693   0.151446
     6  Na   0.776595   0.032589
     7  Na   0.115166  -0.092296
 Sum of Mulliken charges =  -0.00000   1.00000

 Dipole moment (field-independent basis, Debye):
    X=             -0.4435    Y=              0.0721    Z=              0.0994  Tot=              0.4602
 Quadrupole moment (field-independent basis, Debye-Ang):
   XX=            -55.9661   YY=            -65.9151   ZZ=            -71.7299
   XY=             -0.6668   XZ=             -1.0293   YZ=              1.2530

 Normal termination of Gaussian 16 at Tue Dec  5 20:36:57 2023.
