 Gaussian 16, Revision B.01,
 Gaussian 16:  ES64L-G16RevB.01 20-Dec-2017

 -------------------------
 #P B3LYP/6-311+g(d) force
 -------------------------

 -----
 DPGEN
 -----
 Symbolic Z-matrix:
 Charge =  0 Multiplicity = 2

                         Standard orientation:
 ---------------------------------------------------------------------
 Center     Atomic      Atomic             Coordinates (Angstroms)
 Number     Number       Type             X           Y           Z
 ---------------------------------------------------------------------
      1         11           0       -0.116127    1.421297    1.381010
      2         11           0        1.205714    3.862298   -0.446061
      3         11           0        2.851754    0.573113   -0.525749
      4         11           0        4.028531   -2.461927   -0.233861
      5         11           0        0.937845   -2.070265    0.449227
      6         11           0       -2.814727   -0.712843   -0.331629
      7         11           0       -6.092990   -0.611674   -0.292937
 ---------------------------------------------------------------------

 SCF Done:  E(UB3LYP) =  -1136.12457504     A.U. after   20 cycles

 The electronic state is 2-A.
 Alpha  occ. eigenvalues --  -38.44495 -38.44326 -38.44217 -38.44162 -38.44012
 Alpha  occ. eigenvalues --  -38.43843 -38.43136  -2.20359  -2.20161  -2.20085
 Alpha  occ. eigenvalues --   -2.20016  -2.19816  -2.19646  -2.18921  -1.14069
 Alpha  occ. eigenvalues --   -1.14061  -1.13958  -1.13855  -1.13833  -1.13776
 Alpha  occ. eigenvalues --   -1.13767  -1.13762  -1.13749  -1.13663  -1.13660
 Alpha  occ. eigenvalues --   -1.13598  -1.13478  -1.13474  -1.13437  -1.13282
 Alpha  occ. eigenvalues --   -1.13282  -1.13276  -1.12613  -1.12609  -1.12562
 Alpha  occ. eigenvalues --   -0.17196  -0.13475  -0.12863  -0.10901
 Alpha virt. eigenvalues --   -0.05852  -0.05554  -0.05042  -0.03580  -0.02505
 Alpha virt. eigenvalues --   -0.02302  -0.02043  -0.01556  -0.01331  -0.00808
 Alpha virt. eigenvalues --   -0.00536   0.00041   0.00249   0.00463   0.00585

  Beta  occ. eigenvalues --  -38.44473 -38.44301 -38.44181 -38.44143 -38.43993
  Beta  occ. eigenvalues --  -38.43758 -38.43144  -2.20320  -2.20117  -2.20020
  Beta  occ. eigenvalues --   -2.19981  -2.19781  -2.19489  -2.18944  -1.14036
  Beta  occ. eigenvalues --   -1.14030  -1.13926  -1.13827  -1.13805  -1.13730
  Beta  occ. eigenvalues --   -1.13726  -1.13722  -1.13702  -1.13637  -1.13630
  Beta  occ. eigenvalues --   -1.13557  -1.13453  -1.13449  -1.13415  -1.13175
  Beta  occ. eigenvalues --   -1.13175  -1.13174  -1.12636  -1.12632  -1.12520
  Beta  occ. eigenvalues --   -0.16633  -0.13140  -0.12221
  Beta virt. eigenvalues --   -0.07569  -0.05710  -0.05192  -0.04510  -0.03313
  Beta virt. eigenvalues --   -0.02290  -0.02173  -0.01875  -0.01129  -0.01024
  Beta virt. eigenvalues --   -0.00478  -0.00227   0.00182   0.00405   0.00564

 Mulliken charges and spin densities:
               1          2
     1  Na  -0.065114   0.151129
     2  Na   0.465627   0.032952
     3  Na  -1.048071   0.234241
     4  Na   1.401583   0.185362
     5  Na  -0.470053  -0.031678
     6  Na  -0.324699   0.083266
     7  Na   0.040728   0.344728
 Sum of Mulliken charges =  -0.00000   1.00000

 Dipole moment (field-independent basis, Debye):
    X=              1.8309    Y=              0.1791    Z=              0.1652  Tot=              1.8470
 Quadrupole moment (field-independent basis, Debye-Ang):
   XX=            -65.3956   YY=            -61.0490   ZZ=            -69.9192
   XY=             -6.4537   XZ=             -1.7421   YZ=             -1.0249

 Normal termination of Gaussian 16 at Tue Nov 28 23:48:19 2023.
