 Gaussian 16, Revision B.01,
 Gaussian 16:  ES64L-G16RevB.01 20-Dec-2017

 -------------------------
 #P B3LYP/6-311+g(d) force
 -------------------------

 -----
 DPGEN
 -----
 Symbolic Z-matrix:
 Charge =  0 Multiplicity = 2

                         Standard orientation:
 ---------------------------------------------------------------------
 Center     Atomic      Atomic             Coordinates (Angstroms)
 Number     Number       Type             X           Y           Z
 ---------------------------------------------------------------------
      1         11           0        3.116607   -0.804484   -1.278566
      2         11           0       -2.593880   -2.487018   -0.824814
      3         11           0        1.251613   -1.468641    2.025710
      4         11           0       -0.221328   -0.351117   -1.376459
      5         11           0       -1.522094    2.988280   -0.625358
      6         11           0       -1.589220    0.299635    1.647980
      7         11           0        1.558302    1.823344    0.431506
 ---------------------------------------------------------------------

 SCF Done:  E(UB3LYP) =  -1136.13220589     A.U. after   20 cycles

 The electronic state is 2-A.
 Alpha  occ. eigenvalues --  -38.44487 -38.43838 -38.43798 -38.43533 -38.43492
 Alpha  occ. eigenvalues --  -38.43253 -38.43149  -2.20324  -2.19726  -2.19623
 Alpha  occ. eigenvalues --   -2.19418  -2.19287  -2.19125  -2.19075  -1.14011
 Alpha  occ. eigenvalues --   -1.13957  -1.13928  -1.13439  -1.13382  -1.13322
 Alpha  occ. eigenvalues --   -1.13306  -1.13276  -1.13246  -1.13135  -1.13106
 Alpha  occ. eigenvalues --   -1.13008  -1.12986  -1.12936  -1.12915  -1.12823
 Alpha  occ. eigenvalues --   -1.12766  -1.12742  -1.12736  -1.12727  -1.12706
 Alpha  occ. eigenvalues --   -0.18354  -0.12617  -0.11971  -0.11727
 Alpha virt. eigenvalues --   -0.05215  -0.05081  -0.04794  -0.03252  -0.02927
 Alpha virt. eigenvalues --   -0.02795  -0.01390  -0.01197  -0.00848   0.00203
 Alpha virt. eigenvalues --    0.00271   0.00323   0.00505   0.00704   0.00764

  Beta  occ. eigenvalues --  -38.44411 -38.43798 -38.43774 -38.43527 -38.43475
  Beta  occ. eigenvalues --  -38.43250 -38.43103  -2.20187  -2.19656  -2.19580
  Beta  occ. eigenvalues --   -2.19410  -2.19257  -2.19072  -2.19042  -1.13905
  Beta  occ. eigenvalues --   -1.13864  -1.13831  -1.13392  -1.13303  -1.13281
  Beta  occ. eigenvalues --   -1.13266  -1.13247  -1.13221  -1.13131  -1.13068
  Beta  occ. eigenvalues --   -1.13010  -1.12954  -1.12916  -1.12897  -1.12761
  Beta  occ. eigenvalues --   -1.12740  -1.12731  -1.12711  -1.12688  -1.12677
  Beta  occ. eigenvalues --   -0.17589  -0.12427  -0.11679
  Beta virt. eigenvalues --   -0.07759  -0.05059  -0.04924  -0.04384  -0.02799
  Beta virt. eigenvalues --   -0.02471  -0.02005  -0.01298  -0.01109  -0.00412
  Beta virt. eigenvalues --    0.00226   0.00329   0.00408   0.00632   0.00768

 Mulliken charges and spin densities:
               1          2
     1  Na   0.397559   0.003530
     2  Na  -0.086605   0.035418
     3  Na  -0.203782   0.260485
     4  Na  -0.574931   0.423162
     5  Na   0.136288  -0.120851
     6  Na   0.317677   0.220825
     7  Na   0.013795   0.177430
 Sum of Mulliken charges =  -0.00000   1.00000

 Dipole moment (field-independent basis, Debye):
    X=              0.3708    Y=             -0.1436    Z=              0.2652  Tot=              0.4780
 Quadrupole moment (field-independent basis, Debye-Ang):
   XX=            -60.8479   YY=            -65.7111   ZZ=            -66.5985
   XY=             -2.1645   XZ=             -0.2384   YZ=             -1.0122

 Normal termination of Gaussian 16 at Wed Nov 29 15:56:28 2023.
