 Gaussian 16, Revision B.01,
 Gaussian 16:  ES64L-G16RevB.01 20-Dec-2017

 -------------------------
 #P B3LYP/6-311+g(d) force
 -------------------------

 -----
 DPGEN
 -----
 Symbolic Z-matrix:
 Charge =  0 Multiplicity = 2

                         Standard orientation:
 ---------------------------------------------------------------------
 Center     Atomic      Atomic             Coordinates (Angstroms)
 Number     Number       Type             X           Y           Z
 ---------------------------------------------------------------------
      1         11           0       -0.258996    0.043253    1.897772
      2         11           0       -1.653132    2.418225   -0.127257
      3         11           0        2.575922    1.949735   -0.134087
      4         11           0       -0.515855   -2.663111   -0.324040
      5         11           0        2.569901   -1.304245    0.430695
      6         11           0       -3.005495   -0.331646    0.044351
      7         11           0        0.287655   -0.112212   -1.787433
 ---------------------------------------------------------------------

 SCF Done:  E(UB3LYP) =  -1136.13565798     A.U. after   19 cycles

 The electronic state is 2-A.
 Alpha  occ. eigenvalues --  -38.44019 -38.43826 -38.43804 -38.43583 -38.43515
 Alpha  occ. eigenvalues --  -38.43368 -38.42757  -2.19919  -2.19693  -2.19643
 Alpha  occ. eigenvalues --   -2.19521  -2.19382  -2.19344  -2.18677  -1.13620
 Alpha  occ. eigenvalues --   -1.13589  -1.13557  -1.13395  -1.13368  -1.13350
 Alpha  occ. eigenvalues --   -1.13313  -1.13286  -1.13264  -1.13198  -1.13152
 Alpha  occ. eigenvalues --   -1.13144  -1.13055  -1.13043  -1.13034  -1.13016
 Alpha  occ. eigenvalues --   -1.12977  -1.12955  -1.12372  -1.12322  -1.12302
 Alpha  occ. eigenvalues --   -0.19024  -0.13487  -0.12194  -0.10960
 Alpha virt. eigenvalues --   -0.05632  -0.05302  -0.04253  -0.03506  -0.02788
 Alpha virt. eigenvalues --   -0.02618  -0.01536  -0.01026  -0.00262  -0.00127
 Alpha virt. eigenvalues --    0.00028   0.00371   0.00795   0.00897   0.00936

  Beta  occ. eigenvalues --  -38.44014 -38.43826 -38.43792 -38.43511 -38.43500
  Beta  occ. eigenvalues --  -38.43290 -38.42747  -2.19913  -2.19675  -2.19644
  Beta  occ. eigenvalues --   -2.19378  -2.19371  -2.19202  -2.18662  -1.13620
  Beta  occ. eigenvalues --   -1.13577  -1.13536  -1.13388  -1.13346  -1.13323
  Beta  occ. eigenvalues --   -1.13296  -1.13287  -1.13262  -1.13106  -1.13065
  Beta  occ. eigenvalues --   -1.13041  -1.13035  -1.13009  -1.12996  -1.12948
  Beta  occ. eigenvalues --   -1.12877  -1.12854  -1.12355  -1.12299  -1.12281
  Beta  occ. eigenvalues --   -0.18272  -0.13251  -0.11936
  Beta virt. eigenvalues --   -0.07023  -0.05582  -0.05275  -0.04248  -0.02682
  Beta virt. eigenvalues --   -0.02024  -0.01570  -0.01438  -0.00942  -0.00313
  Beta virt. eigenvalues --   -0.00123   0.00128   0.00392   0.00871   0.00889

 Mulliken charges and spin densities:
               1          2
     1  Na  -0.308217   0.582215
     2  Na  -0.028680  -0.129449
     3  Na  -0.073808  -0.133510
     4  Na   0.298063  -0.000798
     5  Na   0.184457   0.045522
     6  Na   0.262565   0.008507
     7  Na  -0.334380   0.627513
 Sum of Mulliken charges =  -0.00000   1.00000

 Dipole moment (field-independent basis, Debye):
    X=              0.0665    Y=              0.1988    Z=              0.1237  Tot=              0.2434
 Quadrupole moment (field-independent basis, Debye-Ang):
   XX=            -56.3834   YY=            -64.6513   ZZ=            -73.3075
   XY=              0.6100   XZ=              1.0759   YZ=             -0.7575

 Normal termination of Gaussian 16 at Thu Dec  7 03:49:16 2023.
