 Gaussian 16, Revision B.01,
 Gaussian 16:  ES64L-G16RevB.01 20-Dec-2017

 -------------------------
 #P B3LYP/6-311+g(d) force
 -------------------------

 -----
 DPGEN
 -----
 Symbolic Z-matrix:
 Charge =  0 Multiplicity = 2

                         Standard orientation:
 ---------------------------------------------------------------------
 Center     Atomic      Atomic             Coordinates (Angstroms)
 Number     Number       Type             X           Y           Z
 ---------------------------------------------------------------------
      1         11           0        0.959330   -0.725589   -2.139465
      2         11           0       -1.995319    1.185180   -0.604711
      3         11           0       -0.342413   -1.594334    0.933914
      4         11           0        0.741280    1.146544    2.279399
      5         11           0        0.938349    2.334212   -0.713663
      6         11           0       -3.425792   -1.038878    0.094407
      7         11           0        3.124565   -1.307135    0.150119
 ---------------------------------------------------------------------

 SCF Done:  E(UB3LYP) =  -1136.12199336     A.U. after   21 cycles

 The electronic state is 2-A.
 Alpha  occ. eigenvalues --  -38.44445 -38.44401 -38.44092 -38.43987 -38.43600
 Alpha  occ. eigenvalues --  -38.43501 -38.42626  -2.20342  -2.20281  -2.19912
 Alpha  occ. eigenvalues --   -2.19890  -2.19572  -2.19435  -2.18537  -1.14007
 Alpha  occ. eigenvalues --   -1.13993  -1.13965  -1.13961  -1.13915  -1.13878
 Alpha  occ. eigenvalues --   -1.13805  -1.13585  -1.13558  -1.13556  -1.13525
 Alpha  occ. eigenvalues --   -1.13496  -1.13233  -1.13196  -1.13137  -1.13131
 Alpha  occ. eigenvalues --   -1.13120  -1.13022  -1.12222  -1.12191  -1.12172
 Alpha  occ. eigenvalues --   -0.18905  -0.13453  -0.12229  -0.11640
 Alpha virt. eigenvalues --   -0.06044  -0.04573  -0.04041  -0.03690  -0.03379
 Alpha virt. eigenvalues --   -0.03047  -0.01826  -0.00724  -0.00442   0.00221
 Alpha virt. eigenvalues --    0.00275   0.00406   0.00473   0.00904   0.00930

  Beta  occ. eigenvalues --  -38.44373 -38.44315 -38.44093 -38.43990 -38.43587
  Beta  occ. eigenvalues --  -38.43467 -38.42613  -2.20211  -2.20122  -2.19917
  Beta  occ. eigenvalues --   -2.19897  -2.19551  -2.19378  -2.18518  -1.13926
  Beta  occ. eigenvalues --   -1.13903  -1.13860  -1.13849  -1.13811  -1.13806
  Beta  occ. eigenvalues --   -1.13765  -1.13573  -1.13562  -1.13553  -1.13525
  Beta  occ. eigenvalues --   -1.13497  -1.13218  -1.13163  -1.13129  -1.13092
  Beta  occ. eigenvalues --   -1.13050  -1.12988  -1.12205  -1.12168  -1.12147
  Beta  occ. eigenvalues --   -0.18080  -0.13273  -0.11485
  Beta virt. eigenvalues --   -0.08104  -0.05879  -0.04421  -0.03286  -0.03187
  Beta virt. eigenvalues --   -0.03044  -0.02206  -0.01778  -0.00669  -0.00176
  Beta virt. eigenvalues --    0.00242   0.00328   0.00495   0.00647   0.00951

 Mulliken charges and spin densities:
               1          2
     1  Na  -0.425917   0.592943
     2  Na  -0.153184   0.092577
     3  Na   0.193714   0.214433
     4  Na  -0.362601   0.458574
     5  Na   0.353084  -0.072297
     6  Na   0.090779  -0.149699
     7  Na   0.304125  -0.136532
 Sum of Mulliken charges =  -0.00000   1.00000

 Dipole moment (field-independent basis, Debye):
    X=              0.4392    Y=             -0.2124    Z=              0.1345  Tot=              0.5061
 Quadrupole moment (field-independent basis, Debye-Ang):
   XX=            -57.2841   YY=            -75.1376   ZZ=            -64.4016
   XY=              1.1372   XZ=              1.4777   YZ=             -0.2670

 Normal termination of Gaussian 16 at Tue Dec  5 23:10:32 2023.
