 Gaussian 16, Revision B.01,
 Gaussian 16:  ES64L-G16RevB.01 20-Dec-2017

 -------------------------
 #P B3LYP/6-311+g(d) force
 -------------------------

 -----
 DPGEN
 -----
 Symbolic Z-matrix:
 Charge =  0 Multiplicity = 2

                         Standard orientation:
 ---------------------------------------------------------------------
 Center     Atomic      Atomic             Coordinates (Angstroms)
 Number     Number       Type             X           Y           Z
 ---------------------------------------------------------------------
      1         11           0        0.209714   -2.492713    0.253507
      2         11           0       -0.838450   -0.134142    2.248878
      3         11           0       -2.865508   -0.756746   -0.724819
      4         11           0       -1.535220    2.054675   -0.093794
      5         11           0        1.810234    1.980141    0.249177
      6         11           0        3.151096   -0.695417   -0.229627
      7         11           0        0.068134    0.044202   -1.703321
 ---------------------------------------------------------------------

 SCF Done:  E(UB3LYP) =  -1136.13061615     A.U. after   20 cycles

 The electronic state is 2-A.
 Alpha  occ. eigenvalues --  -38.44224 -38.44145 -38.44066 -38.43618 -38.43162
 Alpha  occ. eigenvalues --  -38.42924 -38.42758  -2.20128  -2.20044  -2.19931
 Alpha  occ. eigenvalues --   -2.19670  -2.19074  -2.18895  -2.18656  -1.13786
 Alpha  occ. eigenvalues --   -1.13771  -1.13754  -1.13740  -1.13697  -1.13659
 Alpha  occ. eigenvalues --   -1.13640  -1.13589  -1.13561  -1.13375  -1.13320
 Alpha  occ. eigenvalues --   -1.13288  -1.12753  -1.12729  -1.12717  -1.12587
 Alpha  occ. eigenvalues --   -1.12551  -1.12506  -1.12353  -1.12336  -1.12260
 Alpha  occ. eigenvalues --   -0.19331  -0.13535  -0.12063  -0.11641
 Alpha virt. eigenvalues --   -0.05810  -0.04704  -0.03925  -0.03564  -0.03190
 Alpha virt. eigenvalues --   -0.02967  -0.01630  -0.00683  -0.00189   0.00134
 Alpha virt. eigenvalues --    0.00236   0.00369   0.00839   0.00953   0.00969

  Beta  occ. eigenvalues --  -38.44123 -38.44121 -38.44067 -38.43555 -38.43158
  Beta  occ. eigenvalues --  -38.42912 -38.42749  -2.20009  -2.19938  -2.19934
  Beta  occ. eigenvalues --   -2.19556  -2.19070  -2.18880  -2.18644  -1.13724
  Beta  occ. eigenvalues --   -1.13672  -1.13659  -1.13644  -1.13637  -1.13624
  Beta  occ. eigenvalues --   -1.13597  -1.13580  -1.13565  -1.13304  -1.13243
  Beta  occ. eigenvalues --   -1.13195  -1.12750  -1.12731  -1.12694  -1.12577
  Beta  occ. eigenvalues --   -1.12513  -1.12486  -1.12349  -1.12293  -1.12258
  Beta  occ. eigenvalues --   -0.18567  -0.13298  -0.11805
  Beta virt. eigenvalues --   -0.07570  -0.05743  -0.04685  -0.03863  -0.02895
  Beta virt. eigenvalues --   -0.02180  -0.02018  -0.01518  -0.00642  -0.00008
  Beta virt. eigenvalues --    0.00137   0.00207   0.00402   0.00926   0.00968

 Mulliken charges and spin densities:
               1          2
     1  Na   0.196222   0.073658
     2  Na  -0.679164   0.486489
     3  Na   0.503258   0.032785
     4  Na   0.356808   0.165233
     5  Na   0.123561   0.052882
     6  Na   0.136194  -0.053456
     7  Na  -0.636879   0.242409
 Sum of Mulliken charges =  -0.00000   1.00000

 Dipole moment (field-independent basis, Debye):
    X=             -0.0948    Y=             -0.2179    Z=              0.2253  Tot=              0.3275
 Quadrupole moment (field-independent basis, Debye-Ang):
   XX=            -55.4287   YY=            -70.7921   ZZ=            -69.1811
   XY=              0.0721   XZ=              1.1652   YZ=              1.0341

 Normal termination of Gaussian 16 at Fri Dec  8 07:04:51 2023.
