 Gaussian 16, Revision B.01,
 Gaussian 16:  ES64L-G16RevB.01 20-Dec-2017

 -------------------------
 #P B3LYP/6-311+g(d) force
 -------------------------

 -----
 DPGEN
 -----
 Symbolic Z-matrix:
 Charge =  0 Multiplicity = 2

                         Standard orientation:
 ---------------------------------------------------------------------
 Center     Atomic      Atomic             Coordinates (Angstroms)
 Number     Number       Type             X           Y           Z
 ---------------------------------------------------------------------
      1         11           0        0.301835    2.646615   -0.551611
      2         11           0       -5.989186   -0.061908   -0.258248
      3         11           0       -2.692996    0.920393    1.146489
      4         11           0       -2.812431   -2.066739   -0.248894
      5         11           0        0.437007   -0.716274    0.088757
      6         11           0        3.847926   -0.260636   -0.714950
      7         11           0        6.907845   -0.461452    0.538457
 ---------------------------------------------------------------------

 SCF Done:  E(UB3LYP) =  -1136.11564692     A.U. after   22 cycles

 The electronic state is 2-A.
 Alpha  occ. eigenvalues --  -38.45217 -38.44536 -38.44451 -38.44413 -38.44059
 Alpha  occ. eigenvalues --  -38.43788 -38.43632  -2.21034  -2.20310  -2.20297
 Alpha  occ. eigenvalues --   -2.20208  -2.19809  -2.19650  -2.19425  -1.14742
 Alpha  occ. eigenvalues --   -1.14728  -1.14623  -1.13977  -1.13976  -1.13972
 Alpha  occ. eigenvalues --   -1.13966  -1.13925  -1.13884  -1.13870  -1.13848
 Alpha  occ. eigenvalues --   -1.13838  -1.13479  -1.13478  -1.13463  -1.13338
 Alpha  occ. eigenvalues --   -1.13316  -1.13279  -1.13109  -1.13097  -1.13031
 Alpha  occ. eigenvalues --   -0.16979  -0.13749  -0.11796  -0.11110
 Alpha virt. eigenvalues --   -0.07194  -0.05765  -0.04061  -0.03818  -0.03001
 Alpha virt. eigenvalues --   -0.02478  -0.01916  -0.01825  -0.01390  -0.00735
 Alpha virt. eigenvalues --   -0.00385  -0.00147  -0.00087   0.00270   0.00536

  Beta  occ. eigenvalues --  -38.45200 -38.44499 -38.44391 -38.44361 -38.44077
  Beta  occ. eigenvalues --  -38.43756 -38.43625  -2.21005  -2.20240  -2.20191
  Beta  occ. eigenvalues --   -2.20110  -2.19844  -2.19596  -2.19412  -1.14713
  Beta  occ. eigenvalues --   -1.14694  -1.14600  -1.13928  -1.13920  -1.13908
  Beta  occ. eigenvalues --   -1.13898  -1.13879  -1.13803  -1.13786  -1.13779
  Beta  occ. eigenvalues --   -1.13773  -1.13502  -1.13502  -1.13484  -1.13306
  Beta  occ. eigenvalues --   -1.13277  -1.13210  -1.13096  -1.13085  -1.13034
  Beta  occ. eigenvalues --   -0.16235  -0.13652  -0.11605
  Beta virt. eigenvalues --   -0.07346  -0.07011  -0.05228  -0.03820  -0.03578
  Beta virt. eigenvalues --   -0.02425  -0.02264  -0.01804  -0.01571  -0.01014
  Beta virt. eigenvalues --   -0.00637  -0.00257   0.00091   0.00194   0.00372

 Mulliken charges and spin densities:
               1          2
     1  Na   0.210843   0.270326
     2  Na   0.166827   0.204995
     3  Na   0.011738   0.192049
     4  Na   0.183812   0.052377
     5  Na  -0.682644   0.378851
     6  Na  -0.106170  -0.010028
     7  Na   0.215593  -0.088572
 Sum of Mulliken charges =  -0.00000   1.00000

 Dipole moment (field-independent basis, Debye):
    X=             -1.6813    Y=              0.4151    Z=             -0.0369  Tot=              1.7322
 Quadrupole moment (field-independent basis, Debye-Ang):
   XX=            -58.1027   YY=            -68.8842   ZZ=            -69.1053
   XY=              2.3462   XZ=              4.4864   YZ=              0.1752

 Normal termination of Gaussian 16 at Tue Nov 28 21:58:48 2023.
