 Gaussian 16, Revision B.01,
 Gaussian 16:  ES64L-G16RevB.01 20-Dec-2017

 -------------------------
 #P B3LYP/6-311+g(d) force
 -------------------------

 -----
 DPGEN
 -----
 Symbolic Z-matrix:
 Charge =  0 Multiplicity = 2

                         Standard orientation:
 ---------------------------------------------------------------------
 Center     Atomic      Atomic             Coordinates (Angstroms)
 Number     Number       Type             X           Y           Z
 ---------------------------------------------------------------------
      1         11           0       -0.606100   -0.347722    1.559298
      2         11           0        1.733364   -2.251502    0.267993
      3         11           0       -4.148721    0.104057   -0.070641
      4         11           0        1.938858    2.088836    0.193179
      5         11           0       -1.474962    2.693518   -0.480963
      6         11           0       -1.782895   -2.282075   -0.894786
      7         11           0        4.340455   -0.005113   -0.574080
 ---------------------------------------------------------------------

 SCF Done:  E(UB3LYP) =  -1136.12708107     A.U. after   19 cycles

 The electronic state is 2-A.
 Alpha  occ. eigenvalues --  -38.44403 -38.44329 -38.44136 -38.43839 -38.43807
 Alpha  occ. eigenvalues --  -38.43729 -38.43704  -2.20218  -2.20217  -2.19955
 Alpha  occ. eigenvalues --   -2.19634  -2.19625  -2.19567  -2.19522  -1.13939
 Alpha  occ. eigenvalues --   -1.13904  -1.13896  -1.13854  -1.13847  -1.13811
 Alpha  occ. eigenvalues --   -1.13618  -1.13589  -1.13577  -1.13331  -1.13311
 Alpha  occ. eigenvalues --   -1.13309  -1.13286  -1.13268  -1.13256  -1.13249
 Alpha  occ. eigenvalues --   -1.13215  -1.13202  -1.13194  -1.13178  -1.13120
 Alpha  occ. eigenvalues --   -0.17375  -0.14061  -0.12273  -0.10624
 Alpha virt. eigenvalues --   -0.06270  -0.05983  -0.04121  -0.03726  -0.02741
 Alpha virt. eigenvalues --   -0.02551  -0.01828  -0.01409  -0.00903  -0.00559
 Alpha virt. eigenvalues --   -0.00382   0.00061   0.00485   0.00662   0.00699

  Beta  occ. eigenvalues --  -38.44401 -38.44279 -38.44071 -38.43835 -38.43796
  Beta  occ. eigenvalues --  -38.43697 -38.43653  -2.20217  -2.20127  -2.19834
  Beta  occ. eigenvalues --   -2.19620  -2.19619  -2.19514  -2.19425  -1.13923
  Beta  occ. eigenvalues --   -1.13905  -1.13841  -1.13815  -1.13801  -1.13747
  Beta  occ. eigenvalues --   -1.13533  -1.13508  -1.13499  -1.13315  -1.13310
  Beta  occ. eigenvalues --   -1.13300  -1.13279  -1.13251  -1.13223  -1.13214
  Beta  occ. eigenvalues --   -1.13197  -1.13161  -1.13109  -1.13093  -1.13061
  Beta  occ. eigenvalues --   -0.16826  -0.13262  -0.12002
  Beta virt. eigenvalues --   -0.07245  -0.06082  -0.05889  -0.03699  -0.03279
  Beta virt. eigenvalues --   -0.02354  -0.02139  -0.01577  -0.01114  -0.00782
  Beta virt. eigenvalues --   -0.00375  -0.00134   0.00247   0.00591   0.00747

 Mulliken charges and spin densities:
               1          2
     1  Na   0.256826   0.301724
     2  Na  -0.290652  -0.065694
     3  Na   0.104677   0.406600
     4  Na  -0.449375  -0.047557
     5  Na  -0.041405  -0.076571
     6  Na  -0.045448  -0.012826
     7  Na   0.465376   0.494325
 Sum of Mulliken charges =  -0.00000   1.00000

 Dipole moment (field-independent basis, Debye):
    X=             -0.6497    Y=             -0.4153    Z=             -0.0669  Tot=              0.7740
 Quadrupole moment (field-independent basis, Debye-Ang):
   XX=            -66.2170   YY=            -68.2749   ZZ=            -67.1895
   XY=             -2.3523   XZ=             -0.3563   YZ=              0.9850

 Normal termination of Gaussian 16 at Tue Nov 28 21:58:08 2023.
