 Gaussian 16, Revision B.01,
 Gaussian 16:  ES64L-G16RevB.01 20-Dec-2017

 -------------------------
 #P B3LYP/6-311+g(d) force
 -------------------------

 -----
 DPGEN
 -----
 Symbolic Z-matrix:
 Charge =  0 Multiplicity = 2

                         Standard orientation:
 ---------------------------------------------------------------------
 Center     Atomic      Atomic             Coordinates (Angstroms)
 Number     Number       Type             X           Y           Z
 ---------------------------------------------------------------------
      1         11           0        3.391534   -2.095394    0.144831
      2         11           0        0.413945   -0.343051   -1.338067
      3         11           0       -3.595081   -1.899975   -0.440108
      4         11           0       -0.129162    2.532077    0.079487
      5         11           0        3.318999    1.446929   -0.127900
      6         11           0       -3.227753    1.307665    0.260107
      7         11           0       -0.172481   -0.948250    1.421651
 ---------------------------------------------------------------------

 SCF Done:  E(UB3LYP) =  -1136.11626587     A.U. after   25 cycles

 The electronic state is 2-A.
 Alpha  occ. eigenvalues --  -38.45250 -38.44446 -38.44343 -38.44185 -38.43901
 Alpha  occ. eigenvalues --  -38.43865 -38.42489  -2.21179  -2.20227  -2.20180
 Alpha  occ. eigenvalues --   -2.20086  -2.19728  -2.19666  -2.18373  -1.14969
 Alpha  occ. eigenvalues --   -1.14801  -1.14771  -1.13913  -1.13880  -1.13865
 Alpha  occ. eigenvalues --   -1.13858  -1.13829  -1.13826  -1.13805  -1.13696
 Alpha  occ. eigenvalues --   -1.13657  -1.13410  -1.13370  -1.13344  -1.13335
 Alpha  occ. eigenvalues --   -1.13320  -1.13288  -1.12064  -1.12036  -1.12011
 Alpha  occ. eigenvalues --   -0.18125  -0.14112  -0.11631  -0.10019
 Alpha virt. eigenvalues --   -0.06936  -0.06293  -0.04008  -0.03228  -0.03013
 Alpha virt. eigenvalues --   -0.02503  -0.01951  -0.01293  -0.01088  -0.00385
 Alpha virt. eigenvalues --   -0.00220  -0.00004   0.00434   0.00498   0.00619

  Beta  occ. eigenvalues --  -38.45229 -38.44432 -38.44318 -38.44120 -38.43848
  Beta  occ. eigenvalues --  -38.43825 -38.42487  -2.21146  -2.20203  -2.20137
  Beta  occ. eigenvalues --   -2.19967  -2.19630  -2.19594  -2.18371  -1.14915
  Beta  occ. eigenvalues --   -1.14781  -1.14758  -1.13900  -1.13859  -1.13837
  Beta  occ. eigenvalues --   -1.13825  -1.13805  -1.13769  -1.13717  -1.13616
  Beta  occ. eigenvalues --   -1.13582  -1.13343  -1.13306  -1.13287  -1.13266
  Beta  occ. eigenvalues --   -1.13265  -1.13230  -1.12062  -1.12025  -1.12012
  Beta  occ. eigenvalues --   -0.17601  -0.13423  -0.11444
  Beta virt. eigenvalues --   -0.06808  -0.06576  -0.06053  -0.03810  -0.02829
  Beta virt. eigenvalues --   -0.02616  -0.01970  -0.01869  -0.01039  -0.00870
  Beta virt. eigenvalues --   -0.00145  -0.00099   0.00230   0.00535   0.00600

 Mulliken charges and spin densities:
               1          2
     1  Na   0.375664   0.064373
     2  Na  -0.530311   0.105277
     3  Na   0.253195   0.277426
     4  Na  -0.171345  -0.195692
     5  Na   0.116841   0.403966
     6  Na   0.140325   0.298277
     7  Na  -0.184369   0.046374
 Sum of Mulliken charges =  -0.00000   1.00000

 Dipole moment (field-independent basis, Debye):
    X=              0.3816    Y=             -0.7195    Z=              0.3090  Tot=              0.8710
 Quadrupole moment (field-independent basis, Debye-Ang):
   XX=            -73.0560   YY=            -68.8203   ZZ=            -64.0830
   XY=             -4.2744   XZ=              0.8981   YZ=              2.4151

 Normal termination of Gaussian 16 at Thu Dec  7 11:34:23 2023.
