 Gaussian 16, Revision B.01,
 Gaussian 16:  ES64L-G16RevB.01 20-Dec-2017

 -------------------------
 #P B3LYP/6-311+g(d) force
 -------------------------

 -----
 DPGEN
 -----
 Symbolic Z-matrix:
 Charge =  0 Multiplicity = 2

                         Standard orientation:
 ---------------------------------------------------------------------
 Center     Atomic      Atomic             Coordinates (Angstroms)
 Number     Number       Type             X           Y           Z
 ---------------------------------------------------------------------
      1         11           0       -0.279405   -0.168827   -1.682640
      2         11           0        2.540136    1.409763    0.306642
      3         11           0       -0.814727   -2.517391    0.362688
      4         11           0       -3.389042   -0.106559   -0.002102
      5         11           0       -0.686640    2.659104   -0.456715
      6         11           0       -0.001309    0.325593    1.955490
      7         11           0        2.630986   -1.601684   -0.483363
 ---------------------------------------------------------------------

 SCF Done:  E(UB3LYP) =  -1136.13480344     A.U. after   20 cycles

 The electronic state is 2-A.
 Alpha  occ. eigenvalues --  -38.44689 -38.43671 -38.43607 -38.43568 -38.43307
 Alpha  occ. eigenvalues --  -38.43164 -38.43070  -2.20485  -2.19567  -2.19507
 Alpha  occ. eigenvalues --   -2.19466  -2.19305  -2.19052  -2.18951  -1.14163
 Alpha  occ. eigenvalues --   -1.14133  -1.14128  -1.13308  -1.13276  -1.13208
 Alpha  occ. eigenvalues --   -1.13173  -1.13132  -1.13130  -1.13110  -1.13098
 Alpha  occ. eigenvalues --   -1.13087  -1.13006  -1.12999  -1.12905  -1.12736
 Alpha  occ. eigenvalues --   -1.12721  -1.12651  -1.12639  -1.12606  -1.12557
 Alpha  occ. eigenvalues --   -0.18938  -0.13237  -0.12252  -0.10986
 Alpha virt. eigenvalues --   -0.06082  -0.04743  -0.04278  -0.03342  -0.02917
 Alpha virt. eigenvalues --   -0.02609  -0.01898  -0.00886  -0.00209  -0.00062
 Alpha virt. eigenvalues --    0.00036   0.00345   0.00820   0.00877   0.00911

  Beta  occ. eigenvalues --  -38.44689 -38.43663 -38.43598 -38.43479 -38.43239
  Beta  occ. eigenvalues --  -38.43152 -38.43058  -2.20488  -2.19556  -2.19452
  Beta  occ. eigenvalues --   -2.19343  -2.19181  -2.19035  -2.18932  -1.14153
  Beta  occ. eigenvalues --   -1.14134  -1.14129  -1.13299  -1.13241  -1.13189
  Beta  occ. eigenvalues --   -1.13107  -1.13087  -1.13080  -1.13070  -1.13017
  Beta  occ. eigenvalues --   -1.13001  -1.12923  -1.12919  -1.12816  -1.12719
  Beta  occ. eigenvalues --   -1.12680  -1.12641  -1.12615  -1.12576  -1.12543
  Beta  occ. eigenvalues --   -0.18200  -0.13005  -0.11973
  Beta virt. eigenvalues --   -0.07049  -0.06045  -0.04714  -0.04246  -0.02574
  Beta virt. eigenvalues --   -0.02139  -0.01823  -0.01536  -0.00824  -0.00185
  Beta virt. eigenvalues --   -0.00085   0.00118   0.00365   0.00861   0.00904

 Mulliken charges and spin densities:
               1          2
     1  Na  -0.250585   0.541408
     2  Na   0.310888   0.061475
     3  Na   0.116737   0.050071
     4  Na   0.026419  -0.118092
     5  Na   0.056864  -0.085208
     6  Na  -0.288806   0.574787
     7  Na   0.028482  -0.024442
 Sum of Mulliken charges =  -0.00000   1.00000

 Dipole moment (field-independent basis, Debye):
    X=             -0.5585    Y=              0.0120    Z=              0.1199  Tot=              0.5713
 Quadrupole moment (field-independent basis, Debye-Ang):
   XX=            -53.2124   YY=            -66.7586   ZZ=            -73.2042
   XY=             -0.3376   XZ=             -0.6818   YZ=             -0.5539

 Normal termination of Gaussian 16 at Fri Dec  8 01:04:23 2023.
