 Gaussian 16, Revision B.01,
 Gaussian 16:  ES64L-G16RevB.01 20-Dec-2017

 -------------------------
 #P B3LYP/6-311+g(d) force
 -------------------------

 -----
 DPGEN
 -----
 Symbolic Z-matrix:
 Charge =  0 Multiplicity = 2

                         Standard orientation:
 ---------------------------------------------------------------------
 Center     Atomic      Atomic             Coordinates (Angstroms)
 Number     Number       Type             X           Y           Z
 ---------------------------------------------------------------------
      1         11           0        1.543816    0.298928    1.744560
      2         11           0       -1.985876    0.635332    1.705695
      3         11           0        2.109695    2.779170   -0.720759
      4         11           0        0.097636    0.410724   -1.142492
      5         11           0        2.505840   -2.341624   -0.584520
      6         11           0       -0.794271   -2.025275    0.113843
      7         11           0       -3.476839    0.242744   -1.116326
 ---------------------------------------------------------------------

 SCF Done:  E(UB3LYP) =  -1136.12688686     A.U. after   20 cycles

 The electronic state is 2-A.
 Alpha  occ. eigenvalues --  -38.44383 -38.43965 -38.43737 -38.43614 -38.43392
 Alpha  occ. eigenvalues --  -38.43219 -38.42986  -2.20223  -2.19877  -2.19641
 Alpha  occ. eigenvalues --   -2.19428  -2.19352  -2.19268  -2.18814  -1.13897
 Alpha  occ. eigenvalues --   -1.13877  -1.13853  -1.13568  -1.13519  -1.13488
 Alpha  occ. eigenvalues --   -1.13364  -1.13289  -1.13264  -1.13237  -1.13099
 Alpha  occ. eigenvalues --   -1.13084  -1.13069  -1.13018  -1.12937  -1.12902
 Alpha  occ. eigenvalues --   -1.12877  -1.12848  -1.12490  -1.12455  -1.12439
 Alpha  occ. eigenvalues --   -0.18790  -0.13429  -0.11620  -0.11271
 Alpha virt. eigenvalues --   -0.05972  -0.04801  -0.04676  -0.03148  -0.02582
 Alpha virt. eigenvalues --   -0.02419  -0.01931  -0.01016  -0.00822   0.00189
 Alpha virt. eigenvalues --    0.00235   0.00422   0.00520   0.00686   0.00874

  Beta  occ. eigenvalues --  -38.44359 -38.43909 -38.43691 -38.43611 -38.43378
  Beta  occ. eigenvalues --  -38.43180 -38.42973  -2.20178  -2.19778  -2.19559
  Beta  occ. eigenvalues --   -2.19422  -2.19333  -2.19200  -2.18791  -1.13866
  Beta  occ. eigenvalues --   -1.13841  -1.13823  -1.13496  -1.13453  -1.13402
  Beta  occ. eigenvalues --   -1.13312  -1.13238  -1.13208  -1.13182  -1.13088
  Beta  occ. eigenvalues --   -1.13080  -1.13065  -1.12963  -1.12891  -1.12876
  Beta  occ. eigenvalues --   -1.12835  -1.12805  -1.12464  -1.12440  -1.12426
  Beta  occ. eigenvalues --   -0.18009  -0.13273  -0.11407
  Beta virt. eigenvalues --   -0.07279  -0.05827  -0.04594  -0.04218  -0.02872
  Beta virt. eigenvalues --   -0.02052  -0.01910  -0.01565  -0.00903  -0.00405
  Beta virt. eigenvalues --    0.00212   0.00283   0.00516   0.00700   0.00750

 Mulliken charges and spin densities:
               1          2
     1  Na   0.407980   0.088159
     2  Na  -0.148342   0.267995
     3  Na  -0.264417   0.098001
     4  Na  -0.668533   0.221827
     5  Na  -0.109763  -0.010022
     6  Na   0.150633   0.246676
     7  Na   0.632442   0.087364
 Sum of Mulliken charges =  -0.00000   1.00000

 Dipole moment (field-independent basis, Debye):
    X=             -0.5461    Y=             -0.1556    Z=              0.1324  Tot=              0.5831
 Quadrupole moment (field-independent basis, Debye-Ang):
   XX=            -52.7694   YY=            -70.9547   ZZ=            -67.9264
   XY=             -2.2517   XZ=              1.5643   YZ=              0.2193

 Normal termination of Gaussian 16 at Tue Dec  5 20:26:43 2023.
