 Gaussian 16, Revision B.01,
 Gaussian 16:  ES64L-G16RevB.01 20-Dec-2017

 -------------------------
 #P B3LYP/6-311+g(d) force
 -------------------------

 -----
 DPGEN
 -----
 Symbolic Z-matrix:
 Charge =  0 Multiplicity = 2

                         Standard orientation:
 ---------------------------------------------------------------------
 Center     Atomic      Atomic             Coordinates (Angstroms)
 Number     Number       Type             X           Y           Z
 ---------------------------------------------------------------------
      1         11           0        1.355105   -1.281800    2.030463
      2         11           0        2.259594    2.111853   -0.525737
      3         11           0       -0.372600   -0.213727   -0.890659
      4         11           0       -1.342059    2.713692   -0.570674
      5         11           0       -2.788886   -2.148281   -1.325982
      6         11           0        2.840481   -1.621473   -0.804684
      7         11           0       -1.951636    0.439735    2.087273
 ---------------------------------------------------------------------

 SCF Done:  E(UB3LYP) =  -1136.12412149     A.U. after   22 cycles

 The electronic state is 2-A.
 Alpha  occ. eigenvalues --  -38.44304 -38.44293 -38.44116 -38.44038 -38.43845
 Alpha  occ. eigenvalues --  -38.43402 -38.42739  -2.20129  -2.20100  -2.19956
 Alpha  occ. eigenvalues --   -2.19866  -2.19631  -2.19245  -2.18771  -1.13803
 Alpha  occ. eigenvalues --   -1.13783  -1.13764  -1.13754  -1.13727  -1.13708
 Alpha  occ. eigenvalues --   -1.13641  -1.13621  -1.13596  -1.13538  -1.13496
 Alpha  occ. eigenvalues --   -1.13483  -1.13320  -1.13304  -1.13248  -1.12972
 Alpha  occ. eigenvalues --   -1.12902  -1.12851  -1.12476  -1.12428  -1.12398
 Alpha  occ. eigenvalues --   -0.17849  -0.13002  -0.11787  -0.11515
 Alpha virt. eigenvalues --   -0.05697  -0.05179  -0.04848  -0.03282  -0.02823
 Alpha virt. eigenvalues --   -0.02609  -0.01563  -0.01253  -0.00686  -0.00081
 Alpha virt. eigenvalues --    0.00045   0.00264   0.00496   0.00608   0.00765

  Beta  occ. eigenvalues --  -38.44245 -38.44223 -38.44067 -38.44036 -38.43850
  Beta  occ. eigenvalues --  -38.43398 -38.42711  -2.20020  -2.19973  -2.19869
  Beta  occ. eigenvalues --   -2.19862  -2.19643  -2.19240  -2.18724  -1.13728
  Beta  occ. eigenvalues --   -1.13689  -1.13685  -1.13675  -1.13641  -1.13625
  Beta  occ. eigenvalues --   -1.13601  -1.13557  -1.13545  -1.13529  -1.13493
  Beta  occ. eigenvalues --   -1.13452  -1.13322  -1.13312  -1.13258  -1.12967
  Beta  occ. eigenvalues --   -1.12888  -1.12853  -1.12409  -1.12402  -1.12367
  Beta  occ. eigenvalues --   -0.17252  -0.12796  -0.11416
  Beta virt. eigenvalues --   -0.07683  -0.05503  -0.04906  -0.04440  -0.03014
  Beta virt. eigenvalues --   -0.02367  -0.01946  -0.01385  -0.01076  -0.00370
  Beta virt. eigenvalues --    0.00035   0.00164   0.00320   0.00619   0.00688

 Mulliken charges and spin densities:
               1          2
     1  Na  -0.377391   0.298188
     2  Na   1.153090  -0.064182
     3  Na  -1.877508  -0.185058
     4  Na   0.007422   0.148236
     5  Na   0.179719   0.425215
     6  Na   0.713193   0.072837
     7  Na   0.201475   0.304765
 Sum of Mulliken charges =  -0.00000   1.00000

 Dipole moment (field-independent basis, Debye):
    X=              0.2477    Y=             -0.1285    Z=              0.3779  Tot=              0.4697
 Quadrupole moment (field-independent basis, Debye-Ang):
   XX=            -57.9193   YY=            -67.3673   ZZ=            -67.7579
   XY=             -1.5227   XZ=             -1.4838   YZ=              2.8189

 Normal termination of Gaussian 16 at Tue Nov 28 22:40:44 2023.
