 Gaussian 16, Revision B.01,
 Gaussian 16:  ES64L-G16RevB.01 20-Dec-2017

 -------------------------
 #P B3LYP/6-311+g(d) force
 -------------------------

 -----
 DPGEN
 -----
 Symbolic Z-matrix:
 Charge =  0 Multiplicity = 2

                         Standard orientation:
 ---------------------------------------------------------------------
 Center     Atomic      Atomic             Coordinates (Angstroms)
 Number     Number       Type             X           Y           Z
 ---------------------------------------------------------------------
      1         11           0       -2.821641    1.209010   -0.128003
      2         11           0        0.236178    2.949592    0.121499
      3         11           0        3.075628    0.668674    0.132476
      4         11           0        0.350756    0.081775   -1.826124
      5         11           0       -2.254378   -1.881875    0.002407
      6         11           0        1.346625   -2.665006   -0.206933
      7         11           0        0.066831   -0.362169    1.904679
 ---------------------------------------------------------------------

 SCF Done:  E(UB3LYP) =  -1136.14000369     A.U. after   19 cycles

 The electronic state is 2-A.
 Alpha  occ. eigenvalues --  -38.44141 -38.43650 -38.43568 -38.43554 -38.43444
 Alpha  occ. eigenvalues --  -38.43408 -38.43320  -2.19965  -2.19498  -2.19440
 Alpha  occ. eigenvalues --   -2.19407  -2.19328  -2.19274  -2.19255  -1.13644
 Alpha  occ. eigenvalues --   -1.13630  -1.13597  -1.13240  -1.13160  -1.13150
 Alpha  occ. eigenvalues --   -1.13126  -1.13107  -1.13090  -1.13083  -1.13050
 Alpha  occ. eigenvalues --   -1.13026  -1.12994  -1.12965  -1.12954  -1.12944
 Alpha  occ. eigenvalues --   -1.12933  -1.12919  -1.12906  -1.12877  -1.12869
 Alpha  occ. eigenvalues --   -0.18674  -0.13019  -0.12524  -0.10720
 Alpha virt. eigenvalues --   -0.05659  -0.05096  -0.04790  -0.03187  -0.02949
 Alpha virt. eigenvalues --   -0.02533  -0.01465  -0.01133  -0.00372  -0.00337
 Alpha virt. eigenvalues --   -0.00011   0.00377   0.00826   0.00882   0.00916

  Beta  occ. eigenvalues --  -38.44136 -38.43648 -38.43564 -38.43546 -38.43440
  Beta  occ. eigenvalues --  -38.43325 -38.43243  -2.19960  -2.19497  -2.19435
  Beta  occ. eigenvalues --   -2.19397  -2.19271  -2.19175  -2.19114  -1.13633
  Beta  occ. eigenvalues --   -1.13611  -1.13597  -1.13242  -1.13152  -1.13138
  Beta  occ. eigenvalues --   -1.13113  -1.13087  -1.13068  -1.13051  -1.13049
  Beta  occ. eigenvalues --   -1.13023  -1.12955  -1.12925  -1.12907  -1.12893
  Beta  occ. eigenvalues --   -1.12839  -1.12836  -1.12829  -1.12778  -1.12771
  Beta  occ. eigenvalues --   -0.17936  -0.12792  -0.12288
  Beta virt. eigenvalues --   -0.06816  -0.05649  -0.05082  -0.04728  -0.02392
  Beta virt. eigenvalues --   -0.02169  -0.01482  -0.01382  -0.01062  -0.00427
  Beta virt. eigenvalues --   -0.00398   0.00126   0.00397   0.00848   0.00888

 Mulliken charges and spin densities:
               1          2
     1  Na  -0.039964  -0.076686
     2  Na   0.005303  -0.089561
     3  Na   0.155903  -0.114961
     4  Na  -0.257329   0.706690
     5  Na   0.238895  -0.048471
     6  Na   0.232088  -0.127348
     7  Na  -0.334896   0.750339
 Sum of Mulliken charges =  -0.00000   1.00000

 Dipole moment (field-independent basis, Debye):
    X=              0.3311    Y=             -0.0183    Z=              0.0386  Tot=              0.3338
 Quadrupole moment (field-independent basis, Debye-Ang):
   XX=            -57.4370   YY=            -61.9071   ZZ=            -74.3658
   XY=             -0.0864   XZ=              0.6975   YZ=              0.9654

 Normal termination of Gaussian 16 at Fri Dec  8 00:14:18 2023.
