 Gaussian 16, Revision B.01,
 Gaussian 16:  ES64L-G16RevB.01 20-Dec-2017

 -------------------------
 #P B3LYP/6-311+g(d) force
 -------------------------

 -----
 DPGEN
 -----
 Symbolic Z-matrix:
 Charge =  0 Multiplicity = 2

                         Standard orientation:
 ---------------------------------------------------------------------
 Center     Atomic      Atomic             Coordinates (Angstroms)
 Number     Number       Type             X           Y           Z
 ---------------------------------------------------------------------
      1         11           0        1.338155   -2.498199   -0.164194
      2         11           0        0.453832   -0.294176    1.984603
      3         11           0        0.033403    2.956139    0.204227
      4         11           0       -2.800331    1.182114   -0.121533
      5         11           0        3.201538    0.845905   -0.285338
      6         11           0       -2.013991   -1.950648    0.254547
      7         11           0       -0.212605   -0.241133   -1.872313
 ---------------------------------------------------------------------

 SCF Done:  E(UB3LYP) =  -1136.13723179     A.U. after   19 cycles

 The electronic state is 2-A.
 Alpha  occ. eigenvalues --  -38.44214 -38.43644 -38.43559 -38.43553 -38.43506
 Alpha  occ. eigenvalues --  -38.43497 -38.43394  -2.19990  -2.19554  -2.19502
 Alpha  occ. eigenvalues --   -2.19395  -2.19370  -2.19365  -2.19306  -1.13666
 Alpha  occ. eigenvalues --   -1.13639  -1.13636  -1.13263  -1.13213  -1.13200
 Alpha  occ. eigenvalues --   -1.13171  -1.13168  -1.13130  -1.13075  -1.13061
 Alpha  occ. eigenvalues --   -1.13051  -1.13047  -1.13037  -1.13023  -1.13014
 Alpha  occ. eigenvalues --   -1.13010  -1.12973  -1.12962  -1.12955  -1.12910
 Alpha  occ. eigenvalues --   -0.18719  -0.12876  -0.12557  -0.10965
 Alpha virt. eigenvalues --   -0.05681  -0.04970  -0.04738  -0.03243  -0.03047
 Alpha virt. eigenvalues --   -0.02717  -0.01454  -0.01028  -0.00316  -0.00224
 Alpha virt. eigenvalues --   -0.00031   0.00370   0.00818   0.00893   0.00927

  Beta  occ. eigenvalues --  -38.44212 -38.43559 -38.43551 -38.43504 -38.43486
  Beta  occ. eigenvalues --  -38.43480 -38.43384  -2.19988  -2.19399  -2.19381
  Beta  occ. eigenvalues --   -2.19368  -2.19364  -2.19357  -2.19292  -1.13652
  Beta  occ. eigenvalues --   -1.13640  -1.13636  -1.13188  -1.13128  -1.13110
  Beta  occ. eigenvalues --   -1.13092  -1.13080  -1.13059  -1.13041  -1.13034
  Beta  occ. eigenvalues --   -1.13021  -1.13014  -1.13012  -1.13000  -1.12999
  Beta  occ. eigenvalues --   -1.12974  -1.12971  -1.12946  -1.12916  -1.12901
  Beta  occ. eigenvalues --   -0.17958  -0.12652  -0.12330
  Beta virt. eigenvalues --   -0.07031  -0.05660  -0.04940  -0.04658  -0.02479
  Beta virt. eigenvalues --   -0.02265  -0.01672  -0.01369  -0.00963  -0.00346
  Beta virt. eigenvalues --   -0.00282   0.00109   0.00395   0.00855   0.00900

 Mulliken charges and spin densities:
               1          2
     1  Na   0.391753  -0.073626
     2  Na  -0.395663   0.657690
     3  Na  -0.051146  -0.102150
     4  Na   0.018039  -0.051570
     5  Na  -0.065151  -0.114115
     6  Na   0.401800   0.029613
     7  Na  -0.299631   0.654158
 Sum of Mulliken charges =  -0.00000   1.00000

 Dipole moment (field-independent basis, Debye):
    X=              0.3451    Y=              0.0323    Z=              0.0029  Tot=              0.3466
 Quadrupole moment (field-independent basis, Debye-Ang):
   XX=            -58.1693   YY=            -63.5324   ZZ=            -72.8428
   XY=              0.3229   XZ=             -1.3814   YZ=              0.0040

 Normal termination of Gaussian 16 at Tue Dec  5 22:53:11 2023.
