 Gaussian 16, Revision B.01,
 Gaussian 16:  ES64L-G16RevB.01 20-Dec-2017

 -------------------------
 #P B3LYP/6-311+g(d) force
 -------------------------

 -----
 DPGEN
 -----
 Symbolic Z-matrix:
 Charge =  0 Multiplicity = 2

                         Standard orientation:
 ---------------------------------------------------------------------
 Center     Atomic      Atomic             Coordinates (Angstroms)
 Number     Number       Type             X           Y           Z
 ---------------------------------------------------------------------
      1         11           0        0.652787    2.709869   -0.135643
      2         11           0       -2.645043    1.274018    0.044672
      3         11           0       -2.101248   -1.718100   -0.144961
      4         11           0       -0.065697   -0.200499    1.831399
      5         11           0        1.330845   -2.457862   -0.138191
      6         11           0       -0.033255   -0.043243   -1.511811
      7         11           0        2.861610    0.435816    0.054535
 ---------------------------------------------------------------------

 SCF Done:  E(UB3LYP) =  -1136.13263233     A.U. after   19 cycles

 The electronic state is 2-A.
 Alpha  occ. eigenvalues --  -38.43734 -38.43697 -38.43505 -38.43192 -38.43181
 Alpha  occ. eigenvalues --  -38.43151 -38.42886  -2.19653  -2.19610  -2.19486
 Alpha  occ. eigenvalues --   -2.19166  -2.19127  -2.19087  -2.19024  -1.13377
 Alpha  occ. eigenvalues --   -1.13345  -1.13314  -1.13307  -1.13265  -1.13256
 Alpha  occ. eigenvalues --   -1.13216  -1.13146  -1.13067  -1.12896  -1.12856
 Alpha  occ. eigenvalues --   -1.12818  -1.12806  -1.12782  -1.12747  -1.12740
 Alpha  occ. eigenvalues --   -1.12728  -1.12713  -1.12673  -1.12627  -1.12598
 Alpha  occ. eigenvalues --   -0.19782  -0.13507  -0.12723  -0.10837
 Alpha virt. eigenvalues --   -0.05396  -0.04986  -0.04558  -0.03239  -0.02763
 Alpha virt. eigenvalues --   -0.02286  -0.01378  -0.00999  -0.00037   0.00044
 Alpha virt. eigenvalues --    0.00046   0.00370   0.00875   0.00962   0.00977

  Beta  occ. eigenvalues --  -38.43729 -38.43691 -38.43493 -38.43183 -38.43176
  Beta  occ. eigenvalues --  -38.43062 -38.42815  -2.19647  -2.19603  -2.19470
  Beta  occ. eigenvalues --   -2.19116  -2.19081  -2.19002  -2.18897  -1.13374
  Beta  occ. eigenvalues --   -1.13343  -1.13313  -1.13274  -1.13255  -1.13227
  Beta  occ. eigenvalues --   -1.13200  -1.13094  -1.13063  -1.12861  -1.12811
  Beta  occ. eigenvalues --   -1.12765  -1.12745  -1.12734  -1.12719  -1.12706
  Beta  occ. eigenvalues --   -1.12659  -1.12640  -1.12588  -1.12540  -1.12517
  Beta  occ. eigenvalues --   -0.19033  -0.13213  -0.12436
  Beta virt. eigenvalues --   -0.06844  -0.05388  -0.04983  -0.04558  -0.02365
  Beta virt. eigenvalues --   -0.01961  -0.01299  -0.01217  -0.00941  -0.00078
  Beta virt. eigenvalues --   -0.00013   0.00165   0.00394   0.00920   0.00961

 Mulliken charges and spin densities:
               1          2
     1  Na   0.165076  -0.062463
     2  Na   0.169751  -0.028137
     3  Na   0.510456  -0.002597
     4  Na  -0.635957   0.709459
     5  Na   0.395856  -0.036870
     6  Na  -0.776452   0.437475
     7  Na   0.171270  -0.016867
 Sum of Mulliken charges =  -0.00000   1.00000

 Dipole moment (field-independent basis, Debye):
    X=              0.0157    Y=              0.0760    Z=              0.2201  Tot=              0.2334
 Quadrupole moment (field-independent basis, Debye-Ang):
   XX=            -56.6450   YY=            -62.2684   ZZ=            -74.3883
   XY=             -0.7556   XZ=              0.0961   YZ=              0.4054

 Normal termination of Gaussian 16 at Tue Nov 28 20:25:49 2023.
