 Gaussian 16, Revision B.01,
 Gaussian 16:  ES64L-G16RevB.01 20-Dec-2017

 -------------------------
 #P B3LYP/6-311+g(d) force
 -------------------------

 -----
 DPGEN
 -----
 Symbolic Z-matrix:
 Charge =  0 Multiplicity = 2

                         Standard orientation:
 ---------------------------------------------------------------------
 Center     Atomic      Atomic             Coordinates (Angstroms)
 Number     Number       Type             X           Y           Z
 ---------------------------------------------------------------------
      1         11           0        0.310608    3.379695    0.785992
      2         11           0        3.770871   -1.648736    0.295010
      3         11           0        3.552611    2.377701   -0.806612
      4         11           0       -2.685399    2.188197   -0.182230
      5         11           0        1.471963   -3.492389   -0.364157
      6         11           0       -4.648121   -0.961959   -0.708650
      7         11           0       -1.772533   -1.842510    0.980647
 ---------------------------------------------------------------------

 SCF Done:  E(UB3LYP) =  -1136.10887982     A.U. after   20 cycles

 The electronic state is 2-A.
 Alpha  occ. eigenvalues --  -38.45983 -38.45236 -38.44635 -38.44448 -38.43928
 Alpha  occ. eigenvalues --  -38.43859 -38.43509  -2.21721  -2.21013  -2.20431
 Alpha  occ. eigenvalues --   -2.20248  -2.19697  -2.19682  -2.19288  -1.15415
 Alpha  occ. eigenvalues --   -1.15403  -1.15330  -1.14714  -1.14681  -1.14651
 Alpha  occ. eigenvalues --   -1.14108  -1.14103  -1.14038  -1.13904  -1.13903
 Alpha  occ. eigenvalues --   -1.13866  -1.13356  -1.13355  -1.13336  -1.13326
 Alpha  occ. eigenvalues --   -1.13319  -1.13316  -1.12968  -1.12963  -1.12923
 Alpha  occ. eigenvalues --   -0.15709  -0.13863  -0.12998  -0.10507
 Alpha virt. eigenvalues --   -0.07432  -0.05297  -0.04604  -0.03450  -0.03033
 Alpha virt. eigenvalues --   -0.02626  -0.02211  -0.02027  -0.01180  -0.00974
 Alpha virt. eigenvalues --   -0.00497  -0.00030   0.00138   0.00374   0.00460

  Beta  occ. eigenvalues --  -38.45981 -38.45239 -38.44584 -38.44402 -38.43853
  Beta  occ. eigenvalues --  -38.43836 -38.43499  -2.21720  -2.21022  -2.20342
  Beta  occ. eigenvalues --   -2.20163  -2.19639  -2.19557  -2.19276  -1.15415
  Beta  occ. eigenvalues --   -1.15402  -1.15315  -1.14717  -1.14689  -1.14641
  Beta  occ. eigenvalues --   -1.14050  -1.14043  -1.13956  -1.13845  -1.13842
  Beta  occ. eigenvalues --   -1.13812  -1.13332  -1.13295  -1.13285  -1.13260
  Beta  occ. eigenvalues --   -1.13242  -1.13227  -1.12965  -1.12956  -1.12883
  Beta  occ. eigenvalues --   -0.15294  -0.13406  -0.12272
  Beta virt. eigenvalues --   -0.07442  -0.07187  -0.05029  -0.04192  -0.03136
  Beta virt. eigenvalues --   -0.02814  -0.02343  -0.01964  -0.01759  -0.01057
  Beta virt. eigenvalues --   -0.00607  -0.00304   0.00172   0.00260   0.00461

 Mulliken charges and spin densities:
               1          2
     1  Na  -0.083003  -0.080062
     2  Na  -0.092537   0.035093
     3  Na   0.058382   0.410023
     4  Na  -0.122733   0.275694
     5  Na   0.160408   0.095165
     6  Na   0.419250   0.247733
     7  Na  -0.339767   0.016354
 Sum of Mulliken charges =  -0.00000   1.00000

 Dipole moment (field-independent basis, Debye):
    X=             -1.2909    Y=             -1.3063    Z=              0.0011  Tot=              1.8366
 Quadrupole moment (field-independent basis, Debye-Ang):
   XX=            -60.0257   YY=            -72.2381   ZZ=            -69.2664
   XY=             -2.4556   XZ=              3.8755   YZ=             -0.5653

 Normal termination of Gaussian 16 at Sun Dec  3 16:54:07 2023.
