 Gaussian 16, Revision B.01,
 Gaussian 16:  ES64L-G16RevB.01 20-Dec-2017

 -------------------------
 #P B3LYP/6-311+g(d) force
 -------------------------

 -----
 DPGEN
 -----
 Symbolic Z-matrix:
 Charge =  0 Multiplicity = 2

                         Standard orientation:
 ---------------------------------------------------------------------
 Center     Atomic      Atomic             Coordinates (Angstroms)
 Number     Number       Type             X           Y           Z
 ---------------------------------------------------------------------
      1         11           0       -1.308171   -2.039195   -1.055558
      2         11           0       -1.080964    2.395661   -0.760877
      3         11           0        0.914886    0.049243   -1.586994
      4         11           0       -3.343643   -0.027721    0.404986
      5         11           0       -0.524680   -0.003242    2.314474
      6         11           0        2.477767   -2.212025    0.367828
      7         11           0        2.864805    1.837279    0.316141
 ---------------------------------------------------------------------

 SCF Done:  E(UB3LYP) =  -1136.12620215     A.U. after   20 cycles

 The electronic state is 2-A.
 Alpha  occ. eigenvalues --  -38.44764 -38.44385 -38.44213 -38.43976 -38.43493
 Alpha  occ. eigenvalues --  -38.43442 -38.43231  -2.20582  -2.20165  -2.20064
 Alpha  occ. eigenvalues --   -2.19755  -2.19328  -2.19316  -2.19221  -1.14233
 Alpha  occ. eigenvalues --   -1.14214  -1.14208  -1.13855  -1.13823  -1.13792
 Alpha  occ. eigenvalues --   -1.13742  -1.13726  -1.13704  -1.13435  -1.13417
 Alpha  occ. eigenvalues --   -1.13392  -1.13088  -1.13065  -1.12982  -1.12959
 Alpha  occ. eigenvalues --   -1.12938  -1.12926  -1.12872  -1.12860  -1.12808
 Alpha  occ. eigenvalues --   -0.18222  -0.13253  -0.11582  -0.11380
 Alpha virt. eigenvalues --   -0.06045  -0.05548  -0.04119  -0.03489  -0.02993
 Alpha virt. eigenvalues --   -0.02866  -0.01767  -0.01141  -0.00538  -0.00039
 Alpha virt. eigenvalues --    0.00068   0.00337   0.00507   0.00655   0.00776

  Beta  occ. eigenvalues --  -38.44671 -38.44385 -38.44210 -38.43974 -38.43474
  Beta  occ. eigenvalues --  -38.43412 -38.43180  -2.20408  -2.20167  -2.20061
  Beta  occ. eigenvalues --   -2.19754  -2.19295  -2.19264  -2.19130  -1.14118
  Beta  occ. eigenvalues --   -1.14093  -1.14081  -1.13854  -1.13821  -1.13792
  Beta  occ. eigenvalues --   -1.13742  -1.13708  -1.13698  -1.13430  -1.13414
  Beta  occ. eigenvalues --   -1.13389  -1.13039  -1.13024  -1.12949  -1.12921
  Beta  occ. eigenvalues --   -1.12919  -1.12888  -1.12821  -1.12781  -1.12747
  Beta  occ. eigenvalues --   -0.17464  -0.13092  -0.11373
  Beta virt. eigenvalues --   -0.07450  -0.05871  -0.05425  -0.03797  -0.03029
  Beta virt. eigenvalues --   -0.02273  -0.02004  -0.01630  -0.01056  -0.00416
  Beta virt. eigenvalues --    0.00025   0.00099   0.00368   0.00714   0.00749

 Mulliken charges and spin densities:
               1          2
     1  Na  -0.194781   0.112166
     2  Na  -0.246333   0.074928
     3  Na   0.766745   0.004520
     4  Na   0.378486   0.100682
     5  Na  -0.464006   0.585761
     6  Na  -0.163217   0.077791
     7  Na  -0.076895   0.044151
 Sum of Mulliken charges =  -0.00000   1.00000

 Dipole moment (field-independent basis, Debye):
    X=              0.1354    Y=              0.1218    Z=              0.7307  Tot=              0.7531
 Quadrupole moment (field-independent basis, Debye-Ang):
   XX=            -54.1104   YY=            -70.0374   ZZ=            -70.4892
   XY=             -0.0317   XZ=              2.7653   YZ=             -0.1003

 Normal termination of Gaussian 16 at Thu Dec  7 19:32:23 2023.
