 Gaussian 16, Revision B.01,
 Gaussian 16:  ES64L-G16RevB.01 20-Dec-2017

 -------------------------
 #P B3LYP/6-311+g(d) force
 -------------------------

 -----
 DPGEN
 -----
 Symbolic Z-matrix:
 Charge =  0 Multiplicity = 2

                         Standard orientation:
 ---------------------------------------------------------------------
 Center     Atomic      Atomic             Coordinates (Angstroms)
 Number     Number       Type             X           Y           Z
 ---------------------------------------------------------------------
      1         11           0       -2.388767    1.811886   -0.887282
      2         11           0       -0.873992   -1.942175   -1.277223
      3         11           0        0.677981    2.233732   -0.517131
      4         11           0       -3.365939   -0.610007    1.411358
      5         11           0        1.883585   -1.204633   -1.701553
      6         11           0        3.432048    0.541837    1.138024
      7         11           0        0.635084   -0.830642    1.833806
 ---------------------------------------------------------------------

 SCF Done:  E(UB3LYP) =  -1136.12244169     A.U. after   23 cycles

 The electronic state is 2-A.
 Alpha  occ. eigenvalues --  -38.44959 -38.44881 -38.44410 -38.43852 -38.43569
 Alpha  occ. eigenvalues --  -38.43367 -38.43055  -2.20743  -2.20734  -2.20250
 Alpha  occ. eigenvalues --   -2.19752  -2.19403  -2.19214  -2.18933  -1.14410
 Alpha  occ. eigenvalues --   -1.14407  -1.14388  -1.14384  -1.14370  -1.14367
 Alpha  occ. eigenvalues --   -1.13927  -1.13892  -1.13874  -1.13510  -1.13383
 Alpha  occ. eigenvalues --   -1.13355  -1.13134  -1.13059  -1.13029  -1.12884
 Alpha  occ. eigenvalues --   -1.12879  -1.12820  -1.12629  -1.12576  -1.12549
 Alpha  occ. eigenvalues --   -0.18072  -0.13679  -0.11764  -0.11604
 Alpha virt. eigenvalues --   -0.06368  -0.05293  -0.04510  -0.03562  -0.02965
 Alpha virt. eigenvalues --   -0.02659  -0.02158  -0.01091  -0.00631  -0.00122
 Alpha virt. eigenvalues --    0.00087   0.00264   0.00402   0.00523   0.00774

  Beta  occ. eigenvalues --  -38.44920 -38.44825 -38.44390 -38.43810 -38.43553
  Beta  occ. eigenvalues --  -38.43337 -38.43041  -2.20669  -2.20632  -2.20215
  Beta  occ. eigenvalues --   -2.19675  -2.19377  -2.19163  -2.18911  -1.14353
  Beta  occ. eigenvalues --   -1.14340  -1.14337  -1.14323  -1.14308  -1.14294
  Beta  occ. eigenvalues --   -1.13885  -1.13871  -1.13856  -1.13453  -1.13328
  Beta  occ. eigenvalues --   -1.13301  -1.13102  -1.13040  -1.13010  -1.12854
  Beta  occ. eigenvalues --   -1.12835  -1.12779  -1.12606  -1.12555  -1.12526
  Beta  occ. eigenvalues --   -0.17429  -0.13398  -0.11197
  Beta virt. eigenvalues --   -0.08094  -0.06089  -0.04726  -0.04423  -0.03242
  Beta virt. eigenvalues --   -0.02411  -0.01975  -0.01947  -0.00713  -0.00545
  Beta virt. eigenvalues --   -0.00003   0.00237   0.00287   0.00508   0.00594

 Mulliken charges and spin densities:
               1          2
     1  Na   0.012347  -0.269016
     2  Na  -0.254154   0.381818
     3  Na  -0.640972   0.403152
     4  Na   0.444972   0.232919
     5  Na   0.168835  -0.074566
     6  Na   0.984994   0.113142
     7  Na  -0.716022   0.212551
 Sum of Mulliken charges =  -0.00000   1.00000

 Dipole moment (field-independent basis, Debye):
    X=              0.2473    Y=             -0.3160    Z=              0.7326  Tot=              0.8353
 Quadrupole moment (field-independent basis, Debye-Ang):
   XX=            -51.0000   YY=            -78.7661   ZZ=            -67.0608
   XY=              2.2408   XZ=             -1.7028   YZ=             -2.6884

 Normal termination of Gaussian 16 at Mon Dec  4 01:44:04 2023.
