 Gaussian 16, Revision B.01,
 Gaussian 16:  ES64L-G16RevB.01 20-Dec-2017

 -------------------------
 #P B3LYP/6-311+g(d) force
 -------------------------

 -----
 DPGEN
 -----
 Symbolic Z-matrix:
 Charge =  0 Multiplicity = 2

                         Standard orientation:
 ---------------------------------------------------------------------
 Center     Atomic      Atomic             Coordinates (Angstroms)
 Number     Number       Type             X           Y           Z
 ---------------------------------------------------------------------
      1         11           0       -3.792595    1.301403   -0.257084
      2         11           0        3.501489   -1.492643   -0.779113
      3         11           0       -0.256322   -3.006507    0.235511
      4         11           0        2.695833    2.200898   -0.664736
      5         11           0       -0.780042    3.344767    0.258028
      6         11           0       -3.018031   -2.129663   -0.388820
      7         11           0        1.649668   -0.218255    1.596214
 ---------------------------------------------------------------------

 SCF Done:  E(UB3LYP) =  -1136.11283019     A.U. after   25 cycles

 The electronic state is 2-A.
 Alpha  occ. eigenvalues --  -38.45586 -38.45420 -38.44409 -38.44076 -38.44012
 Alpha  occ. eigenvalues --  -38.43592 -38.43493  -2.21396  -2.21201  -2.20230
 Alpha  occ. eigenvalues --   -2.19852  -2.19826  -2.19441  -2.19290  -1.15079
 Alpha  occ. eigenvalues --   -1.15064  -1.15037  -1.14891  -1.14862  -1.14817
 Alpha  occ. eigenvalues --   -1.13958  -1.13892  -1.13871  -1.13517  -1.13508
 Alpha  occ. eigenvalues --   -1.13499  -1.13484  -1.13478  -1.13456  -1.13107
 Alpha  occ. eigenvalues --   -1.13090  -1.13063  -1.12947  -1.12934  -1.12917
 Alpha  occ. eigenvalues --   -0.16741  -0.13875  -0.12895  -0.09960
 Alpha virt. eigenvalues --   -0.07253  -0.06233  -0.03978  -0.03520  -0.03024
 Alpha virt. eigenvalues --   -0.02412  -0.02009  -0.01613  -0.01262  -0.01138
 Alpha virt. eigenvalues --   -0.00169   0.00179   0.00303   0.00469   0.00583

  Beta  occ. eigenvalues --  -38.45585 -38.45405 -38.44406 -38.44073 -38.43938
  Beta  occ. eigenvalues --  -38.43561 -38.43427  -2.21396  -2.21177  -2.20230
  Beta  occ. eigenvalues --   -2.19824  -2.19713  -2.19383  -2.19167  -1.15082
  Beta  occ. eigenvalues --   -1.15049  -1.15033  -1.14878  -1.14851  -1.14766
  Beta  occ. eigenvalues --   -1.13937  -1.13897  -1.13855  -1.13518  -1.13501
  Beta  occ. eigenvalues --   -1.13433  -1.13414  -1.13394  -1.13379  -1.13071
  Beta  occ. eigenvalues --   -1.13047  -1.13025  -1.12864  -1.12852  -1.12834
  Beta  occ. eigenvalues --   -0.16318  -0.13220  -0.12401
  Beta virt. eigenvalues --   -0.07224  -0.06741  -0.05919  -0.03787  -0.03066
  Beta virt. eigenvalues --   -0.02624  -0.01995  -0.01674  -0.01537  -0.01096
  Beta virt. eigenvalues --   -0.00951   0.00073   0.00276   0.00539   0.00573

 Mulliken charges and spin densities:
               1          2
     1  Na  -0.149653   0.340358
     2  Na  -0.022307   0.442890
     3  Na  -0.240741   0.074968
     4  Na   0.019453   0.135189
     5  Na  -0.186094   0.032003
     6  Na   0.129841   0.048756
     7  Na   0.449500  -0.074164
 Sum of Mulliken charges =  -0.00000   1.00000

 Dipole moment (field-independent basis, Debye):
    X=              1.6040    Y=              0.1442    Z=              0.0442  Tot=              1.6111
 Quadrupole moment (field-independent basis, Debye-Ang):
   XX=            -69.8294   YY=            -67.2991   ZZ=            -67.4291
   XY=              4.1349   XZ=             -0.9987   YZ=              0.1739

 Normal termination of Gaussian 16 at Sun Dec  3 19:02:15 2023.
