 Gaussian 16, Revision B.01,
 Gaussian 16:  ES64L-G16RevB.01 20-Dec-2017

 -------------------------
 #P B3LYP/6-311+g(d) force
 -------------------------

 -----
 DPGEN
 -----
 Symbolic Z-matrix:
 Charge =  0 Multiplicity = 2

                         Standard orientation:
 ---------------------------------------------------------------------
 Center     Atomic      Atomic             Coordinates (Angstroms)
 Number     Number       Type             X           Y           Z
 ---------------------------------------------------------------------
      1         11           0        0.861781    0.025035    2.077761
      2         11           0       -0.955368    1.662206   -0.201024
      3         11           0       -2.166111   -1.232893    0.033097
      4         11           0        2.292832    1.832784   -0.864488
      5         11           0       -5.158132    0.130079   -0.004102
      6         11           0        4.368575   -0.777101    0.231898
      7         11           0        0.756422   -1.640111   -1.273142
 ---------------------------------------------------------------------

 SCF Done:  E(UB3LYP) =  -1136.10845609     A.U. after   26 cycles

 The electronic state is 2-A.
 Alpha  occ. eigenvalues --  -38.46915 -38.44388 -38.44358 -38.44140 -38.43579
 Alpha  occ. eigenvalues --  -38.43023 -38.42798  -2.22718  -2.20203  -2.20199
 Alpha  occ. eigenvalues --   -2.19995  -2.19375  -2.18945  -2.18715  -1.16393
 Alpha  occ. eigenvalues --   -1.16366  -1.16344  -1.13884  -1.13867  -1.13839
 Alpha  occ. eigenvalues --   -1.13833  -1.13819  -1.13815  -1.13704  -1.13643
 Alpha  occ. eigenvalues --   -1.13600  -1.13048  -1.13032  -1.12997  -1.12672
 Alpha  occ. eigenvalues --   -1.12618  -1.12594  -1.12405  -1.12387  -1.12312
 Alpha  occ. eigenvalues --   -0.18289  -0.14124  -0.11282  -0.10789
 Alpha virt. eigenvalues --   -0.08058  -0.04881  -0.04481  -0.03348  -0.03023
 Alpha virt. eigenvalues --   -0.02185  -0.01973  -0.01724  -0.01510  -0.01089
 Alpha virt. eigenvalues --   -0.00137   0.00186   0.00228   0.00572   0.00772

  Beta  occ. eigenvalues --  -38.46904 -38.44315 -38.44290 -38.44113 -38.43551
  Beta  occ. eigenvalues --  -38.43011 -38.42799  -2.22700  -2.20128  -2.20017
  Beta  occ. eigenvalues --   -2.19947  -2.19323  -2.18934  -2.18716  -1.16363
  Beta  occ. eigenvalues --   -1.16358  -1.16333  -1.13833  -1.13804  -1.13763
  Beta  occ. eigenvalues --   -1.13717  -1.13710  -1.13696  -1.13669  -1.13614
  Beta  occ. eigenvalues --   -1.13560  -1.13014  -1.12988  -1.12967  -1.12671
  Beta  occ. eigenvalues --   -1.12618  -1.12515  -1.12406  -1.12373  -1.12324
  Beta  occ. eigenvalues --   -0.17748  -0.13333  -0.10532
  Beta virt. eigenvalues --   -0.07925  -0.07773  -0.04457  -0.03988  -0.03181
  Beta virt. eigenvalues --   -0.02859  -0.02013  -0.01831  -0.01169  -0.01031
  Beta virt. eigenvalues --   -0.00689   0.00000   0.00271   0.00288   0.00644

 Mulliken charges and spin densities:
               1          2
     1  Na   0.167670  -0.015026
     2  Na  -0.320794  -0.079316
     3  Na  -0.212561   0.191576
     4  Na   0.199971   0.364919
     5  Na   0.316583   0.439530
     6  Na   0.042783   0.177274
     7  Na  -0.193653  -0.078956
 Sum of Mulliken charges =  -0.00000   1.00000

 Dipole moment (field-independent basis, Debye):
    X=              0.4772    Y=              0.4231    Z=              1.2464  Tot=              1.4000
 Quadrupole moment (field-independent basis, Debye-Ang):
   XX=            -66.8931   YY=            -80.3531   ZZ=            -57.9379
   XY=             -0.5943   XZ=              1.5425   YZ=             -4.6835

 Normal termination of Gaussian 16 at Fri Dec  8 02:00:27 2023.
