 Gaussian 16, Revision B.01,
 Gaussian 16:  ES64L-G16RevB.01 20-Dec-2017

 -------------------------
 #P B3LYP/6-311+g(d) force
 -------------------------

 -----
 DPGEN
 -----
 Symbolic Z-matrix:
 Charge =  0 Multiplicity = 2

                         Standard orientation:
 ---------------------------------------------------------------------
 Center     Atomic      Atomic             Coordinates (Angstroms)
 Number     Number       Type             X           Y           Z
 ---------------------------------------------------------------------
      1         11           0        0.058916   -0.263788   -1.784719
      2         11           0        1.193377    2.668971   -0.145368
      3         11           0        3.101582   -0.425849    0.154718
      4         11           0        0.231325   -0.036892    1.870144
      5         11           0        0.340059   -2.582628   -0.281555
      6         11           0       -2.643394   -1.379852    0.309533
      7         11           0       -2.281864    2.020038   -0.122754
 ---------------------------------------------------------------------

 SCF Done:  E(UB3LYP) =  -1136.13600229     A.U. after   19 cycles

 The electronic state is 2-A.
 Alpha  occ. eigenvalues --  -38.43897 -38.43604 -38.43574 -38.43512 -38.43489
 Alpha  occ. eigenvalues --  -38.43431 -38.43273  -2.19745  -2.19521  -2.19447
 Alpha  occ. eigenvalues --   -2.19431  -2.19382  -2.19329  -2.19249  -1.13432
 Alpha  occ. eigenvalues --   -1.13422  -1.13396  -1.13384  -1.13170  -1.13136
 Alpha  occ. eigenvalues --   -1.13127  -1.13119  -1.13099  -1.13089  -1.13082
 Alpha  occ. eigenvalues --   -1.13061  -1.13055  -1.13033  -1.13002  -1.12995
 Alpha  occ. eigenvalues --   -1.12977  -1.12950  -1.12873  -1.12860  -1.12822
 Alpha  occ. eigenvalues --   -0.19068  -0.13000  -0.12649  -0.10929
 Alpha virt. eigenvalues --   -0.05467  -0.05092  -0.04601  -0.03188  -0.03009
 Alpha virt. eigenvalues --   -0.02573  -0.01484  -0.01008  -0.00228  -0.00130
 Alpha virt. eigenvalues --    0.00028   0.00357   0.00841   0.00912   0.00932

  Beta  occ. eigenvalues --  -38.43892 -38.43603 -38.43567 -38.43485 -38.43430
  Beta  occ. eigenvalues --  -38.43350 -38.43256  -2.19739  -2.19437  -2.19431
  Beta  occ. eigenvalues --   -2.19373  -2.19324  -2.19232  -2.19224  -1.13417
  Beta  occ. eigenvalues --   -1.13389  -1.13381  -1.13330  -1.13137  -1.13124
  Beta  occ. eigenvalues --   -1.13094  -1.13089  -1.13075  -1.13055  -1.13050
  Beta  occ. eigenvalues --   -1.13002  -1.12993  -1.12977  -1.12966  -1.12950
  Beta  occ. eigenvalues --   -1.12906  -1.12881  -1.12838  -1.12812  -1.12788
  Beta  occ. eigenvalues --   -0.18323  -0.12753  -0.12378
  Beta virt. eigenvalues --   -0.06983  -0.05447  -0.05086  -0.04564  -0.02394
  Beta virt. eigenvalues --   -0.02192  -0.01517  -0.01395  -0.00945  -0.00276
  Beta virt. eigenvalues --   -0.00152   0.00132   0.00383   0.00894   0.00902

 Mulliken charges and spin densities:
               1          2
     1  Na  -0.327393   0.592851
     2  Na  -0.071987  -0.132128
     3  Na   0.181118  -0.095602
     4  Na  -0.382705   0.728254
     5  Na   0.614943   0.029354
     6  Na   0.063558  -0.025443
     7  Na  -0.077534  -0.097286
 Sum of Mulliken charges =  -0.00000   1.00000

 Dipole moment (field-independent basis, Debye):
    X=              0.1471    Y=              0.1852    Z=              0.1427  Tot=              0.2763
 Quadrupole moment (field-independent basis, Debye-Ang):
   XX=            -56.4298   YY=            -63.7762   ZZ=            -73.5855
   XY=              0.1847   XZ=             -0.4082   YZ=             -0.7734

 Normal termination of Gaussian 16 at Thu Dec  7 03:44:21 2023.
