 Gaussian 16, Revision B.01,
 Gaussian 16:  ES64L-G16RevB.01 20-Dec-2017

 -------------------------
 #P B3LYP/6-311+g(d) force
 -------------------------

 -----
 DPGEN
 -----
 Symbolic Z-matrix:
 Charge =  0 Multiplicity = 2

                         Standard orientation:
 ---------------------------------------------------------------------
 Center     Atomic      Atomic             Coordinates (Angstroms)
 Number     Number       Type             X           Y           Z
 ---------------------------------------------------------------------
      1         11           0       -2.267095   -3.130680    0.687201
      2         11           0        2.451128    0.789160    1.009156
      3         11           0        4.283632   -1.645886   -0.642318
      4         11           0        0.527341    3.958929    0.370423
      5         11           0       -1.474967    2.155648   -0.908335
      6         11           0       -4.179633   -0.106083   -0.132493
      7         11           0        0.659594   -2.021088   -0.383634
 ---------------------------------------------------------------------

 SCF Done:  E(UB3LYP) =  -1136.11891595     A.U. after   20 cycles

 The electronic state is 2-A.
 Alpha  occ. eigenvalues --  -38.45208 -38.44388 -38.44312 -38.44216 -38.43918
 Alpha  occ. eigenvalues --  -38.43705 -38.43640  -2.20992  -2.20206  -2.20137
 Alpha  occ. eigenvalues --   -2.20023  -2.19710  -2.19543  -2.19449  -1.14701
 Alpha  occ. eigenvalues --   -1.14679  -1.14585  -1.13906  -1.13897  -1.13849
 Alpha  occ. eigenvalues --   -1.13804  -1.13800  -1.13793  -1.13684  -1.13678
 Alpha  occ. eigenvalues --   -1.13628  -1.13373  -1.13359  -1.13329  -1.13211
 Alpha  occ. eigenvalues --   -1.13185  -1.13165  -1.13113  -1.13109  -1.13073
 Alpha  occ. eigenvalues --   -0.16361  -0.13681  -0.13254  -0.10339
 Alpha virt. eigenvalues --   -0.06589  -0.05977  -0.03891  -0.03686  -0.02988
 Alpha virt. eigenvalues --   -0.02627  -0.01841  -0.01547  -0.01240  -0.00635
 Alpha virt. eigenvalues --   -0.00377  -0.00132   0.00204   0.00413   0.00641

  Beta  occ. eigenvalues --  -38.45203 -38.44359 -38.44298 -38.44169 -38.43854
  Beta  occ. eigenvalues --  -38.43693 -38.43605  -2.20986  -2.20157  -2.20116
  Beta  occ. eigenvalues --   -2.19936  -2.19594  -2.19519  -2.19387  -1.14697
  Beta  occ. eigenvalues --   -1.14678  -1.14563  -1.13876  -1.13863  -1.13837
  Beta  occ. eigenvalues --   -1.13790  -1.13751  -1.13748  -1.13623  -1.13618
  Beta  occ. eigenvalues --   -1.13575  -1.13295  -1.13275  -1.13249  -1.13200
  Beta  occ. eigenvalues --   -1.13169  -1.13144  -1.13070  -1.13057  -1.13030
  Beta  occ. eigenvalues --   -0.16010  -0.13078  -0.12763
  Beta virt. eigenvalues --   -0.06924  -0.06485  -0.05627  -0.03755  -0.03260
  Beta virt. eigenvalues --   -0.02650  -0.02431  -0.01625  -0.01177  -0.01070
  Beta virt. eigenvalues --   -0.00353  -0.00054   0.00168   0.00220   0.00533

 Mulliken charges and spin densities:
               1          2
     1  Na   0.825536   0.001387
     2  Na  -0.443642  -0.010909
     3  Na   0.680810   0.340952
     4  Na   0.861537   0.058144
     5  Na  -0.557517   0.192531
     6  Na  -0.148085   0.183833
     7  Na  -1.218639   0.234063
 Sum of Mulliken charges =  -0.00000   1.00000

 Dipole moment (field-independent basis, Debye):
    X=              1.4047    Y=              0.0302    Z=              0.2782  Tot=              1.4323
 Quadrupole moment (field-independent basis, Debye-Ang):
   XX=            -63.0247   YY=            -66.2955   ZZ=            -68.9573
   XY=              2.4737   XZ=             -1.7445   YZ=              2.0543

 Normal termination of Gaussian 16 at Sun Dec  3 13:03:32 2023.
