 Gaussian 16, Revision B.01,
 Gaussian 16:  ES64L-G16RevB.01 20-Dec-2017

 -------------------------
 #P B3LYP/6-311+g(d) force
 -------------------------

 -----
 DPGEN
 -----
 Symbolic Z-matrix:
 Charge =  0 Multiplicity = 2

                         Standard orientation:
 ---------------------------------------------------------------------
 Center     Atomic      Atomic             Coordinates (Angstroms)
 Number     Number       Type             X           Y           Z
 ---------------------------------------------------------------------
      1         11           0        2.507179   -2.484554   -0.176398
      2         11           0       -0.529182   -0.298495    2.008326
      3         11           0       -2.529052    1.424666   -0.103127
      4         11           0       -3.148892   -2.034829   -0.304987
      5         11           0        0.504621    2.895094   -0.164103
      6         11           0        3.185913    0.567053    0.119160
      7         11           0        0.009412   -0.068936   -1.378871
 ---------------------------------------------------------------------

 SCF Done:  E(UB3LYP) =  -1136.12806332     A.U. after   23 cycles

 The electronic state is 2-A.
 Alpha  occ. eigenvalues --  -38.44513 -38.44344 -38.44103 -38.44090 -38.43520
 Alpha  occ. eigenvalues --  -38.43447 -38.42783  -2.20355  -2.20120  -2.20006
 Alpha  occ. eigenvalues --   -2.19898  -2.19480  -2.19319  -2.18654  -1.14036
 Alpha  occ. eigenvalues --   -1.14020  -1.14005  -1.13792  -1.13783  -1.13757
 Alpha  occ. eigenvalues --   -1.13716  -1.13682  -1.13607  -1.13561  -1.13553
 Alpha  occ. eigenvalues --   -1.13541  -1.13198  -1.13125  -1.13098  -1.12990
 Alpha  occ. eigenvalues --   -1.12948  -1.12917  -1.12334  -1.12309  -1.12297
 Alpha  occ. eigenvalues --   -0.18347  -0.13684  -0.11920  -0.10180
 Alpha virt. eigenvalues --   -0.06299  -0.05848  -0.04395  -0.03299  -0.02465
 Alpha virt. eigenvalues --   -0.02093  -0.02048  -0.01463  -0.00952  -0.00330
 Alpha virt. eigenvalues --   -0.00029   0.00258   0.00649   0.00710   0.00850

  Beta  occ. eigenvalues --  -38.44512 -38.44337 -38.44091 -38.44091 -38.43475
  Beta  occ. eigenvalues --  -38.43345 -38.42779  -2.20355  -2.20109  -2.19989
  Beta  occ. eigenvalues --   -2.19903  -2.19400  -2.19130  -2.18650  -1.14038
  Beta  occ. eigenvalues --   -1.14011  -1.14001  -1.13787  -1.13762  -1.13752
  Beta  occ. eigenvalues --   -1.13707  -1.13630  -1.13601  -1.13565  -1.13551
  Beta  occ. eigenvalues --   -1.13540  -1.13131  -1.13063  -1.13039  -1.12864
  Beta  occ. eigenvalues --   -1.12814  -1.12784  -1.12330  -1.12309  -1.12274
  Beta  occ. eigenvalues --   -0.17652  -0.13487  -0.11733
  Beta virt. eigenvalues --   -0.06300  -0.06231  -0.05743  -0.04391  -0.02605
  Beta virt. eigenvalues --   -0.01979  -0.01713  -0.01454  -0.01109  -0.00948
  Beta virt. eigenvalues --   -0.00326   0.00157   0.00304   0.00703   0.00738

 Mulliken charges and spin densities:
               1          2
     1  Na   0.113822  -0.030166
     2  Na  -0.505468   0.594708
     3  Na   0.519464   0.215144
     4  Na   0.018845   0.014464
     5  Na   0.045547   0.022645
     6  Na   0.177559   0.047819
     7  Na  -0.369769   0.135386
 Sum of Mulliken charges =  -0.00000   1.00000

 Dipole moment (field-independent basis, Debye):
    X=              0.0632    Y=             -0.3824    Z=              0.0949  Tot=              0.3990
 Quadrupole moment (field-independent basis, Debye-Ang):
   XX=            -53.6769   YY=            -61.4553   ZZ=            -77.6288
   XY=              1.2518   XZ=              1.1832   YZ=              1.1012

 Normal termination of Gaussian 16 at Tue Dec  5 22:47:42 2023.
