 Gaussian 16, Revision B.01,
 Gaussian 16:  ES64L-G16RevB.01 20-Dec-2017

 -------------------------
 #P B3LYP/6-311+g(d) force
 -------------------------

 -----
 DPGEN
 -----
 Symbolic Z-matrix:
 Charge =  0 Multiplicity = 2

                         Standard orientation:
 ---------------------------------------------------------------------
 Center     Atomic      Atomic             Coordinates (Angstroms)
 Number     Number       Type             X           Y           Z
 ---------------------------------------------------------------------
      1         11           0       -0.339835    2.019006    0.036489
      2         11           0        2.966433    1.464797    0.651649
      3         11           0       -1.244198   -1.074095   -0.515569
      4         11           0        2.389725   -1.791854   -0.047962
      5         11           0        5.407005   -0.503094   -0.138040
      6         11           0       -3.753704    0.827987   -0.974002
      7         11           0       -5.425427   -0.942748    0.987435
 ---------------------------------------------------------------------

 SCF Done:  E(UB3LYP) =  -1136.11881225     A.U. after   20 cycles

 The electronic state is 2-A.
 Alpha  occ. eigenvalues --  -38.44334 -38.44236 -38.44142 -38.44119 -38.44104
 Alpha  occ. eigenvalues --  -38.43946 -38.43073  -2.20210  -2.20112  -2.20017
 Alpha  occ. eigenvalues --   -2.19980  -2.19883  -2.19790  -2.18922  -1.13925
 Alpha  occ. eigenvalues --   -1.13885  -1.13836  -1.13798  -1.13786  -1.13743
 Alpha  occ. eigenvalues --   -1.13698  -1.13663  -1.13661  -1.13643  -1.13628
 Alpha  occ. eigenvalues --   -1.13592  -1.13550  -1.13547  -1.13521  -1.13445
 Alpha  occ. eigenvalues --   -1.13439  -1.13408  -1.12589  -1.12583  -1.12564
 Alpha  occ. eigenvalues --   -0.17072  -0.14862  -0.11528  -0.11035
 Alpha virt. eigenvalues --   -0.06802  -0.05231  -0.04303  -0.03910  -0.02962
 Alpha virt. eigenvalues --   -0.02357  -0.02019  -0.01618  -0.00715  -0.00446
 Alpha virt. eigenvalues --   -0.00174   0.00087   0.00242   0.00421   0.00657

  Beta  occ. eigenvalues --  -38.44326 -38.44185 -38.44129 -38.44096 -38.44056
  Beta  occ. eigenvalues --  -38.43929 -38.43049  -2.20192  -2.20020  -2.19934
  Beta  occ. eigenvalues --   -2.19929  -2.19866  -2.19760  -2.18879  -1.13905
  Beta  occ. eigenvalues --   -1.13875  -1.13838  -1.13734  -1.13727  -1.13661
  Beta  occ. eigenvalues --   -1.13643  -1.13617  -1.13587  -1.13581  -1.13579
  Beta  occ. eigenvalues --   -1.13567  -1.13549  -1.13547  -1.13502  -1.13420
  Beta  occ. eigenvalues --   -1.13408  -1.13379  -1.12561  -1.12550  -1.12526
  Beta  occ. eigenvalues --   -0.16486  -0.14712  -0.11338
  Beta virt. eigenvalues --   -0.07072  -0.06630  -0.04614  -0.04191  -0.03738
  Beta virt. eigenvalues --   -0.02469  -0.01938  -0.01638  -0.01474  -0.00491
  Beta virt. eigenvalues --   -0.00202  -0.00046   0.00181   0.00451   0.00555

 Mulliken charges and spin densities:
               1          2
     1  Na  -0.101186   0.176241
     2  Na  -0.051295   0.202236
     3  Na  -0.853859   0.216573
     4  Na  -0.733058   0.227992
     5  Na   0.483901   0.077845
     6  Na   0.954649   0.294385
     7  Na   0.300848  -0.195272
 Sum of Mulliken charges =  -0.00000   1.00000

 Dipole moment (field-independent basis, Debye):
    X=              0.3083    Y=             -0.1497    Z=              0.0567  Tot=              0.3474
 Quadrupole moment (field-independent basis, Debye-Ang):
   XX=            -58.8037   YY=            -69.2570   ZZ=            -68.4920
   XY=             -0.9608   XZ=             -2.1526   YZ=             -2.4999

 Normal termination of Gaussian 16 at Sun Dec  3 18:16:51 2023.
