 Gaussian 16, Revision B.01,
 Gaussian 16:  ES64L-G16RevB.01 20-Dec-2017

 -------------------------
 #P B3LYP/6-311+g(d) force
 -------------------------

 -----
 DPGEN
 -----
 Symbolic Z-matrix:
 Charge =  0 Multiplicity = 2

                         Standard orientation:
 ---------------------------------------------------------------------
 Center     Atomic      Atomic             Coordinates (Angstroms)
 Number     Number       Type             X           Y           Z
 ---------------------------------------------------------------------
      1         11           0       -1.571501    2.130418   -0.337731
      2         11           0       -1.717825   -1.678572   -0.522628
      3         11           0        1.532248   -2.185184   -0.360049
      4         11           0        1.792027    2.123808   -0.587016
      5         11           0        0.821320    0.113277    2.043020
      6         11           0        4.178796   -0.284643   -0.291855
      7         11           0       -5.035066   -0.219105    0.056258
 ---------------------------------------------------------------------

 SCF Done:  E(UB3LYP) =  -1136.12090637     A.U. after   22 cycles

 The electronic state is 2-A.
 Alpha  occ. eigenvalues --  -38.45977 -38.44614 -38.44072 -38.43773 -38.43600
 Alpha  occ. eigenvalues --  -38.43334 -38.43123  -2.21793  -2.20393  -2.19931
 Alpha  occ. eigenvalues --   -2.19563  -2.19410  -2.19186  -2.19001  -1.15460
 Alpha  occ. eigenvalues --   -1.15445  -1.15414  -1.14044  -1.14036  -1.13997
 Alpha  occ. eigenvalues --   -1.13590  -1.13570  -1.13555  -1.13273  -1.13237
 Alpha  occ. eigenvalues --   -1.13178  -1.13117  -1.13085  -1.13046  -1.12872
 Alpha  occ. eigenvalues --   -1.12855  -1.12813  -1.12677  -1.12669  -1.12640
 Alpha  occ. eigenvalues --   -0.17667  -0.13897  -0.11722  -0.11005
 Alpha virt. eigenvalues --   -0.07146  -0.05307  -0.04360  -0.03403  -0.03008
 Alpha virt. eigenvalues --   -0.02321  -0.01857  -0.01770  -0.01171  -0.00539
 Alpha virt. eigenvalues --   -0.00408  -0.00017   0.00400   0.00611   0.00688

  Beta  occ. eigenvalues --  -38.45938 -38.44530 -38.43998 -38.43778 -38.43603
  Beta  occ. eigenvalues --  -38.43326 -38.43111  -2.21722  -2.20235  -2.19794
  Beta  occ. eigenvalues --   -2.19574  -2.19420  -2.19174  -2.18985  -1.15415
  Beta  occ. eigenvalues --   -1.15388  -1.15360  -1.13936  -1.13928  -1.13895
  Beta  occ. eigenvalues --   -1.13497  -1.13472  -1.13468  -1.13282  -1.13240
  Beta  occ. eigenvalues --   -1.13180  -1.13126  -1.13087  -1.13028  -1.12868
  Beta  occ. eigenvalues --   -1.12852  -1.12778  -1.12672  -1.12656  -1.12601
  Beta  occ. eigenvalues --   -0.17149  -0.13115  -0.11527
  Beta virt. eigenvalues --   -0.07569  -0.06817  -0.05168  -0.03671  -0.03335
  Beta virt. eigenvalues --   -0.02731  -0.01989  -0.01506  -0.01403  -0.00658
  Beta virt. eigenvalues --   -0.00350  -0.00239   0.00043   0.00518   0.00712

 Mulliken charges and spin densities:
               1          2
     1  Na  -0.121300  -0.026809
     2  Na  -0.299743  -0.052445
     3  Na  -0.205547   0.037119
     4  Na  -0.176902   0.067690
     5  Na  -0.113871   0.121139
     6  Na   0.441939   0.453506
     7  Na   0.475424   0.399800
 Sum of Mulliken charges =  -0.00000   1.00000

 Dipole moment (field-independent basis, Debye):
    X=              0.1450    Y=              0.2165    Z=              1.1428  Tot=              1.1721
 Quadrupole moment (field-independent basis, Debye-Ang):
   XX=            -61.7428   YY=            -76.5827   ZZ=            -63.2765
   XY=             -1.7669   XZ=              0.2833   YZ=             -0.1626

 Normal termination of Gaussian 16 at Sun Dec  3 18:10:21 2023.
