 Gaussian 16, Revision B.01,
 Gaussian 16:  ES64L-G16RevB.01 20-Dec-2017

 -------------------------
 #P B3LYP/6-311+g(d) force
 -------------------------

 -----
 DPGEN
 -----
 Symbolic Z-matrix:
 Charge =  0 Multiplicity = 2

                         Standard orientation:
 ---------------------------------------------------------------------
 Center     Atomic      Atomic             Coordinates (Angstroms)
 Number     Number       Type             X           Y           Z
 ---------------------------------------------------------------------
      1         11           0       -0.572919    0.628838    1.122629
      2         11           0       -2.250000    3.344737   -0.212635
      3         11           0       -4.040878   -0.108061   -0.638896
      4         11           0        0.171983   -1.502588   -1.364125
      5         11           0        2.949580    0.206446    1.234393
      6         11           0       -1.731335   -2.937221    0.700843
      7         11           0        5.473569    0.367849   -0.842210
 ---------------------------------------------------------------------

 SCF Done:  E(UB3LYP) =  -1136.11515575     A.U. after   20 cycles

 The electronic state is 2-A.
 Alpha  occ. eigenvalues --  -38.45553 -38.44729 -38.44182 -38.43898 -38.43655
 Alpha  occ. eigenvalues --  -38.43620 -38.43590  -2.21372  -2.20504  -2.20006
 Alpha  occ. eigenvalues --   -2.19705  -2.19512  -2.19419  -2.19388  -1.15055
 Alpha  occ. eigenvalues --   -1.15040  -1.14987  -1.14188  -1.14146  -1.14101
 Alpha  occ. eigenvalues --   -1.13682  -1.13662  -1.13641  -1.13347  -1.13341
 Alpha  occ. eigenvalues --   -1.13337  -1.13223  -1.13165  -1.13138  -1.13096
 Alpha  occ. eigenvalues --   -1.13075  -1.13065  -1.13057  -1.13048  -1.13033
 Alpha  occ. eigenvalues --   -0.17141  -0.13470  -0.11904  -0.10734
 Alpha virt. eigenvalues --   -0.06661  -0.05795  -0.04602  -0.03516  -0.02720
 Alpha virt. eigenvalues --   -0.02319  -0.02004  -0.01427  -0.01263  -0.00904
 Alpha virt. eigenvalues --   -0.00453  -0.00023   0.00264   0.00388   0.00592

  Beta  occ. eigenvalues --  -38.45548 -38.44661 -38.44178 -38.43812 -38.43662
  Beta  occ. eigenvalues --  -38.43595 -38.43571  -2.21364  -2.20378  -2.20000
  Beta  occ. eigenvalues --   -2.19543  -2.19433  -2.19423  -2.19406  -1.15047
  Beta  occ. eigenvalues --   -1.15033  -1.14977  -1.14103  -1.14064  -1.14010
  Beta  occ. eigenvalues --   -1.13681  -1.13657  -1.13623  -1.13245  -1.13231
  Beta  occ. eigenvalues --   -1.13230  -1.13165  -1.13111  -1.13106  -1.13099
  Beta  occ. eigenvalues --   -1.13081  -1.13073  -1.13064  -1.13033  -1.12988
  Beta  occ. eigenvalues --   -0.16599  -0.12661  -0.11835
  Beta virt. eigenvalues --   -0.07351  -0.06482  -0.05319  -0.04272  -0.03195
  Beta virt. eigenvalues --   -0.02433  -0.02228  -0.01463  -0.01268  -0.00968
  Beta virt. eigenvalues --   -0.00786  -0.00128   0.00148   0.00390   0.00494

 Mulliken charges and spin densities:
               1          2
     1  Na  -0.626222   0.170352
     2  Na   0.329462  -0.068460
     3  Na   0.167825   0.423878
     4  Na  -0.010284  -0.084786
     5  Na  -0.168965  -0.020933
     6  Na   0.272979   0.140750
     7  Na   0.035205   0.439200
 Sum of Mulliken charges =  -0.00000   1.00000

 Dipole moment (field-independent basis, Debye):
    X=             -0.9517    Y=             -0.9687    Z=             -0.7049  Tot=              1.5300
 Quadrupole moment (field-independent basis, Debye-Ang):
   XX=            -72.9544   YY=            -68.3591   ZZ=            -62.3658
   XY=              1.1272   XZ=             -3.1504   YZ=             -2.9877

 Normal termination of Gaussian 16 at Tue Nov 28 19:06:30 2023.
