 Gaussian 16, Revision B.01,
 Gaussian 16:  ES64L-G16RevB.01 20-Dec-2017

 -------------------------
 #P B3LYP/6-311+g(d) force
 -------------------------

 -----
 DPGEN
 -----
 Symbolic Z-matrix:
 Charge =  0 Multiplicity = 2

                         Standard orientation:
 ---------------------------------------------------------------------
 Center     Atomic      Atomic             Coordinates (Angstroms)
 Number     Number       Type             X           Y           Z
 ---------------------------------------------------------------------
      1         11           0       -0.145461    0.137206   -1.646547
      2         11           0       -0.691431   -1.898703    1.231837
      3         11           0        0.444420    1.269094    1.523617
      4         11           0        3.535920    1.278901   -0.085097
      5         11           0        2.433892   -1.859000   -0.504051
      6         11           0       -3.093446   -1.328220   -0.281794
      7         11           0       -2.483893    2.400722   -0.237966
 ---------------------------------------------------------------------

 SCF Done:  E(UB3LYP) =  -1136.12255803     A.U. after   23 cycles

 The electronic state is 2-A.
 Alpha  occ. eigenvalues --  -38.45152 -38.44921 -38.44118 -38.44029 -38.43598
 Alpha  occ. eigenvalues --  -38.43214 -38.42796  -2.20941  -2.20771  -2.19955
 Alpha  occ. eigenvalues --   -2.19932  -2.19394  -2.19111  -2.18736  -1.14610
 Alpha  occ. eigenvalues --   -1.14605  -1.14582  -1.14510  -1.14423  -1.14378
 Alpha  occ. eigenvalues --   -1.13659  -1.13633  -1.13609  -1.13589  -1.13566
 Alpha  occ. eigenvalues --   -1.13538  -1.13067  -1.13051  -1.13041  -1.12807
 Alpha  occ. eigenvalues --   -1.12755  -1.12713  -1.12423  -1.12390  -1.12342
 Alpha  occ. eigenvalues --   -0.18420  -0.13770  -0.11584  -0.10649
 Alpha virt. eigenvalues --   -0.06881  -0.05749  -0.03588  -0.03397  -0.02964
 Alpha virt. eigenvalues --   -0.02365  -0.02221  -0.01502  -0.00492  -0.00241
 Alpha virt. eigenvalues --    0.00144   0.00157   0.00394   0.00651   0.00667

  Beta  occ. eigenvalues --  -38.45151 -38.44918 -38.44100 -38.43978 -38.43598
  Beta  occ. eigenvalues --  -38.43144 -38.42754  -2.20942  -2.20769  -2.19923
  Beta  occ. eigenvalues --   -2.19839  -2.19396  -2.18983  -2.18661  -1.14612
  Beta  occ. eigenvalues --   -1.14591  -1.14582  -1.14502  -1.14412  -1.14377
  Beta  occ. eigenvalues --   -1.13620  -1.13580  -1.13569  -1.13566  -1.13505
  Beta  occ. eigenvalues --   -1.13469  -1.13064  -1.13049  -1.13037  -1.12721
  Beta  occ. eigenvalues --   -1.12653  -1.12626  -1.12375  -1.12338  -1.12271
  Beta  occ. eigenvalues --   -0.17716  -0.13509  -0.11413
  Beta virt. eigenvalues --   -0.06823  -0.06779  -0.05621  -0.03327  -0.02890
  Beta virt. eigenvalues --   -0.02519  -0.02100  -0.01480  -0.01191  -0.00501
  Beta virt. eigenvalues --    0.00011   0.00144   0.00207   0.00501   0.00706

 Mulliken charges and spin densities:
               1          2
     1  Na  -0.305294   0.331423
     2  Na  -0.040113   0.074107
     3  Na  -0.346680   0.352329
     4  Na   0.168724   0.035993
     5  Na   0.224626   0.137954
     6  Na   0.233184   0.048296
     7  Na   0.065553   0.019898
 Sum of Mulliken charges =  -0.00000   1.00000

 Dipole moment (field-independent basis, Debye):
    X=              0.4554    Y=              0.2059    Z=             -0.3328  Tot=              0.6005
 Quadrupole moment (field-independent basis, Debye-Ang):
   XX=            -47.7746   YY=            -70.1184   ZZ=            -74.5129
   XY=              1.5555   XZ=              0.1468   YZ=              0.2228

 Normal termination of Gaussian 16 at Thu Dec  7 08:21:56 2023.
