 Gaussian 16, Revision B.01,
 Gaussian 16:  ES64L-G16RevB.01 20-Dec-2017

 -------------------------
 #P B3LYP/6-311+g(d) force
 -------------------------

 -----
 DPGEN
 -----
 Symbolic Z-matrix:
 Charge =  0 Multiplicity = 2

                         Standard orientation:
 ---------------------------------------------------------------------
 Center     Atomic      Atomic             Coordinates (Angstroms)
 Number     Number       Type             X           Y           Z
 ---------------------------------------------------------------------
      1         11           0       -1.224626   -0.576347    1.891965
      2         11           0        3.386656    0.337224   -0.761897
      3         11           0       -2.529821   -2.126843   -0.656378
      4         11           0        0.339708    2.309837    1.091207
      5         11           0        0.639563   -0.384217   -1.881985
      6         11           0       -2.480507    1.975007   -0.799401
      7         11           0        1.869026   -1.534661    1.116490
 ---------------------------------------------------------------------

 SCF Done:  E(UB3LYP) =  -1136.12621121     A.U. after   21 cycles

 The electronic state is 2-A.
 Alpha  occ. eigenvalues --  -38.44482 -38.44288 -38.44202 -38.44046 -38.43744
 Alpha  occ. eigenvalues --  -38.43453 -38.42959  -2.20370  -2.20177  -2.20096
 Alpha  occ. eigenvalues --   -2.19835  -2.19651  -2.19256  -2.18798  -1.14097
 Alpha  occ. eigenvalues --   -1.14029  -1.14000  -1.13912  -1.13812  -1.13792
 Alpha  occ. eigenvalues --   -1.13768  -1.13730  -1.13679  -1.13511  -1.13483
 Alpha  occ. eigenvalues --   -1.13472  -1.13343  -1.13299  -1.13269  -1.12929
 Alpha  occ. eigenvalues --   -1.12906  -1.12896  -1.12492  -1.12454  -1.12417
 Alpha  occ. eigenvalues --   -0.18351  -0.13510  -0.11781  -0.11361
 Alpha virt. eigenvalues --   -0.05765  -0.05381  -0.04504  -0.03394  -0.03196
 Alpha virt. eigenvalues --   -0.02886  -0.01706  -0.00941  -0.00565   0.00045
 Alpha virt. eigenvalues --    0.00241   0.00322   0.00516   0.00627   0.00709

  Beta  occ. eigenvalues --  -38.44422 -38.44277 -38.44167 -38.44034 -38.43687
  Beta  occ. eigenvalues --  -38.43448 -38.42940  -2.20259  -2.20159  -2.20034
  Beta  occ. eigenvalues --   -2.19813  -2.19549  -2.19247  -2.18765  -1.14030
  Beta  occ. eigenvalues --   -1.13951  -1.13926  -1.13888  -1.13777  -1.13770
  Beta  occ. eigenvalues --   -1.13726  -1.13674  -1.13642  -1.13491  -1.13471
  Beta  occ. eigenvalues --   -1.13454  -1.13267  -1.13224  -1.13196  -1.12920
  Beta  occ. eigenvalues --   -1.12896  -1.12887  -1.12463  -1.12423  -1.12397
  Beta  occ. eigenvalues --   -0.17557  -0.13323  -0.11216
  Beta virt. eigenvalues --   -0.07826  -0.05545  -0.05168  -0.03980  -0.03200
  Beta virt. eigenvalues --   -0.02515  -0.02114  -0.01586  -0.00818  -0.00321
  Beta virt. eigenvalues --    0.00142   0.00268   0.00420   0.00617   0.00740

 Mulliken charges and spin densities:
               1          2
     1  Na   0.491311   0.101521
     2  Na   0.681987   0.072212
     3  Na  -0.079728   0.076436
     4  Na  -0.465580   0.135027
     5  Na  -0.399578   0.383219
     6  Na  -0.023796   0.050440
     7  Na  -0.204616   0.181145
 Sum of Mulliken charges =  -0.00000   1.00000

 Dipole moment (field-independent basis, Debye):
    X=              0.5128    Y=              0.0265    Z=             -0.4244  Tot=              0.6662
 Quadrupole moment (field-independent basis, Debye-Ang):
   XX=            -55.3698   YY=            -74.1473   ZZ=            -66.8307
   XY=              0.6182   XZ=              2.5144   YZ=             -1.2971

 Normal termination of Gaussian 16 at Sun Dec  3 17:22:14 2023.
