 Gaussian 16, Revision B.01,
 Gaussian 16:  ES64L-G16RevB.01 20-Dec-2017

 -------------------------
 #P B3LYP/6-311+g(d) force
 -------------------------

 -----
 DPGEN
 -----
 Symbolic Z-matrix:
 Charge =  0 Multiplicity = 2

                         Standard orientation:
 ---------------------------------------------------------------------
 Center     Atomic      Atomic             Coordinates (Angstroms)
 Number     Number       Type             X           Y           Z
 ---------------------------------------------------------------------
      1         11           0       -2.437094    1.841764   -0.244718
      2         11           0       -0.217444   -0.432129    2.080136
      3         11           0       -0.393461   -0.947951   -1.894308
      4         11           0        3.079008    0.699873   -0.890063
      5         11           0       -3.265656   -1.892517   -0.043529
      6         11           0        0.586378    3.030906    0.445913
      7         11           0        2.648268   -2.299947    0.546569
 ---------------------------------------------------------------------

 SCF Done:  E(UB3LYP) =  -1136.12703919     A.U. after   20 cycles

 The electronic state is 2-A.
 Alpha  occ. eigenvalues --  -38.44461 -38.44342 -38.44319 -38.44308 -38.44234
 Alpha  occ. eigenvalues --  -38.44209 -38.42898  -2.20261  -2.20121  -2.20112
 Alpha  occ. eigenvalues --   -2.20106  -2.20047  -2.19995  -2.18706  -1.13939
 Alpha  occ. eigenvalues --   -1.13926  -1.13871  -1.13810  -1.13794  -1.13782
 Alpha  occ. eigenvalues --   -1.13780  -1.13778  -1.13765  -1.13755  -1.13753
 Alpha  occ. eigenvalues --   -1.13734  -1.13711  -1.13678  -1.13673  -1.13657
 Alpha  occ. eigenvalues --   -1.13644  -1.13629  -1.12374  -1.12369  -1.12360
 Alpha  occ. eigenvalues --   -0.17417  -0.13184  -0.11876  -0.10814
 Alpha virt. eigenvalues --   -0.06177  -0.05915  -0.04540  -0.03456  -0.02872
 Alpha virt. eigenvalues --   -0.02808  -0.01931  -0.01390  -0.00817  -0.00327
 Alpha virt. eigenvalues --   -0.00092   0.00319   0.00456   0.00611   0.00669

  Beta  occ. eigenvalues --  -38.44406 -38.44348 -38.44317 -38.44287 -38.44202
  Beta  occ. eigenvalues --  -38.44139 -38.42898  -2.20159  -2.20125  -2.20118
  Beta  occ. eigenvalues --   -2.20068  -2.19984  -2.19871  -2.18707  -1.13871
  Beta  occ. eigenvalues --   -1.13853  -1.13810  -1.13800  -1.13790  -1.13783
  Beta  occ. eigenvalues --   -1.13774  -1.13751  -1.13750  -1.13738  -1.13737
  Beta  occ. eigenvalues --   -1.13730  -1.13650  -1.13637  -1.13614  -1.13591
  Beta  occ. eigenvalues --   -1.13558  -1.13534  -1.12376  -1.12370  -1.12351
  Beta  occ. eigenvalues --   -0.16728  -0.13027  -0.11712
  Beta virt. eigenvalues --   -0.07037  -0.06037  -0.05723  -0.04341  -0.02913
  Beta virt. eigenvalues --   -0.02232  -0.01971  -0.01751  -0.01233  -0.00855
  Beta virt. eigenvalues --   -0.00255   0.00041   0.00372   0.00608   0.00716

 Mulliken charges and spin densities:
               1          2
     1  Na   0.040870   0.002526
     2  Na  -0.042186   0.612814
     3  Na  -0.034896   0.339306
     4  Na   0.067844   0.136053
     5  Na   0.103686  -0.055237
     6  Na  -0.147160  -0.025790
     7  Na   0.011842  -0.009672
 Sum of Mulliken charges =  -0.00000   1.00000

 Dipole moment (field-independent basis, Debye):
    X=             -0.3871    Y=             -0.6494    Z=             -0.1422  Tot=              0.7693
 Quadrupole moment (field-independent basis, Debye-Ang):
   XX=            -55.2819   YY=            -67.3894   ZZ=            -73.2285
   XY=              0.5106   XZ=             -0.8349   YZ=             -1.6704

 Normal termination of Gaussian 16 at Sun Dec  3 12:39:08 2023.
