 Gaussian 16, Revision B.01,
 Gaussian 16:  ES64L-G16RevB.01 20-Dec-2017

 -------------------------
 #P B3LYP/6-311+g(d) force
 -------------------------

 -----
 DPGEN
 -----
 Symbolic Z-matrix:
 Charge =  0 Multiplicity = 2

                         Standard orientation:
 ---------------------------------------------------------------------
 Center     Atomic      Atomic             Coordinates (Angstroms)
 Number     Number       Type             X           Y           Z
 ---------------------------------------------------------------------
      1         11           0       -2.661882   -1.772896    0.441417
      2         11           0       -2.410547    1.792783    0.234931
      3         11           0       -0.903741    0.013529   -1.811966
      4         11           0        3.643381   -0.275690    0.300403
      5         11           0        1.157691    2.290831   -0.513743
      6         11           0        0.991056   -2.052056   -0.798284
      7         11           0        0.184041    0.003499    2.147243
 ---------------------------------------------------------------------

 SCF Done:  E(UB3LYP) =  -1136.13044443     A.U. after   21 cycles

 The electronic state is 2-A.
 Alpha  occ. eigenvalues --  -38.44658 -38.44511 -38.43821 -38.43679 -38.43535
 Alpha  occ. eigenvalues --  -38.43130 -38.43085  -2.20447  -2.20357  -2.19649
 Alpha  occ. eigenvalues --   -2.19552  -2.19542  -2.19022  -2.18930  -1.14117
 Alpha  occ. eigenvalues --   -1.14110  -1.14085  -1.14027  -1.13992  -1.13970
 Alpha  occ. eigenvalues --   -1.13353  -1.13323  -1.13313  -1.13289  -1.13261
 Alpha  occ. eigenvalues --   -1.13205  -1.13162  -1.13134  -1.13126  -1.12729
 Alpha  occ. eigenvalues --   -1.12672  -1.12629  -1.12609  -1.12601  -1.12536
 Alpha  occ. eigenvalues --   -0.18669  -0.13336  -0.11645  -0.11423
 Alpha virt. eigenvalues --   -0.06291  -0.05054  -0.03946  -0.03373  -0.03042
 Alpha virt. eigenvalues --   -0.02851  -0.01965  -0.00996  -0.00367  -0.00038
 Alpha virt. eigenvalues --    0.00192   0.00312   0.00522   0.00741   0.00864

  Beta  occ. eigenvalues --  -38.44661 -38.44427 -38.43814 -38.43674 -38.43459
  Beta  occ. eigenvalues --  -38.43106 -38.43074  -2.20453  -2.20202  -2.19638
  Beta  occ. eigenvalues --   -2.19540  -2.19411  -2.18982  -2.18914  -1.14119
  Beta  occ. eigenvalues --   -1.14111  -1.14089  -1.13925  -1.13884  -1.13853
  Beta  occ. eigenvalues --   -1.13332  -1.13294  -1.13286  -1.13274  -1.13196
  Beta  occ. eigenvalues --   -1.13174  -1.13152  -1.13055  -1.13039  -1.12690
  Beta  occ. eigenvalues --   -1.12626  -1.12612  -1.12588  -1.12575  -1.12528
  Beta  occ. eigenvalues --   -0.17887  -0.13181  -0.11388
  Beta virt. eigenvalues --   -0.07448  -0.06111  -0.05068  -0.03630  -0.02949
  Beta virt. eigenvalues --   -0.02131  -0.01965  -0.01844  -0.00943  -0.00244
  Beta virt. eigenvalues --    0.00036   0.00169   0.00336   0.00738   0.00816

 Mulliken charges and spin densities:
               1          2
     1  Na   0.002031   0.013614
     2  Na   0.130670  -0.022188
     3  Na   0.496305   0.422983
     4  Na   0.169781  -0.006055
     5  Na  -0.211874  -0.090027
     6  Na  -0.170975  -0.044382
     7  Na  -0.415938   0.726054
 Sum of Mulliken charges =  -0.00000   1.00000

 Dipole moment (field-independent basis, Debye):
    X=              0.2634    Y=              0.0221    Z=              0.6118  Tot=              0.6665
 Quadrupole moment (field-independent basis, Debye-Ang):
   XX=            -51.4517   YY=            -72.2186   ZZ=            -70.1937
   XY=              0.4931   XZ=             -0.8860   YZ=             -0.7218

 Normal termination of Gaussian 16 at Fri Dec  8 06:24:43 2023.
