 Gaussian 16, Revision B.01,
 Gaussian 16:  ES64L-G16RevB.01 20-Dec-2017

 -------------------------
 #P B3LYP/6-311+g(d) force
 -------------------------

 -----
 DPGEN
 -----
 Symbolic Z-matrix:
 Charge =  0 Multiplicity = 2

                         Standard orientation:
 ---------------------------------------------------------------------
 Center     Atomic      Atomic             Coordinates (Angstroms)
 Number     Number       Type             X           Y           Z
 ---------------------------------------------------------------------
      1         11           0        0.100145   -0.954213   -0.763302
      2         11           0       -0.910932    1.018380    1.968704
      3         11           0       -2.680872    1.484639   -0.809349
      4         11           0       -3.330710   -1.985722   -0.311219
      5         11           0        2.354184   -1.801714    1.376167
      6         11           0        1.344482    2.451496    0.007063
      7         11           0        3.123702   -0.212866   -1.468063
 ---------------------------------------------------------------------

 SCF Done:  E(UB3LYP) =  -1136.12584642     A.U. after   22 cycles

 The electronic state is 2-A.
 Alpha  occ. eigenvalues --  -38.44792 -38.44151 -38.43913 -38.43838 -38.43525
 Alpha  occ. eigenvalues --  -38.43432 -38.43240  -2.20609  -2.19995  -2.19794
 Alpha  occ. eigenvalues --   -2.19615  -2.19404  -2.19376  -2.19075  -1.14307
 Alpha  occ. eigenvalues --   -1.14280  -1.14205  -1.13677  -1.13640  -1.13622
 Alpha  occ. eigenvalues --   -1.13487  -1.13433  -1.13407  -1.13285  -1.13282
 Alpha  occ. eigenvalues --   -1.13252  -1.13116  -1.13079  -1.13050  -1.13030
 Alpha  occ. eigenvalues --   -1.13022  -1.12984  -1.12748  -1.12746  -1.12699
 Alpha  occ. eigenvalues --   -0.18069  -0.13865  -0.11407  -0.10734
 Alpha virt. eigenvalues --   -0.05924  -0.05765  -0.04752  -0.03251  -0.02595
 Alpha virt. eigenvalues --   -0.02338  -0.02023  -0.01310  -0.00734  -0.00213
 Alpha virt. eigenvalues --    0.00149   0.00239   0.00396   0.00512   0.00721

  Beta  occ. eigenvalues --  -38.44783 -38.44100 -38.43871 -38.43844 -38.43475
  Beta  occ. eigenvalues --  -38.43417 -38.43224  -2.20592  -2.19902  -2.19717
  Beta  occ. eigenvalues --   -2.19626  -2.19355  -2.19310  -2.19049  -1.14288
  Beta  occ. eigenvalues --   -1.14270  -1.14194  -1.13614  -1.13579  -1.13548
  Beta  occ. eigenvalues --   -1.13432  -1.13384  -1.13342  -1.13293  -1.13287
  Beta  occ. eigenvalues --   -1.13259  -1.13065  -1.13021  -1.13005  -1.12985
  Beta  occ. eigenvalues --   -1.12974  -1.12952  -1.12733  -1.12717  -1.12668
  Beta  occ. eigenvalues --   -0.17421  -0.13598  -0.11237
  Beta virt. eigenvalues --   -0.07013  -0.05787  -0.05564  -0.04110  -0.03130
  Beta virt. eigenvalues --   -0.02111  -0.01881  -0.01566  -0.01164  -0.00432
  Beta virt. eigenvalues --   -0.00088   0.00236   0.00290   0.00510   0.00680

 Mulliken charges and spin densities:
               1          2
     1  Na  -1.918334   0.464742
     2  Na   0.154721   0.368194
     3  Na   0.349784  -0.018737
     4  Na   0.106995  -0.111425
     5  Na   0.010983   0.087828
     6  Na  -0.118263   0.093287
     7  Na   1.414114   0.116111
 Sum of Mulliken charges =  -0.00000   1.00000

 Dipole moment (field-independent basis, Debye):
    X=             -0.2093    Y=              0.2291    Z=              0.1836  Tot=              0.3606
 Quadrupole moment (field-independent basis, Debye-Ang):
   XX=            -54.4921   YY=            -70.3322   ZZ=            -69.1814
   XY=             -1.7032   XZ=             -0.0297   YZ=             -4.1617

 Normal termination of Gaussian 16 at Tue Dec  5 20:05:31 2023.
