 Gaussian 16, Revision B.01,
 Gaussian 16:  ES64L-G16RevB.01 20-Dec-2017

 -------------------------
 #P B3LYP/6-311+g(d) force
 -------------------------

 -----
 DPGEN
 -----
 Symbolic Z-matrix:
 Charge =  0 Multiplicity = 2

                         Standard orientation:
 ---------------------------------------------------------------------
 Center     Atomic      Atomic             Coordinates (Angstroms)
 Number     Number       Type             X           Y           Z
 ---------------------------------------------------------------------
      1         11           0       -3.045818    0.183907   -0.004743
      2         11           0       -1.249238   -2.809588   -0.359975
      3         11           0        2.343759    1.716643   -0.367346
      4         11           0        2.786140   -1.563077    0.179629
      5         11           0       -0.939581    2.771307    0.025258
      6         11           0        0.081194   -0.125396   -1.601432
      7         11           0        0.023544   -0.173796    2.128609
 ---------------------------------------------------------------------

 SCF Done:  E(UB3LYP) =  -1136.13845754     A.U. after   19 cycles

 The electronic state is 2-A.
 Alpha  occ. eigenvalues --  -38.44024 -38.43951 -38.43798 -38.43564 -38.43538
 Alpha  occ. eigenvalues --  -38.43146 -38.43084  -2.19845  -2.19798  -2.19663
 Alpha  occ. eigenvalues --   -2.19445  -2.19369  -2.19141  -2.18947  -1.13515
 Alpha  occ. eigenvalues --   -1.13513  -1.13489  -1.13477  -1.13465  -1.13438
 Alpha  occ. eigenvalues --   -1.13326  -1.13290  -1.13279  -1.13166  -1.13096
 Alpha  occ. eigenvalues --   -1.13074  -1.13068  -1.13021  -1.12998  -1.12819
 Alpha  occ. eigenvalues --   -1.12771  -1.12762  -1.12615  -1.12607  -1.12592
 Alpha  occ. eigenvalues --   -0.18648  -0.13113  -0.12354  -0.10845
 Alpha virt. eigenvalues --   -0.05669  -0.05085  -0.04676  -0.03245  -0.02868
 Alpha virt. eigenvalues --   -0.02662  -0.01506  -0.01138  -0.00418  -0.00239
 Alpha virt. eigenvalues --   -0.00016   0.00360   0.00807   0.00863   0.00895

  Beta  occ. eigenvalues --  -38.44021 -38.43948 -38.43699 -38.43554 -38.43531
  Beta  occ. eigenvalues --  -38.43085 -38.43082  -2.19841  -2.19796  -2.19481
  Beta  occ. eigenvalues --   -2.19430  -2.19358  -2.19030  -2.18945  -1.13515
  Beta  occ. eigenvalues --   -1.13491  -1.13486  -1.13475  -1.13450  -1.13433
  Beta  occ. eigenvalues --   -1.13206  -1.13165  -1.13146  -1.13144  -1.13072
  Beta  occ. eigenvalues --   -1.13060  -1.13055  -1.13005  -1.12990  -1.12743
  Beta  occ. eigenvalues --   -1.12692  -1.12686  -1.12611  -1.12601  -1.12574
  Beta  occ. eigenvalues --   -0.17924  -0.12884  -0.12108
  Beta virt. eigenvalues --   -0.06917  -0.05631  -0.05056  -0.04643  -0.02460
  Beta virt. eigenvalues --   -0.02105  -0.01596  -0.01406  -0.01052  -0.00474
  Beta virt. eigenvalues --   -0.00283   0.00126   0.00385   0.00849   0.00875

 Mulliken charges and spin densities:
               1          2
     1  Na   0.154250  -0.011625
     2  Na   0.151368  -0.057580
     3  Na   0.302009   0.026759
     4  Na   0.129922  -0.022970
     5  Na   0.073067  -0.007247
     6  Na  -0.244529   0.322071
     7  Na  -0.566087   0.750592
 Sum of Mulliken charges =  -0.00000   1.00000

 Dipole moment (field-independent basis, Debye):
    X=              0.0766    Y=             -0.2774    Z=              0.2115  Tot=              0.3572
 Quadrupole moment (field-independent basis, Debye-Ang):
   XX=            -57.1106   YY=            -62.4815   ZZ=            -74.1134
   XY=             -0.6563   XZ=             -0.0223   YZ=             -0.0594

 Normal termination of Gaussian 16 at Fri Dec  8 01:45:57 2023.
