 Gaussian 16, Revision B.01,
 Gaussian 16:  ES64L-G16RevB.01 20-Dec-2017

 -------------------------
 #P B3LYP/6-311+g(d) force
 -------------------------

 -----
 DPGEN
 -----
 Symbolic Z-matrix:
 Charge =  0 Multiplicity = 2

                         Standard orientation:
 ---------------------------------------------------------------------
 Center     Atomic      Atomic             Coordinates (Angstroms)
 Number     Number       Type             X           Y           Z
 ---------------------------------------------------------------------
      1         11           0        1.746703    0.080162   -1.286943
      2         11           0       -0.271689   -0.347946    1.859708
      3         11           0        4.081470   -0.990681    0.628390
      4         11           0       -1.757415    1.116686   -1.508550
      5         11           0       -1.014874   -2.314080   -1.129775
      6         11           0        0.648302    2.904478    0.324389
      7         11           0       -3.432497   -0.448619    1.112781
 ---------------------------------------------------------------------

 SCF Done:  E(UB3LYP) =  -1136.12411536     A.U. after   23 cycles

 The electronic state is 2-A.
 Alpha  occ. eigenvalues --  -38.44686 -38.44623 -38.44422 -38.44165 -38.43717
 Alpha  occ. eigenvalues --  -38.43229 -38.42742  -2.20545  -2.20456  -2.20190
 Alpha  occ. eigenvalues --   -2.19995  -2.19591  -2.19129  -2.18566  -1.14229
 Alpha  occ. eigenvalues --   -1.14215  -1.14180  -1.14117  -1.14093  -1.14063
 Alpha  occ. eigenvalues --   -1.13874  -1.13843  -1.13828  -1.13676  -1.13651
 Alpha  occ. eigenvalues --   -1.13602  -1.13281  -1.13251  -1.13198  -1.12825
 Alpha  occ. eigenvalues --   -1.12804  -1.12744  -1.12237  -1.12227  -1.12201
 Alpha  occ. eigenvalues --   -0.18213  -0.13229  -0.11553  -0.11231
 Alpha virt. eigenvalues --   -0.06872  -0.04648  -0.04532  -0.03262  -0.02839
 Alpha virt. eigenvalues --   -0.02686  -0.02299  -0.01224  -0.00757  -0.00132
 Alpha virt. eigenvalues --    0.00096   0.00153   0.00210   0.00775   0.00797

  Beta  occ. eigenvalues --  -38.44624 -38.44595 -38.44423 -38.44114 -38.43682
  Beta  occ. eigenvalues --  -38.43209 -38.42741  -2.20431  -2.20407  -2.20192
  Beta  occ. eigenvalues --   -2.19905  -2.19529  -2.19097  -2.18564  -1.14161
  Beta  occ. eigenvalues --   -1.14127  -1.14102  -1.14081  -1.14038  -1.14024
  Beta  occ. eigenvalues --   -1.13877  -1.13843  -1.13828  -1.13613  -1.13573
  Beta  occ. eigenvalues --   -1.13542  -1.13225  -1.13207  -1.13152  -1.12805
  Beta  occ. eigenvalues --   -1.12757  -1.12724  -1.12230  -1.12224  -1.12199
  Beta  occ. eigenvalues --   -0.17404  -0.13068  -0.11111
  Beta virt. eigenvalues --   -0.07570  -0.06663  -0.04470  -0.04124  -0.02941
  Beta virt. eigenvalues --   -0.02294  -0.02233  -0.01758  -0.00994  -0.00554
  Beta virt. eigenvalues --   -0.00057   0.00164   0.00183   0.00328   0.00821

 Mulliken charges and spin densities:
               1          2
     1  Na   0.235559  -0.165259
     2  Na  -0.128355   0.555557
     3  Na  -0.006362   0.070455
     4  Na   0.350793   0.323398
     5  Na  -0.372283   0.314243
     6  Na  -0.335106  -0.033068
     7  Na   0.255753  -0.065325
 Sum of Mulliken charges =  -0.00000   1.00000

 Dipole moment (field-independent basis, Debye):
    X=             -0.6738    Y=             -0.2674    Z=              0.4477  Tot=              0.8520
 Quadrupole moment (field-independent basis, Debye-Ang):
   XX=            -54.0582   YY=            -72.3993   ZZ=            -68.1431
   XY=              0.0631   XZ=              2.5800   YZ=              1.5734

 Normal termination of Gaussian 16 at Tue Dec  5 16:13:55 2023.
