 Gaussian 16, Revision B.01,
 Gaussian 16:  ES64L-G16RevB.01 20-Dec-2017

 -------------------------
 #P B3LYP/6-311+g(d) force
 -------------------------

 -----
 DPGEN
 -----
 Symbolic Z-matrix:
 Charge =  0 Multiplicity = 2

                         Standard orientation:
 ---------------------------------------------------------------------
 Center     Atomic      Atomic             Coordinates (Angstroms)
 Number     Number       Type             X           Y           Z
 ---------------------------------------------------------------------
      1         11           0       -3.852747   -0.145481    0.291946
      2         11           0        2.298867    1.260492   -0.565386
      3         11           0       -0.274976   -0.028092    0.966341
      4         11           0        5.625963   -1.323067   -0.377186
      5         11           0       -6.597232   -1.278315   -0.623854
      6         11           0        2.480022   -2.287370    0.276840
      7         11           0        0.320104    3.801834    0.031299
 ---------------------------------------------------------------------

 SCF Done:  E(UB3LYP) =  -1136.11680167     A.U. after   19 cycles

 The electronic state is 2-A.
 Alpha  occ. eigenvalues --  -38.44600 -38.44519 -38.44423 -38.44340 -38.44158
 Alpha  occ. eigenvalues --  -38.44103 -38.43602  -2.20454  -2.20303  -2.20244
 Alpha  occ. eigenvalues --   -2.20144  -2.19962  -2.19954  -2.19399  -1.14169
 Alpha  occ. eigenvalues --   -1.14149  -1.14058  -1.13969  -1.13963  -1.13943
 Alpha  occ. eigenvalues --   -1.13924  -1.13912  -1.13846  -1.13798  -1.13796
 Alpha  occ. eigenvalues --   -1.13753  -1.13634  -1.13626  -1.13619  -1.13599
 Alpha  occ. eigenvalues --   -1.13598  -1.13563  -1.13067  -1.13064  -1.13049
 Alpha  occ. eigenvalues --   -0.16785  -0.13527  -0.12688  -0.11054
 Alpha virt. eigenvalues --   -0.06843  -0.05584  -0.04343  -0.03386  -0.03114
 Alpha virt. eigenvalues --   -0.02344  -0.02111  -0.01784  -0.01431  -0.01102
 Alpha virt. eigenvalues --   -0.00434  -0.00285   0.00044   0.00377   0.00588

  Beta  occ. eigenvalues --  -38.44587 -38.44485 -38.44406 -38.44294 -38.44127
  Beta  occ. eigenvalues --  -38.44039 -38.43608  -2.20432  -2.20238  -2.20216
  Beta  occ. eigenvalues --   -2.20059  -2.19897  -2.19844  -2.19413  -1.14140
  Beta  occ. eigenvalues --   -1.14131  -1.14036  -1.13927  -1.13920  -1.13908
  Beta  occ. eigenvalues --   -1.13905  -1.13885  -1.13798  -1.13741  -1.13731
  Beta  occ. eigenvalues --   -1.13704  -1.13585  -1.13559  -1.13559  -1.13556
  Beta  occ. eigenvalues --   -1.13548  -1.13469  -1.13079  -1.13076  -1.13035
  Beta  occ. eigenvalues --   -0.16122  -0.13306  -0.12152
  Beta virt. eigenvalues --   -0.07768  -0.06352  -0.05171  -0.04125  -0.03163
  Beta virt. eigenvalues --   -0.02665  -0.02262  -0.01812  -0.01501  -0.01248
  Beta virt. eigenvalues --   -0.00756  -0.00119  -0.00048   0.00155   0.00480

 Mulliken charges and spin densities:
               1          2
     1  Na  -0.102099   0.071124
     2  Na  -0.012352   0.165045
     3  Na  -1.409347   0.358542
     4  Na   0.243724   0.185942
     5  Na   0.506970   0.121984
     6  Na   0.599124  -0.075824
     7  Na   0.173979   0.173187
 Sum of Mulliken charges =  -0.00000   1.00000

 Dipole moment (field-independent basis, Debye):
    X=              1.0598    Y=              0.1845    Z=             -0.1203  Tot=              1.0825
 Quadrupole moment (field-independent basis, Debye-Ang):
   XX=            -56.7441   YY=            -63.5960   ZZ=            -72.5778
   XY=             -1.1242   XZ=              1.2959   YZ=              1.1154

 Normal termination of Gaussian 16 at Mon Dec  4 05:14:48 2023.
