 Gaussian 16, Revision B.01,
 Gaussian 16:  ES64L-G16RevB.01 20-Dec-2017

 -------------------------
 #P B3LYP/6-311+g(d) force
 -------------------------

 -----
 DPGEN
 -----
 Symbolic Z-matrix:
 Charge =  0 Multiplicity = 2

                         Standard orientation:
 ---------------------------------------------------------------------
 Center     Atomic      Atomic             Coordinates (Angstroms)
 Number     Number       Type             X           Y           Z
 ---------------------------------------------------------------------
      1         11           0       -1.095611    1.923206    0.045572
      2         11           0       -3.893682    0.691010   -0.809177
      3         11           0        3.374257   -0.666092   -1.202788
      4         11           0       -0.379749   -1.041941   -1.279722
      5         11           0        1.373771   -1.374753    0.907886
      6         11           0       -2.247709   -1.406048    1.462575
      7         11           0        2.868723    1.874618    0.875654
 ---------------------------------------------------------------------

 SCF Done:  E(UB3LYP) =  -1136.11336156     A.U. after   26 cycles

 The electronic state is 2-A.
 Alpha  occ. eigenvalues --  -38.44601 -38.44514 -38.44204 -38.44202 -38.44110
 Alpha  occ. eigenvalues --  -38.43607 -38.43361  -2.20489  -2.20356  -2.20153
 Alpha  occ. eigenvalues --   -2.20051  -2.19974  -2.19427  -2.19354  -1.14205
 Alpha  occ. eigenvalues --   -1.14130  -1.14097  -1.14031  -1.14019  -1.13993
 Alpha  occ. eigenvalues --   -1.13955  -1.13837  -1.13771  -1.13739  -1.13707
 Alpha  occ. eigenvalues --   -1.13648  -1.13641  -1.13609  -1.13590  -1.13097
 Alpha  occ. eigenvalues --   -1.13081  -1.13071  -1.13062  -1.13005  -1.12932
 Alpha  occ. eigenvalues --   -0.18524  -0.14757  -0.11279  -0.10480
 Alpha virt. eigenvalues --   -0.07255  -0.05257  -0.04907  -0.03250  -0.02979
 Alpha virt. eigenvalues --   -0.02325  -0.01686  -0.01333  -0.01139  -0.00041
 Alpha virt. eigenvalues --    0.00017   0.00214   0.00342   0.00550   0.00644

  Beta  occ. eigenvalues --  -38.44562 -38.44496 -38.44192 -38.44187 -38.44068
  Beta  occ. eigenvalues --  -38.43585 -38.43347  -2.20416  -2.20322  -2.20135
  Beta  occ. eigenvalues --   -2.20025  -2.19896  -2.19386  -2.19333  -1.14159
  Beta  occ. eigenvalues --   -1.14079  -1.14041  -1.14009  -1.13991  -1.13969
  Beta  occ. eigenvalues --   -1.13940  -1.13826  -1.13748  -1.13717  -1.13680
  Beta  occ. eigenvalues --   -1.13609  -1.13576  -1.13560  -1.13539  -1.13066
  Beta  occ. eigenvalues --   -1.13059  -1.13053  -1.13034  -1.12935  -1.12926
  Beta  occ. eigenvalues --   -0.17956  -0.14506  -0.10874
  Beta virt. eigenvalues --   -0.07084  -0.06967  -0.05122  -0.04232  -0.03026
  Beta virt. eigenvalues --   -0.02812  -0.01833  -0.01226  -0.01013  -0.00678
  Beta virt. eigenvalues --   -0.00044   0.00060   0.00256   0.00458   0.00693

 Mulliken charges and spin densities:
               1          2
     1  Na  -0.707895   0.286811
     2  Na   0.870715   0.128858
     3  Na   0.688089   0.187064
     4  Na  -0.484903  -0.209579
     5  Na  -0.173990   0.771173
     6  Na   0.017163   0.088005
     7  Na  -0.209179  -0.252332
 Sum of Mulliken charges =  -0.00000   1.00000

 Dipole moment (field-independent basis, Debye):
    X=             -0.6772    Y=             -0.4478    Z=             -0.0230  Tot=              0.8122
 Quadrupole moment (field-independent basis, Debye-Ang):
   XX=            -48.6070   YY=            -77.8829   ZZ=            -69.6636
   XY=              2.1659   XZ=             -2.1938   YZ=             -0.2614

 Normal termination of Gaussian 16 at Tue Dec  5 23:54:49 2023.
