 Gaussian 16, Revision B.01,
 Gaussian 16:  ES64L-G16RevB.01 20-Dec-2017

 -------------------------
 #P B3LYP/6-311+g(d) force
 -------------------------

 -----
 DPGEN
 -----
 Symbolic Z-matrix:
 Charge =  0 Multiplicity = 2

                         Standard orientation:
 ---------------------------------------------------------------------
 Center     Atomic      Atomic             Coordinates (Angstroms)
 Number     Number       Type             X           Y           Z
 ---------------------------------------------------------------------
      1         11           0        0.038881   -0.367357   -1.585296
      2         11           0        1.358476    2.276262    0.391186
      3         11           0        3.924220   -1.067343   -0.797396
      4         11           0        1.919478   -0.988721    1.364201
      5         11           0       -1.733761   -0.689696    1.471732
      6         11           0       -1.571034    2.159060   -0.309241
      7         11           0       -3.936260   -1.322205   -0.535186
 ---------------------------------------------------------------------

 SCF Done:  E(UB3LYP) =  -1136.11947986     A.U. after   22 cycles

 The electronic state is 2-A.
 Alpha  occ. eigenvalues --  -38.44914 -38.44343 -38.44258 -38.43550 -38.43548
 Alpha  occ. eigenvalues --  -38.43532 -38.43431  -2.20786  -2.20175  -2.20067
 Alpha  occ. eigenvalues --   -2.19476  -2.19457  -2.19435  -2.19352  -1.14494
 Alpha  occ. eigenvalues --   -1.14438  -1.14392  -1.13901  -1.13817  -1.13800
 Alpha  occ. eigenvalues --   -1.13775  -1.13722  -1.13700  -1.13196  -1.13155
 Alpha  occ. eigenvalues --   -1.13145  -1.13129  -1.13127  -1.13106  -1.13086
 Alpha  occ. eigenvalues --   -1.13068  -1.13065  -1.13018  -1.12992  -1.12918
 Alpha  occ. eigenvalues --   -0.18547  -0.14039  -0.11649  -0.10713
 Alpha virt. eigenvalues --   -0.06873  -0.05374  -0.04419  -0.03269  -0.02629
 Alpha virt. eigenvalues --   -0.02399  -0.02199  -0.01435  -0.00765  -0.00216
 Alpha virt. eigenvalues --    0.00071   0.00332   0.00451   0.00500   0.00702

  Beta  occ. eigenvalues --  -38.44865 -38.44329 -38.44257 -38.43543 -38.43508
  Beta  occ. eigenvalues --  -38.43486 -38.43422  -2.20697  -2.20148  -2.20067
  Beta  occ. eigenvalues --   -2.19425  -2.19406  -2.19373  -2.19339  -1.14421
  Beta  occ. eigenvalues --   -1.14372  -1.14326  -1.13885  -1.13798  -1.13775
  Beta  occ. eigenvalues --   -1.13773  -1.13722  -1.13694  -1.13192  -1.13116
  Beta  occ. eigenvalues --   -1.13103  -1.13082  -1.13076  -1.13062  -1.13044
  Beta  occ. eigenvalues --   -1.13023  -1.12996  -1.12988  -1.12970  -1.12912
  Beta  occ. eigenvalues --   -0.17817  -0.13910  -0.11495
  Beta virt. eigenvalues --   -0.06848  -0.06605  -0.05272  -0.03846  -0.03143
  Beta virt. eigenvalues --   -0.02489  -0.01860  -0.01464  -0.01200  -0.00409
  Beta virt. eigenvalues --   -0.00208   0.00108   0.00467   0.00549   0.00602

 Mulliken charges and spin densities:
               1          2
     1  Na  -0.628102   0.470920
     2  Na  -0.145928   0.078505
     3  Na   0.310720   0.104902
     4  Na   0.131199   0.112063
     5  Na  -0.534089   0.093574
     6  Na   0.363503   0.073844
     7  Na   0.502698   0.066191
 Sum of Mulliken charges =  -0.00000   1.00000

 Dipole moment (field-independent basis, Debye):
    X=              0.0473    Y=              0.3369    Z=             -0.5411  Tot=              0.6392
 Quadrupole moment (field-independent basis, Debye-Ang):
   XX=            -51.8333   YY=            -72.4054   ZZ=            -71.3670
   XY=              0.8179   XZ=              1.0459   YZ=              2.7599

 Normal termination of Gaussian 16 at Thu Dec  7 23:06:05 2023.
