 Gaussian 16, Revision B.01,
 Gaussian 16:  ES64L-G16RevB.01 20-Dec-2017

 -------------------------
 #P B3LYP/6-311+g(d) force
 -------------------------

 -----
 DPGEN
 -----
 Symbolic Z-matrix:
 Charge =  0 Multiplicity = 2

                         Standard orientation:
 ---------------------------------------------------------------------
 Center     Atomic      Atomic             Coordinates (Angstroms)
 Number     Number       Type             X           Y           Z
 ---------------------------------------------------------------------
      1         11           0        0.391550   -2.111878   -0.707648
      2         11           0       -2.285837   -0.125498   -1.890661
      3         11           0        3.855251   -0.589403    0.145472
      4         11           0        1.473891    1.628863   -1.289217
      5         11           0        0.228449    0.318027    2.083880
      6         11           0       -2.218794   -2.079244    1.015313
      7         11           0       -1.444511    2.959132    0.642861
 ---------------------------------------------------------------------

 SCF Done:  E(UB3LYP) =  -1136.13099445     A.U. after   19 cycles

 The electronic state is 2-A.
 Alpha  occ. eigenvalues --  -38.44457 -38.44217 -38.44138 -38.43930 -38.43779
 Alpha  occ. eigenvalues --  -38.43605 -38.43102  -2.20273  -2.20069  -2.19939
 Alpha  occ. eigenvalues --   -2.19698  -2.19637  -2.19473  -2.18892  -1.13951
 Alpha  occ. eigenvalues --   -1.13916  -1.13879  -1.13740  -1.13703  -1.13691
 Alpha  occ. eigenvalues --   -1.13632  -1.13612  -1.13543  -1.13371  -1.13366
 Alpha  occ. eigenvalues --   -1.13353  -1.13330  -1.13285  -1.13276  -1.13164
 Alpha  occ. eigenvalues --   -1.13152  -1.13055  -1.12568  -1.12551  -1.12535
 Alpha  occ. eigenvalues --   -0.17829  -0.12803  -0.11889  -0.11459
 Alpha virt. eigenvalues --   -0.05723  -0.05057  -0.04697  -0.03517  -0.03196
 Alpha virt. eigenvalues --   -0.03002  -0.01706  -0.01035  -0.00624  -0.00010
 Alpha virt. eigenvalues --    0.00083   0.00297   0.00529   0.00749   0.00768

  Beta  occ. eigenvalues --  -38.44393 -38.44135 -38.44117 -38.43935 -38.43764
  Beta  occ. eigenvalues --  -38.43595 -38.43102  -2.20154  -2.19919  -2.19901
  Beta  occ. eigenvalues --   -2.19708  -2.19612  -2.19457  -2.18893  -1.13861
  Beta  occ. eigenvalues --   -1.13840  -1.13797  -1.13645  -1.13606  -1.13591
  Beta  occ. eigenvalues --   -1.13584  -1.13573  -1.13519  -1.13374  -1.13371
  Beta  occ. eigenvalues --   -1.13340  -1.13335  -1.13270  -1.13235  -1.13154
  Beta  occ. eigenvalues --   -1.13112  -1.13049  -1.12558  -1.12553  -1.12533
  Beta  occ. eigenvalues --   -0.17052  -0.12643  -0.11734
  Beta virt. eigenvalues --   -0.07572  -0.05577  -0.04818  -0.04401  -0.03066
  Beta virt. eigenvalues --   -0.02570  -0.02224  -0.01581  -0.00953  -0.00287
  Beta virt. eigenvalues --    0.00005   0.00183   0.00349   0.00623   0.00805

 Mulliken charges and spin densities:
               1          2
     1  Na  -0.231138   0.240700
     2  Na  -0.071402   0.350768
     3  Na   0.234072  -0.079288
     4  Na  -0.179567   0.166052
     5  Na  -0.174732   0.663680
     6  Na   0.432321  -0.164722
     7  Na  -0.009554  -0.177190
 Sum of Mulliken charges =  -0.00000   1.00000

 Dipole moment (field-independent basis, Debye):
    X=             -0.0491    Y=             -0.2130    Z=             -0.0383  Tot=              0.2219
 Quadrupole moment (field-independent basis, Debye-Ang):
   XX=            -58.0735   YY=            -70.1853   ZZ=            -67.3693
   XY=             -0.0217   XZ=              0.6572   YZ=             -2.1680

 Normal termination of Gaussian 16 at Sun Dec  3 22:24:17 2023.
