 Gaussian 16, Revision B.01,
 Gaussian 16:  ES64L-G16RevB.01 20-Dec-2017

 -------------------------
 #P B3LYP/6-311+g(d) force
 -------------------------

 -----
 DPGEN
 -----
 Symbolic Z-matrix:
 Charge =  0 Multiplicity = 2

                         Standard orientation:
 ---------------------------------------------------------------------
 Center     Atomic      Atomic             Coordinates (Angstroms)
 Number     Number       Type             X           Y           Z
 ---------------------------------------------------------------------
      1         11           0       -1.357010    2.576892    0.030252
      2         11           0        3.453265   -1.180430   -0.238320
      3         11           0        2.254854    2.259997    0.071094
      4         11           0       -0.328745   -0.170598   -1.972813
      5         11           0       -3.347848   -0.098849    0.001934
      6         11           0       -0.704608   -2.983730    0.002424
      7         11           0        0.030092   -0.403282    2.105429
 ---------------------------------------------------------------------

 SCF Done:  E(UB3LYP) =  -1136.13036041     A.U. after   20 cycles

 The electronic state is 2-A.
 Alpha  occ. eigenvalues --  -38.44918 -38.44675 -38.43959 -38.43916 -38.43827
 Alpha  occ. eigenvalues --  -38.43487 -38.43113  -2.20651  -2.20479  -2.19816
 Alpha  occ. eigenvalues --   -2.19754  -2.19606  -2.19298  -2.18953  -1.14329
 Alpha  occ. eigenvalues --   -1.14303  -1.14293  -1.14152  -1.14148  -1.14114
 Alpha  occ. eigenvalues --   -1.13490  -1.13456  -1.13435  -1.13418  -1.13388
 Alpha  occ. eigenvalues --   -1.13374  -1.13285  -1.13271  -1.13244  -1.12972
 Alpha  occ. eigenvalues --   -1.12971  -1.12927  -1.12630  -1.12620  -1.12595
 Alpha  occ. eigenvalues --   -0.17801  -0.12817  -0.12064  -0.10714
 Alpha virt. eigenvalues --   -0.06470  -0.05250  -0.04600  -0.03202  -0.02941
 Alpha virt. eigenvalues --   -0.02736  -0.02020  -0.01145  -0.00775  -0.00446
 Alpha virt. eigenvalues --   -0.00106   0.00330   0.00597   0.00697   0.00778

  Beta  occ. eigenvalues --  -38.44918 -38.44673 -38.43883 -38.43827 -38.43826
  Beta  occ. eigenvalues --  -38.43482 -38.43109  -2.20653  -2.20478  -2.19676
  Beta  occ. eigenvalues --   -2.19607  -2.19586  -2.19293  -2.18948  -1.14322
  Beta  occ. eigenvalues --   -1.14306  -1.14296  -1.14151  -1.14127  -1.14116
  Beta  occ. eigenvalues --   -1.13397  -1.13356  -1.13333  -1.13308  -1.13276
  Beta  occ. eigenvalues --   -1.13274  -1.13265  -1.13254  -1.13248  -1.12971
  Beta  occ. eigenvalues --   -1.12938  -1.12929  -1.12628  -1.12603  -1.12586
  Beta  occ. eigenvalues --   -0.17061  -0.12678  -0.11843
  Beta virt. eigenvalues --   -0.06856  -0.06397  -0.05216  -0.04485  -0.02521
  Beta virt. eigenvalues --   -0.02160  -0.01924  -0.01733  -0.01100  -0.00816
  Beta virt. eigenvalues --   -0.00486   0.00057   0.00362   0.00736   0.00780

 Mulliken charges and spin densities:
               1          2
     1  Na  -0.075072  -0.056560
     2  Na   0.009338  -0.104463
     3  Na  -0.059224  -0.071567
     4  Na  -0.075573   0.718427
     5  Na   0.338337  -0.023736
     6  Na   0.078289  -0.203036
     7  Na  -0.216094   0.740935
 Sum of Mulliken charges =  -0.00000   1.00000

 Dipole moment (field-independent basis, Debye):
    X=              0.0429    Y=             -0.3746    Z=             -0.0390  Tot=              0.3791
 Quadrupole moment (field-independent basis, Debye-Ang):
   XX=            -54.0383   YY=            -65.8022   ZZ=            -74.3423
   XY=             -0.5034   XZ=             -0.8105   YZ=              0.7151

 Normal termination of Gaussian 16 at Mon Dec  4 04:56:12 2023.
