 Gaussian 16, Revision B.01,
 Gaussian 16:  ES64L-G16RevB.01 20-Dec-2017

 -------------------------
 #P B3LYP/6-311+g(d) force
 -------------------------

 -----
 DPGEN
 -----
 Symbolic Z-matrix:
 Charge =  0 Multiplicity = 2

                         Standard orientation:
 ---------------------------------------------------------------------
 Center     Atomic      Atomic             Coordinates (Angstroms)
 Number     Number       Type             X           Y           Z
 ---------------------------------------------------------------------
      1         11           0        1.363340    3.113835    0.443811
      2         11           0       -2.926703   -2.706909    1.220419
      3         11           0        3.381297    0.191760    0.962800
      4         11           0        3.198136   -2.088739   -1.136013
      5         11           0       -0.203143   -2.294875   -0.280843
      6         11           0       -3.088665    0.055581   -0.879972
      7         11           0       -1.724262    3.729347   -0.330203
 ---------------------------------------------------------------------

 SCF Done:  E(UB3LYP) =  -1136.11767546     A.U. after   21 cycles

 The electronic state is 2-A.
 Alpha  occ. eigenvalues --  -38.45431 -38.44873 -38.44343 -38.44300 -38.43608
 Alpha  occ. eigenvalues --  -38.43607 -38.43561  -2.21203  -2.20702  -2.20164
 Alpha  occ. eigenvalues --   -2.20151  -2.19456  -2.19410  -2.19348  -1.14906
 Alpha  occ. eigenvalues --   -1.14880  -1.14798  -1.14420  -1.14388  -1.14312
 Alpha  occ. eigenvalues --   -1.13853  -1.13825  -1.13820  -1.13808  -1.13791
 Alpha  occ. eigenvalues --   -1.13757  -1.13114  -1.13098  -1.13097  -1.13089
 Alpha  occ. eigenvalues --   -1.13084  -1.13074  -1.13017  -1.12992  -1.12961
 Alpha  occ. eigenvalues --   -0.16386  -0.14070  -0.13094  -0.10266
 Alpha virt. eigenvalues --   -0.06872  -0.05732  -0.04552  -0.03388  -0.02892
 Alpha virt. eigenvalues --   -0.02391  -0.01887  -0.01689  -0.01358  -0.00816
 Alpha virt. eigenvalues --   -0.00277  -0.00166   0.00218   0.00532   0.00635

  Beta  occ. eigenvalues --  -38.45406 -38.44855 -38.44319 -38.44257 -38.43578
  Beta  occ. eigenvalues --  -38.43572 -38.43555  -2.21159  -2.20674  -2.20123
  Beta  occ. eigenvalues --   -2.20071  -2.19390  -2.19357  -2.19337  -1.14877
  Beta  occ. eigenvalues --   -1.14853  -1.14746  -1.14390  -1.14373  -1.14275
  Beta  occ. eigenvalues --   -1.13827  -1.13800  -1.13762  -1.13751  -1.13735
  Beta  occ. eigenvalues --   -1.13709  -1.13077  -1.13072  -1.13052  -1.13050
  Beta  occ. eigenvalues --   -1.13040  -1.13038  -1.13009  -1.12974  -1.12935
  Beta  occ. eigenvalues --   -0.15963  -0.13566  -0.12795
  Beta virt. eigenvalues --   -0.06894  -0.06626  -0.05287  -0.04237  -0.03166
  Beta virt. eigenvalues --   -0.02582  -0.02118  -0.01589  -0.01499  -0.01193
  Beta virt. eigenvalues --   -0.00505  -0.00036   0.00096   0.00397   0.00578

 Mulliken charges and spin densities:
               1          2
     1  Na  -0.426069   0.104614
     2  Na   1.711856   0.243478
     3  Na   0.196357   0.115260
     4  Na  -0.122627   0.064907
     5  Na  -1.692975   0.191905
     6  Na   0.034617   0.170400
     7  Na   0.298840   0.109435
 Sum of Mulliken charges =  -0.00000   1.00000

 Dipole moment (field-independent basis, Debye):
    X=             -1.0323    Y=             -1.4510    Z=              0.1036  Tot=              1.7838
 Quadrupole moment (field-independent basis, Debye-Ang):
   XX=            -60.2230   YY=            -69.8548   ZZ=            -69.2552
   XY=              0.4339   XZ=             -1.0499   YZ=             -1.5228

 Normal termination of Gaussian 16 at Mon Dec  4 00:03:05 2023.
