 Gaussian 16, Revision B.01,
 Gaussian 16:  ES64L-G16RevB.01 20-Dec-2017

 -------------------------
 #P B3LYP/6-311+g(d) force
 -------------------------

 -----
 DPGEN
 -----
 Symbolic Z-matrix:
 Charge =  0 Multiplicity = 2

                         Standard orientation:
 ---------------------------------------------------------------------
 Center     Atomic      Atomic             Coordinates (Angstroms)
 Number     Number       Type             X           Y           Z
 ---------------------------------------------------------------------
      1         11           0       -2.850310   -1.773275   -0.274087
      2         11           0        0.572963   -2.307315    1.043118
      3         11           0       -0.213417    0.916206    1.871966
      4         11           0        3.101929   -1.055835   -0.574037
      5         11           0       -2.572564    1.831087   -0.426925
      6         11           0        1.748774    2.565426    0.033622
      7         11           0        0.212625   -0.176294   -1.673657
 ---------------------------------------------------------------------

 SCF Done:  E(UB3LYP) =  -1136.13268254     A.U. after   19 cycles

 The electronic state is 2-A.
 Alpha  occ. eigenvalues --  -38.44277 -38.44072 -38.44012 -38.43750 -38.43575
 Alpha  occ. eigenvalues --  -38.43386 -38.43121  -2.20083  -2.19861  -2.19856
 Alpha  occ. eigenvalues --   -2.19574  -2.19507  -2.19307  -2.19008  -1.13769
 Alpha  occ. eigenvalues --   -1.13749  -1.13704  -1.13556  -1.13534  -1.13525
 Alpha  occ. eigenvalues --   -1.13510  -1.13500  -1.13486  -1.13292  -1.13241
 Alpha  occ. eigenvalues --   -1.13198  -1.13194  -1.13140  -1.13126  -1.12972
 Alpha  occ. eigenvalues --   -1.12937  -1.12926  -1.12688  -1.12651  -1.12634
 Alpha  occ. eigenvalues --   -0.18375  -0.13064  -0.12135  -0.10947
 Alpha virt. eigenvalues --   -0.05843  -0.05502  -0.04106  -0.03371  -0.03055
 Alpha virt. eigenvalues --   -0.02564  -0.01699  -0.01345  -0.00374  -0.00137
 Alpha virt. eigenvalues --    0.00060   0.00335   0.00656   0.00745   0.00819

  Beta  occ. eigenvalues --  -38.44267 -38.44072 -38.44000 -38.43746 -38.43519
  Beta  occ. eigenvalues --  -38.43309 -38.43085  -2.20067  -2.19859  -2.19841
  Beta  occ. eigenvalues --   -2.19570  -2.19405  -2.19167  -2.18944  -1.13749
  Beta  occ. eigenvalues --   -1.13737  -1.13692  -1.13537  -1.13530  -1.13509
  Beta  occ. eigenvalues --   -1.13499  -1.13498  -1.13475  -1.13277  -1.13225
  Beta  occ. eigenvalues --   -1.13194  -1.13125  -1.13072  -1.13048  -1.12881
  Beta  occ. eigenvalues --   -1.12841  -1.12820  -1.12644  -1.12597  -1.12586
  Beta  occ. eigenvalues --   -0.17665  -0.12791  -0.11934
  Beta virt. eigenvalues --   -0.07072  -0.05849  -0.05377  -0.03923  -0.02740
  Beta virt. eigenvalues --   -0.02373  -0.01570  -0.01562  -0.01325  -0.00354
  Beta virt. eigenvalues --   -0.00015   0.00110   0.00379   0.00697   0.00833

 Mulliken charges and spin densities:
               1          2
     1  Na  -0.065113   0.015521
     2  Na  -0.111240   0.225619
     3  Na   0.270464   0.375103
     4  Na   0.176208   0.063971
     5  Na  -0.030007  -0.023186
     6  Na  -0.160516  -0.063014
     7  Na  -0.079798   0.405985
 Sum of Mulliken charges =  -0.00000   1.00000

 Dipole moment (field-independent basis, Debye):
    X=             -0.1510    Y=              0.2351    Z=             -0.2232  Tot=              0.3576
 Quadrupole moment (field-independent basis, Debye-Ang):
   XX=            -54.9795   YY=            -65.4075   ZZ=            -72.9902
   XY=              0.2325   XZ=              0.0625   YZ=             -1.7035

 Normal termination of Gaussian 16 at Sun Dec  3 12:02:17 2023.
