 Gaussian 16, Revision B.01,
 Gaussian 16:  ES64L-G16RevB.01 20-Dec-2017

 -------------------------
 #P B3LYP/6-311+g(d) force
 -------------------------

 -----
 DPGEN
 -----
 Symbolic Z-matrix:
 Charge =  0 Multiplicity = 2

                         Standard orientation:
 ---------------------------------------------------------------------
 Center     Atomic      Atomic             Coordinates (Angstroms)
 Number     Number       Type             X           Y           Z
 ---------------------------------------------------------------------
      1         11           0       -3.300609   -0.995090   -0.106503
      2         11           0        0.151458   -2.729492   -0.249550
      3         11           0       -1.828599    2.489361   -0.035565
      4         11           0        0.070125   -0.110923    2.075874
      5         11           0       -0.107993    0.086634   -1.396790
      6         11           0        2.955964   -0.999632   -0.092707
      7         11           0        2.059655    2.259143   -0.194760
 ---------------------------------------------------------------------

 SCF Done:  E(UB3LYP) =  -1136.13492366     A.U. after   19 cycles

 The electronic state is 2-A.
 Alpha  occ. eigenvalues --  -38.44572 -38.43915 -38.43881 -38.43595 -38.43376
 Alpha  occ. eigenvalues --  -38.43167 -38.42916  -2.20345  -2.19782  -2.19694
 Alpha  occ. eigenvalues --   -2.19435  -2.19264  -2.19066  -2.18953  -1.14023
 Alpha  occ. eigenvalues --   -1.13993  -1.13990  -1.13454  -1.13443  -1.13439
 Alpha  occ. eigenvalues --   -1.13395  -1.13359  -1.13314  -1.13127  -1.13093
 Alpha  occ. eigenvalues --   -1.13066  -1.12946  -1.12885  -1.12875  -1.12844
 Alpha  occ. eigenvalues --   -1.12716  -1.12677  -1.12634  -1.12573  -1.12555
 Alpha  occ. eigenvalues --   -0.18657  -0.13083  -0.12354  -0.10441
 Alpha virt. eigenvalues --   -0.05985  -0.05407  -0.04468  -0.03011  -0.02641
 Alpha virt. eigenvalues --   -0.02353  -0.01869  -0.01257  -0.00522  -0.00347
 Alpha virt. eigenvalues --   -0.00009   0.00312   0.00734   0.00813   0.00881

  Beta  occ. eigenvalues --  -38.44572 -38.43910 -38.43878 -38.43589 -38.43271
  Beta  occ. eigenvalues --  -38.43157 -38.42866  -2.20347  -2.19776  -2.19693
  Beta  occ. eigenvalues --   -2.19428  -2.19071  -2.19052  -2.18863  -1.14009
  Beta  occ. eigenvalues --   -1.13997  -1.13993  -1.13450  -1.13443  -1.13408
  Beta  occ. eigenvalues --   -1.13389  -1.13343  -1.13317  -1.13117  -1.13074
  Beta  occ. eigenvalues --   -1.13061  -1.12841  -1.12800  -1.12749  -1.12738
  Beta  occ. eigenvalues --   -1.12675  -1.12670  -1.12563  -1.12514  -1.12489
  Beta  occ. eigenvalues --   -0.17935  -0.12877  -0.12111
  Beta virt. eigenvalues --   -0.06490  -0.05957  -0.05395  -0.04450  -0.02273
  Beta virt. eigenvalues --   -0.01889  -0.01788  -0.01256  -0.01185  -0.00573
  Beta virt. eigenvalues --   -0.00383   0.00151   0.00353   0.00785   0.00817

 Mulliken charges and spin densities:
               1          2
     1  Na   0.117458  -0.051190
     2  Na   0.352222   0.009202
     3  Na   0.115116  -0.058648
     4  Na  -0.574355   0.789151
     5  Na  -0.610906   0.250449
     6  Na   0.365630   0.066813
     7  Na   0.234835  -0.005778
 Sum of Mulliken charges =  -0.00000   1.00000

 Dipole moment (field-independent basis, Debye):
    X=             -0.3813    Y=              0.0791    Z=              0.2044  Tot=              0.4398
 Quadrupole moment (field-independent basis, Debye-Ang):
   XX=            -52.2989   YY=            -62.7778   ZZ=            -76.4071
   XY=              0.2513   XZ=             -0.3789   YZ=              0.4078

 Normal termination of Gaussian 16 at Thu Dec  7 20:50:23 2023.
