 Gaussian 16, Revision B.01,
 Gaussian 16:  ES64L-G16RevB.01 20-Dec-2017

 -------------------------
 #P B3LYP/6-311+g(d) force
 -------------------------

 -----
 DPGEN
 -----
 Symbolic Z-matrix:
 Charge =  0 Multiplicity = 2

                         Standard orientation:
 ---------------------------------------------------------------------
 Center     Atomic      Atomic             Coordinates (Angstroms)
 Number     Number       Type             X           Y           Z
 ---------------------------------------------------------------------
      1         11           0       -3.752714    0.146806    1.011620
      2         11           0        0.023575    0.094492    1.630433
      3         11           0       -4.596742   -1.831029   -1.416509
      4         11           0       -1.133687    2.719265   -0.625353
      5         11           0        2.532239    2.138798   -0.041202
      6         11           0        2.836218   -2.526016    0.853602
      7         11           0        4.091111   -0.742316   -1.412591
 ---------------------------------------------------------------------

 SCF Done:  E(UB3LYP) =  -1136.11364571     A.U. after   20 cycles

 The electronic state is 2-A.
 Alpha  occ. eigenvalues --  -38.44890 -38.44439 -38.44388 -38.44150 -38.44117
 Alpha  occ. eigenvalues --  -38.44082 -38.43972  -2.20649  -2.20252  -2.20189
 Alpha  occ. eigenvalues --   -2.19970  -2.19900  -2.19888  -2.19764  -1.14335
 Alpha  occ. eigenvalues --   -1.14301  -1.14276  -1.13932  -1.13918  -1.13875
 Alpha  occ. eigenvalues --   -1.13857  -1.13848  -1.13792  -1.13681  -1.13631
 Alpha  occ. eigenvalues --   -1.13615  -1.13565  -1.13552  -1.13550  -1.13549
 Alpha  occ. eigenvalues --   -1.13528  -1.13493  -1.13448  -1.13425  -1.13386
 Alpha  occ. eigenvalues --   -0.16467  -0.13948  -0.11794  -0.10777
 Alpha virt. eigenvalues --   -0.06739  -0.06172  -0.04275  -0.03390  -0.03104
 Alpha virt. eigenvalues --   -0.02556  -0.02131  -0.01402  -0.01113  -0.00877
 Alpha virt. eigenvalues --   -0.00378  -0.00149   0.00063   0.00385   0.00546

  Beta  occ. eigenvalues --  -38.44889 -38.44374 -38.44348 -38.44131 -38.44077
  Beta  occ. eigenvalues --  -38.44056 -38.43980  -2.20647  -2.20133  -2.20115
  Beta  occ. eigenvalues --   -2.19934  -2.19839  -2.19826  -2.19784  -1.14333
  Beta  occ. eigenvalues --   -1.14293  -1.14279  -1.13853  -1.13844  -1.13817
  Beta  occ. eigenvalues --   -1.13802  -1.13756  -1.13735  -1.13656  -1.13608
  Beta  occ. eigenvalues --   -1.13581  -1.13529  -1.13516  -1.13502  -1.13499
  Beta  occ. eigenvalues --   -1.13488  -1.13460  -1.13459  -1.13436  -1.13373
  Beta  occ. eigenvalues --   -0.15889  -0.13674  -0.11564
  Beta virt. eigenvalues --   -0.07339  -0.06494  -0.05510  -0.04056  -0.02968
  Beta virt. eigenvalues --   -0.02942  -0.02158  -0.01791  -0.01287  -0.00954
  Beta virt. eigenvalues --   -0.00643  -0.00164   0.00019   0.00209   0.00542

 Mulliken charges and spin densities:
               1          2
     1  Na  -0.076274  -0.081263
     2  Na  -0.660881   0.341993
     3  Na   0.060857   0.207596
     4  Na   0.245117  -0.005825
     5  Na   0.260112   0.355193
     6  Na   0.221887   0.112420
     7  Na  -0.050818   0.069886
 Sum of Mulliken charges =  -0.00000   1.00000

 Dipole moment (field-independent basis, Debye):
    X=              0.1224    Y=              0.4827    Z=             -0.5579  Tot=              0.7478
 Quadrupole moment (field-independent basis, Debye-Ang):
   XX=            -70.9090   YY=            -65.9189   ZZ=            -65.3574
   XY=             -3.5116   XZ=              0.7533   YZ=              1.6362

 Normal termination of Gaussian 16 at Sun Dec  3 22:17:47 2023.
