 Gaussian 16, Revision B.01,
 Gaussian 16:  ES64L-G16RevB.01 20-Dec-2017

 -------------------------
 #P B3LYP/6-311+g(d) force
 -------------------------

 -----
 DPGEN
 -----
 Symbolic Z-matrix:
 Charge =  0 Multiplicity = 2

                         Standard orientation:
 ---------------------------------------------------------------------
 Center     Atomic      Atomic             Coordinates (Angstroms)
 Number     Number       Type             X           Y           Z
 ---------------------------------------------------------------------
      1         11           0        0.518427    0.539319    2.043304
      2         11           0       -2.714616    1.072939   -0.684210
      3         11           0       -3.828578   -1.789798    0.025916
      4         11           0        0.066662    3.092795    0.022117
      5         11           0        4.232032   -1.386575    0.205283
      6         11           0       -0.676544   -1.661273   -0.060507
      7         11           0        2.402617    0.132594   -1.551902
 ---------------------------------------------------------------------

 SCF Done:  E(UB3LYP) =  -1136.11864970     A.U. after   20 cycles

 The electronic state is 2-A.
 Alpha  occ. eigenvalues --  -38.44531 -38.44262 -38.44254 -38.44106 -38.43926
 Alpha  occ. eigenvalues --  -38.43882 -38.42876  -2.20338  -2.20146  -2.20110
 Alpha  occ. eigenvalues --   -2.19976  -2.19784  -2.19756  -2.18708  -1.14101
 Alpha  occ. eigenvalues --   -1.13986  -1.13969  -1.13837  -1.13834  -1.13786
 Alpha  occ. eigenvalues --   -1.13774  -1.13736  -1.13707  -1.13666  -1.13644
 Alpha  occ. eigenvalues --   -1.13609  -1.13437  -1.13426  -1.13424  -1.13404
 Alpha  occ. eigenvalues --   -1.13386  -1.13367  -1.12375  -1.12364  -1.12356
 Alpha  occ. eigenvalues --   -0.17701  -0.13988  -0.11949  -0.10591
 Alpha virt. eigenvalues --   -0.06664  -0.05447  -0.04244  -0.03527  -0.02870
 Alpha virt. eigenvalues --   -0.02455  -0.02240  -0.01433  -0.00800  -0.00337
 Alpha virt. eigenvalues --   -0.00072   0.00067   0.00533   0.00606   0.00722

  Beta  occ. eigenvalues --  -38.44525 -38.44238 -38.44217 -38.44066 -38.43922
  Beta  occ. eigenvalues --  -38.43800 -38.42868  -2.20328  -2.20084  -2.20065
  Beta  occ. eigenvalues --   -2.19904  -2.19778  -2.19606  -2.18694  -1.14086
  Beta  occ. eigenvalues --   -1.13980  -1.13955  -1.13797  -1.13775  -1.13745
  Beta  occ. eigenvalues --   -1.13733  -1.13705  -1.13676  -1.13617  -1.13596
  Beta  occ. eigenvalues --   -1.13558  -1.13427  -1.13413  -1.13390  -1.13318
  Beta  occ. eigenvalues --   -1.13285  -1.13262  -1.12357  -1.12352  -1.12348
  Beta  occ. eigenvalues --   -0.17064  -0.13664  -0.11747
  Beta virt. eigenvalues --   -0.06938  -0.06441  -0.05204  -0.03930  -0.03103
  Beta virt. eigenvalues --   -0.02640  -0.02148  -0.01617  -0.01268  -0.00647
  Beta virt. eigenvalues --   -0.00092   0.00065   0.00204   0.00667   0.00741

 Mulliken charges and spin densities:
               1          2
     1  Na   0.207781   0.186584
     2  Na  -0.251292   0.196413
     3  Na   1.001146   0.047999
     4  Na  -0.068235   0.248109
     5  Na   0.233339  -0.020132
     6  Na  -1.054672   0.154155
     7  Na  -0.068066   0.186872
 Sum of Mulliken charges =  -0.00000   1.00000

 Dipole moment (field-independent basis, Debye):
    X=              0.0113    Y=             -0.5461    Z=              0.6644  Tot=              0.8601
 Quadrupole moment (field-independent basis, Debye-Ang):
   XX=            -59.5744   YY=            -69.1987   ZZ=            -69.3447
   XY=              1.3577   XZ=              3.3856   YZ=             -1.7785

 Normal termination of Gaussian 16 at Sun Dec  3 14:19:44 2023.
