 Gaussian 16, Revision B.01,
 Gaussian 16:  ES64L-G16RevB.01 20-Dec-2017

 -------------------------
 #P B3LYP/6-311+g(d) force
 -------------------------

 -----
 DPGEN
 -----
 Symbolic Z-matrix:
 Charge =  0 Multiplicity = 2

                         Standard orientation:
 ---------------------------------------------------------------------
 Center     Atomic      Atomic             Coordinates (Angstroms)
 Number     Number       Type             X           Y           Z
 ---------------------------------------------------------------------
      1         11           0        1.677660   -1.966048    1.448454
      2         11           0        1.577495    1.013535   -0.793209
      3         11           0       -1.935430    0.823548    0.425295
      4         11           0       -0.652004   -2.085178   -0.432286
      5         11           0       -4.422765   -1.529597   -0.441264
      6         11           0       -0.607797    4.257905    0.339192
      7         11           0        4.362841   -0.514165   -0.546182
 ---------------------------------------------------------------------

 SCF Done:  E(UB3LYP) =  -1136.12166531     A.U. after   20 cycles

 The electronic state is 2-A.
 Alpha  occ. eigenvalues --  -38.44627 -38.44313 -38.44002 -38.43984 -38.43880
 Alpha  occ. eigenvalues --  -38.43806 -38.43651  -2.20496  -2.20153  -2.19900
 Alpha  occ. eigenvalues --   -2.19829  -2.19684  -2.19553  -2.19496  -1.14229
 Alpha  occ. eigenvalues --   -1.14147  -1.14094  -1.13869  -1.13843  -1.13765
 Alpha  occ. eigenvalues --   -1.13590  -1.13578  -1.13500  -1.13480  -1.13468
 Alpha  occ. eigenvalues --   -1.13432  -1.13341  -1.13334  -1.13287  -1.13230
 Alpha  occ. eigenvalues --   -1.13228  -1.13218  -1.13195  -1.13177  -1.13063
 Alpha  occ. eigenvalues --   -0.17452  -0.13816  -0.12224  -0.10735
 Alpha virt. eigenvalues --   -0.06593  -0.05298  -0.04533  -0.03631  -0.02703
 Alpha virt. eigenvalues --   -0.02489  -0.01746  -0.01175  -0.01065  -0.00716
 Alpha virt. eigenvalues --   -0.00609  -0.00241   0.00350   0.00515   0.00625

  Beta  occ. eigenvalues --  -38.44582 -38.44298 -38.43978 -38.43909 -38.43814
  Beta  occ. eigenvalues --  -38.43806 -38.43649  -2.20418  -2.20129  -2.19862
  Beta  occ. eigenvalues --   -2.19691  -2.19568  -2.19545  -2.19494  -1.14153
  Beta  occ. eigenvalues --   -1.14096  -1.14039  -1.13851  -1.13809  -1.13740
  Beta  occ. eigenvalues --   -1.13569  -1.13541  -1.13457  -1.13381  -1.13374
  Beta  occ. eigenvalues --   -1.13347  -1.13245  -1.13241  -1.13239  -1.13238
  Beta  occ. eigenvalues --   -1.13217  -1.13202  -1.13189  -1.13181  -1.13056
  Beta  occ. eigenvalues --   -0.16948  -0.13102  -0.11932
  Beta virt. eigenvalues --   -0.07228  -0.06391  -0.05187  -0.04058  -0.03222
  Beta virt. eigenvalues --   -0.02490  -0.02187  -0.01577  -0.00881  -0.00638
  Beta virt. eigenvalues --   -0.00562  -0.00223   0.00001   0.00425   0.00587

 Mulliken charges and spin densities:
               1          2
     1  Na   0.500370   0.128726
     2  Na  -0.739069   0.212275
     3  Na  -0.795885   0.121088
     4  Na  -0.278049  -0.024919
     5  Na   0.537815   0.344479
     6  Na   0.479454  -0.041119
     7  Na   0.295363   0.259470
 Sum of Mulliken charges =  -0.00000   1.00000

 Dipole moment (field-independent basis, Debye):
    X=              0.5515    Y=             -0.7047    Z=              0.5325  Tot=              1.0413
 Quadrupole moment (field-independent basis, Debye-Ang):
   XX=            -65.2719   YY=            -64.2907   ZZ=            -67.7289
   XY=             -3.2631   XZ=              1.7238   YZ=              0.8096

 Normal termination of Gaussian 16 at Wed Nov 29 03:15:36 2023.
