 Gaussian 16, Revision B.01,
 Gaussian 16:  ES64L-G16RevB.01 20-Dec-2017

 -------------------------
 #P B3LYP/6-311+g(d) force
 -------------------------

 -----
 DPGEN
 -----
 Symbolic Z-matrix:
 Charge =  0 Multiplicity = 2

                         Standard orientation:
 ---------------------------------------------------------------------
 Center     Atomic      Atomic             Coordinates (Angstroms)
 Number     Number       Type             X           Y           Z
 ---------------------------------------------------------------------
      1         11           0       -3.488228    0.894573    1.226309
      2         11           0        0.166111   -1.384926   -1.756118
      3         11           0        2.263672    1.435896   -1.024424
      4         11           0        4.059993   -0.704857    1.011136
      5         11           0       -2.576303   -1.950303   -0.402130
      6         11           0       -0.963224    1.986719   -0.825062
      7         11           0        0.537980   -0.277103    1.770289
 ---------------------------------------------------------------------

 SCF Done:  E(UB3LYP) =  -1136.12010679     A.U. after   56 cycles

 The electronic state is 2-A.
 Alpha  occ. eigenvalues --  -38.45149 -38.44857 -38.44847 -38.44242 -38.43769
 Alpha  occ. eigenvalues --  -38.43357 -38.42476  -2.20940  -2.20749  -2.20670
 Alpha  occ. eigenvalues --   -2.20098  -2.19554  -2.19233  -2.18357  -1.14649
 Alpha  occ. eigenvalues --   -1.14618  -1.14529  -1.14450  -1.14389  -1.14335
 Alpha  occ. eigenvalues --   -1.14327  -1.14320  -1.14293  -1.13788  -1.13743
 Alpha  occ. eigenvalues --   -1.13714  -1.13234  -1.13222  -1.13186  -1.12929
 Alpha  occ. eigenvalues --   -1.12906  -1.12841  -1.12050  -1.12015  -1.11987
 Alpha  occ. eigenvalues --   -0.18248  -0.13918  -0.12273  -0.10744
 Alpha virt. eigenvalues --   -0.06878  -0.05045  -0.04786  -0.03540  -0.02750
 Alpha virt. eigenvalues --   -0.02584  -0.02495  -0.01095  -0.01029  -0.00108
 Alpha virt. eigenvalues --    0.00033   0.00238   0.00332   0.00412   0.00653

  Beta  occ. eigenvalues --  -38.45131 -38.44796 -38.44756 -38.44201 -38.43776
  Beta  occ. eigenvalues --  -38.43355 -38.42461  -2.20905  -2.20575  -2.20568
  Beta  occ. eigenvalues --   -2.20028  -2.19567  -2.19231  -2.18332  -1.14615
  Beta  occ. eigenvalues --   -1.14594  -1.14507  -1.14320  -1.14266  -1.14264
  Beta  occ. eigenvalues --   -1.14246  -1.14235  -1.14199  -1.13719  -1.13700
  Beta  occ. eigenvalues --   -1.13654  -1.13244  -1.13230  -1.13194  -1.12925
  Beta  occ. eigenvalues --   -1.12904  -1.12842  -1.12034  -1.12000  -1.11951
  Beta  occ. eigenvalues --   -0.17512  -0.13653  -0.10649
  Beta virt. eigenvalues --   -0.08146  -0.06712  -0.04762  -0.04273  -0.02933
  Beta virt. eigenvalues --   -0.02565  -0.02168  -0.01956  -0.01012  -0.00660
  Beta virt. eigenvalues --   -0.00016   0.00066   0.00302   0.00416   0.00586

 Mulliken charges and spin densities:
               1          2
     1  Na   0.845277   0.257014
     2  Na   0.098292   0.443679
     3  Na   0.305381   0.062864
     4  Na   0.198839  -0.094713
     5  Na  -0.096207   0.012674
     6  Na  -0.640055   0.107520
     7  Na  -0.711527   0.210962
 Sum of Mulliken charges =  -0.00000   1.00000

 Dipole moment (field-independent basis, Debye):
    X=             -0.4196    Y=             -0.0710    Z=             -0.1085  Tot=              0.4392
 Quadrupole moment (field-independent basis, Debye-Ang):
   XX=            -54.4763   YY=            -72.1609   ZZ=            -72.0527
   XY=             -0.9177   XZ=             -4.5975   YZ=              6.1922

 Normal termination of Gaussian 16 at Thu Dec  7 09:18:00 2023.
