 Gaussian 16, Revision B.01,
 Gaussian 16:  ES64L-G16RevB.01 20-Dec-2017

 -------------------------
 #P B3LYP/6-311+g(d) force
 -------------------------

 -----
 DPGEN
 -----
 Symbolic Z-matrix:
 Charge =  0 Multiplicity = 2

                         Standard orientation:
 ---------------------------------------------------------------------
 Center     Atomic      Atomic             Coordinates (Angstroms)
 Number     Number       Type             X           Y           Z
 ---------------------------------------------------------------------
      1         11           0       -0.468730   -0.775294   -1.336018
      2         11           0       -0.488491    0.451871    1.682912
      3         11           0       -3.523468   -1.875629    0.023563
      4         11           0       -3.019988    1.402545   -0.200465
      5         11           0        1.027610    2.542845   -0.162461
      6         11           0        3.418840    0.562064   -0.374567
      7         11           0        3.054227   -2.308401    0.367036
 ---------------------------------------------------------------------

 SCF Done:  E(UB3LYP) =  -1136.11267610     A.U. after   29 cycles

 The electronic state is 2-A.
 Alpha  occ. eigenvalues --  -38.45552 -38.45338 -38.44572 -38.44267 -38.43659
 Alpha  occ. eigenvalues --  -38.43191 -38.42738  -2.21398  -2.21179  -2.20376
 Alpha  occ. eigenvalues --   -2.20154  -2.19478  -2.19135  -2.18635  -1.15086
 Alpha  occ. eigenvalues --   -1.15071  -1.15013  -1.14911  -1.14836  -1.14771
 Alpha  occ. eigenvalues --   -1.14054  -1.14033  -1.14016  -1.13871  -1.13812
 Alpha  occ. eigenvalues --   -1.13798  -1.13157  -1.13119  -1.13103  -1.12825
 Alpha  occ. eigenvalues --   -1.12769  -1.12745  -1.12319  -1.12284  -1.12267
 Alpha  occ. eigenvalues --   -0.18256  -0.14428  -0.11602  -0.09817
 Alpha virt. eigenvalues --   -0.07109  -0.06483  -0.04024  -0.03387  -0.02856
 Alpha virt. eigenvalues --   -0.02304  -0.02046  -0.01506  -0.01063  -0.00250
 Alpha virt. eigenvalues --   -0.00206   0.00092   0.00462   0.00531   0.00588

  Beta  occ. eigenvalues --  -38.45545 -38.45311 -38.44575 -38.44247 -38.43644
  Beta  occ. eigenvalues --  -38.43110 -38.42715  -2.21388  -2.21131  -2.20385
  Beta  occ. eigenvalues --   -2.20121  -2.19450  -2.18985  -2.18598  -1.15069
  Beta  occ. eigenvalues --   -1.15063  -1.14997  -1.14860  -1.14804  -1.14736
  Beta  occ. eigenvalues --   -1.14062  -1.14026  -1.14018  -1.13830  -1.13791
  Beta  occ. eigenvalues --   -1.13773  -1.13141  -1.13097  -1.13081  -1.12725
  Beta  occ. eigenvalues --   -1.12671  -1.12636  -1.12297  -1.12256  -1.12214
  Beta  occ. eigenvalues --   -0.17706  -0.14120  -0.11340
  Beta virt. eigenvalues --   -0.06937  -0.06404  -0.06116  -0.03808  -0.02927
  Beta virt. eigenvalues --   -0.02715  -0.01919  -0.01607  -0.01090  -0.00866
  Beta virt. eigenvalues --   -0.00186   0.00026   0.00163   0.00549   0.00602

 Mulliken charges and spin densities:
               1          2
     1  Na  -0.570002   0.328181
     2  Na  -0.245509   0.623604
     3  Na   0.164487  -0.042837
     4  Na   0.427351  -0.016031
     5  Na   0.083586  -0.046178
     6  Na  -0.022895   0.151766
     7  Na   0.162982   0.001496
 Sum of Mulliken charges =  -0.00000   1.00000

 Dipole moment (field-independent basis, Debye):
    X=             -1.7536    Y=              0.0705    Z=              0.0353  Tot=              1.7554
 Quadrupole moment (field-independent basis, Debye-Ang):
   XX=            -53.9563   YY=            -67.4457   ZZ=            -76.0310
   XY=             -1.0776   XZ=             -0.6339   YZ=             -2.3146

 Normal termination of Gaussian 16 at Fri Dec  8 02:02:16 2023.
