 Gaussian 16, Revision B.01,
 Gaussian 16:  ES64L-G16RevB.01 20-Dec-2017

 -------------------------
 #P B3LYP/6-311+g(d) force
 -------------------------

 -----
 DPGEN
 -----
 Symbolic Z-matrix:
 Charge =  0 Multiplicity = 2

                         Standard orientation:
 ---------------------------------------------------------------------
 Center     Atomic      Atomic             Coordinates (Angstroms)
 Number     Number       Type             X           Y           Z
 ---------------------------------------------------------------------
      1         11           0       -0.485373    3.190022    0.303336
      2         11           0       -1.790623    0.767582   -1.162307
      3         11           0        3.224182   -1.587387    0.472143
      4         11           0       -3.341202   -1.774920    0.258284
      5         11           0        0.538809   -1.772195   -1.350203
      6         11           0       -0.297491   -0.217627    2.060941
      7         11           0        2.151697    1.394524   -0.582194
 ---------------------------------------------------------------------

 SCF Done:  E(UB3LYP) =  -1136.13215234     A.U. after   19 cycles

 The electronic state is 2-A.
 Alpha  occ. eigenvalues --  -38.44232 -38.44037 -38.44019 -38.43982 -38.43876
 Alpha  occ. eigenvalues --  -38.43319 -38.43044  -2.20015  -2.19871  -2.19851
 Alpha  occ. eigenvalues --   -2.19841  -2.19741  -2.19247  -2.18907  -1.13700
 Alpha  occ. eigenvalues --   -1.13672  -1.13651  -1.13557  -1.13546  -1.13539
 Alpha  occ. eigenvalues --   -1.13527  -1.13513  -1.13505  -1.13492  -1.13480
 Alpha  occ. eigenvalues --   -1.13441  -1.13434  -1.13398  -1.13325  -1.12939
 Alpha  occ. eigenvalues --   -1.12931  -1.12871  -1.12575  -1.12550  -1.12544
 Alpha  occ. eigenvalues --   -0.18220  -0.13241  -0.12258  -0.10715
 Alpha virt. eigenvalues --   -0.06062  -0.05347  -0.04412  -0.03444  -0.02854
 Alpha virt. eigenvalues --   -0.02641  -0.01849  -0.01268  -0.00484  -0.00235
 Alpha virt. eigenvalues --    0.00163   0.00292   0.00663   0.00688   0.00777

  Beta  occ. eigenvalues --  -38.44236 -38.44018 -38.43973 -38.43943 -38.43836
  Beta  occ. eigenvalues --  -38.43289 -38.43043  -2.20023  -2.19851  -2.19827
  Beta  occ. eigenvalues --   -2.19697  -2.19668  -2.19192  -2.18907  -1.13707
  Beta  occ. eigenvalues --   -1.13665  -1.13658  -1.13551  -1.13539  -1.13511
  Beta  occ. eigenvalues --   -1.13492  -1.13479  -1.13434  -1.13425  -1.13387
  Beta  occ. eigenvalues --   -1.13380  -1.13356  -1.13335  -1.13279  -1.12899
  Beta  occ. eigenvalues --   -1.12886  -1.12830  -1.12573  -1.12551  -1.12528
  Beta  occ. eigenvalues --   -0.17484  -0.13105  -0.12093
  Beta virt. eigenvalues --   -0.06805  -0.05901  -0.05280  -0.04318  -0.02814
  Beta virt. eigenvalues --   -0.02227  -0.01821  -0.01553  -0.01180  -0.00446
  Beta virt. eigenvalues --   -0.00069   0.00225   0.00338   0.00742   0.00776

 Mulliken charges and spin densities:
               1          2
     1  Na   0.612046  -0.099834
     2  Na  -0.068656   0.300833
     3  Na   0.475068  -0.022386
     4  Na   0.144976  -0.163009
     5  Na  -0.172216   0.112996
     6  Na  -0.703392   0.767423
     7  Na  -0.287827   0.103978
 Sum of Mulliken charges =  -0.00000   1.00000

 Dipole moment (field-independent basis, Debye):
    X=              0.2144    Y=             -0.5096    Z=              0.2325  Tot=              0.5998
 Quadrupole moment (field-independent basis, Debye-Ang):
   XX=            -55.6576   YY=            -64.7595   ZZ=            -73.1843
   XY=              0.4816   XZ=              0.4324   YZ=             -0.4219

 Normal termination of Gaussian 16 at Thu Dec  7 21:05:45 2023.
