 Gaussian 16, Revision B.01,
 Gaussian 16:  ES64L-G16RevB.01 20-Dec-2017

 -------------------------
 #P B3LYP/6-311+g(d) force
 -------------------------

 -----
 DPGEN
 -----
 Symbolic Z-matrix:
 Charge =  0 Multiplicity = 2

                         Standard orientation:
 ---------------------------------------------------------------------
 Center     Atomic      Atomic             Coordinates (Angstroms)
 Number     Number       Type             X           Y           Z
 ---------------------------------------------------------------------
      1         11           0        0.097783   -0.477133   -0.812818
      2         11           0        2.109868   -0.326925    2.030369
      3         11           0        3.407503   -1.251739   -1.157027
      4         11           0       -1.841431   -1.511496    1.532122
      5         11           0       -1.250531    1.901073    1.646565
      6         11           0        0.320513    2.949860   -1.451463
      7         11           0       -2.843705   -1.283640   -1.787749
 ---------------------------------------------------------------------

 SCF Done:  E(UB3LYP) =  -1136.12255254     A.U. after   25 cycles

 The electronic state is 2-A.
 Alpha  occ. eigenvalues --  -38.44818 -38.44193 -38.43893 -38.43870 -38.43766
 Alpha  occ. eigenvalues --  -38.43398 -38.42806  -2.20615  -2.20057  -2.19695
 Alpha  occ. eigenvalues --   -2.19688  -2.19554  -2.19213  -2.18807  -1.14295
 Alpha  occ. eigenvalues --   -1.14274  -1.14220  -1.13758  -1.13718  -1.13661
 Alpha  occ. eigenvalues --   -1.13384  -1.13357  -1.13335  -1.13331  -1.13307
 Alpha  occ. eigenvalues --   -1.13297  -1.13232  -1.13212  -1.13181  -1.12891
 Alpha  occ. eigenvalues --   -1.12880  -1.12848  -1.12547  -1.12444  -1.12432
 Alpha  occ. eigenvalues --   -0.17829  -0.12680  -0.11989  -0.11447
 Alpha virt. eigenvalues --   -0.05651  -0.05254  -0.04747  -0.03226  -0.02921
 Alpha virt. eigenvalues --   -0.02801  -0.01462  -0.01360  -0.00793   0.00012
 Alpha virt. eigenvalues --    0.00156   0.00289   0.00366   0.00656   0.00758

  Beta  occ. eigenvalues --  -38.44783 -38.44162 -38.43842 -38.43835 -38.43763
  Beta  occ. eigenvalues --  -38.43390 -38.42775  -2.20550  -2.20001  -2.19643
  Beta  occ. eigenvalues --   -2.19582  -2.19549  -2.19201  -2.18755  -1.14248
  Beta  occ. eigenvalues --   -1.14233  -1.14166  -1.13723  -1.13682  -1.13601
  Beta  occ. eigenvalues --   -1.13340  -1.13300  -1.13277  -1.13275  -1.13259
  Beta  occ. eigenvalues --   -1.13232  -1.13224  -1.13208  -1.13179  -1.12885
  Beta  occ. eigenvalues --   -1.12871  -1.12819  -1.12470  -1.12412  -1.12399
  Beta  occ. eigenvalues --   -0.17025  -0.12544  -0.11213
  Beta virt. eigenvalues --   -0.08183  -0.05182  -0.04975  -0.04256  -0.02820
  Beta virt. eigenvalues --   -0.02649  -0.02301  -0.01411  -0.00952  -0.00622
  Beta virt. eigenvalues --    0.00162   0.00313   0.00350   0.00446   0.00772

 Mulliken charges and spin densities:
               1          2
     1  Na  -1.948410   0.066839
     2  Na   0.310926   0.214729
     3  Na   1.170222   0.088540
     4  Na   0.112152   0.444991
     5  Na  -0.003940   0.006604
     6  Na  -0.025543   0.297648
     7  Na   0.384592  -0.119352
 Sum of Mulliken charges =  -0.00000   1.00000

 Dipole moment (field-independent basis, Debye):
    X=              0.0807    Y=             -0.0916    Z=              0.3248  Tot=              0.3470
 Quadrupole moment (field-independent basis, Debye-Ang):
   XX=            -61.3089   YY=            -73.6043   ZZ=            -58.5059
   XY=              0.7877   XZ=             -0.4083   YZ=             -2.7944

 Normal termination of Gaussian 16 at Wed Dec  6 00:25:52 2023.
