 Gaussian 16, Revision B.01,
 Gaussian 16:  ES64L-G16RevB.01 20-Dec-2017

 -------------------------
 #P B3LYP/6-311+g(d) force
 -------------------------

 -----
 DPGEN
 -----
 Symbolic Z-matrix:
 Charge =  0 Multiplicity = 2

                         Standard orientation:
 ---------------------------------------------------------------------
 Center     Atomic      Atomic             Coordinates (Angstroms)
 Number     Number       Type             X           Y           Z
 ---------------------------------------------------------------------
      1         11           0        2.547521    1.965198    1.212431
      2         11           0       -0.609276    1.077397    1.169435
      3         11           0       -1.209866   -2.330204    2.066687
      4         11           0       -2.595296    2.554059   -0.995179
      5         11           0       -2.607830   -1.066895   -1.108832
      6         11           0        0.897386   -1.696163   -1.133247
      7         11           0        3.577361   -0.503392   -1.211295
 ---------------------------------------------------------------------

 SCF Done:  E(UB3LYP) =  -1136.12091157     A.U. after   20 cycles

 The electronic state is 2-A.
 Alpha  occ. eigenvalues --  -38.44551 -38.44393 -38.44322 -38.44159 -38.43772
 Alpha  occ. eigenvalues --  -38.43768 -38.43324  -2.20371  -2.20203  -2.20117
 Alpha  occ. eigenvalues --   -2.20002  -2.19635  -2.19573  -2.19219  -1.14072
 Alpha  occ. eigenvalues --   -1.14031  -1.13977  -1.13866  -1.13855  -1.13802
 Alpha  occ. eigenvalues --   -1.13802  -1.13775  -1.13771  -1.13737  -1.13642
 Alpha  occ. eigenvalues --   -1.13601  -1.13304  -1.13285  -1.13242  -1.13241
 Alpha  occ. eigenvalues --   -1.13232  -1.13213  -1.12908  -1.12870  -1.12860
 Alpha  occ. eigenvalues --   -0.17452  -0.13506  -0.11977  -0.11427
 Alpha virt. eigenvalues --   -0.06143  -0.05728  -0.04192  -0.03359  -0.03232
 Alpha virt. eigenvalues --   -0.02571  -0.01633  -0.01186  -0.00992  -0.00296
 Alpha virt. eigenvalues --    0.00006   0.00200   0.00321   0.00438   0.00736

  Beta  occ. eigenvalues --  -38.44533 -38.44328 -38.44290 -38.44134 -38.43757
  Beta  occ. eigenvalues --  -38.43741 -38.43294  -2.20339  -2.20081  -2.20059
  Beta  occ. eigenvalues --   -2.19957  -2.19587  -2.19545  -2.19169  -1.14048
  Beta  occ. eigenvalues --   -1.14011  -1.13946  -1.13774  -1.13772  -1.13753
  Beta  occ. eigenvalues --   -1.13733  -1.13733  -1.13725  -1.13701  -1.13613
  Beta  occ. eigenvalues --   -1.13570  -1.13272  -1.13254  -1.13230  -1.13214
  Beta  occ. eigenvalues --   -1.13195  -1.13184  -1.12878  -1.12823  -1.12809
  Beta  occ. eigenvalues --   -0.16868  -0.13089  -0.11635
  Beta virt. eigenvalues --   -0.07909  -0.05690  -0.05401  -0.03986  -0.02991
  Beta virt. eigenvalues --   -0.02846  -0.01995  -0.01471  -0.00999  -0.00644
  Beta virt. eigenvalues --   -0.00138   0.00096   0.00321   0.00394   0.00638

 Mulliken charges and spin densities:
               1          2
     1  Na   0.009907   0.121231
     2  Na  -0.252367   0.188472
     3  Na   0.199540   0.186249
     4  Na  -0.035765   0.110238
     5  Na   0.424289   0.144614
     6  Na  -0.419585   0.233223
     7  Na   0.073980   0.015973
 Sum of Mulliken charges =  -0.00000   1.00000

 Dipole moment (field-independent basis, Debye):
    X=             -0.0894    Y=             -0.3016    Z=             -0.0081  Tot=              0.3147
 Quadrupole moment (field-independent basis, Debye-Ang):
   XX=            -58.5805   YY=            -68.7973   ZZ=            -67.2172
   XY=              3.8675   XZ=              1.8578   YZ=             -2.5740

 Normal termination of Gaussian 16 at Sun Dec  3 20:57:01 2023.
