 Gaussian 16, Revision B.01,
 Gaussian 16:  ES64L-G16RevB.01 20-Dec-2017

 -------------------------
 #P B3LYP/6-311+g(d) force
 -------------------------

 -----
 DPGEN
 -----
 Symbolic Z-matrix:
 Charge =  0 Multiplicity = 2

                         Standard orientation:
 ---------------------------------------------------------------------
 Center     Atomic      Atomic             Coordinates (Angstroms)
 Number     Number       Type             X           Y           Z
 ---------------------------------------------------------------------
      1         11           0        2.569347    1.910590    0.928846
      2         11           0        0.795043   -1.377108    1.272021
      3         11           0       -0.286225    1.981805   -0.452979
      4         11           0       -3.296790    0.765176   -0.979586
      5         11           0       -0.337474   -1.389535   -1.309435
      6         11           0        3.061901   -1.065334   -1.049429
      7         11           0       -2.505802   -0.825593    1.590563
 ---------------------------------------------------------------------

 SCF Done:  E(UB3LYP) =  -1136.12254064     A.U. after   22 cycles

 The electronic state is 2-A.
 Alpha  occ. eigenvalues --  -38.44787 -38.44466 -38.44302 -38.43698 -38.43409
 Alpha  occ. eigenvalues --  -38.43205 -38.43129  -2.20632  -2.20337  -2.20184
 Alpha  occ. eigenvalues --   -2.19664  -2.19385  -2.19049  -2.19007  -1.14308
 Alpha  occ. eigenvalues --   -1.14289  -1.14252  -1.14049  -1.13991  -1.13976
 Alpha  occ. eigenvalues --   -1.13849  -1.13810  -1.13794  -1.13539  -1.13319
 Alpha  occ. eigenvalues --   -1.13238  -1.13044  -1.12994  -1.12978  -1.12776
 Alpha  occ. eigenvalues --   -1.12705  -1.12703  -1.12678  -1.12669  -1.12597
 Alpha  occ. eigenvalues --   -0.18774  -0.14206  -0.11617  -0.11072
 Alpha virt. eigenvalues --   -0.06720  -0.04842  -0.04744  -0.03357  -0.02717
 Alpha virt. eigenvalues --   -0.02391  -0.02149  -0.00930  -0.00792   0.00165
 Alpha virt. eigenvalues --    0.00202   0.00297   0.00384   0.00687   0.00845

  Beta  occ. eigenvalues --  -38.44763 -38.44447 -38.44250 -38.43662 -38.43377
  Beta  occ. eigenvalues --  -38.43188 -38.43119  -2.20590  -2.20304  -2.20089
  Beta  occ. eigenvalues --   -2.19599  -2.19331  -2.19018  -2.18993  -1.14278
  Beta  occ. eigenvalues --   -1.14256  -1.14219  -1.14018  -1.13965  -1.13947
  Beta  occ. eigenvalues --   -1.13774  -1.13750  -1.13732  -1.13496  -1.13267
  Beta  occ. eigenvalues --   -1.13184  -1.13009  -1.12939  -1.12924  -1.12754
  Beta  occ. eigenvalues --   -1.12694  -1.12679  -1.12661  -1.12649  -1.12575
  Beta  occ. eigenvalues --   -0.18113  -0.13965  -0.11245
  Beta virt. eigenvalues --   -0.07330  -0.06601  -0.04684  -0.04080  -0.03211
  Beta virt. eigenvalues --   -0.02323  -0.02046  -0.01418  -0.00698  -0.00485
  Beta virt. eigenvalues --    0.00193   0.00253   0.00329   0.00467   0.00799

 Mulliken charges and spin densities:
               1          2
     1  Na   0.353722  -0.113382
     2  Na  -0.185860   0.517805
     3  Na  -1.101579   0.159802
     4  Na   1.083129   0.034643
     5  Na  -0.574099   0.302811
     6  Na   0.508786   0.068004
     7  Na  -0.084099   0.030317
 Sum of Mulliken charges =  -0.00000   1.00000

 Dipole moment (field-independent basis, Debye):
    X=             -0.1996    Y=             -0.4090    Z=             -0.2542  Tot=              0.5213
 Quadrupole moment (field-independent basis, Debye-Ang):
   XX=            -46.9183   YY=            -78.6709   ZZ=            -68.5093
   XY=             -1.8878   XZ=             -0.8846   YZ=              0.3953

 Normal termination of Gaussian 16 at Tue Dec  5 15:54:50 2023.
