 Gaussian 16, Revision B.01,
 Gaussian 16:  ES64L-G16RevB.01 20-Dec-2017

 -------------------------
 #P B3LYP/6-311+g(d) force
 -------------------------

 -----
 DPGEN
 -----
 Symbolic Z-matrix:
 Charge =  0 Multiplicity = 2

                         Standard orientation:
 ---------------------------------------------------------------------
 Center     Atomic      Atomic             Coordinates (Angstroms)
 Number     Number       Type             X           Y           Z
 ---------------------------------------------------------------------
      1         11           0       -0.264559    0.103040    2.145828
      2         11           0        3.411742    0.027674    0.014908
      3         11           0        1.593937   -2.462895   -0.126257
      4         11           0        1.076599    2.653809   -0.504094
      5         11           0       -3.051865   -1.710327   -0.244918
      6         11           0       -0.317199   -0.383676   -1.235931
      7         11           0       -2.448655    1.772375   -0.049535
 ---------------------------------------------------------------------

 SCF Done:  E(UB3LYP) =  -1136.12821028     A.U. after   21 cycles

 The electronic state is 2-A.
 Alpha  occ. eigenvalues --  -38.44732 -38.44383 -38.44120 -38.43660 -38.43527
 Alpha  occ. eigenvalues --  -38.43154 -38.42978  -2.20559  -2.20197  -2.19978
 Alpha  occ. eigenvalues --   -2.19539  -2.19401  -2.19191  -2.18810  -1.14247
 Alpha  occ. eigenvalues --   -1.14219  -1.14197  -1.13883  -1.13843  -1.13842
 Alpha  occ. eigenvalues --   -1.13674  -1.13650  -1.13592  -1.13286  -1.13180
 Alpha  occ. eigenvalues --   -1.13167  -1.13077  -1.13017  -1.13010  -1.12874
 Alpha  occ. eigenvalues --   -1.12839  -1.12806  -1.12494  -1.12468  -1.12443
 Alpha  occ. eigenvalues --   -0.18548  -0.13642  -0.11966  -0.10436
 Alpha virt. eigenvalues --   -0.06325  -0.05651  -0.04161  -0.03278  -0.02471
 Alpha virt. eigenvalues --   -0.02294  -0.02105  -0.01377  -0.00605  -0.00256
 Alpha virt. eigenvalues --   -0.00044   0.00254   0.00667   0.00782   0.00859

  Beta  occ. eigenvalues --  -38.44733 -38.44376 -38.44113 -38.43656 -38.43416
  Beta  occ. eigenvalues --  -38.43116 -38.42968  -2.20561  -2.20187  -2.19970
  Beta  occ. eigenvalues --   -2.19536  -2.19195  -2.19123  -2.18794  -1.14252
  Beta  occ. eigenvalues --   -1.14205  -1.14200  -1.13870  -1.13838  -1.13824
  Beta  occ. eigenvalues --   -1.13668  -1.13615  -1.13591  -1.13279  -1.13178
  Beta  occ. eigenvalues --   -1.13148  -1.12943  -1.12871  -1.12866  -1.12806
  Beta  occ. eigenvalues --   -1.12793  -1.12757  -1.12479  -1.12450  -1.12430
  Beta  occ. eigenvalues --   -0.17859  -0.13436  -0.11737
  Beta virt. eigenvalues --   -0.06519  -0.06241  -0.05604  -0.04128  -0.02548
  Beta virt. eigenvalues --   -0.02022  -0.01756  -0.01342  -0.01213  -0.00620
  Beta virt. eigenvalues --   -0.00266   0.00141   0.00312   0.00735   0.00793

 Mulliken charges and spin densities:
               1          2
     1  Na  -0.529229   0.661190
     2  Na   0.026818   0.002806
     3  Na   0.465852   0.131283
     4  Na   0.058027   0.087417
     5  Na   0.243397   0.097756
     6  Na  -0.609861  -0.078803
     7  Na   0.344996   0.098350
 Sum of Mulliken charges =  -0.00000   1.00000

 Dipole moment (field-independent basis, Debye):
    X=             -0.1739    Y=             -0.1350    Z=              0.2891  Tot=              0.3633
 Quadrupole moment (field-independent basis, Debye-Ang):
   XX=            -49.9372   YY=            -65.8705   ZZ=            -76.5008
   XY=              0.5068   XZ=              0.1881   YZ=             -0.6615

 Normal termination of Gaussian 16 at Fri Dec  8 00:00:28 2023.
