 Gaussian 16, Revision B.01,
 Gaussian 16:  ES64L-G16RevB.01 20-Dec-2017

 -------------------------
 #P B3LYP/6-311+g(d) force
 -------------------------

 -----
 DPGEN
 -----
 Symbolic Z-matrix:
 Charge =  0 Multiplicity = 2

                         Standard orientation:
 ---------------------------------------------------------------------
 Center     Atomic      Atomic             Coordinates (Angstroms)
 Number     Number       Type             X           Y           Z
 ---------------------------------------------------------------------
      1         11           0        0.154611    0.045106    1.804797
      2         11           0       -0.211278    0.215870   -1.548427
      3         11           0        2.118417   -1.898288    0.373249
      4         11           0       -0.364321    2.971811    0.405595
      5         11           0        2.925511    0.945957   -0.692860
      6         11           0       -1.348889   -2.644475   -0.178187
      7         11           0       -3.274051    0.364019   -0.164168
 ---------------------------------------------------------------------

 SCF Done:  E(UB3LYP) =  -1136.13579298     A.U. after   19 cycles

 The electronic state is 2-A.
 Alpha  occ. eigenvalues --  -38.44432 -38.43879 -38.43397 -38.43373 -38.43372
 Alpha  occ. eigenvalues --  -38.43239 -38.43130  -2.20239  -2.19745  -2.19286
 Alpha  occ. eigenvalues --   -2.19237  -2.19218  -2.19211  -2.19126  -1.13925
 Alpha  occ. eigenvalues --   -1.13895  -1.13867  -1.13438  -1.13411  -1.13367
 Alpha  occ. eigenvalues --   -1.13044  -1.12967  -1.12939  -1.12926  -1.12915
 Alpha  occ. eigenvalues --   -1.12905  -1.12889  -1.12868  -1.12858  -1.12839
 Alpha  occ. eigenvalues --   -1.12811  -1.12802  -1.12795  -1.12748  -1.12741
 Alpha  occ. eigenvalues --   -0.18827  -0.13196  -0.12392  -0.10677
 Alpha virt. eigenvalues --   -0.05862  -0.04847  -0.04722  -0.03183  -0.02830
 Alpha virt. eigenvalues --   -0.02280  -0.01753  -0.01120  -0.00397  -0.00198
 Alpha virt. eigenvalues --    0.00036   0.00335   0.00794   0.00877   0.00908

  Beta  occ. eigenvalues --  -38.44428 -38.43854 -38.43385 -38.43369 -38.43362
  Beta  occ. eigenvalues --  -38.43152 -38.43075  -2.20235  -2.19702  -2.19270
  Beta  occ. eigenvalues --   -2.19219  -2.19215  -2.19054  -2.19026  -1.13911
  Beta  occ. eigenvalues --   -1.13894  -1.13862  -1.13411  -1.13368  -1.13333
  Beta  occ. eigenvalues --   -1.13005  -1.12931  -1.12928  -1.12898  -1.12895
  Beta  occ. eigenvalues --   -1.12880  -1.12876  -1.12847  -1.12831  -1.12797
  Beta  occ. eigenvalues --   -1.12724  -1.12711  -1.12690  -1.12681  -1.12665
  Beta  occ. eigenvalues --   -0.18139  -0.12908  -0.12110
  Beta virt. eigenvalues --   -0.06824  -0.05799  -0.04794  -0.04680  -0.02468
  Beta virt. eigenvalues --   -0.02082  -0.01642  -0.01277  -0.01036  -0.00388
  Beta virt. eigenvalues --   -0.00219   0.00146   0.00381   0.00818   0.00908

 Mulliken charges and spin densities:
               1          2
     1  Na  -0.103658   0.551844
     2  Na  -0.231937   0.428351
     3  Na   0.308841   0.070749
     4  Na  -0.037504  -0.024271
     5  Na   0.094985   0.095605
     6  Na  -0.050287  -0.045454
     7  Na   0.019560  -0.076824
 Sum of Mulliken charges =  -0.00000   1.00000

 Dipole moment (field-independent basis, Debye):
    X=             -0.4148    Y=              0.1798    Z=              0.0193  Tot=              0.4524
 Quadrupole moment (field-independent basis, Debye-Ang):
   XX=            -55.0527   YY=            -62.5186   ZZ=            -74.8081
   XY=             -0.1065   XZ=             -0.9169   YZ=              0.0112

 Normal termination of Gaussian 16 at Thu Dec  7 09:54:50 2023.
