 Gaussian 16, Revision B.01,
 Gaussian 16:  ES64L-G16RevB.01 20-Dec-2017

 -------------------------
 #P B3LYP/6-311+g(d) force
 -------------------------

 -----
 DPGEN
 -----
 Symbolic Z-matrix:
 Charge =  0 Multiplicity = 2

                         Standard orientation:
 ---------------------------------------------------------------------
 Center     Atomic      Atomic             Coordinates (Angstroms)
 Number     Number       Type             X           Y           Z
 ---------------------------------------------------------------------
      1         11           0        0.010180    0.370006    2.147452
      2         11           0       -2.142983   -2.230696   -0.242912
      3         11           0        1.243661   -2.561221    0.389333
      4         11           0        3.105513   -0.004536   -0.473581
      5         11           0       -2.944542    1.375828   -0.128865
      6         11           0        0.801054    3.076639   -0.067081
      7         11           0       -0.072882   -0.026020   -1.624347
 ---------------------------------------------------------------------

 SCF Done:  E(UB3LYP) =  -1136.13755047     A.U. after   18 cycles

 The electronic state is 2-A.
 Alpha  occ. eigenvalues --  -38.44231 -38.43886 -38.43812 -38.43756 -38.43639
 Alpha  occ. eigenvalues --  -38.43253 -38.43231  -2.20016  -2.19678  -2.19650
 Alpha  occ. eigenvalues --   -2.19611  -2.19470  -2.19186  -2.19126  -1.13699
 Alpha  occ. eigenvalues --   -1.13677  -1.13649  -1.13360  -1.13349  -1.13336
 Alpha  occ. eigenvalues --   -1.13316  -1.13313  -1.13278  -1.13270  -1.13236
 Alpha  occ. eigenvalues --   -1.13228  -1.13168  -1.13130  -1.13104  -1.12877
 Alpha  occ. eigenvalues --   -1.12828  -1.12814  -1.12791  -1.12776  -1.12766
 Alpha  occ. eigenvalues --   -0.18331  -0.12750  -0.12468  -0.10771
 Alpha virt. eigenvalues --   -0.05797  -0.05083  -0.04798  -0.03116  -0.03003
 Alpha virt. eigenvalues --   -0.02635  -0.01502  -0.01286  -0.00512  -0.00365
 Alpha virt. eigenvalues --   -0.00018   0.00353   0.00776   0.00854   0.00880

  Beta  occ. eigenvalues --  -38.44229 -38.43884 -38.43801 -38.43656 -38.43636
  Beta  occ. eigenvalues --  -38.43244 -38.43173  -2.20015  -2.19678  -2.19633
  Beta  occ. eigenvalues --   -2.19467  -2.19428  -2.19113  -2.19081  -1.13684
  Beta  occ. eigenvalues --   -1.13678  -1.13648  -1.13348  -1.13340  -1.13323
  Beta  occ. eigenvalues --   -1.13314  -1.13286  -1.13269  -1.13161  -1.13149
  Beta  occ. eigenvalues --   -1.13117  -1.13109  -1.13104  -1.13095  -1.12817
  Beta  occ. eigenvalues --   -1.12782  -1.12764  -1.12752  -1.12735  -1.12727
  Beta  occ. eigenvalues --   -0.17613  -0.12518  -0.12256
  Beta virt. eigenvalues --   -0.06857  -0.05818  -0.04983  -0.04747  -0.02354
  Beta virt. eigenvalues --   -0.02262  -0.01602  -0.01405  -0.01215  -0.00555
  Beta virt. eigenvalues --   -0.00384   0.00122   0.00385   0.00784   0.00888

 Mulliken charges and spin densities:
               1          2
     1  Na  -0.423096   0.727770
     2  Na   0.117209  -0.020658
     3  Na   0.164794   0.106593
     4  Na   0.161427   0.012526
     5  Na   0.039420  -0.096282
     6  Na   0.029917  -0.099999
     7  Na  -0.089671   0.370050
 Sum of Mulliken charges =  -0.00000   1.00000

 Dipole moment (field-independent basis, Debye):
    X=             -0.2207    Y=              0.3615    Z=              0.0785  Tot=              0.4308
 Quadrupole moment (field-independent basis, Debye-Ang):
   XX=            -57.9790   YY=            -61.0065   ZZ=            -74.3633
   XY=              0.0260   XZ=             -0.4184   YZ=             -0.8994

 Normal termination of Gaussian 16 at Thu Dec  7 15:27:17 2023.
