 Gaussian 16, Revision B.01,
 Gaussian 16:  ES64L-G16RevB.01 20-Dec-2017

 -------------------------
 #P B3LYP/6-311+g(d) force
 -------------------------

 -----
 DPGEN
 -----
 Symbolic Z-matrix:
 Charge =  0 Multiplicity = 2

                         Standard orientation:
 ---------------------------------------------------------------------
 Center     Atomic      Atomic             Coordinates (Angstroms)
 Number     Number       Type             X           Y           Z
 ---------------------------------------------------------------------
      1         11           0        2.083915   -2.029751   -1.349825
      2         11           0        1.478864   -1.508661    2.004360
      3         11           0        3.380054    1.435755    0.829817
      4         11           0        1.014183    2.332548   -1.518206
      5         11           0       -4.013296   -0.236253    0.450245
      6         11           0       -2.336442    2.325339    0.382130
      7         11           0       -1.607277   -2.318977   -0.798522
 ---------------------------------------------------------------------

 SCF Done:  E(UB3LYP) =  -1136.11458228     A.U. after   22 cycles

 The electronic state is 2-A.
 Alpha  occ. eigenvalues --  -38.44730 -38.44718 -38.44598 -38.44499 -38.44350
 Alpha  occ. eigenvalues --  -38.44186 -38.43584  -2.20514  -2.20492  -2.20379
 Alpha  occ. eigenvalues --   -2.20296  -2.20119  -2.20021  -2.19368  -1.14210
 Alpha  occ. eigenvalues --   -1.14184  -1.14170  -1.14163  -1.14149  -1.14132
 Alpha  occ. eigenvalues --   -1.14054  -1.14043  -1.14010  -1.13963  -1.13936
 Alpha  occ. eigenvalues --   -1.13909  -1.13801  -1.13794  -1.13755  -1.13677
 Alpha  occ. eigenvalues --   -1.13667  -1.13648  -1.13024  -1.13020  -1.13006
 Alpha  occ. eigenvalues --   -0.16506  -0.13848  -0.12183  -0.10439
 Alpha virt. eigenvalues --   -0.06830  -0.06073  -0.04193  -0.03539  -0.03471
 Alpha virt. eigenvalues --   -0.02283  -0.01860  -0.01644  -0.01083  -0.00547
 Alpha virt. eigenvalues --   -0.00328  -0.00068   0.00067   0.00399   0.00672

  Beta  occ. eigenvalues --  -38.44727 -38.44699 -38.44573 -38.44439 -38.44333
  Beta  occ. eigenvalues --  -38.44174 -38.43540  -2.20512  -2.20461  -2.20335
  Beta  occ. eigenvalues --   -2.20187  -2.20090  -2.19998  -2.19287  -1.14205
  Beta  occ. eigenvalues --   -1.14183  -1.14153  -1.14150  -1.14131  -1.14086
  Beta  occ. eigenvalues --   -1.14018  -1.14008  -1.13975  -1.13891  -1.13868
  Beta  occ. eigenvalues --   -1.13819  -1.13778  -1.13775  -1.13732  -1.13661
  Beta  occ. eigenvalues --   -1.13650  -1.13632  -1.12969  -1.12964  -1.12951
  Beta  occ. eigenvalues --   -0.15999  -0.13492  -0.11873
  Beta virt. eigenvalues --   -0.06975  -0.06859  -0.05728  -0.03639  -0.03290
  Beta virt. eigenvalues --   -0.03070  -0.01783  -0.01605  -0.01497  -0.01039
  Beta virt. eigenvalues --   -0.00401  -0.00117   0.00203   0.00242   0.00455

 Mulliken charges and spin densities:
               1          2
     1  Na   0.054998   0.203570
     2  Na  -0.038794   0.409765
     3  Na   0.191356   0.021756
     4  Na  -0.202758   0.245193
     5  Na   0.349054   0.025017
     6  Na  -0.199182   0.035250
     7  Na  -0.154674   0.059449
 Sum of Mulliken charges =  -0.00000   1.00000

 Dipole moment (field-independent basis, Debye):
    X=             -0.0657    Y=             -0.2783    Z=              0.2422  Tot=              0.3747
 Quadrupole moment (field-independent basis, Debye-Ang):
   XX=            -58.0667   YY=            -70.7180   ZZ=            -71.1384
   XY=              1.2769   XZ=             -2.7303   YZ=              1.8620

 Normal termination of Gaussian 16 at Sun Dec  3 22:48:06 2023.
