 Gaussian 16, Revision B.01,
 Gaussian 16:  ES64L-G16RevB.01 20-Dec-2017

 -------------------------
 #P B3LYP/6-311+g(d) force
 -------------------------

 -----
 DPGEN
 -----
 Symbolic Z-matrix:
 Charge =  0 Multiplicity = 2

                         Standard orientation:
 ---------------------------------------------------------------------
 Center     Atomic      Atomic             Coordinates (Angstroms)
 Number     Number       Type             X           Y           Z
 ---------------------------------------------------------------------
      1         11           0        0.493441   -2.246066    0.951361
      2         11           0       -1.779482    0.126582    2.017495
      3         11           0       -2.166396   -1.998320   -1.232570
      4         11           0       -1.983174    2.423197   -1.063384
      5         11           0        3.616144   -0.179627   -0.749299
      6         11           0        1.364711    1.766304    1.116950
      7         11           0        0.454755    0.107931   -1.040552
 ---------------------------------------------------------------------

 SCF Done:  E(UB3LYP) =  -1136.12806191     A.U. after   19 cycles

 The electronic state is 2-A.
 Alpha  occ. eigenvalues --  -38.44072 -38.43945 -38.43889 -38.43808 -38.43485
 Alpha  occ. eigenvalues --  -38.43345 -38.42790  -2.19923  -2.19779  -2.19769
 Alpha  occ. eigenvalues --   -2.19634  -2.19285  -2.19231  -2.18898  -1.13614
 Alpha  occ. eigenvalues --   -1.13584  -1.13557  -1.13535  -1.13460  -1.13428
 Alpha  occ. eigenvalues --   -1.13413  -1.13405  -1.13336  -1.13320  -1.13273
 Alpha  occ. eigenvalues --   -1.13260  -1.12981  -1.12969  -1.12931  -1.12909
 Alpha  occ. eigenvalues --   -1.12888  -1.12822  -1.12614  -1.12530  -1.12489
 Alpha  occ. eigenvalues --   -0.18500  -0.12910  -0.11769  -0.11342
 Alpha virt. eigenvalues --   -0.05523  -0.05074  -0.04266  -0.03188  -0.02971
 Alpha virt. eigenvalues --   -0.02588  -0.01681  -0.00941  -0.00774   0.00217
 Alpha virt. eigenvalues --    0.00298   0.00398   0.00511   0.00686   0.00859

  Beta  occ. eigenvalues --  -38.44006 -38.43940 -38.43869 -38.43778 -38.43463
  Beta  occ. eigenvalues --  -38.43328 -38.42756  -2.19804  -2.19759  -2.19746
  Beta  occ. eigenvalues --   -2.19580  -2.19245  -2.19203  -2.18841  -1.13568
  Beta  occ. eigenvalues --   -1.13517  -1.13471  -1.13453  -1.13447  -1.13410
  Beta  occ. eigenvalues --   -1.13400  -1.13377  -1.13317  -1.13275  -1.13239
  Beta  occ. eigenvalues --   -1.13220  -1.12963  -1.12935  -1.12906  -1.12881
  Beta  occ. eigenvalues --   -1.12836  -1.12809  -1.12549  -1.12494  -1.12447
  Beta  occ. eigenvalues --   -0.17755  -0.12681  -0.11581
  Beta virt. eigenvalues --   -0.07397  -0.05340  -0.04850  -0.04044  -0.02811
  Beta virt. eigenvalues --   -0.02442  -0.01784  -0.01454  -0.00878  -0.00369
  Beta virt. eigenvalues --    0.00284   0.00329   0.00429   0.00648   0.00750

 Mulliken charges and spin densities:
               1          2
     1  Na   0.118401   0.309200
     2  Na   0.090732   0.321885
     3  Na  -0.033867   0.061974
     4  Na  -0.090908   0.054378
     5  Na   0.274606  -0.064793
     6  Na   0.140106   0.304640
     7  Na  -0.499070   0.012717
 Sum of Mulliken charges =  -0.00000   1.00000

 Dipole moment (field-independent basis, Debye):
    X=              0.0379    Y=             -0.1329    Z=              0.2413  Tot=              0.2780
 Quadrupole moment (field-independent basis, Debye-Ang):
   XX=            -54.7646   YY=            -69.2013   ZZ=            -67.0737
   XY=             -0.3763   XZ=              0.7273   YZ=              0.5676

 Normal termination of Gaussian 16 at Thu Dec  7 17:41:57 2023.
