 Gaussian 16, Revision B.01,
 Gaussian 16:  ES64L-G16RevB.01 20-Dec-2017

 -------------------------
 #P B3LYP/6-311+g(d) force
 -------------------------

 -----
 DPGEN
 -----
 Symbolic Z-matrix:
 Charge =  0 Multiplicity = 2

                         Standard orientation:
 ---------------------------------------------------------------------
 Center     Atomic      Atomic             Coordinates (Angstroms)
 Number     Number       Type             X           Y           Z
 ---------------------------------------------------------------------
      1         11           0       -3.381728    0.320466    0.350329
      2         11           0        2.345693    2.023979   -0.044659
      3         11           0        3.597281   -1.431115    0.172825
      4         11           0        0.537456   -0.547227   -1.703695
      5         11           0       -1.121975    2.608450   -0.315920
      6         11           0        0.015680   -0.608328    2.141103
      7         11           0       -1.992407   -2.366225   -0.599984
 ---------------------------------------------------------------------

 SCF Done:  E(UB3LYP) =  -1136.12510962     A.U. after   22 cycles

 The electronic state is 2-A.
 Alpha  occ. eigenvalues --  -38.45068 -38.44815 -38.44567 -38.44152 -38.43776
 Alpha  occ. eigenvalues --  -38.43521 -38.42714  -2.20821  -2.20650  -2.20365
 Alpha  occ. eigenvalues --   -2.19958  -2.19651  -2.19376  -2.18540  -1.14494
 Alpha  occ. eigenvalues --   -1.14486  -1.14458  -1.14321  -1.14314  -1.14298
 Alpha  occ. eigenvalues --   -1.14031  -1.14008  -1.13972  -1.13643  -1.13633
 Alpha  occ. eigenvalues --   -1.13579  -1.13339  -1.13294  -1.13276  -1.13039
 Alpha  occ. eigenvalues --   -1.13036  -1.13012  -1.12216  -1.12203  -1.12191
 Alpha  occ. eigenvalues --   -0.17894  -0.13601  -0.11665  -0.10706
 Alpha virt. eigenvalues --   -0.06877  -0.05699  -0.04174  -0.03444  -0.02730
 Alpha virt. eigenvalues --   -0.02568  -0.02314  -0.01384  -0.00773  -0.00231
 Alpha virt. eigenvalues --   -0.00111   0.00216   0.00417   0.00595   0.00702

  Beta  occ. eigenvalues --  -38.45073 -38.44812 -38.44478 -38.44149 -38.43709
  Beta  occ. eigenvalues --  -38.43504 -38.42712  -2.20832  -2.20645  -2.20199
  Beta  occ. eigenvalues --   -2.19954  -2.19527  -2.19349  -2.18538  -1.14499
  Beta  occ. eigenvalues --   -1.14486  -1.14466  -1.14320  -1.14308  -1.14283
  Beta  occ. eigenvalues --   -1.13917  -1.13893  -1.13852  -1.13633  -1.13623
  Beta  occ. eigenvalues --   -1.13580  -1.13257  -1.13200  -1.13188  -1.13024
  Beta  occ. eigenvalues --   -1.13011  -1.12974  -1.12217  -1.12196  -1.12182
  Beta  occ. eigenvalues --   -0.17199  -0.13490  -0.11433
  Beta virt. eigenvalues --   -0.06949  -0.06584  -0.05685  -0.03945  -0.02921
  Beta virt. eigenvalues --   -0.02276  -0.01897  -0.01640  -0.01275  -0.00791
  Beta virt. eigenvalues --   -0.00147  -0.00002   0.00254   0.00595   0.00693

 Mulliken charges and spin densities:
               1          2
     1  Na   0.133641   0.101332
     2  Na   0.075445   0.029239
     3  Na   0.147761  -0.002103
     4  Na  -0.086418   0.261109
     5  Na  -0.205984  -0.045622
     6  Na  -0.356398   0.552562
     7  Na   0.291953   0.103483
 Sum of Mulliken charges =  -0.00000   1.00000

 Dipole moment (field-independent basis, Debye):
    X=              0.6792    Y=             -0.4438    Z=              0.2907  Tot=              0.8618
 Quadrupole moment (field-independent basis, Debye-Ang):
   XX=            -49.0917   YY=            -70.6014   ZZ=            -74.7373
   XY=             -0.6071   XZ=              0.1352   YZ=              0.2733

 Normal termination of Gaussian 16 at Tue Dec  5 23:01:14 2023.
