 Gaussian 16, Revision B.01,
 Gaussian 16:  ES64L-G16RevB.01 20-Dec-2017

 -------------------------
 #P B3LYP/6-311+g(d) force
 -------------------------

 -----
 DPGEN
 -----
 Symbolic Z-matrix:
 Charge =  0 Multiplicity = 2

                         Standard orientation:
 ---------------------------------------------------------------------
 Center     Atomic      Atomic             Coordinates (Angstroms)
 Number     Number       Type             X           Y           Z
 ---------------------------------------------------------------------
      1         11           0        1.845913    1.328717   -1.574894
      2         11           0        1.798747    0.711366    1.688939
      3         11           0        3.457252   -1.933878   -0.045290
      4         11           0       -1.599359    2.670185   -0.209623
      5         11           0       -3.757361   -1.765904   -0.604149
      6         11           0       -0.224814   -0.731135   -1.116762
      7         11           0       -1.520377   -0.279351    1.861779
 ---------------------------------------------------------------------

 SCF Done:  E(UB3LYP) =  -1136.12035125     A.U. after   25 cycles

 The electronic state is 2-A.
 Alpha  occ. eigenvalues --  -38.44255 -38.44217 -38.44145 -38.44007 -38.43964
 Alpha  occ. eigenvalues --  -38.43945 -38.43763  -2.20133  -2.20044  -2.19984
 Alpha  occ. eigenvalues --   -2.19897  -2.19881  -2.19714  -2.19535  -1.13870
 Alpha  occ. eigenvalues --   -1.13831  -1.13814  -1.13728  -1.13682  -1.13656
 Alpha  occ. eigenvalues --   -1.13654  -1.13648  -1.13611  -1.13589  -1.13557
 Alpha  occ. eigenvalues --   -1.13530  -1.13508  -1.13484  -1.13464  -1.13390
 Alpha  occ. eigenvalues --   -1.13380  -1.13346  -1.13205  -1.13200  -1.13155
 Alpha  occ. eigenvalues --   -0.18206  -0.13323  -0.11507  -0.11060
 Alpha virt. eigenvalues --   -0.06186  -0.05798  -0.04464  -0.03133  -0.02577
 Alpha virt. eigenvalues --   -0.02527  -0.02086  -0.01713  -0.00716  -0.00089
 Alpha virt. eigenvalues --    0.00169   0.00269   0.00307   0.00445   0.00549

  Beta  occ. eigenvalues --  -38.44217 -38.44193 -38.44096 -38.43958 -38.43951
  Beta  occ. eigenvalues --  -38.43923 -38.43753  -2.20022  -2.19985  -2.19956
  Beta  occ. eigenvalues --   -2.19825  -2.19793  -2.19727  -2.19516  -1.13800
  Beta  occ. eigenvalues --   -1.13745  -1.13735  -1.13665  -1.13656  -1.13635
  Beta  occ. eigenvalues --   -1.13617  -1.13604  -1.13585  -1.13531  -1.13494
  Beta  occ. eigenvalues --   -1.13475  -1.13455  -1.13427  -1.13392  -1.13387
  Beta  occ. eigenvalues --   -1.13379  -1.13356  -1.13189  -1.13187  -1.13144
  Beta  occ. eigenvalues --   -0.17422  -0.13172  -0.10908
  Beta virt. eigenvalues --   -0.07462  -0.06014  -0.05665  -0.03902  -0.02738
  Beta virt. eigenvalues --   -0.02223  -0.01910  -0.01877  -0.01496  -0.00299
  Beta virt. eigenvalues --   -0.00069   0.00204   0.00337   0.00411   0.00553

 Mulliken charges and spin densities:
               1          2
     1  Na   0.557827   0.068244
     2  Na   0.062563   0.375326
     3  Na   0.034150  -0.095609
     4  Na  -0.168009  -0.084263
     5  Na   0.205519   0.029565
     6  Na  -0.814696   0.550318
     7  Na   0.122647   0.156419
 Sum of Mulliken charges =  -0.00000   1.00000

 Dipole moment (field-independent basis, Debye):
    X=              0.2403    Y=              0.4831    Z=             -0.0051  Tot=              0.5396
 Quadrupole moment (field-independent basis, Debye-Ang):
   XX=            -55.3040   YY=            -69.8058   ZZ=            -68.9347
   XY=             -2.5773   XZ=              0.0820   YZ=              0.5840

 Normal termination of Gaussian 16 at Thu Dec  7 02:14:01 2023.
