 Gaussian 16, Revision B.01,
 Gaussian 16:  ES64L-G16RevB.01 20-Dec-2017

 -------------------------
 #P B3LYP/6-311+g(d) force
 -------------------------

 -----
 DPGEN
 -----
 Symbolic Z-matrix:
 Charge =  0 Multiplicity = 2

                         Standard orientation:
 ---------------------------------------------------------------------
 Center     Atomic      Atomic             Coordinates (Angstroms)
 Number     Number       Type             X           Y           Z
 ---------------------------------------------------------------------
      1         11           0        2.632851   -1.325089    0.020072
      2         11           0       -0.333074   -2.644697   -0.750390
      3         11           0        0.116900   -0.200046    2.216736
      4         11           0        2.498823    1.954103    0.029930
      5         11           0       -1.825413    2.497466   -0.280634
      6         11           0       -3.199126   -0.706718    0.306587
      7         11           0        0.109038    0.424981   -1.542301
 ---------------------------------------------------------------------

 SCF Done:  E(UB3LYP) =  -1136.13343843     A.U. after   19 cycles

 The electronic state is 2-A.
 Alpha  occ. eigenvalues --  -38.44408 -38.44159 -38.43888 -38.43722 -38.43687
 Alpha  occ. eigenvalues --  -38.43140 -38.42900  -2.20202  -2.20005  -2.19727
 Alpha  occ. eigenvalues --   -2.19615  -2.19513  -2.19148  -2.18779  -1.13876
 Alpha  occ. eigenvalues --   -1.13854  -1.13849  -1.13665  -1.13638  -1.13620
 Alpha  occ. eigenvalues --   -1.13432  -1.13387  -1.13373  -1.13288  -1.13277
 Alpha  occ. eigenvalues --   -1.13245  -1.13240  -1.13164  -1.13133  -1.12824
 Alpha  occ. eigenvalues --   -1.12803  -1.12769  -1.12468  -1.12421  -1.12405
 Alpha  occ. eigenvalues --   -0.18578  -0.13219  -0.12100  -0.11016
 Alpha virt. eigenvalues --   -0.05893  -0.05327  -0.04212  -0.03412  -0.02878
 Alpha virt. eigenvalues --   -0.02738  -0.01670  -0.01087  -0.00417  -0.00177
 Alpha virt. eigenvalues --   -0.00004   0.00352   0.00742   0.00831   0.00879

  Beta  occ. eigenvalues --  -38.44405 -38.44060 -38.43886 -38.43716 -38.43684
  Beta  occ. eigenvalues --  -38.43081 -38.42881  -2.20199  -2.19822  -2.19726
  Beta  occ. eigenvalues --   -2.19608  -2.19509  -2.19041  -2.18746  -1.13857
  Beta  occ. eigenvalues --   -1.13855  -1.13850  -1.13544  -1.13511  -1.13487
  Beta  occ. eigenvalues --   -1.13431  -1.13377  -1.13364  -1.13285  -1.13251
  Beta  occ. eigenvalues --   -1.13233  -1.13229  -1.13153  -1.13132  -1.12753
  Beta  occ. eigenvalues --   -1.12719  -1.12697  -1.12437  -1.12396  -1.12374
  Beta  occ. eigenvalues --   -0.17847  -0.13024  -0.11849
  Beta virt. eigenvalues --   -0.07073  -0.05795  -0.05300  -0.04164  -0.02645
  Beta virt. eigenvalues --   -0.02132  -0.01703  -0.01552  -0.01023  -0.00453
  Beta virt. eigenvalues --   -0.00163   0.00123   0.00382   0.00809   0.00850

 Mulliken charges and spin densities:
               1          2
     1  Na   0.339095   0.112097
     2  Na   0.125248   0.095859
     3  Na  -0.548617   0.667194
     4  Na   0.033517  -0.011488
     5  Na   0.051076  -0.036360
     6  Na  -0.017980   0.055695
     7  Na   0.017660   0.117005
 Sum of Mulliken charges =  -0.00000   1.00000

 Dipole moment (field-independent basis, Debye):
    X=             -0.1438    Y=              0.1663    Z=              0.4282  Tot=              0.4813
 Quadrupole moment (field-independent basis, Debye-Ang):
   XX=            -54.9744   YY=            -65.6888   ZZ=            -73.3075
   XY=              0.8488   XZ=             -0.3296   YZ=              1.0571

 Normal termination of Gaussian 16 at Thu Dec  7 15:21:05 2023.
