 Gaussian 16, Revision B.01,
 Gaussian 16:  ES64L-G16RevB.01 20-Dec-2017

 -------------------------
 #P B3LYP/6-311+g(d) force
 -------------------------

 -----
 DPGEN
 -----
 Symbolic Z-matrix:
 Charge =  0 Multiplicity = 2

                         Standard orientation:
 ---------------------------------------------------------------------
 Center     Atomic      Atomic             Coordinates (Angstroms)
 Number     Number       Type             X           Y           Z
 ---------------------------------------------------------------------
      1         11           0        1.153380   -2.678031   -1.442780
      2         11           0        5.242492   -0.229227    1.917775
      3         11           0        3.030689    0.023525   -0.783872
      4         11           0        0.608172    3.263200   -1.233714
      5         11           0       -0.160623   -0.117419    0.026217
      6         11           0       -3.819435    0.281466    1.754394
      7         11           0       -6.054676   -0.543514   -0.238021
 ---------------------------------------------------------------------

 SCF Done:  E(UB3LYP) =  -1136.10129092     A.U. after   24 cycles

 The electronic state is 2-A.
 Alpha  occ. eigenvalues --  -38.45070 -38.44662 -38.44298 -38.44264 -38.44245
 Alpha  occ. eigenvalues --  -38.44015 -38.43704  -2.20919  -2.20434  -2.20092
 Alpha  occ. eigenvalues --   -2.20091  -2.20045  -2.19866  -2.19476  -1.14576
 Alpha  occ. eigenvalues --   -1.14556  -1.14530  -1.14121  -1.14094  -1.14092
 Alpha  occ. eigenvalues --   -1.13791  -1.13774  -1.13753  -1.13740  -1.13724
 Alpha  occ. eigenvalues --   -1.13718  -1.13691  -1.13687  -1.13667  -1.13570
 Alpha  occ. eigenvalues --   -1.13546  -1.13470  -1.13136  -1.13133  -1.13090
 Alpha  occ. eigenvalues --   -0.16574  -0.13462  -0.11958  -0.11399
 Alpha virt. eigenvalues --   -0.06844  -0.05243  -0.04800  -0.03356  -0.02946
 Alpha virt. eigenvalues --   -0.02450  -0.02196  -0.01581  -0.01209  -0.00907
 Alpha virt. eigenvalues --   -0.00686  -0.00609   0.00142   0.00365   0.00409

  Beta  occ. eigenvalues --  -38.44983 -38.44675 -38.44294 -38.44247 -38.44179
  Beta  occ. eigenvalues --  -38.44013 -38.43655  -2.20757  -2.20459  -2.20100
  Beta  occ. eigenvalues --   -2.20083  -2.19888  -2.19867  -2.19385  -1.14459
  Beta  occ. eigenvalues --   -1.14449  -1.14426  -1.14136  -1.14111  -1.14109
  Beta  occ. eigenvalues --   -1.13798  -1.13781  -1.13746  -1.13734  -1.13721
  Beta  occ. eigenvalues --   -1.13699  -1.13588  -1.13580  -1.13576  -1.13561
  Beta  occ. eigenvalues --   -1.13515  -1.13462  -1.13074  -1.13069  -1.13031
  Beta  occ. eigenvalues --   -0.15922  -0.13460  -0.10611
  Beta virt. eigenvalues --   -0.08253  -0.06822  -0.04721  -0.04543  -0.03118
  Beta virt. eigenvalues --   -0.02750  -0.02285  -0.01706  -0.01383  -0.00936
  Beta virt. eigenvalues --   -0.00739  -0.00417  -0.00370   0.00190   0.00474

 Mulliken charges and spin densities:
               1          2
     1  Na   0.869903   0.300579
     2  Na   0.311219   0.424622
     3  Na   0.399799   0.111241
     4  Na   0.163011   0.298143
     5  Na  -1.635399  -0.087940
     6  Na  -0.285071   0.010932
     7  Na   0.176538  -0.057577
 Sum of Mulliken charges =  -0.00000   1.00000

 Dipole moment (field-independent basis, Debye):
    X=             -1.1411    Y=             -0.8494    Z=             -0.5207  Tot=              1.5148
 Quadrupole moment (field-independent basis, Debye-Ang):
   XX=            -67.2618   YY=            -67.6869   ZZ=            -63.7906
   XY=              2.9596   XZ=              4.9337   YZ=              3.2433

 Normal termination of Gaussian 16 at Tue Nov 28 22:04:05 2023.
