 Gaussian 16, Revision B.01,
 Gaussian 16:  ES64L-G16RevB.01 20-Dec-2017

 -------------------------
 #P B3LYP/6-311+g(d) force
 -------------------------

 -----
 DPGEN
 -----
 Symbolic Z-matrix:
 Charge =  0 Multiplicity = 2

                         Standard orientation:
 ---------------------------------------------------------------------
 Center     Atomic      Atomic             Coordinates (Angstroms)
 Number     Number       Type             X           Y           Z
 ---------------------------------------------------------------------
      1         11           0        0.260242   -1.387393    1.732118
      2         11           0        2.970910   -1.821950    0.226641
      3         11           0       -3.215479   -1.575102   -0.646201
      4         11           0        0.078423    2.738834   -0.411046
      5         11           0       -3.041893    1.654895    0.882720
      6         11           0       -0.238415   -1.250798   -1.518523
      7         11           0        3.186213    1.641514   -0.265710
 ---------------------------------------------------------------------

 SCF Done:  E(UB3LYP) =  -1136.12018875     A.U. after   21 cycles

 The electronic state is 2-A.
 Alpha  occ. eigenvalues --  -38.44529 -38.44443 -38.44341 -38.44173 -38.44169
 Alpha  occ. eigenvalues --  -38.44126 -38.43372  -2.20358  -2.20298  -2.20187
 Alpha  occ. eigenvalues --   -2.20009  -2.19976  -2.19963  -2.19165  -1.14066
 Alpha  occ. eigenvalues --   -1.14014  -1.14006  -1.13989  -1.13958  -1.13937
 Alpha  occ. eigenvalues --   -1.13844  -1.13831  -1.13802  -1.13681  -1.13644
 Alpha  occ. eigenvalues --   -1.13642  -1.13636  -1.13625  -1.13623  -1.13613
 Alpha  occ. eigenvalues --   -1.13612  -1.13594  -1.12847  -1.12846  -1.12804
 Alpha  occ. eigenvalues --   -0.17586  -0.13782  -0.12342  -0.10399
 Alpha virt. eigenvalues --   -0.06743  -0.06077  -0.04243  -0.03485  -0.02782
 Alpha virt. eigenvalues --   -0.02310  -0.02265  -0.01732  -0.00876  -0.00232
 Alpha virt. eigenvalues --   -0.00088   0.00145   0.00408   0.00524   0.00579

  Beta  occ. eigenvalues --  -38.44501 -38.44392 -38.44333 -38.44158 -38.44123
  Beta  occ. eigenvalues --  -38.44074 -38.43374  -2.20311  -2.20204  -2.20175
  Beta  occ. eigenvalues --   -2.19947  -2.19915  -2.19878  -2.19174  -1.14016
  Beta  occ. eigenvalues --   -1.13978  -1.13962  -1.13945  -1.13893  -1.13876
  Beta  occ. eigenvalues --   -1.13835  -1.13818  -1.13765  -1.13627  -1.13619
  Beta  occ. eigenvalues --   -1.13609  -1.13595  -1.13580  -1.13560  -1.13556
  Beta  occ. eigenvalues --   -1.13546  -1.13539  -1.12855  -1.12852  -1.12788
  Beta  occ. eigenvalues --   -0.17103  -0.13388  -0.11923
  Beta virt. eigenvalues --   -0.06977  -0.06688  -0.05746  -0.03902  -0.03088
  Beta virt. eigenvalues --   -0.02265  -0.02176  -0.01778  -0.01328  -0.00784
  Beta virt. eigenvalues --   -0.00036  -0.00009   0.00234   0.00514   0.00653

 Mulliken charges and spin densities:
               1          2
     1  Na  -0.325623   0.279668
     2  Na   0.644174   0.078239
     3  Na   0.351710  -0.043723
     4  Na  -0.030323  -0.093043
     5  Na   0.032202   0.282873
     6  Na  -0.417009   0.413318
     7  Na  -0.255131   0.082668
 Sum of Mulliken charges =  -0.00000   1.00000

 Dipole moment (field-independent basis, Debye):
    X=              0.1322    Y=             -0.8993    Z=              0.1942  Tot=              0.9295
 Quadrupole moment (field-independent basis, Debye-Ang):
   XX=            -51.0530   YY=            -73.6843   ZZ=            -73.2108
   XY=             -0.7956   XZ=             -1.7015   YZ=              0.4280

 Normal termination of Gaussian 16 at Wed Nov 29 01:20:28 2023.
