 Gaussian 16, Revision B.01,
 Gaussian 16:  ES64L-G16RevB.01 20-Dec-2017

 -------------------------
 #P B3LYP/6-311+g(d) force
 -------------------------

 -----
 DPGEN
 -----
 Symbolic Z-matrix:
 Charge =  0 Multiplicity = 2

                         Standard orientation:
 ---------------------------------------------------------------------
 Center     Atomic      Atomic             Coordinates (Angstroms)
 Number     Number       Type             X           Y           Z
 ---------------------------------------------------------------------
      1         11           0       -0.016685    0.590911   -1.572546
      2         11           0       -3.214946   -0.844485   -0.195357
      3         11           0        2.737217   -1.604725   -0.049774
      4         11           0       -1.514304    2.975605    0.066800
      5         11           0       -0.484206   -2.658314   -0.338868
      6         11           0       -0.285822   -0.203649    2.084424
      7         11           0        2.778746    1.744657    0.005322
 ---------------------------------------------------------------------

 SCF Done:  E(UB3LYP) =  -1136.13316512     A.U. after   20 cycles

 The electronic state is 2-A.
 Alpha  occ. eigenvalues --  -38.44571 -38.44448 -38.43986 -38.43808 -38.43532
 Alpha  occ. eigenvalues --  -38.43190 -38.43067  -2.20376  -2.20247  -2.19770
 Alpha  occ. eigenvalues --   -2.19638  -2.19394  -2.19117  -2.18957  -1.14048
 Alpha  occ. eigenvalues --   -1.14039  -1.14012  -1.13926  -1.13909  -1.13885
 Alpha  occ. eigenvalues --   -1.13460  -1.13426  -1.13406  -1.13308  -1.13296
 Alpha  occ. eigenvalues --   -1.13289  -1.13064  -1.13020  -1.13009  -1.12808
 Alpha  occ. eigenvalues --   -1.12764  -1.12742  -1.12632  -1.12614  -1.12598
 Alpha  occ. eigenvalues --   -0.18231  -0.13032  -0.12303  -0.10417
 Alpha virt. eigenvalues --   -0.06227  -0.05445  -0.04544  -0.03090  -0.02815
 Alpha virt. eigenvalues --   -0.02410  -0.01838  -0.01372  -0.00742  -0.00346
 Alpha virt. eigenvalues --   -0.00027   0.00327   0.00718   0.00752   0.00872

  Beta  occ. eigenvalues --  -38.44566 -38.44447 -38.43985 -38.43806 -38.43432
  Beta  occ. eigenvalues --  -38.43139 -38.43055  -2.20370  -2.20247  -2.19771
  Beta  occ. eigenvalues --   -2.19636  -2.19209  -2.19023  -2.18939  -1.14043
  Beta  occ. eigenvalues --   -1.14017  -1.14010  -1.13921  -1.13901  -1.13888
  Beta  occ. eigenvalues --   -1.13455  -1.13417  -1.13410  -1.13307  -1.13292
  Beta  occ. eigenvalues --   -1.13277  -1.12940  -1.12890  -1.12878  -1.12742
  Beta  occ. eigenvalues --   -1.12695  -1.12674  -1.12620  -1.12590  -1.12568
  Beta  occ. eigenvalues --   -0.17519  -0.12841  -0.12103
  Beta virt. eigenvalues --   -0.06514  -0.06216  -0.05372  -0.04508  -0.02368
  Beta virt. eigenvalues --   -0.02095  -0.01744  -0.01394  -0.01252  -0.00785
  Beta virt. eigenvalues --   -0.00378   0.00139   0.00366   0.00728   0.00810

 Mulliken charges and spin densities:
               1          2
     1  Na  -0.096783   0.346415
     2  Na   0.213250  -0.032195
     3  Na   0.071475   0.015196
     4  Na  -0.010833  -0.133369
     5  Na   0.133620   0.086807
     6  Na  -0.499095   0.779730
     7  Na   0.188365  -0.062584
 Sum of Mulliken charges =  -0.00000   1.00000

 Dipole moment (field-independent basis, Debye):
    X=             -0.1380    Y=              0.3882    Z=              0.1120  Tot=              0.4269
 Quadrupole moment (field-independent basis, Debye-Ang):
   XX=            -53.6289   YY=            -62.7271   ZZ=            -76.3142
   XY=              0.2158   XZ=              0.5407   YZ=              1.7471

 Normal termination of Gaussian 16 at Fri Dec  8 04:10:44 2023.
