 Gaussian 16, Revision B.01,
 Gaussian 16:  ES64L-G16RevB.01 20-Dec-2017

 -------------------------
 #P B3LYP/6-311+g(d) force
 -------------------------

 -----
 DPGEN
 -----
 Symbolic Z-matrix:
 Charge =  0 Multiplicity = 2

                         Standard orientation:
 ---------------------------------------------------------------------
 Center     Atomic      Atomic             Coordinates (Angstroms)
 Number     Number       Type             X           Y           Z
 ---------------------------------------------------------------------
      1         11           0        1.965055    0.718381    2.284571
      2         11           0        3.599743   -0.969166   -0.705601
      3         11           0        0.042286    2.731779    0.158472
      4         11           0       -2.675787    1.140513   -1.112125
      5         11           0       -0.233892   -2.221606    0.107353
      6         11           0        0.737935   -0.075578   -1.778866
      7         11           0       -3.435339   -1.324324    1.046196
 ---------------------------------------------------------------------

 SCF Done:  E(UB3LYP) =  -1136.12106845     A.U. after   22 cycles

 The electronic state is 2-A.
 Alpha  occ. eigenvalues --  -38.45056 -38.44509 -38.44182 -38.44097 -38.44026
 Alpha  occ. eigenvalues --  -38.43942 -38.42741  -2.20852  -2.20318  -2.20009
 Alpha  occ. eigenvalues --   -2.19927  -2.19890  -2.19832  -2.18569  -1.14550
 Alpha  occ. eigenvalues --   -1.14496  -1.14481  -1.13973  -1.13948  -1.13932
 Alpha  occ. eigenvalues --   -1.13828  -1.13687  -1.13619  -1.13604  -1.13593
 Alpha  occ. eigenvalues --   -1.13568  -1.13546  -1.13524  -1.13488  -1.13478
 Alpha  occ. eigenvalues --   -1.13464  -1.13450  -1.12250  -1.12243  -1.12212
 Alpha  occ. eigenvalues --   -0.17795  -0.13569  -0.11826  -0.11217
 Alpha virt. eigenvalues --   -0.06752  -0.05102  -0.04332  -0.03464  -0.03132
 Alpha virt. eigenvalues --   -0.02693  -0.02350  -0.00979  -0.00643   0.00030
 Alpha virt. eigenvalues --    0.00066   0.00140   0.00308   0.00514   0.00718

  Beta  occ. eigenvalues --  -38.45048 -38.44413 -38.44178 -38.44085 -38.44004
  Beta  occ. eigenvalues --  -38.43880 -38.42744  -2.20841  -2.20140  -2.20005
  Beta  occ. eigenvalues --   -2.19908  -2.19790  -2.19776  -2.18580  -1.14533
  Beta  occ. eigenvalues --   -1.14478  -1.14478  -1.13850  -1.13828  -1.13811
  Beta  occ. eigenvalues --   -1.13800  -1.13675  -1.13598  -1.13597  -1.13578
  Beta  occ. eigenvalues --   -1.13553  -1.13485  -1.13457  -1.13453  -1.13448
  Beta  occ. eigenvalues --   -1.13427  -1.13376  -1.12261  -1.12251  -1.12192
  Beta  occ. eigenvalues --   -0.17183  -0.13240  -0.11434
  Beta virt. eigenvalues --   -0.07632  -0.06657  -0.04600  -0.04020  -0.03242
  Beta virt. eigenvalues --   -0.02489  -0.02301  -0.01970  -0.00760  -0.00401
  Beta virt. eigenvalues --    0.00086   0.00124   0.00192   0.00494   0.00722

 Mulliken charges and spin densities:
               1          2
     1  Na  -0.100062   0.424313
     2  Na   0.288125   0.108318
     3  Na  -0.352587   0.234997
     4  Na   0.330105  -0.122040
     5  Na  -0.801776   0.177650
     6  Na   0.397457   0.044010
     7  Na   0.238738   0.132752
 Sum of Mulliken charges =  -0.00000   1.00000

 Dipole moment (field-independent basis, Debye):
    X=              0.6171    Y=             -0.3341    Z=              0.1027  Tot=              0.7092
 Quadrupole moment (field-independent basis, Debye-Ang):
   XX=            -51.8025   YY=            -75.4508   ZZ=            -68.7782
   XY=             -3.4061   XZ=             -0.8160   YZ=             -1.3577

 Normal termination of Gaussian 16 at Mon Dec  4 02:11:11 2023.
