 Gaussian 16, Revision B.01,
 Gaussian 16:  ES64L-G16RevB.01 20-Dec-2017

 -------------------------
 #P B3LYP/6-311+g(d) force
 -------------------------

 -----
 DPGEN
 -----
 Symbolic Z-matrix:
 Charge =  0 Multiplicity = 2

                         Standard orientation:
 ---------------------------------------------------------------------
 Center     Atomic      Atomic             Coordinates (Angstroms)
 Number     Number       Type             X           Y           Z
 ---------------------------------------------------------------------
      1         11           0        1.422451    0.576765    1.445366
      2         11           0       -2.240098   -0.186767    2.539848
      3         11           0        0.051632   -1.828404   -1.491763
      4         11           0       -1.665847    1.890732   -0.806743
      5         11           0        3.603379   -1.685746    0.277042
      6         11           0        2.283364    2.150654   -0.943869
      7         11           0       -3.454881   -0.917234   -1.019882
 ---------------------------------------------------------------------

 SCF Done:  E(UB3LYP) =  -1136.11741262     A.U. after   25 cycles

 The electronic state is 2-A.
 Alpha  occ. eigenvalues --  -38.44977 -38.44315 -38.44312 -38.44160 -38.44088
 Alpha  occ. eigenvalues --  -38.44067 -38.43856  -2.20772  -2.20122  -2.20064
 Alpha  occ. eigenvalues --   -2.19962  -2.19894  -2.19869  -2.19743  -1.14422
 Alpha  occ. eigenvalues --   -1.14406  -1.14377  -1.13811  -1.13774  -1.13768
 Alpha  occ. eigenvalues --   -1.13759  -1.13753  -1.13678  -1.13660  -1.13646
 Alpha  occ. eigenvalues --   -1.13628  -1.13576  -1.13561  -1.13548  -1.13524
 Alpha  occ. eigenvalues --   -1.13501  -1.13495  -1.13417  -1.13373  -1.13340
 Alpha  occ. eigenvalues --   -0.17413  -0.13857  -0.11585  -0.10982
 Alpha virt. eigenvalues --   -0.06393  -0.05701  -0.05169  -0.03376  -0.02694
 Alpha virt. eigenvalues --   -0.02536  -0.02156  -0.01260  -0.01194  -0.00227
 Alpha virt. eigenvalues --   -0.00028   0.00034   0.00182   0.00400   0.00446

  Beta  occ. eigenvalues --  -38.44870 -38.44308 -38.44302 -38.44139 -38.44082
  Beta  occ. eigenvalues --  -38.44047 -38.43841  -2.20572  -2.20106  -2.20052
  Beta  occ. eigenvalues --   -2.19926  -2.19859  -2.19856  -2.19718  -1.14283
  Beta  occ. eigenvalues --   -1.14268  -1.14244  -1.13795  -1.13766  -1.13749
  Beta  occ. eigenvalues --   -1.13747  -1.13745  -1.13654  -1.13647  -1.13619
  Beta  occ. eigenvalues --   -1.13594  -1.13552  -1.13548  -1.13522  -1.13516
  Beta  occ. eigenvalues --   -1.13495  -1.13467  -1.13403  -1.13338  -1.13322
  Beta  occ. eigenvalues --   -0.16827  -0.13628  -0.10811
  Beta virt. eigenvalues --   -0.07693  -0.06179  -0.05514  -0.04557  -0.03015
  Beta virt. eigenvalues --   -0.02283  -0.02042  -0.01957  -0.01167  -0.00654
  Beta virt. eigenvalues --   -0.00105   0.00104   0.00227   0.00309   0.00440

 Mulliken charges and spin densities:
               1          2
     1  Na  -0.480380   0.018444
     2  Na   0.103727   0.479692
     3  Na  -0.442451   0.050723
     4  Na  -0.278682   0.294023
     5  Na   0.397353   0.001609
     6  Na   0.289715   0.166487
     7  Na   0.410718  -0.010977
 Sum of Mulliken charges =  -0.00000   1.00000

 Dipole moment (field-independent basis, Debye):
    X=             -0.3476    Y=              0.0046    Z=             -0.1848  Tot=              0.3937
 Quadrupole moment (field-independent basis, Debye-Ang):
   XX=            -51.9485   YY=            -76.7434   ZZ=            -68.5673
   XY=              0.9565   XZ=             -0.9584   YZ=             -3.5441

 Normal termination of Gaussian 16 at Tue Nov 28 20:52:40 2023.
