 Gaussian 16, Revision B.01,
 Gaussian 16:  ES64L-G16RevB.01 20-Dec-2017

 -------------------------
 #P B3LYP/6-311+g(d) force
 -------------------------

 -----
 DPGEN
 -----
 Symbolic Z-matrix:
 Charge =  0 Multiplicity = 2

                         Standard orientation:
 ---------------------------------------------------------------------
 Center     Atomic      Atomic             Coordinates (Angstroms)
 Number     Number       Type             X           Y           Z
 ---------------------------------------------------------------------
      1         11           0       -2.780845    1.859886   -0.152650
      2         11           0        3.020745    0.471421   -0.207287
      3         11           0       -0.171689   -0.312071   -1.460264
      4         11           0        1.001211    2.636983   -0.044945
      5         11           0        1.845215   -2.304962   -0.015711
      6         11           0       -0.374717   -0.306942    2.217885
      7         11           0       -2.539919   -2.044314   -0.337028
 ---------------------------------------------------------------------

 SCF Done:  E(UB3LYP) =  -1136.12810331     A.U. after   19 cycles

 The electronic state is 2-A.
 Alpha  occ. eigenvalues --  -38.44588 -38.44332 -38.43926 -38.43750 -38.43736
 Alpha  occ. eigenvalues --  -38.43255 -38.43171  -2.20356  -2.20145  -2.19851
 Alpha  occ. eigenvalues --   -2.19619  -2.19598  -2.19168  -2.19121  -1.14037
 Alpha  occ. eigenvalues --   -1.14008  -1.13995  -1.13851  -1.13795  -1.13767
 Alpha  occ. eigenvalues --   -1.13604  -1.13544  -1.13482  -1.13305  -1.13267
 Alpha  occ. eigenvalues --   -1.13249  -1.13237  -1.13220  -1.13211  -1.12857
 Alpha  occ. eigenvalues --   -1.12831  -1.12796  -1.12790  -1.12767  -1.12745
 Alpha  occ. eigenvalues --   -0.18553  -0.13390  -0.12138  -0.10698
 Alpha virt. eigenvalues --   -0.06073  -0.05638  -0.04201  -0.03338  -0.02667
 Alpha virt. eigenvalues --   -0.02610  -0.01760  -0.01442  -0.00486  -0.00229
 Alpha virt. eigenvalues --   -0.00036   0.00309   0.00707   0.00761   0.00910

  Beta  occ. eigenvalues --  -38.44587 -38.44323 -38.43922 -38.43731 -38.43641
  Beta  occ. eigenvalues --  -38.43252 -38.43123  -2.20356  -2.20132  -2.19846
  Beta  occ. eigenvalues --   -2.19613  -2.19397  -2.19119  -2.19081  -1.14023
  Beta  occ. eigenvalues --   -1.14009  -1.13997  -1.13834  -1.13774  -1.13760
  Beta  occ. eigenvalues --   -1.13606  -1.13542  -1.13457  -1.13298  -1.13244
  Beta  occ. eigenvalues --   -1.13224  -1.13120  -1.13081  -1.13070  -1.12816
  Beta  occ. eigenvalues --   -1.12785  -1.12772  -1.12740  -1.12734  -1.12724
  Beta  occ. eigenvalues --   -0.17860  -0.13158  -0.11938
  Beta virt. eigenvalues --   -0.06728  -0.06078  -0.05560  -0.04181  -0.02565
  Beta virt. eigenvalues --   -0.01931  -0.01674  -0.01506  -0.01386  -0.00536
  Beta virt. eigenvalues --   -0.00255   0.00141   0.00359   0.00769   0.00794

 Mulliken charges and spin densities:
               1          2
     1  Na   0.057500  -0.010233
     2  Na   0.016292   0.044080
     3  Na  -0.509643   0.079237
     4  Na   0.188268   0.054609
     5  Na   0.663985   0.118938
     6  Na  -0.678107   0.713666
     7  Na   0.261705  -0.000298
 Sum of Mulliken charges =  -0.00000   1.00000

 Dipole moment (field-independent basis, Debye):
    X=             -0.7324    Y=             -0.1925    Z=              0.1542  Tot=              0.7728
 Quadrupole moment (field-independent basis, Debye-Ang):
   XX=            -54.2816   YY=            -64.2398   ZZ=            -75.2962
   XY=             -0.8274   XZ=              0.2356   YZ=             -0.0308

 Normal termination of Gaussian 16 at Thu Dec  7 13:56:53 2023.
