 Gaussian 16, Revision B.01,
 Gaussian 16:  ES64L-G16RevB.01 20-Dec-2017

 -------------------------
 #P B3LYP/6-311+g(d) force
 -------------------------

 -----
 DPGEN
 -----
 Symbolic Z-matrix:
 Charge =  0 Multiplicity = 2

                         Standard orientation:
 ---------------------------------------------------------------------
 Center     Atomic      Atomic             Coordinates (Angstroms)
 Number     Number       Type             X           Y           Z
 ---------------------------------------------------------------------
      1         11           0       -5.829890    0.581558    0.273204
      2         11           0        3.792386   -2.727160   -0.908692
      3         11           0       -8.078000    0.196226   -1.466401
      4         11           0        0.745541   -1.287151    0.700569
      5         11           0       -2.362358    0.253603    1.908189
      6         11           0        6.066744   -0.058045    0.125878
      7         11           0        5.665578    3.040969   -0.632747
 ---------------------------------------------------------------------

 SCF Done:  E(UB3LYP) =  -1136.10231740     A.U. after   20 cycles

 The electronic state is 2-A.
 Alpha  occ. eigenvalues --  -38.45253 -38.45020 -38.44637 -38.44579 -38.44467
 Alpha  occ. eigenvalues --  -38.44359 -38.43781  -2.21039  -2.20815  -2.20358
 Alpha  occ. eigenvalues --   -2.20352  -2.20246  -2.20193  -2.19603  -1.14690
 Alpha  occ. eigenvalues --   -1.14669  -1.14661  -1.14458  -1.14454  -1.14453
 Alpha  occ. eigenvalues --   -1.14058  -1.14056  -1.14011  -1.14005  -1.13996
 Alpha  occ. eigenvalues --   -1.13954  -1.13943  -1.13927  -1.13919  -1.13896
 Alpha  occ. eigenvalues --   -1.13817  -1.13817  -1.13261  -1.13254  -1.13246
 Alpha  occ. eigenvalues --   -0.15130  -0.14211  -0.12764  -0.11772
 Alpha virt. eigenvalues --   -0.07037  -0.05502  -0.04085  -0.03365  -0.03201
 Alpha virt. eigenvalues --   -0.02735  -0.02446  -0.02070  -0.01622  -0.01290
 Alpha virt. eigenvalues --   -0.01046  -0.00710  -0.00352   0.00324   0.00397

  Beta  occ. eigenvalues --  -38.45169 -38.44948 -38.44668 -38.44507 -38.44480
  Beta  occ. eigenvalues --  -38.44321 -38.43785  -2.20883  -2.20681  -2.20418
  Beta  occ. eigenvalues --   -2.20276  -2.20220  -2.20123  -2.19616  -1.14582
  Beta  occ. eigenvalues --   -1.14567  -1.14559  -1.14370  -1.14363  -1.14361
  Beta  occ. eigenvalues --   -1.14105  -1.14102  -1.14000  -1.13952  -1.13941
  Beta  occ. eigenvalues --   -1.13919  -1.13912  -1.13900  -1.13879  -1.13877
  Beta  occ. eigenvalues --   -1.13770  -1.13769  -1.13267  -1.13267  -1.13227
  Beta  occ. eigenvalues --   -0.14497  -0.13626  -0.12073
  Beta virt. eigenvalues --   -0.08756  -0.06698  -0.05060  -0.03681  -0.03167
  Beta virt. eigenvalues --   -0.03015  -0.02560  -0.02288  -0.01708  -0.01369
  Beta virt. eigenvalues --   -0.00942  -0.00746  -0.00334  -0.00212   0.00324

 Mulliken charges and spin densities:
               1          2
     1  Na  -0.419724   0.061284
     2  Na   0.509261   0.287699
     3  Na   0.946775   0.123683
     4  Na  -0.521332  -0.070967
     5  Na  -0.421591   0.321285
     6  Na  -0.328227  -0.062076
     7  Na   0.234838   0.339092
 Sum of Mulliken charges =  -0.00000   1.00000

 Dipole moment (field-independent basis, Debye):
    X=              1.2251    Y=              0.1845    Z=             -0.7175  Tot=              1.4317
 Quadrupole moment (field-independent basis, Debye-Ang):
   XX=            -60.5019   YY=            -63.5874   ZZ=            -69.2629
   XY=             -1.1537   XZ=              3.2471   YZ=              1.8226

 Normal termination of Gaussian 16 at Sun Dec  3 12:11:39 2023.
