 Gaussian 16, Revision B.01,
 Gaussian 16:  ES64L-G16RevB.01 20-Dec-2017

 -------------------------
 #P B3LYP/6-311+g(d) force
 -------------------------

 -----
 DPGEN
 -----
 Symbolic Z-matrix:
 Charge =  0 Multiplicity = 2

                         Standard orientation:
 ---------------------------------------------------------------------
 Center     Atomic      Atomic             Coordinates (Angstroms)
 Number     Number       Type             X           Y           Z
 ---------------------------------------------------------------------
      1         11           0       -1.162877   -0.337373   -1.609549
      2         11           0        2.303714   -1.556786   -1.918717
      3         11           0       -0.123517   -0.686906    2.155890
      4         11           0        1.548115    2.086895   -0.120884
      5         11           0       -3.576585   -1.663954    0.561972
      6         11           0       -2.446298    2.292513   -0.303529
      7         11           0        3.457450   -0.134387    1.234817
 ---------------------------------------------------------------------

 SCF Done:  E(UB3LYP) =  -1136.11819989     A.U. after   28 cycles

 The electronic state is 2-A.
 Alpha  occ. eigenvalues --  -38.45178 -38.44760 -38.44495 -38.43999 -38.43887
 Alpha  occ. eigenvalues --  -38.43764 -38.43721  -2.20983  -2.20525  -2.20321
 Alpha  occ. eigenvalues --   -2.19869  -2.19651  -2.19586  -2.19517  -1.14635
 Alpha  occ. eigenvalues --   -1.14620  -1.14588  -1.14209  -1.14205  -1.14120
 Alpha  occ. eigenvalues --   -1.14009  -1.13969  -1.13960  -1.13562  -1.13551
 Alpha  occ. eigenvalues --   -1.13487  -1.13336  -1.13311  -1.13287  -1.13274
 Alpha  occ. eigenvalues --   -1.13252  -1.13202  -1.13197  -1.13173  -1.13136
 Alpha  occ. eigenvalues --   -0.17645  -0.13745  -0.11972  -0.10677
 Alpha virt. eigenvalues --   -0.06538  -0.05697  -0.05054  -0.03501  -0.02577
 Alpha virt. eigenvalues --   -0.02565  -0.02249  -0.01372  -0.01112  -0.00180
 Alpha virt. eigenvalues --   -0.00024   0.00070   0.00185   0.00381   0.00498

  Beta  occ. eigenvalues --  -38.45074 -38.44720 -38.44485 -38.43968 -38.43900
  Beta  occ. eigenvalues --  -38.43742 -38.43721  -2.20792  -2.20453  -2.20304
  Beta  occ. eigenvalues --   -2.19812  -2.19676  -2.19545  -2.19517  -1.14499
  Beta  occ. eigenvalues --   -1.14487  -1.14462  -1.14163  -1.14153  -1.14064
  Beta  occ. eigenvalues --   -1.13992  -1.13951  -1.13942  -1.13526  -1.13493
  Beta  occ. eigenvalues --   -1.13455  -1.13349  -1.13328  -1.13302  -1.13242
  Beta  occ. eigenvalues --   -1.13217  -1.13195  -1.13178  -1.13171  -1.13136
  Beta  occ. eigenvalues --   -0.16923  -0.13638  -0.10577
  Beta virt. eigenvalues --   -0.07878  -0.06283  -0.05476  -0.04531  -0.02903
  Beta virt. eigenvalues --   -0.02317  -0.02066  -0.02003  -0.01170  -0.00700
  Beta virt. eigenvalues --   -0.00081   0.00144   0.00195   0.00237   0.00467

 Mulliken charges and spin densities:
               1          2
     1  Na  -0.377760   0.067784
     2  Na   0.039712   0.423424
     3  Na  -0.427557   0.232668
     4  Na  -0.318249   0.275422
     5  Na   0.351823  -0.072831
     6  Na   0.191364   0.050609
     7  Na   0.540668   0.022924
 Sum of Mulliken charges =  -0.00000   1.00000

 Dipole moment (field-independent basis, Debye):
    X=              0.6599    Y=             -0.1056    Z=              0.1585  Tot=              0.6868
 Quadrupole moment (field-independent basis, Debye-Ang):
   XX=            -51.6627   YY=            -74.9045   ZZ=            -70.7799
   XY=             -2.1106   XZ=              0.2135   YZ=              6.1552

 Normal termination of Gaussian 16 at Tue Nov 28 21:25:08 2023.
