 Gaussian 16, Revision B.01,
 Gaussian 16:  ES64L-G16RevB.01 20-Dec-2017

 -------------------------
 #P B3LYP/6-311+g(d) force
 -------------------------

 -----
 DPGEN
 -----
 Symbolic Z-matrix:
 Charge =  0 Multiplicity = 2

                         Standard orientation:
 ---------------------------------------------------------------------
 Center     Atomic      Atomic             Coordinates (Angstroms)
 Number     Number       Type             X           Y           Z
 ---------------------------------------------------------------------
      1         11           0        1.723642    0.077378    1.350493
      2         11           0       -0.131000   -2.773161   -0.513858
      3         11           0       -1.512738   -0.115459    1.079685
      4         11           0        1.318846    2.590658   -0.896874
      5         11           0       -1.846993    3.184986   -0.133526
      6         11           0       -3.633684   -1.800911   -0.491300
      7         11           0        4.081927   -1.163492   -0.394621
 ---------------------------------------------------------------------

 SCF Done:  E(UB3LYP) =  -1136.11803550     A.U. after   21 cycles

 The electronic state is 2-A.
 Alpha  occ. eigenvalues --  -38.45399 -38.44687 -38.44240 -38.44199 -38.44097
 Alpha  occ. eigenvalues --  -38.43148 -38.43047  -2.21165  -2.20483  -2.20031
 Alpha  occ. eigenvalues --   -2.19995  -2.19925  -2.19077  -2.19007  -1.14865
 Alpha  occ. eigenvalues --   -1.14850  -1.14766  -1.14166  -1.14153  -1.14104
 Alpha  occ. eigenvalues --   -1.13697  -1.13691  -1.13672  -1.13669  -1.13633
 Alpha  occ. eigenvalues --   -1.13631  -1.13613  -1.13570  -1.13539  -1.12800
 Alpha  occ. eigenvalues --   -1.12740  -1.12710  -1.12677  -1.12656  -1.12618
 Alpha  occ. eigenvalues --   -0.17428  -0.13479  -0.12781  -0.09835
 Alpha virt. eigenvalues --   -0.06690  -0.06268  -0.04238  -0.03504  -0.02864
 Alpha virt. eigenvalues --   -0.02212  -0.02009  -0.01338  -0.01162  -0.00815
 Alpha virt. eigenvalues --   -0.00072   0.00292   0.00340   0.00524   0.00621

  Beta  occ. eigenvalues --  -38.45403 -38.44672 -38.44238 -38.44161 -38.44059
  Beta  occ. eigenvalues --  -38.43098 -38.42998  -2.21175  -2.20454  -2.20027
  Beta  occ. eigenvalues --   -2.19924  -2.19852  -2.18994  -2.18924  -1.14875
  Beta  occ. eigenvalues --   -1.14839  -1.14772  -1.14145  -1.14129  -1.14083
  Beta  occ. eigenvalues --   -1.13691  -1.13685  -1.13666  -1.13624  -1.13584
  Beta  occ. eigenvalues --   -1.13581  -1.13565  -1.13519  -1.13491  -1.12720
  Beta  occ. eigenvalues --   -1.12673  -1.12650  -1.12619  -1.12576  -1.12543
  Beta  occ. eigenvalues --   -0.16790  -0.13152  -0.12575
  Beta virt. eigenvalues --   -0.06458  -0.06283  -0.06106  -0.04038  -0.03088
  Beta virt. eigenvalues --   -0.02462  -0.02061  -0.01745  -0.01042  -0.00749
  Beta virt. eigenvalues --   -0.00673   0.00125   0.00378   0.00415   0.00671

 Mulliken charges and spin densities:
               1          2
     1  Na   0.178835   0.116904
     2  Na  -0.122761  -0.043767
     3  Na  -0.521379   0.186730
     4  Na  -0.162146   0.143469
     5  Na   0.221439  -0.002031
     6  Na   0.343717   0.289768
     7  Na   0.062297   0.308926
 Sum of Mulliken charges =  -0.00000   1.00000

 Dipole moment (field-independent basis, Debye):
    X=             -0.3363    Y=             -0.3705    Z=             -0.3840  Tot=              0.6307
 Quadrupole moment (field-independent basis, Debye-Ang):
   XX=            -60.8598   YY=            -64.3994   ZZ=            -73.0472
   XY=             -3.4898   XZ=             -1.3463   YZ=              2.3372

 Normal termination of Gaussian 16 at Tue Nov 28 21:35:18 2023.
