 Gaussian 16, Revision B.01,
 Gaussian 16:  ES64L-G16RevB.01 20-Dec-2017

 -------------------------
 #P B3LYP/6-311+g(d) force
 -------------------------

 -----
 DPGEN
 -----
 Symbolic Z-matrix:
 Charge =  0 Multiplicity = 2

                         Standard orientation:
 ---------------------------------------------------------------------
 Center     Atomic      Atomic             Coordinates (Angstroms)
 Number     Number       Type             X           Y           Z
 ---------------------------------------------------------------------
      1         11           0        2.375473    1.520119   -0.140463
      2         11           0       -3.100829    0.062042   -0.233776
      3         11           0       -0.094608   -0.044146   -1.588625
      4         11           0       -1.000846   -2.473086   -0.146932
      5         11           0       -0.470618    2.835509    0.011692
      6         11           0       -0.302914   -0.126621    2.114512
      7         11           0        2.594342   -1.773817   -0.016408
 ---------------------------------------------------------------------

 SCF Done:  E(UB3LYP) =  -1136.13612566     A.U. after   19 cycles

 The electronic state is 2-A.
 Alpha  occ. eigenvalues --  -38.43978 -38.43704 -38.43579 -38.43470 -38.43410
 Alpha  occ. eigenvalues --  -38.43174 -38.43173  -2.19840  -2.19603  -2.19413
 Alpha  occ. eigenvalues --   -2.19375  -2.19346  -2.19225  -2.19056  -1.13529
 Alpha  occ. eigenvalues --   -1.13499  -1.13479  -1.13277  -1.13237  -1.13215
 Alpha  occ. eigenvalues --   -1.13162  -1.13122  -1.13093  -1.13076  -1.13055
 Alpha  occ. eigenvalues --   -1.13032  -1.12999  -1.12995  -1.12935  -1.12886
 Alpha  occ. eigenvalues --   -1.12834  -1.12823  -1.12717  -1.12709  -1.12683
 Alpha  occ. eigenvalues --   -0.19103  -0.13185  -0.12528  -0.10975
 Alpha virt. eigenvalues --   -0.05518  -0.04917  -0.04640  -0.03231  -0.02880
 Alpha virt. eigenvalues --   -0.02721  -0.01505  -0.00979  -0.00125  -0.00103
 Alpha virt. eigenvalues --   -0.00015   0.00355   0.00835   0.00922   0.00945

  Beta  occ. eigenvalues --  -38.43971 -38.43602 -38.43579 -38.43466 -38.43398
  Beta  occ. eigenvalues --  -38.43170 -38.43109  -2.19831  -2.19419  -2.19413
  Beta  occ. eigenvalues --   -2.19370  -2.19330  -2.19109  -2.19052  -1.13519
  Beta  occ. eigenvalues --   -1.13482  -1.13465  -1.13168  -1.13126  -1.13121
  Beta  occ. eigenvalues --   -1.13103  -1.13087  -1.13081  -1.13062  -1.13053
  Beta  occ. eigenvalues --   -1.13009  -1.12993  -1.12955  -1.12928  -1.12814
  Beta  occ. eigenvalues --   -1.12771  -1.12740  -1.12706  -1.12682  -1.12677
  Beta  occ. eigenvalues --   -0.18354  -0.12929  -0.12295
  Beta virt. eigenvalues --   -0.06985  -0.05490  -0.04920  -0.04619  -0.02407
  Beta virt. eigenvalues --   -0.02097  -0.01603  -0.01424  -0.00919  -0.00187
  Beta virt. eigenvalues --   -0.00142   0.00127   0.00376   0.00879   0.00927

 Mulliken charges and spin densities:
               1          2
     1  Na   0.162481  -0.012483
     2  Na   0.335220  -0.026965
     3  Na  -0.498682   0.334179
     4  Na   0.411442   0.009496
     5  Na   0.187028  -0.025192
     6  Na  -0.707653   0.757258
     7  Na   0.110163  -0.036293
 Sum of Mulliken charges =  -0.00000   1.00000

 Dipole moment (field-independent basis, Debye):
    X=             -0.2309    Y=             -0.0624    Z=              0.2469  Tot=              0.3438
 Quadrupole moment (field-independent basis, Debye-Ang):
   XX=            -56.9402   YY=            -63.6834   ZZ=            -73.3820
   XY=             -1.1891   XZ=              0.5081   YZ=              0.0967

 Normal termination of Gaussian 16 at Fri Dec  8 07:03:30 2023.
