 Gaussian 16, Revision B.01,
 Gaussian 16:  ES64L-G16RevB.01 20-Dec-2017

 -------------------------
 #P B3LYP/6-311+g(d) force
 -------------------------

 -----
 DPGEN
 -----
 Symbolic Z-matrix:
 Charge =  0 Multiplicity = 2

                         Standard orientation:
 ---------------------------------------------------------------------
 Center     Atomic      Atomic             Coordinates (Angstroms)
 Number     Number       Type             X           Y           Z
 ---------------------------------------------------------------------
      1         11           0       -0.821282    3.108917   -0.221987
      2         11           0        4.610047    0.779890    0.240854
      3         11           0       -0.579028    0.268649    2.009059
      4         11           0        2.036640   -2.124552   -0.248623
      5         11           0       -3.651990    0.345064   -0.181839
      6         11           0       -1.751698   -2.658301    0.018743
      7         11           0        0.157311    0.280333   -1.616208
 ---------------------------------------------------------------------

 SCF Done:  E(UB3LYP) =  -1136.11577036     A.U. after   28 cycles

 The electronic state is 2-A.
 Alpha  occ. eigenvalues --  -38.45762 -38.45303 -38.44877 -38.43677 -38.43422
 Alpha  occ. eigenvalues --  -38.43321 -38.43192  -2.21558  -2.21068  -2.20630
 Alpha  occ. eigenvalues --   -2.19476  -2.19317  -2.19126  -2.19012  -1.15238
 Alpha  occ. eigenvalues --   -1.15194  -1.15187  -1.14761  -1.14725  -1.14698
 Alpha  occ. eigenvalues --   -1.14281  -1.14275  -1.14233  -1.13184  -1.13159
 Alpha  occ. eigenvalues --   -1.13091  -1.12995  -1.12953  -1.12940  -1.12814
 Alpha  occ. eigenvalues --   -1.12800  -1.12757  -1.12680  -1.12675  -1.12646
 Alpha  occ. eigenvalues --   -0.17571  -0.13058  -0.11869  -0.10297
 Alpha virt. eigenvalues --   -0.07598  -0.05080  -0.04759  -0.03092  -0.02850
 Alpha virt. eigenvalues --   -0.02543  -0.02312  -0.01652  -0.00884  -0.00531
 Alpha virt. eigenvalues --   -0.00463  -0.00088   0.00282   0.00577   0.00631

  Beta  occ. eigenvalues --  -38.45725 -38.45314 -38.44787 -38.43675 -38.43350
  Beta  occ. eigenvalues --  -38.43326 -38.43187  -2.21490  -2.21090  -2.20461
  Beta  occ. eigenvalues --   -2.19476  -2.19185  -2.19139  -2.19006  -1.15185
  Beta  occ. eigenvalues --   -1.15149  -1.15139  -1.14770  -1.14734  -1.14719
  Beta  occ. eigenvalues --   -1.14165  -1.14159  -1.14122  -1.13174  -1.13160
  Beta  occ. eigenvalues --   -1.13072  -1.12911  -1.12874  -1.12840  -1.12824
  Beta  occ. eigenvalues --   -1.12806  -1.12751  -1.12676  -1.12654  -1.12642
  Beta  occ. eigenvalues --   -0.17136  -0.12533  -0.11649
  Beta virt. eigenvalues --   -0.07228  -0.06808  -0.04924  -0.04687  -0.02707
  Beta virt. eigenvalues --   -0.02529  -0.02108  -0.01732  -0.01394  -0.00854
  Beta virt. eigenvalues --   -0.00434  -0.00213   0.00075   0.00518   0.00644

 Mulliken charges and spin densities:
               1          2
     1  Na  -0.148993  -0.087956
     2  Na  -0.121189   0.499310
     3  Na  -0.082029   0.461563
     4  Na  -0.040297   0.047806
     5  Na   0.066105  -0.097904
     6  Na  -0.144626  -0.121888
     7  Na   0.471030   0.299069
 Sum of Mulliken charges =  -0.00000   1.00000

 Dipole moment (field-independent basis, Debye):
    X=             -1.0559    Y=              0.3236    Z=              0.1770  Tot=              1.1185
 Quadrupole moment (field-independent basis, Debye-Ang):
   XX=            -61.7566   YY=            -67.0797   ZZ=            -70.8253
   XY=             -1.1988   XZ=              3.0668   YZ=              0.3666

 Normal termination of Gaussian 16 at Fri Dec  8 07:08:33 2023.
