 Gaussian 16, Revision B.01,
 Gaussian 16:  ES64L-G16RevB.01 20-Dec-2017

 -------------------------
 #P B3LYP/6-311+g(d) force
 -------------------------

 -----
 DPGEN
 -----
 Symbolic Z-matrix:
 Charge =  0 Multiplicity = 2

                         Standard orientation:
 ---------------------------------------------------------------------
 Center     Atomic      Atomic             Coordinates (Angstroms)
 Number     Number       Type             X           Y           Z
 ---------------------------------------------------------------------
      1         11           0        4.583767    0.483646   -0.498194
      2         11           0       -2.569968    2.255725    0.261811
      3         11           0        1.177575    1.494516    0.434492
      4         11           0        2.314707   -1.674082    0.568858
      5         11           0       -1.480156   -0.979725    1.812590
      6         11           0       -3.556179   -1.134948   -0.842152
      7         11           0       -0.469747   -0.445132   -1.737405
 ---------------------------------------------------------------------

 SCF Done:  E(UB3LYP) =  -1136.11198897     A.U. after   28 cycles

 The electronic state is 2-A.
 Alpha  occ. eigenvalues --  -38.46094 -38.45211 -38.44698 -38.44077 -38.43693
 Alpha  occ. eigenvalues --  -38.43107 -38.43096  -2.21924  -2.21020  -2.20538
 Alpha  occ. eigenvalues --   -2.19926  -2.19555  -2.18979  -2.18892  -1.15621
 Alpha  occ. eigenvalues --   -1.15574  -1.15554  -1.14679  -1.14669  -1.14636
 Alpha  occ. eigenvalues --   -1.14204  -1.14195  -1.14161  -1.13611  -1.13601
 Alpha  occ. eigenvalues --   -1.13550  -1.13228  -1.13201  -1.13175  -1.12722
 Alpha  occ. eigenvalues --   -1.12661  -1.12580  -1.12554  -1.12552  -1.12522
 Alpha  occ. eigenvalues --   -0.18169  -0.14624  -0.10895  -0.10416
 Alpha virt. eigenvalues --   -0.07898  -0.05494  -0.04557  -0.03467  -0.02928
 Alpha virt. eigenvalues --   -0.02093  -0.02014  -0.01608  -0.01406  -0.00464
 Alpha virt. eigenvalues --   -0.00403   0.00173   0.00217   0.00511   0.00673

  Beta  occ. eigenvalues --  -38.46083 -38.45156 -38.44648 -38.44057 -38.43653
  Beta  occ. eigenvalues --  -38.43099 -38.43093  -2.21907  -2.20916  -2.20450
  Beta  occ. eigenvalues --   -2.19893  -2.19481  -2.18956  -2.18900  -1.15587
  Beta  occ. eigenvalues --   -1.15567  -1.15541  -1.14607  -1.14597  -1.14569
  Beta  occ. eigenvalues --   -1.14140  -1.14121  -1.14100  -1.13591  -1.13582
  Beta  occ. eigenvalues --   -1.13494  -1.13170  -1.13158  -1.13122  -1.12712
  Beta  occ. eigenvalues --   -1.12621  -1.12587  -1.12555  -1.12541  -1.12516
  Beta  occ. eigenvalues --   -0.17561  -0.14166  -0.10258
  Beta virt. eigenvalues --   -0.07644  -0.07227  -0.05354  -0.04008  -0.03165
  Beta virt. eigenvalues --   -0.02716  -0.01688  -0.01627  -0.01420  -0.00807
  Beta virt. eigenvalues --   -0.00345  -0.00240   0.00211   0.00334   0.00571

 Mulliken charges and spin densities:
               1          2
     1  Na   0.505777   0.307348
     2  Na  -0.281288   0.001417
     3  Na  -0.714963  -0.018360
     4  Na   0.156093   0.170164
     5  Na  -0.007633   0.214547
     6  Na   0.410073   0.293746
     7  Na  -0.068060   0.031137
 Sum of Mulliken charges =  -0.00000   1.00000

 Dipole moment (field-independent basis, Debye):
    X=              0.9180    Y=             -0.3604    Z=              0.0439  Tot=              0.9872
 Quadrupole moment (field-independent basis, Debye-Ang):
   XX=            -50.8692   YY=            -81.2066   ZZ=            -65.9279
   XY=             -0.3372   XZ=             -4.2352   YZ=             -2.9989

 Normal termination of Gaussian 16 at Thu Dec  7 21:52:05 2023.
