 Gaussian 16, Revision B.01,
 Gaussian 16:  ES64L-G16RevB.01 20-Dec-2017

 -------------------------
 #P B3LYP/6-311+g(d) force
 -------------------------

 -----
 DPGEN
 -----
 Symbolic Z-matrix:
 Charge =  0 Multiplicity = 2

                         Standard orientation:
 ---------------------------------------------------------------------
 Center     Atomic      Atomic             Coordinates (Angstroms)
 Number     Number       Type             X           Y           Z
 ---------------------------------------------------------------------
      1         11           0       -2.884640   -1.123971    0.261699
      2         11           0        3.317424   -0.329495   -0.140239
      3         11           0        1.342828    2.672168    0.235689
      4         11           0       -0.017965   -0.457425    1.972780
      5         11           0       -0.222209    0.112233   -1.323983
      6         11           0        0.563366   -2.837551   -0.550827
      7         11           0       -2.098804    1.964041   -0.455119
 ---------------------------------------------------------------------

 SCF Done:  E(UB3LYP) =  -1136.13113336     A.U. after   20 cycles

 The electronic state is 2-A.
 Alpha  occ. eigenvalues --  -38.44502 -38.43978 -38.43596 -38.43444 -38.43407
 Alpha  occ. eigenvalues --  -38.43397 -38.42975  -2.20286  -2.19851  -2.19530
 Alpha  occ. eigenvalues --   -2.19318  -2.19299  -2.19230  -2.19081  -1.13966
 Alpha  occ. eigenvalues --   -1.13937  -1.13927  -1.13545  -1.13516  -1.13489
 Alpha  occ. eigenvalues --   -1.13402  -1.13148  -1.13123  -1.13037  -1.13005
 Alpha  occ. eigenvalues --   -1.12967  -1.12930  -1.12921  -1.12913  -1.12908
 Alpha  occ. eigenvalues --   -1.12894  -1.12861  -1.12737  -1.12687  -1.12659
 Alpha  occ. eigenvalues --   -0.18845  -0.13147  -0.12483  -0.10537
 Alpha virt. eigenvalues --   -0.05942  -0.04982  -0.04666  -0.03090  -0.02813
 Alpha virt. eigenvalues --   -0.02222  -0.01753  -0.01106  -0.00404  -0.00307
 Alpha virt. eigenvalues --    0.00029   0.00334   0.00786   0.00862   0.00904

  Beta  occ. eigenvalues --  -38.44502 -38.43968 -38.43582 -38.43427 -38.43393
  Beta  occ. eigenvalues --  -38.43316 -38.42922  -2.20288  -2.19838  -2.19507
  Beta  occ. eigenvalues --   -2.19271  -2.19226  -2.19150  -2.18987  -1.13958
  Beta  occ. eigenvalues --   -1.13938  -1.13927  -1.13540  -1.13486  -1.13473
  Beta  occ. eigenvalues --   -1.13372  -1.13115  -1.13110  -1.13004  -1.12930
  Beta  occ. eigenvalues --   -1.12914  -1.12894  -1.12888  -1.12881  -1.12857
  Beta  occ. eigenvalues --   -1.12815  -1.12801  -1.12659  -1.12622  -1.12596
  Beta  occ. eigenvalues --   -0.18147  -0.12905  -0.12215
  Beta virt. eigenvalues --   -0.06638  -0.05917  -0.04932  -0.04606  -0.02351
  Beta virt. eigenvalues --   -0.02073  -0.01676  -0.01199  -0.01026  -0.00432
  Beta virt. eigenvalues --   -0.00312   0.00166   0.00375   0.00815   0.00879

 Mulliken charges and spin densities:
               1          2
     1  Na   0.368672   0.073796
     2  Na  -0.031568  -0.052839
     3  Na   0.017040   0.021989
     4  Na  -0.425942   0.713231
     5  Na  -0.457917   0.156704
     6  Na   0.062905  -0.007532
     7  Na   0.466810   0.094651
 Sum of Mulliken charges =  -0.00000   1.00000

 Dipole moment (field-independent basis, Debye):
    X=              0.2915    Y=             -0.2215    Z=              0.2992  Tot=              0.4728
 Quadrupole moment (field-independent basis, Debye-Ang):
   XX=            -53.5489   YY=            -62.6050   ZZ=            -75.6411
   XY=              0.6200   XZ=             -0.3600   YZ=              1.0887

 Normal termination of Gaussian 16 at Thu Dec  7 06:12:47 2023.
