 Gaussian 16, Revision B.01,
 Gaussian 16:  ES64L-G16RevB.01 20-Dec-2017

 -------------------------
 #P B3LYP/6-311+g(d) force
 -------------------------

 -----
 DPGEN
 -----
 Symbolic Z-matrix:
 Charge =  0 Multiplicity = 2

                         Standard orientation:
 ---------------------------------------------------------------------
 Center     Atomic      Atomic             Coordinates (Angstroms)
 Number     Number       Type             X           Y           Z
 ---------------------------------------------------------------------
      1         11           0       -1.907556   -2.135572   -1.220571
      2         11           0       -0.840831    2.719453   -0.848298
      3         11           0       -0.285901    0.414584    2.011695
      4         11           0        1.455181   -1.875488   -0.718017
      5         11           0       -3.478498   -0.051399    1.103633
      6         11           0        3.552649   -0.251721    1.421936
      7         11           0        1.504957    1.180144   -1.750380
 ---------------------------------------------------------------------

 SCF Done:  E(UB3LYP) =  -1136.12150032     A.U. after   22 cycles

 The electronic state is 2-A.
 Alpha  occ. eigenvalues --  -38.45023 -38.44893 -38.44455 -38.43996 -38.43699
 Alpha  occ. eigenvalues --  -38.43528 -38.42842  -2.20841  -2.20688  -2.20253
 Alpha  occ. eigenvalues --   -2.19796  -2.19593  -2.19400  -2.18682  -1.14510
 Alpha  occ. eigenvalues --   -1.14484  -1.14473  -1.14343  -1.14340  -1.14311
 Alpha  occ. eigenvalues --   -1.13935  -1.13902  -1.13888  -1.13467  -1.13458
 Alpha  occ. eigenvalues --   -1.13420  -1.13300  -1.13280  -1.13213  -1.13080
 Alpha  occ. eigenvalues --   -1.13065  -1.13013  -1.12378  -1.12331  -1.12303
 Alpha  occ. eigenvalues --   -0.17733  -0.13376  -0.11899  -0.11658
 Alpha virt. eigenvalues --   -0.06235  -0.05470  -0.04351  -0.03532  -0.03090
 Alpha virt. eigenvalues --   -0.02813  -0.02122  -0.01128  -0.00533  -0.00141
 Alpha virt. eigenvalues --    0.00003   0.00255   0.00464   0.00560   0.00810

  Beta  occ. eigenvalues --  -38.44964 -38.44848 -38.44447 -38.43960 -38.43659
  Beta  occ. eigenvalues --  -38.43507 -38.42842  -2.20731  -2.20604  -2.20240
  Beta  occ. eigenvalues --   -2.19733  -2.19521  -2.19366  -2.18685  -1.14437
  Beta  occ. eigenvalues --   -1.14413  -1.14385  -1.14285  -1.14275  -1.14260
  Beta  occ. eigenvalues --   -1.13915  -1.13896  -1.13880  -1.13420  -1.13414
  Beta  occ. eigenvalues --   -1.13375  -1.13256  -1.13229  -1.13157  -1.13052
  Beta  occ. eigenvalues --   -1.13040  -1.12968  -1.12371  -1.12333  -1.12301
  Beta  occ. eigenvalues --   -0.17039  -0.13158  -0.11330
  Beta virt. eigenvalues --   -0.08184  -0.05938  -0.04815  -0.04313  -0.03178
  Beta virt. eigenvalues --   -0.02588  -0.02246  -0.01792  -0.00775  -0.00494
  Beta virt. eigenvalues --   -0.00021   0.00147   0.00281   0.00591   0.00609

 Mulliken charges and spin densities:
               1          2
     1  Na  -0.281013   0.042729
     2  Na   0.058947  -0.024890
     3  Na  -0.678431   0.368407
     4  Na   0.119284   0.297697
     5  Na   0.567779   0.006674
     6  Na   0.308620   0.159895
     7  Na  -0.095186   0.149489
 Sum of Mulliken charges =  -0.00000   1.00000

 Dipole moment (field-independent basis, Debye):
    X=              0.1111    Y=             -0.0220    Z=              0.7708  Tot=              0.7791
 Quadrupole moment (field-independent basis, Debye-Ang):
   XX=            -53.2606   YY=            -76.8568   ZZ=            -66.9501
   XY=             -0.8156   XZ=              1.8762   YZ=              2.8748

 Normal termination of Gaussian 16 at Sun Dec  3 23:08:13 2023.
