 Gaussian 16, Revision B.01,
 Gaussian 16:  ES64L-G16RevB.01 20-Dec-2017

 -------------------------
 #P B3LYP/6-311+g(d) force
 -------------------------

 -----
 DPGEN
 -----
 Symbolic Z-matrix:
 Charge =  0 Multiplicity = 2

                         Standard orientation:
 ---------------------------------------------------------------------
 Center     Atomic      Atomic             Coordinates (Angstroms)
 Number     Number       Type             X           Y           Z
 ---------------------------------------------------------------------
      1         11           0        3.357082    1.738661   -0.276486
      2         11           0       -2.846712   -1.465414   -0.936978
      3         11           0       -4.612520   -0.645666    1.436264
      4         11           0        4.388003   -1.678116    0.504086
      5         11           0        1.534660   -2.499399   -0.238929
      6         11           0       -2.391026    1.480000   -1.120636
      7         11           0        0.570513    3.069933    0.632678
 ---------------------------------------------------------------------

 SCF Done:  E(UB3LYP) =  -1136.10736240     A.U. after   21 cycles

 The electronic state is 2-A.
 Alpha  occ. eigenvalues --  -38.45020 -38.44770 -38.44477 -38.44382 -38.44325
 Alpha  occ. eigenvalues --  -38.44238 -38.43347  -2.20848  -2.20650  -2.20269
 Alpha  occ. eigenvalues --   -2.20234  -2.20138  -2.20035  -2.19128  -1.14607
 Alpha  occ. eigenvalues --   -1.14503  -1.14470  -1.14343  -1.14284  -1.14275
 Alpha  occ. eigenvalues --   -1.13990  -1.13933  -1.13915  -1.13877  -1.13861
 Alpha  occ. eigenvalues --   -1.13832  -1.13796  -1.13783  -1.13751  -1.13710
 Alpha  occ. eigenvalues --   -1.13702  -1.13653  -1.12805  -1.12799  -1.12778
 Alpha  occ. eigenvalues --   -0.16404  -0.14599  -0.12159  -0.10469
 Alpha virt. eigenvalues --   -0.06790  -0.06535  -0.04002  -0.03723  -0.02854
 Alpha virt. eigenvalues --   -0.02468  -0.02143  -0.01881  -0.01518  -0.00601
 Alpha virt. eigenvalues --   -0.00391  -0.00049   0.00144   0.00254   0.00473

  Beta  occ. eigenvalues --  -38.44982 -38.44762 -38.44448 -38.44331 -38.44282
  Beta  occ. eigenvalues --  -38.44208 -38.43361  -2.20779  -2.20642  -2.20213
  Beta  occ. eigenvalues --   -2.20151  -2.20048  -2.19978  -2.19156  -1.14572
  Beta  occ. eigenvalues --   -1.14454  -1.14419  -1.14310  -1.14269  -1.14247
  Beta  occ. eigenvalues --   -1.13968  -1.13895  -1.13877  -1.13805  -1.13783
  Beta  occ. eigenvalues --   -1.13751  -1.13742  -1.13734  -1.13713  -1.13673
  Beta  occ. eigenvalues --   -1.13663  -1.13619  -1.12824  -1.12819  -1.12783
  Beta  occ. eigenvalues --   -0.15834  -0.14257  -0.12002
  Beta virt. eigenvalues --   -0.07116  -0.06414  -0.05808  -0.03898  -0.03472
  Beta virt. eigenvalues --   -0.02699  -0.02045  -0.01893  -0.01597  -0.01091
  Beta virt. eigenvalues --   -0.00445  -0.00104   0.00195   0.00311   0.00414

 Mulliken charges and spin densities:
               1          2
     1  Na  -0.038834   0.176680
     2  Na   0.093755   0.150265
     3  Na   0.111518   0.433347
     4  Na   0.536659   0.032422
     5  Na  -0.384386   0.122402
     6  Na  -0.197550   0.148444
     7  Na  -0.121162  -0.063560
 Sum of Mulliken charges =  -0.00000   1.00000

 Dipole moment (field-independent basis, Debye):
    X=             -0.1191    Y=             -0.3936    Z=             -0.0025  Tot=              0.4112
 Quadrupole moment (field-independent basis, Debye-Ang):
   XX=            -61.0215   YY=            -72.1395   ZZ=            -69.7733
   XY=             -4.6048   XZ=              2.1413   YZ=              0.9090

 Normal termination of Gaussian 16 at Sun Dec  3 20:22:00 2023.
