 Gaussian 16, Revision B.01,
 Gaussian 16:  ES64L-G16RevB.01 20-Dec-2017

 -------------------------
 #P B3LYP/6-311+g(d) force
 -------------------------

 -----
 DPGEN
 -----
 Symbolic Z-matrix:
 Charge =  0 Multiplicity = 2

                         Standard orientation:
 ---------------------------------------------------------------------
 Center     Atomic      Atomic             Coordinates (Angstroms)
 Number     Number       Type             X           Y           Z
 ---------------------------------------------------------------------
      1         11           0       -2.009569   -1.644782    1.210825
      2         11           0        0.378190    1.869048    1.870133
      3         11           0        1.182310   -1.729499   -0.305214
      4         11           0        4.503096   -1.212542   -0.110894
      5         11           0       -3.871576   -1.189897   -0.911511
      6         11           0        1.453709    1.708692   -1.233558
      7         11           0       -1.636161    2.198979   -0.519781
 ---------------------------------------------------------------------

 SCF Done:  E(UB3LYP) =  -1136.11644210     A.U. after   20 cycles

 The electronic state is 2-A.
 Alpha  occ. eigenvalues --  -38.44657 -38.44400 -38.44139 -38.44046 -38.44036
 Alpha  occ. eigenvalues --  -38.43982 -38.43511  -2.20417  -2.20263  -2.19955
 Alpha  occ. eigenvalues --   -2.19916  -2.19879  -2.19850  -2.19387  -1.14085
 Alpha  occ. eigenvalues --   -1.14084  -1.14047  -1.13970  -1.13946  -1.13869
 Alpha  occ. eigenvalues --   -1.13657  -1.13650  -1.13642  -1.13624  -1.13568
 Alpha  occ. eigenvalues --   -1.13567  -1.13538  -1.13527  -1.13511  -1.13499
 Alpha  occ. eigenvalues --   -1.13481  -1.13432  -1.13044  -1.13025  -1.13009
 Alpha  occ. eigenvalues --   -0.17574  -0.13418  -0.12513  -0.10287
 Alpha virt. eigenvalues --   -0.06846  -0.05562  -0.04266  -0.03689  -0.02817
 Alpha virt. eigenvalues --   -0.02535  -0.02150  -0.01410  -0.00709  -0.00467
 Alpha virt. eigenvalues --   -0.00037   0.00097   0.00359   0.00537   0.00663

  Beta  occ. eigenvalues --  -38.44654 -38.44378 -38.44125 -38.44008 -38.43995
  Beta  occ. eigenvalues --  -38.43960 -38.43490  -2.20411  -2.20222  -2.19933
  Beta  occ. eigenvalues --   -2.19826  -2.19823  -2.19810  -2.19351  -1.14082
  Beta  occ. eigenvalues --   -1.14079  -1.14043  -1.13943  -1.13908  -1.13838
  Beta  occ. eigenvalues --   -1.13635  -1.13624  -1.13602  -1.13587  -1.13543
  Beta  occ. eigenvalues --   -1.13510  -1.13495  -1.13474  -1.13458  -1.13456
  Beta  occ. eigenvalues --   -1.13444  -1.13391  -1.13019  -1.12995  -1.12968
  Beta  occ. eigenvalues --   -0.16970  -0.13196  -0.12347
  Beta virt. eigenvalues --   -0.06829  -0.06410  -0.05340  -0.03694  -0.03510
  Beta virt. eigenvalues --   -0.02602  -0.02262  -0.01617  -0.01115  -0.00506
  Beta virt. eigenvalues --   -0.00255   0.00049   0.00256   0.00505   0.00673

 Mulliken charges and spin densities:
               1          2
     1  Na   0.046112   0.063936
     2  Na   0.051544   0.340907
     3  Na  -0.680516   0.076140
     4  Na   0.339980  -0.014788
     5  Na   0.203034   0.190989
     6  Na   0.073584   0.045486
     7  Na  -0.033737   0.297330
 Sum of Mulliken charges =  -0.00000   1.00000

 Dipole moment (field-independent basis, Debye):
    X=              1.0221    Y=              0.5597    Z=              0.2697  Tot=              1.1961
 Quadrupole moment (field-independent basis, Debye-Ang):
   XX=            -56.0079   YY=            -71.2147   ZZ=            -69.8963
   XY=              0.3008   XZ=              2.7925   YZ=              1.3454

 Normal termination of Gaussian 16 at Mon Dec  4 02:20:03 2023.
