 Gaussian 16, Revision B.01,
 Gaussian 16:  ES64L-G16RevB.01 20-Dec-2017

 -------------------------
 #P B3LYP/6-311+g(d) force
 -------------------------

 -----
 DPGEN
 -----
 Symbolic Z-matrix:
 Charge =  0 Multiplicity = 2

                         Standard orientation:
 ---------------------------------------------------------------------
 Center     Atomic      Atomic             Coordinates (Angstroms)
 Number     Number       Type             X           Y           Z
 ---------------------------------------------------------------------
      1         11           0       -2.058434    2.257847   -0.186030
      2         11           0        1.173308   -2.860023   -0.225741
      3         11           0        3.073092    0.118912    0.006193
      4         11           0       -0.139930   -0.233247   -1.508564
      5         11           0       -0.260035   -0.312771    2.003512
      6         11           0       -2.931995   -1.557028   -0.067476
      7         11           0        1.143994    2.586309   -0.021894
 ---------------------------------------------------------------------

 SCF Done:  E(UB3LYP) =  -1136.13589256     A.U. after   19 cycles

 The electronic state is 2-A.
 Alpha  occ. eigenvalues --  -38.44371 -38.43936 -38.43843 -38.43830 -38.43353
 Alpha  occ. eigenvalues --  -38.43175 -38.42914  -2.20165  -2.19769  -2.19698
 Alpha  occ. eigenvalues --   -2.19674  -2.19241  -2.19075  -2.18914  -1.13844
 Alpha  occ. eigenvalues --   -1.13823  -1.13802  -1.13471  -1.13429  -1.13404
 Alpha  occ. eigenvalues --   -1.13395  -1.13364  -1.13355  -1.13340  -1.13326
 Alpha  occ. eigenvalues --   -1.13306  -1.12918  -1.12864  -1.12855  -1.12754
 Alpha  occ. eigenvalues --   -1.12730  -1.12720  -1.12601  -1.12552  -1.12534
 Alpha  occ. eigenvalues --   -0.18651  -0.12917  -0.12684  -0.10444
 Alpha virt. eigenvalues --   -0.05994  -0.05206  -0.04678  -0.02993  -0.02853
 Alpha virt. eigenvalues --   -0.02330  -0.01641  -0.01372  -0.00517  -0.00299
 Alpha virt. eigenvalues --    0.00009   0.00343   0.00762   0.00858   0.00895

  Beta  occ. eigenvalues --  -38.44369 -38.43928 -38.43840 -38.43825 -38.43258
  Beta  occ. eigenvalues --  -38.43170 -38.42856  -2.20163  -2.19759  -2.19696
  Beta  occ. eigenvalues --   -2.19668  -2.19072  -2.19063  -2.18808  -1.13830
  Beta  occ. eigenvalues --   -1.13814  -1.13805  -1.13458  -1.13409  -1.13402
  Beta  occ. eigenvalues --   -1.13391  -1.13360  -1.13330  -1.13327  -1.13317
  Beta  occ. eigenvalues --   -1.13301  -1.12801  -1.12751  -1.12740  -1.12730
  Beta  occ. eigenvalues --   -1.12727  -1.12689  -1.12523  -1.12473  -1.12458
  Beta  occ. eigenvalues --   -0.17941  -0.12695  -0.12439
  Beta virt. eigenvalues --   -0.06542  -0.05990  -0.05142  -0.04674  -0.02231
  Beta virt. eigenvalues --   -0.02086  -0.01577  -0.01300  -0.01246  -0.00575
  Beta virt. eigenvalues --   -0.00341   0.00156   0.00378   0.00773   0.00895

 Mulliken charges and spin densities:
               1          2
     1  Na   0.270434   0.004427
     2  Na   0.332510  -0.056492
     3  Na   0.198165   0.040330
     4  Na  -0.494932   0.337798
     5  Na  -0.570272   0.763129
     6  Na   0.174168  -0.109711
     7  Na   0.089927   0.020519
 Sum of Mulliken charges =  -0.00000   1.00000

 Dipole moment (field-independent basis, Debye):
    X=             -0.3708    Y=             -0.4436    Z=              0.1128  Tot=              0.5891
 Quadrupole moment (field-independent basis, Debye-Ang):
   XX=            -55.6838   YY=            -60.3847   ZZ=            -76.2878
   XY=             -0.1040   XZ=              0.4194   YZ=              0.1947

 Normal termination of Gaussian 16 at Thu Dec  7 13:19:04 2023.
