 Gaussian 16, Revision B.01,
 Gaussian 16:  ES64L-G16RevB.01 20-Dec-2017

 -------------------------
 #P B3LYP/6-311+g(d) force
 -------------------------

 -----
 DPGEN
 -----
 Symbolic Z-matrix:
 Charge =  0 Multiplicity = 2

                         Standard orientation:
 ---------------------------------------------------------------------
 Center     Atomic      Atomic             Coordinates (Angstroms)
 Number     Number       Type             X           Y           Z
 ---------------------------------------------------------------------
      1         11           0       -0.395800   -0.440459   -1.706033
      2         11           0        1.984872    1.001759    1.104616
      3         11           0        2.112625   -0.724546   -0.979279
      4         11           0       -0.476452    0.215485    1.707311
      5         11           0       -0.124349   -2.225985    0.536466
      6         11           0       -2.641058   -0.088682    0.102543
      7         11           0       -0.459838    2.262427   -0.765624
 ---------------------------------------------------------------------

 SCF Done:  E(UB3LYP) =  -1136.08106785     A.U. after   21 cycles

 The electronic state is 2-A.
 Alpha  occ. eigenvalues --  -38.44785 -38.44566 -38.44240 -38.44218 -38.43773
 Alpha  occ. eigenvalues --  -38.43151 -38.43149  -2.21068  -2.20842  -2.20351
 Alpha  occ. eigenvalues --   -2.20269  -2.19824  -2.19246  -2.19153  -1.15004
 Alpha  occ. eigenvalues --   -1.14819  -1.14780  -1.14668  -1.14496  -1.14476
 Alpha  occ. eigenvalues --   -1.14295  -1.13942  -1.13904  -1.13870  -1.13789
 Alpha  occ. eigenvalues --   -1.13687  -1.13515  -1.13487  -1.13363  -1.12970
 Alpha  occ. eigenvalues --   -1.12913  -1.12885  -1.12793  -1.12781  -1.12726
 Alpha  occ. eigenvalues --   -0.21301  -0.13526  -0.13001  -0.12484
 Alpha virt. eigenvalues --   -0.04985  -0.04142  -0.04070  -0.03676  -0.03561
 Alpha virt. eigenvalues --   -0.03338  -0.00907  -0.00466  -0.00230   0.00353
 Alpha virt. eigenvalues --    0.00841   0.00963   0.01026   0.01086   0.01142

  Beta  occ. eigenvalues --  -38.44696 -38.44479 -38.44213 -38.44187 -38.43765
  Beta  occ. eigenvalues --  -38.43133 -38.43126  -2.20908  -2.20689  -2.20305
  Beta  occ. eigenvalues --   -2.20217  -2.19813  -2.19218  -2.19115  -1.14881
  Beta  occ. eigenvalues --   -1.14718  -1.14680  -1.14551  -1.14399  -1.14356
  Beta  occ. eigenvalues --   -1.14258  -1.13890  -1.13845  -1.13827  -1.13747
  Beta  occ. eigenvalues --   -1.13654  -1.13497  -1.13452  -1.13356  -1.12950
  Beta  occ. eigenvalues --   -1.12856  -1.12845  -1.12767  -1.12749  -1.12706
  Beta  occ. eigenvalues --   -0.20514  -0.13241  -0.12214
  Beta virt. eigenvalues --   -0.08653  -0.04975  -0.03830  -0.03699  -0.03170
  Beta virt. eigenvalues --   -0.02725  -0.02283  -0.00873  -0.00428  -0.00047
  Beta virt. eigenvalues --    0.00384   0.00869   0.01027   0.01049   0.01180

 Mulliken charges and spin densities:
               1          2
     1  Na   0.493789   0.539109
     2  Na   0.275376   0.054415
     3  Na  -0.083439  -0.042479
     4  Na   0.278469   0.461213
     5  Na  -0.498497   0.054080
     6  Na   0.269293  -0.063499
     7  Na  -0.734990  -0.002839
 Sum of Mulliken charges =  -0.00000   1.00000

 Dipole moment (field-independent basis, Debye):
    X=             -0.1096    Y=              0.2167    Z=             -0.0619  Tot=              0.2506
 Quadrupole moment (field-independent basis, Debye-Ang):
   XX=            -62.5775   YY=            -70.3978   ZZ=            -65.1197
   XY=              0.0669   XZ=              0.1216   YZ=             -1.4506

 Normal termination of Gaussian 16 at Fri Dec  8 17:00:49 2023.
