 Gaussian 16, Revision B.01,
 Gaussian 16:  ES64L-G16RevB.01 20-Dec-2017

 -------------------------
 #P B3LYP/6-311+g(d) force
 -------------------------

 -----
 DPGEN
 -----
 Symbolic Z-matrix:
 Charge =  0 Multiplicity = 2

                         Standard orientation:
 ---------------------------------------------------------------------
 Center     Atomic      Atomic             Coordinates (Angstroms)
 Number     Number       Type             X           Y           Z
 ---------------------------------------------------------------------
      1         11           0        2.039382   -0.430342   -1.751633
      2         11           0       -3.835514   -0.610993    0.227665
      3         11           0        2.524751    1.641058    0.648701
      4         11           0       -0.918301    2.001140   -1.523851
      5         11           0       -1.072900    1.048437    2.081783
      6         11           0        2.221029   -1.932471    1.241083
      7         11           0       -0.958446   -1.716829   -0.923749
 ---------------------------------------------------------------------

 SCF Done:  E(UB3LYP) =  -1136.12545290     A.U. after   23 cycles

 The electronic state is 2-A.
 Alpha  occ. eigenvalues --  -38.44657 -38.44282 -38.44273 -38.44081 -38.43898
 Alpha  occ. eigenvalues --  -38.43871 -38.42964  -2.20446  -2.20071  -2.20066
 Alpha  occ. eigenvalues --   -2.19900  -2.19797  -2.19689  -2.18819  -1.14116
 Alpha  occ. eigenvalues --   -1.14112  -1.14078  -1.13751  -1.13745  -1.13729
 Alpha  occ. eigenvalues --   -1.13699  -1.13690  -1.13684  -1.13569  -1.13564
 Alpha  occ. eigenvalues --   -1.13532  -1.13500  -1.13476  -1.13400  -1.13358
 Alpha  occ. eigenvalues --   -1.13340  -1.13308  -1.12515  -1.12498  -1.12437
 Alpha  occ. eigenvalues --   -0.17913  -0.13513  -0.11548  -0.11071
 Alpha virt. eigenvalues --   -0.06356  -0.05208  -0.04810  -0.03229  -0.03037
 Alpha virt. eigenvalues --   -0.02751  -0.01994  -0.00860  -0.00733  -0.00239
 Alpha virt. eigenvalues --    0.00072   0.00189   0.00327   0.00520   0.00748

  Beta  occ. eigenvalues --  -38.44656 -38.44239 -38.44223 -38.44046 -38.43866
  Beta  occ. eigenvalues --  -38.43865 -38.42950  -2.20443  -2.19988  -2.19977
  Beta  occ. eigenvalues --   -2.19833  -2.19740  -2.19684  -2.18795  -1.14115
  Beta  occ. eigenvalues --   -1.14104  -1.14077  -1.13695  -1.13682  -1.13665
  Beta  occ. eigenvalues --   -1.13633  -1.13628  -1.13624  -1.13531  -1.13516
  Beta  occ. eigenvalues --   -1.13482  -1.13471  -1.13432  -1.13344  -1.13337
  Beta  occ. eigenvalues --   -1.13329  -1.13300  -1.12495  -1.12459  -1.12428
  Beta  occ. eigenvalues --   -0.17155  -0.13337  -0.10904
  Beta virt. eigenvalues --   -0.07738  -0.06193  -0.04743  -0.04411  -0.03004
  Beta virt. eigenvalues --   -0.02514  -0.01990  -0.01880  -0.00726  -0.00453
  Beta virt. eigenvalues --   -0.00081   0.00190   0.00218   0.00376   0.00654

 Mulliken charges and spin densities:
               1          2
     1  Na   0.456384   0.256916
     2  Na   0.388548  -0.111490
     3  Na  -0.029565   0.078439
     4  Na  -0.078629   0.132901
     5  Na  -0.284260   0.330685
     6  Na   0.016694   0.176803
     7  Na  -0.469171   0.135745
 Sum of Mulliken charges =  -0.00000   1.00000

 Dipole moment (field-independent basis, Debye):
    X=             -0.5167    Y=              0.2351    Z=              0.3300  Tot=              0.6567
 Quadrupole moment (field-independent basis, Debye-Ang):
   XX=            -53.7448   YY=            -76.1390   ZZ=            -65.4780
   XY=             -0.4836   XZ=              0.3862   YZ=             -4.2482

 Normal termination of Gaussian 16 at Thu Dec  7 02:52:28 2023.
