 Gaussian 16, Revision B.01,
 Gaussian 16:  ES64L-G16RevB.01 20-Dec-2017

 -------------------------
 #P B3LYP/6-311+g(d) force
 -------------------------

 -----
 DPGEN
 -----
 Symbolic Z-matrix:
 Charge =  0 Multiplicity = 2

                         Standard orientation:
 ---------------------------------------------------------------------
 Center     Atomic      Atomic             Coordinates (Angstroms)
 Number     Number       Type             X           Y           Z
 ---------------------------------------------------------------------
      1         11           0        2.416853   -2.315661   -0.758990
      2         11           0       -2.685959    1.474191   -0.222051
      3         11           0        2.482467    2.746074    0.143161
      4         11           0       -4.293843   -0.385425    1.161981
      5         11           0       -1.493467   -1.943042   -0.662677
      6         11           0        0.367943    1.119265   -1.337797
      7         11           0        3.206006   -0.695401    1.676374
 ---------------------------------------------------------------------

 SCF Done:  E(UB3LYP) =  -1136.11366449     A.U. after   21 cycles

 The electronic state is 2-A.
 Alpha  occ. eigenvalues --  -38.44874 -38.44662 -38.44629 -38.44455 -38.43804
 Alpha  occ. eigenvalues --  -38.43609 -38.43082  -2.20776  -2.20511  -2.20467
 Alpha  occ. eigenvalues --   -2.20281  -2.19609  -2.19423  -2.18991  -1.14620
 Alpha  occ. eigenvalues --   -1.14428  -1.14412  -1.14151  -1.14148  -1.14128
 Alpha  occ. eigenvalues --   -1.14125  -1.14087  -1.14057  -1.13974  -1.13928
 Alpha  occ. eigenvalues --   -1.13892  -1.13322  -1.13267  -1.13239  -1.13111
 Alpha  occ. eigenvalues --   -1.13083  -1.13058  -1.12677  -1.12642  -1.12605
 Alpha  occ. eigenvalues --   -0.17355  -0.14579  -0.11604  -0.11127
 Alpha virt. eigenvalues --   -0.06497  -0.05565  -0.04218  -0.03811  -0.03059
 Alpha virt. eigenvalues --   -0.02554  -0.01906  -0.01148  -0.00948  -0.00402
 Alpha virt. eigenvalues --   -0.00106   0.00113   0.00317   0.00348   0.00601

  Beta  occ. eigenvalues --  -38.44856 -38.44622 -38.44566 -38.44403 -38.43803
  Beta  occ. eigenvalues --  -38.43615 -38.43040  -2.20750  -2.20398  -2.20393
  Beta  occ. eigenvalues --   -2.20184  -2.19608  -2.19437  -2.18917  -1.14558
  Beta  occ. eigenvalues --   -1.14410  -1.14388  -1.14105  -1.14082  -1.14047
  Beta  occ. eigenvalues --   -1.14043  -1.14028  -1.14000  -1.13915  -1.13860
  Beta  occ. eigenvalues --   -1.13823  -1.13323  -1.13267  -1.13228  -1.13115
  Beta  occ. eigenvalues --   -1.13097  -1.13048  -1.12627  -1.12591  -1.12544
  Beta  occ. eigenvalues --   -0.16654  -0.14003  -0.11487
  Beta virt. eigenvalues --   -0.07618  -0.06288  -0.04980  -0.03933  -0.03600
  Beta virt. eigenvalues --   -0.02596  -0.02189  -0.01474  -0.01075  -0.00701
  Beta virt. eigenvalues --   -0.00198   0.00029   0.00240   0.00463   0.00508

 Mulliken charges and spin densities:
               1          2
     1  Na   0.302428   0.028323
     2  Na  -0.194840   0.084952
     3  Na   0.320378   0.072252
     4  Na   0.493810   0.313954
     5  Na  -0.326549   0.053116
     6  Na  -0.366389   0.197701
     7  Na  -0.228837   0.249703
 Sum of Mulliken charges =  -0.00000   1.00000

 Dipole moment (field-independent basis, Debye):
    X=             -0.9164    Y=             -0.2690    Z=              0.6096  Tot=              1.1330
 Quadrupole moment (field-independent basis, Debye-Ang):
   XX=            -61.8243   YY=            -70.3605   ZZ=            -66.9942
   XY=              3.6233   XZ=             -0.2300   YZ=              1.9408

 Normal termination of Gaussian 16 at Mon Dec  4 04:07:43 2023.
