 Gaussian 16, Revision B.01,
 Gaussian 16:  ES64L-G16RevB.01 20-Dec-2017

 -------------------------
 #P B3LYP/6-311+g(d) force
 -------------------------

 -----
 DPGEN
 -----
 Symbolic Z-matrix:
 Charge =  0 Multiplicity = 2

                         Standard orientation:
 ---------------------------------------------------------------------
 Center     Atomic      Atomic             Coordinates (Angstroms)
 Number     Number       Type             X           Y           Z
 ---------------------------------------------------------------------
      1         11           0       -0.212824    0.898436   -0.792439
      2         11           0        2.869504    1.631469   -0.949788
      3         11           0        0.814787   -2.237986   -0.999883
      4         11           0       -3.182124   -0.764474   -1.179692
      5         11           0       -1.983781    2.230813    0.876669
      6         11           0       -0.937097   -1.107678    1.865342
      7         11           0        2.631535   -0.650580    1.179791
 ---------------------------------------------------------------------

 SCF Done:  E(UB3LYP) =  -1136.12131753     A.U. after   21 cycles

 The electronic state is 2-A.
 Alpha  occ. eigenvalues --  -38.44984 -38.44178 -38.43914 -38.43564 -38.43543
 Alpha  occ. eigenvalues --  -38.43507 -38.42903  -2.20784  -2.20066  -2.19795
 Alpha  occ. eigenvalues --   -2.19425  -2.19396  -2.19389  -2.18978  -1.14461
 Alpha  occ. eigenvalues --   -1.14418  -1.14405  -1.13743  -1.13731  -1.13711
 Alpha  occ. eigenvalues --   -1.13627  -1.13418  -1.13381  -1.13138  -1.13093
 Alpha  occ. eigenvalues --   -1.13082  -1.13070  -1.13059  -1.13049  -1.13023
 Alpha  occ. eigenvalues --   -1.13019  -1.12989  -1.12681  -1.12620  -1.12566
 Alpha  occ. eigenvalues --   -0.18598  -0.13737  -0.11448  -0.11063
 Alpha virt. eigenvalues --   -0.06261  -0.05149  -0.04415  -0.03283  -0.02730
 Alpha virt. eigenvalues --   -0.02315  -0.02050  -0.00827  -0.00700   0.00066
 Alpha virt. eigenvalues --    0.00152   0.00289   0.00486   0.00620   0.00785

  Beta  occ. eigenvalues --  -38.44942 -38.44164 -38.43890 -38.43551 -38.43536
  Beta  occ. eigenvalues --  -38.43448 -38.42878  -2.20707  -2.20041  -2.19753
  Beta  occ. eigenvalues --   -2.19404  -2.19384  -2.19283  -2.18939  -1.14399
  Beta  occ. eigenvalues --   -1.14369  -1.14349  -1.13725  -1.13715  -1.13684
  Beta  occ. eigenvalues --   -1.13600  -1.13370  -1.13356  -1.13122  -1.13070
  Beta  occ. eigenvalues --   -1.13053  -1.13043  -1.13034  -1.13012  -1.13009
  Beta  occ. eigenvalues --   -1.12943  -1.12913  -1.12618  -1.12594  -1.12537
  Beta  occ. eigenvalues --   -0.17900  -0.13514  -0.11226
  Beta virt. eigenvalues --   -0.07258  -0.05999  -0.05037  -0.03923  -0.03007
  Beta virt. eigenvalues --   -0.02209  -0.01970  -0.01400  -0.00729  -0.00360
  Beta virt. eigenvalues --    0.00118   0.00195   0.00352   0.00568   0.00738

 Mulliken charges and spin densities:
               1          2
     1  Na  -0.290116   0.456739
     2  Na   0.210128  -0.112753
     3  Na   0.098410   0.110274
     4  Na   0.162173   0.182297
     5  Na  -0.199365  -0.072950
     6  Na  -0.010335   0.356637
     7  Na   0.029106   0.079756
 Sum of Mulliken charges =  -0.00000   1.00000

 Dipole moment (field-independent basis, Debye):
    X=             -0.5234    Y=             -0.5113    Z=              0.1799  Tot=              0.7535
 Quadrupole moment (field-independent basis, Debye-Ang):
   XX=            -52.2079   YY=            -72.2120   ZZ=            -68.0144
   XY=              0.1397   XZ=              1.2698   YZ=              2.4261

 Normal termination of Gaussian 16 at Tue Dec  5 23:37:57 2023.
