 Gaussian 16, Revision B.01,
 Gaussian 16:  ES64L-G16RevB.01 20-Dec-2017

 -------------------------
 #P B3LYP/6-311+g(d) force
 -------------------------

 -----
 DPGEN
 -----
 Symbolic Z-matrix:
 Charge =  0 Multiplicity = 2

                         Standard orientation:
 ---------------------------------------------------------------------
 Center     Atomic      Atomic             Coordinates (Angstroms)
 Number     Number       Type             X           Y           Z
 ---------------------------------------------------------------------
      1         11           0       -4.779785   -1.327180   -0.208368
      2         11           0       -1.409814   -2.156380    1.059878
      3         11           0        0.066213    2.501667    0.005011
      4         11           0       -3.608865    2.201129   -0.605341
      5         11           0        3.117416    1.979525    0.972308
      6         11           0        2.002871   -2.673637   -0.354508
      7         11           0        4.611965   -0.525124   -0.868980
 ---------------------------------------------------------------------

 SCF Done:  E(UB3LYP) =  -1136.10710505     A.U. after   26 cycles

 The electronic state is 2-A.
 Alpha  occ. eigenvalues --  -38.45293 -38.45090 -38.45031 -38.44812 -38.44210
 Alpha  occ. eigenvalues --  -38.43908 -38.43592  -2.21030  -2.20842  -2.20833
 Alpha  occ. eigenvalues --   -2.20578  -2.19974  -2.19732  -2.19380  -1.14720
 Alpha  occ. eigenvalues --   -1.14695  -1.14657  -1.14520  -1.14505  -1.14501
 Alpha  occ. eigenvalues --   -1.14491  -1.14480  -1.14465  -1.14262  -1.14243
 Alpha  occ. eigenvalues --   -1.14210  -1.13646  -1.13642  -1.13590  -1.13382
 Alpha  occ. eigenvalues --   -1.13374  -1.13363  -1.13051  -1.13041  -1.13021
 Alpha  occ. eigenvalues --   -0.15863  -0.14053  -0.12510  -0.10776
 Alpha virt. eigenvalues --   -0.07730  -0.04950  -0.04670  -0.03580  -0.03487
 Alpha virt. eigenvalues --   -0.02449  -0.02217  -0.01491  -0.01169  -0.01011
 Alpha virt. eigenvalues --   -0.00412  -0.00320   0.00063   0.00478   0.00504

  Beta  occ. eigenvalues --  -38.45289 -38.45076 -38.45001 -38.44781 -38.44169
  Beta  occ. eigenvalues --  -38.43844 -38.43569  -2.21024  -2.20816  -2.20783
  Beta  occ. eigenvalues --   -2.20525  -2.19899  -2.19612  -2.19339  -1.14716
  Beta  occ. eigenvalues --   -1.14693  -1.14644  -1.14503  -1.14478  -1.14472
  Beta  occ. eigenvalues --   -1.14463  -1.14452  -1.14408  -1.14232  -1.14213
  Beta  occ. eigenvalues --   -1.14132  -1.13598  -1.13591  -1.13528  -1.13298
  Beta  occ. eigenvalues --   -1.13289  -1.13287  -1.13022  -1.13014  -1.12990
  Beta  occ. eigenvalues --   -0.15227  -0.13546  -0.11885
  Beta virt. eigenvalues --   -0.07984  -0.07493  -0.04328  -0.04204  -0.03303
  Beta virt. eigenvalues --   -0.03232  -0.02259  -0.02117  -0.01117  -0.00942
  Beta virt. eigenvalues --   -0.00722  -0.00335  -0.00232   0.00260   0.00529

 Mulliken charges and spin densities:
               1          2
     1  Na   0.230470   0.120175
     2  Na  -0.334395   0.093220
     3  Na  -0.735739   0.068900
     4  Na   0.049274   0.243983
     5  Na   0.520163  -0.037704
     6  Na  -0.218200   0.176407
     7  Na   0.488428   0.335020
 Sum of Mulliken charges =  -0.00000   1.00000

 Dipole moment (field-independent basis, Debye):
    X=             -0.5501    Y=              0.0442    Z=             -0.1098  Tot=              0.5627
 Quadrupole moment (field-independent basis, Debye-Ang):
   XX=            -56.7479   YY=            -69.9357   ZZ=            -70.6151
   XY=              2.7914   XZ=              1.9945   YZ=              0.9993

 Normal termination of Gaussian 16 at Sun Dec  3 14:28:58 2023.
