 Gaussian 16, Revision B.01,
 Gaussian 16:  ES64L-G16RevB.01 20-Dec-2017

 -------------------------
 #P B3LYP/6-311+g(d) force
 -------------------------

 -----
 DPGEN
 -----
 Symbolic Z-matrix:
 Charge =  0 Multiplicity = 2

                         Standard orientation:
 ---------------------------------------------------------------------
 Center     Atomic      Atomic             Coordinates (Angstroms)
 Number     Number       Type             X           Y           Z
 ---------------------------------------------------------------------
      1         11           0        0.287990   -2.844106   -0.760065
      2         11           0       -3.183929    1.494955    0.506028
      3         11           0        2.828942    1.570228   -0.359722
      4         11           0       -0.246153    3.129031   -0.660374
      5         11           0       -2.963206   -2.109000   -0.225282
      6         11           0        3.372934   -1.286123    0.623253
      7         11           0       -0.096579    0.045016    0.876162
 ---------------------------------------------------------------------

 SCF Done:  E(UB3LYP) =  -1136.12759337     A.U. after   23 cycles

 The electronic state is 2-A.
 Alpha  occ. eigenvalues --  -38.44597 -38.44368 -38.44353 -38.43724 -38.43445
 Alpha  occ. eigenvalues --  -38.43320 -38.43283  -2.20398  -2.20270  -2.20223
 Alpha  occ. eigenvalues --   -2.19569  -2.19320  -2.19168  -2.19131  -1.14082
 Alpha  occ. eigenvalues --   -1.14056  -1.14042  -1.14003  -1.13930  -1.13921
 Alpha  occ. eigenvalues --   -1.13894  -1.13891  -1.13864  -1.13245  -1.13229
 Alpha  occ. eigenvalues --   -1.13183  -1.12990  -1.12963  -1.12931  -1.12835
 Alpha  occ. eigenvalues --   -1.12828  -1.12810  -1.12794  -1.12771  -1.12745
 Alpha  occ. eigenvalues --   -0.17603  -0.13946  -0.13187  -0.09642
 Alpha virt. eigenvalues --   -0.06591  -0.05839  -0.04282  -0.03249  -0.02876
 Alpha virt. eigenvalues --   -0.02473  -0.01855  -0.01316  -0.00814  -0.00552
 Alpha virt. eigenvalues --   -0.00030   0.00186   0.00566   0.00594   0.00695

  Beta  occ. eigenvalues --  -38.44590 -38.44376 -38.44332 -38.43690 -38.43394
  Beta  occ. eigenvalues --  -38.43286 -38.43227  -2.20391  -2.20284  -2.20193
  Beta  occ. eigenvalues --   -2.19509  -2.19224  -2.19108  -2.19025  -1.14082
  Beta  occ. eigenvalues --   -1.14056  -1.14000  -1.13995  -1.13947  -1.13928
  Beta  occ. eigenvalues --   -1.13879  -1.13870  -1.13804  -1.13208  -1.13190
  Beta  occ. eigenvalues --   -1.13127  -1.12925  -1.12896  -1.12867  -1.12796
  Beta  occ. eigenvalues --   -1.12791  -1.12746  -1.12720  -1.12702  -1.12676
  Beta  occ. eigenvalues --   -0.17301  -0.13300  -0.12561
  Beta virt. eigenvalues --   -0.06570  -0.06383  -0.05672  -0.04042  -0.02742
  Beta virt. eigenvalues --   -0.02377  -0.02173  -0.01690  -0.01070  -0.00657
  Beta virt. eigenvalues --   -0.00362   0.00264   0.00370   0.00603   0.00713

 Mulliken charges and spin densities:
               1          2
     1  Na   0.090109   0.122538
     2  Na   0.732179   0.328524
     3  Na  -0.079531   0.111653
     4  Na   0.015377   0.118022
     5  Na   0.037300   0.036929
     6  Na   1.097040   0.342764
     7  Na  -1.892474  -0.060429
 Sum of Mulliken charges =  -0.00000   1.00000

 Dipole moment (field-independent basis, Debye):
    X=             -0.1264    Y=             -0.3620    Z=             -0.5298  Tot=              0.6540
 Quadrupole moment (field-independent basis, Debye-Ang):
   XX=            -61.2298   YY=            -66.3502   ZZ=            -71.1691
   XY=              1.7680   XZ=              0.1340   YZ=             -0.7016

 Normal termination of Gaussian 16 at Wed Nov 29 16:22:02 2023.
