 Gaussian 16, Revision B.01,
 Gaussian 16:  ES64L-G16RevB.01 20-Dec-2017

 -------------------------
 #P B3LYP/6-311+g(d) force
 -------------------------

 -----
 DPGEN
 -----
 Symbolic Z-matrix:
 Charge =  0 Multiplicity = 2

                         Standard orientation:
 ---------------------------------------------------------------------
 Center     Atomic      Atomic             Coordinates (Angstroms)
 Number     Number       Type             X           Y           Z
 ---------------------------------------------------------------------
      1         11           0        0.820689    0.220422   -1.587196
      2         11           0       -0.795780   -2.800515   -0.585751
      3         11           0        2.944634   -1.500239    0.158268
      4         11           0       -1.653558    2.657674   -0.209012
      5         11           0        1.952477    2.351232    0.112320
      6         11           0       -3.115429   -0.563717   -0.043417
      7         11           0       -0.153033   -0.364858    2.154789
 ---------------------------------------------------------------------

 SCF Done:  E(UB3LYP) =  -1136.13326196     A.U. after   19 cycles

 The electronic state is 2-A.
 Alpha  occ. eigenvalues --  -38.44285 -38.44091 -38.43802 -38.43745 -38.43743
 Alpha  occ. eigenvalues --  -38.43655 -38.43358  -2.20088  -2.19941  -2.19627
 Alpha  occ. eigenvalues --   -2.19588  -2.19541  -2.19489  -2.19318  -1.13776
 Alpha  occ. eigenvalues --   -1.13745  -1.13725  -1.13706  -1.13591  -1.13543
 Alpha  occ. eigenvalues --   -1.13317  -1.13296  -1.13289  -1.13245  -1.13220
 Alpha  occ. eigenvalues --   -1.13218  -1.13204  -1.13199  -1.13177  -1.13166
 Alpha  occ. eigenvalues --   -1.13140  -1.13112  -1.12992  -1.12959  -1.12926
 Alpha  occ. eigenvalues --   -0.18194  -0.12989  -0.12446  -0.10604
 Alpha virt. eigenvalues --   -0.05845  -0.05346  -0.04830  -0.03259  -0.02896
 Alpha virt. eigenvalues --   -0.02541  -0.01553  -0.01207  -0.00617  -0.00470
 Alpha virt. eigenvalues --   -0.00030   0.00350   0.00797   0.00809   0.00862

  Beta  occ. eigenvalues --  -38.44282 -38.44087 -38.43801 -38.43744 -38.43643
  Beta  occ. eigenvalues --  -38.43640 -38.43308  -2.20085  -2.19937  -2.19627
  Beta  occ. eigenvalues --   -2.19542  -2.19464  -2.19403  -2.19227  -1.13768
  Beta  occ. eigenvalues --   -1.13728  -1.13725  -1.13696  -1.13572  -1.13542
  Beta  occ. eigenvalues --   -1.13316  -1.13291  -1.13275  -1.13210  -1.13198
  Beta  occ. eigenvalues --   -1.13179  -1.13146  -1.13125  -1.13113  -1.13099
  Beta  occ. eigenvalues --   -1.13084  -1.13072  -1.12927  -1.12895  -1.12861
  Beta  occ. eigenvalues --   -0.17501  -0.12799  -0.12242
  Beta virt. eigenvalues --   -0.06714  -0.05834  -0.05274  -0.04721  -0.02507
  Beta virt. eigenvalues --   -0.02201  -0.01511  -0.01460  -0.01133  -0.00651
  Beta virt. eigenvalues --   -0.00497   0.00134   0.00395   0.00802   0.00861

 Mulliken charges and spin densities:
               1          2
     1  Na   0.084697   0.338429
     2  Na   0.071629  -0.003848
     3  Na   0.128531  -0.043320
     4  Na  -0.073387  -0.065278
     5  Na   0.218136  -0.006425
     6  Na   0.032331  -0.001841
     7  Na  -0.461937   0.782282
 Sum of Mulliken charges =  -0.00000   1.00000

 Dipole moment (field-independent basis, Debye):
    X=              0.3629    Y=             -0.0075    Z=              0.1588  Tot=              0.3962
 Quadrupole moment (field-independent basis, Debye-Ang):
   XX=            -57.2370   YY=            -61.9787   ZZ=            -74.9573
   XY=             -1.0647   XZ=              1.7982   YZ=              1.0880

 Normal termination of Gaussian 16 at Thu Dec  7 08:22:15 2023.
