 Gaussian 16, Revision B.01,
 Gaussian 16:  ES64L-G16RevB.01 20-Dec-2017

 -------------------------
 #P B3LYP/6-311+g(d) force
 -------------------------

 -----
 DPGEN
 -----
 Symbolic Z-matrix:
 Charge =  0 Multiplicity = 2

                         Standard orientation:
 ---------------------------------------------------------------------
 Center     Atomic      Atomic             Coordinates (Angstroms)
 Number     Number       Type             X           Y           Z
 ---------------------------------------------------------------------
      1         11           0       -4.092068   -0.284417   -0.165813
      2         11           0       -1.632225    3.030342    0.312876
      3         11           0       -1.356817   -2.932445   -0.098226
      4         11           0       -0.421645    0.097968   -0.251889
      5         11           0        2.874446   -0.968959   -1.384891
      6         11           0        2.366032    2.290993   -0.182113
      7         11           0        2.262279   -1.233482    1.770056
 ---------------------------------------------------------------------

 SCF Done:  E(UB3LYP) =  -1136.11951933     A.U. after   25 cycles

 The electronic state is 2-A.
 Alpha  occ. eigenvalues --  -38.45171 -38.44495 -38.44360 -38.43948 -38.43876
 Alpha  occ. eigenvalues --  -38.43559 -38.43186  -2.20924  -2.20289  -2.20143
 Alpha  occ. eigenvalues --   -2.19811  -2.19723  -2.19352  -2.19152  -1.14606
 Alpha  occ. eigenvalues --   -1.14565  -1.14553  -1.13973  -1.13958  -1.13909
 Alpha  occ. eigenvalues --   -1.13859  -1.13814  -1.13748  -1.13510  -1.13471
 Alpha  occ. eigenvalues --   -1.13431  -1.13378  -1.13343  -1.13335  -1.13057
 Alpha  occ. eigenvalues --   -1.13017  -1.12970  -1.12865  -1.12810  -1.12776
 Alpha  occ. eigenvalues --   -0.17465  -0.13715  -0.12125  -0.09571
 Alpha virt. eigenvalues --   -0.06758  -0.06064  -0.04785  -0.03028  -0.02538
 Alpha virt. eigenvalues --   -0.02248  -0.01758  -0.01435  -0.01249  -0.00923
 Alpha virt. eigenvalues --   -0.00260   0.00196   0.00461   0.00571   0.00624

  Beta  occ. eigenvalues --  -38.45153 -38.44477 -38.44364 -38.43899 -38.43808
  Beta  occ. eigenvalues --  -38.43545 -38.43180  -2.20892  -2.20260  -2.20153
  Beta  occ. eigenvalues --   -2.19721  -2.19597  -2.19327  -2.19144  -1.14583
  Beta  occ. eigenvalues --   -1.14542  -1.14530  -1.13951  -1.13940  -1.13869
  Beta  occ. eigenvalues --   -1.13867  -1.13817  -1.13742  -1.13439  -1.13413
  Beta  occ. eigenvalues --   -1.13355  -1.13287  -1.13257  -1.13249  -1.13041
  Beta  occ. eigenvalues --   -1.12997  -1.12954  -1.12831  -1.12809  -1.12778
  Beta  occ. eigenvalues --   -0.17010  -0.13331  -0.11886
  Beta virt. eigenvalues --   -0.06597  -0.06128  -0.05699  -0.04653  -0.02647
  Beta virt. eigenvalues --   -0.02343  -0.01713  -0.01543  -0.01284  -0.00919
  Beta virt. eigenvalues --   -0.00724   0.00102   0.00318   0.00612   0.00650

 Mulliken charges and spin densities:
               1          2
     1  Na   0.125682   0.101838
     2  Na   0.248810  -0.035131
     3  Na   1.077340   0.032801
     4  Na  -3.799918   0.079153
     5  Na   0.903445   0.338717
     6  Na   1.269178   0.221066
     7  Na   0.175462   0.261556
 Sum of Mulliken charges =  -0.00000   1.00000

 Dipole moment (field-independent basis, Debye):
    X=             -0.8161    Y=             -0.0908    Z=              0.3190  Tot=              0.8809
 Quadrupole moment (field-independent basis, Debye-Ang):
   XX=            -53.8983   YY=            -62.7617   ZZ=            -75.8806
   XY=             -0.4356   XZ=              1.6013   YZ=              2.7146

 Normal termination of Gaussian 16 at Sat Dec  9 06:59:02 2023.
