 Gaussian 16, Revision B.01,
 Gaussian 16:  ES64L-G16RevB.01 20-Dec-2017

 -------------------------
 #P B3LYP/6-311+g(d) force
 -------------------------

 -----
 DPGEN
 -----
 Symbolic Z-matrix:
 Charge =  0 Multiplicity = 2

                         Standard orientation:
 ---------------------------------------------------------------------
 Center     Atomic      Atomic             Coordinates (Angstroms)
 Number     Number       Type             X           Y           Z
 ---------------------------------------------------------------------
      1         11           0        4.711520   -0.520231   -0.260850
      2         11           0       -1.139857    2.259370   -0.352953
      3         11           0       -1.355182   -0.554747    2.049474
      4         11           0       -1.510071   -1.365957   -1.189661
      5         11           0        1.939713   -1.614014    0.042243
      6         11           0       -4.542170   -0.301044   -0.352927
      7         11           0        1.896047    2.096622    0.064674
 ---------------------------------------------------------------------

 SCF Done:  E(UB3LYP) =  -1136.11645357     A.U. after   24 cycles

 The electronic state is 2-A.
 Alpha  occ. eigenvalues --  -38.45962 -38.45049 -38.44470 -38.43927 -38.43354
 Alpha  occ. eigenvalues --  -38.43119 -38.42618  -2.21772  -2.20897  -2.20293
 Alpha  occ. eigenvalues --   -2.19767  -2.19219  -2.18953  -2.18479  -1.15433
 Alpha  occ. eigenvalues --   -1.15416  -1.15398  -1.14567  -1.14565  -1.14549
 Alpha  occ. eigenvalues --   -1.13950  -1.13927  -1.13906  -1.13474  -1.13406
 Alpha  occ. eigenvalues --   -1.13390  -1.12909  -1.12873  -1.12853  -1.12662
 Alpha  occ. eigenvalues --   -1.12627  -1.12584  -1.12163  -1.12131  -1.12101
 Alpha  occ. eigenvalues --   -0.17769  -0.14240  -0.11262  -0.11018
 Alpha virt. eigenvalues --   -0.07391  -0.05140  -0.04542  -0.03272  -0.03114
 Alpha virt. eigenvalues --   -0.02158  -0.01960  -0.01510  -0.01467  -0.00720
 Alpha virt. eigenvalues --   -0.00267   0.00158   0.00315   0.00584   0.00670

  Beta  occ. eigenvalues --  -38.45909 -38.45040 -38.44392 -38.43889 -38.43342
  Beta  occ. eigenvalues --  -38.43119 -38.42614  -2.21677  -2.20888  -2.20148
  Beta  occ. eigenvalues --   -2.19694  -2.19203  -2.18954  -2.18471  -1.15367
  Beta  occ. eigenvalues --   -1.15337  -1.15331  -1.14568  -1.14560  -1.14494
  Beta  occ. eigenvalues --   -1.13847  -1.13825  -1.13814  -1.13431  -1.13356
  Beta  occ. eigenvalues --   -1.13337  -1.12904  -1.12868  -1.12799  -1.12661
  Beta  occ. eigenvalues --   -1.12624  -1.12584  -1.12158  -1.12120  -1.12098
  Beta  occ. eigenvalues --   -0.17128  -0.13704  -0.11083
  Beta virt. eigenvalues --   -0.07457  -0.07106  -0.04912  -0.03887  -0.03134
  Beta virt. eigenvalues --   -0.02921  -0.01827  -0.01654  -0.01138  -0.00940
  Beta virt. eigenvalues --   -0.00455  -0.00188   0.00215   0.00411   0.00671

 Mulliken charges and spin densities:
               1          2
     1  Na   0.561873   0.223228
     2  Na  -0.378369   0.124431
     3  Na   0.087353   0.103189
     4  Na   0.061506  -0.020447
     5  Na  -0.600335   0.115319
     6  Na   0.419299   0.435163
     7  Na  -0.151327   0.019117
 Sum of Mulliken charges =  -0.00000   1.00000

 Dipole moment (field-independent basis, Debye):
    X=             -0.9125    Y=             -0.5174    Z=              0.9724  Tot=              1.4304
 Quadrupole moment (field-independent basis, Debye-Ang):
   XX=            -58.4369   YY=            -80.0309   ZZ=            -62.6402
   XY=              0.8589   XZ=             -3.7778   YZ=              0.7397

 Normal termination of Gaussian 16 at Sun Dec  3 20:00:00 2023.
