 Gaussian 16, Revision B.01,
 Gaussian 16:  ES64L-G16RevB.01 20-Dec-2017

 -------------------------
 #P B3LYP/6-311+g(d) force
 -------------------------

 -----
 DPGEN
 -----
 Symbolic Z-matrix:
 Charge =  0 Multiplicity = 2

                         Standard orientation:
 ---------------------------------------------------------------------
 Center     Atomic      Atomic             Coordinates (Angstroms)
 Number     Number       Type             X           Y           Z
 ---------------------------------------------------------------------
      1         11           0        0.836398   -1.625180    1.342723
      2         11           0        4.372023   -3.077835   -0.621649
      3         11           0        2.427491    0.310821   -0.504119
      4         11           0        1.395411    4.409907   -0.412633
      5         11           0       -0.309727    1.832741    0.863102
      6         11           0       -2.537437   -0.813975   -0.127729
      7         11           0       -6.184160   -1.036479   -0.539697
 ---------------------------------------------------------------------

 SCF Done:  E(UB3LYP) =  -1136.11509728     A.U. after   20 cycles

 The electronic state is 2-A.
 Alpha  occ. eigenvalues --  -38.45045 -38.44831 -38.44740 -38.44672 -38.43934
 Alpha  occ. eigenvalues --  -38.43816 -38.43632  -2.20864  -2.20583  -2.20580
 Alpha  occ. eigenvalues --   -2.20447  -2.19799  -2.19605  -2.19403  -1.14629
 Alpha  occ. eigenvalues --   -1.14565  -1.14435  -1.14272  -1.14251  -1.14245
 Alpha  occ. eigenvalues --   -1.14242  -1.14181  -1.14155  -1.14088  -1.14088
 Alpha  occ. eigenvalues --   -1.14051  -1.13497  -1.13493  -1.13417  -1.13264
 Alpha  occ. eigenvalues --   -1.13263  -1.13218  -1.13110  -1.13099  -1.13028
 Alpha  occ. eigenvalues --   -0.16974  -0.13108  -0.12640  -0.11174
 Alpha virt. eigenvalues --   -0.06492  -0.05504  -0.05075  -0.03328  -0.02673
 Alpha virt. eigenvalues --   -0.02405  -0.02109  -0.01803  -0.01360  -0.01228
 Alpha virt. eigenvalues --   -0.00583  -0.00202  -0.00111   0.00400   0.00568

  Beta  occ. eigenvalues --  -38.45053 -38.44775 -38.44710 -38.44571 -38.43929
  Beta  occ. eigenvalues --  -38.43787 -38.43649  -2.20880  -2.20529  -2.20477
  Beta  occ. eigenvalues --   -2.20259  -2.19793  -2.19550  -2.19441  -1.14626
  Beta  occ. eigenvalues --   -1.14575  -1.14448  -1.14243  -1.14219  -1.14173
  Beta  occ. eigenvalues --   -1.14169  -1.14114  -1.14102  -1.13960  -1.13959
  Beta  occ. eigenvalues --   -1.13927  -1.13499  -1.13492  -1.13385  -1.13226
  Beta  occ. eigenvalues --   -1.13225  -1.13183  -1.13144  -1.13131  -1.13006
  Beta  occ. eigenvalues --   -0.16580  -0.12402  -0.12091
  Beta virt. eigenvalues --   -0.08028  -0.06036  -0.05269  -0.04802  -0.03130
  Beta virt. eigenvalues --   -0.02422  -0.02114  -0.01929  -0.01417  -0.00996
  Beta virt. eigenvalues --   -0.00897  -0.00279  -0.00016   0.00031   0.00480

 Mulliken charges and spin densities:
               1          2
     1  Na   0.470983  -0.031052
     2  Na   0.376182   0.299819
     3  Na  -0.414893  -0.007655
     4  Na   0.569363   0.159131
     5  Na  -0.270109   0.016765
     6  Na  -0.511114   0.185715
     7  Na  -0.220412   0.377276
 Sum of Mulliken charges =  -0.00000   1.00000

 Dipole moment (field-independent basis, Debye):
    X=              0.8819    Y=             -0.4355    Z=              0.1589  Tot=              0.9963
 Quadrupole moment (field-independent basis, Debye-Ang):
   XX=            -63.1338   YY=            -62.5047   ZZ=            -69.7489
   XY=             -3.7312   XZ=             -1.6668   YZ=             -1.5007

 Normal termination of Gaussian 16 at Tue Nov 28 21:00:52 2023.
