 Gaussian 16, Revision B.01,
 Gaussian 16:  ES64L-G16RevB.01 20-Dec-2017

 -------------------------
 #P B3LYP/6-311+g(d) force
 -------------------------

 -----
 DPGEN
 -----
 Symbolic Z-matrix:
 Charge =  0 Multiplicity = 2

                         Standard orientation:
 ---------------------------------------------------------------------
 Center     Atomic      Atomic             Coordinates (Angstroms)
 Number     Number       Type             X           Y           Z
 ---------------------------------------------------------------------
      1         11           0       -3.610235   -1.030436    0.040581
      2         11           0        2.143821    1.676492    1.494843
      3         11           0        2.250604   -2.128927   -0.608985
      4         11           0       -0.773714   -0.653893   -1.477731
      5         11           0       -1.784697    2.560700    0.155891
      6         11           0        0.144128   -1.502294    2.151632
      7         11           0        1.630093    1.078359   -1.756230
 ---------------------------------------------------------------------

 SCF Done:  E(UB3LYP) =  -1136.12250928     A.U. after   21 cycles

 The electronic state is 2-A.
 Alpha  occ. eigenvalues --  -38.44431 -38.44343 -38.44319 -38.44124 -38.43761
 Alpha  occ. eigenvalues --  -38.43667 -38.43558  -2.20232  -2.20120  -2.20082
 Alpha  occ. eigenvalues --   -2.19904  -2.19670  -2.19512  -2.19495  -1.13897
 Alpha  occ. eigenvalues --   -1.13868  -1.13855  -1.13790  -1.13774  -1.13772
 Alpha  occ. eigenvalues --   -1.13750  -1.13738  -1.13703  -1.13606  -1.13555
 Alpha  occ. eigenvalues --   -1.13538  -1.13484  -1.13311  -1.13260  -1.13180
 Alpha  occ. eigenvalues --   -1.13164  -1.13150  -1.13144  -1.13141  -1.13092
 Alpha  occ. eigenvalues --   -0.17940  -0.12783  -0.11942  -0.11492
 Alpha virt. eigenvalues --   -0.05942  -0.05338  -0.04219  -0.03485  -0.03290
 Alpha virt. eigenvalues --   -0.03106  -0.01570  -0.01138  -0.00555  -0.00083
 Alpha virt. eigenvalues --    0.00129   0.00282   0.00399   0.00558   0.00740

  Beta  occ. eigenvalues --  -38.44363 -38.44343 -38.44270 -38.44127 -38.43716
  Beta  occ. eigenvalues --  -38.43662 -38.43512  -2.20107  -2.20084  -2.20029
  Beta  occ. eigenvalues --   -2.19910  -2.19592  -2.19489  -2.19431  -1.13812
  Beta  occ. eigenvalues --   -1.13786  -1.13767  -1.13761  -1.13751  -1.13725
  Beta  occ. eigenvalues --   -1.13710  -1.13704  -1.13673  -1.13606  -1.13557
  Beta  occ. eigenvalues --   -1.13542  -1.13415  -1.13263  -1.13200  -1.13164
  Beta  occ. eigenvalues --   -1.13141  -1.13118  -1.13116  -1.13077  -1.13034
  Beta  occ. eigenvalues --   -0.17141  -0.12642  -0.11331
  Beta virt. eigenvalues --   -0.07878  -0.05885  -0.05117  -0.03636  -0.03170
  Beta virt. eigenvalues --   -0.02800  -0.02237  -0.01463  -0.01055  -0.00249
  Beta virt. eigenvalues --   -0.00045   0.00150   0.00346   0.00486   0.00691

 Mulliken charges and spin densities:
               1          2
     1  Na   0.438964  -0.062967
     2  Na  -0.270750   0.276696
     3  Na   0.196366  -0.022533
     4  Na  -0.388005   0.220431
     5  Na  -0.137717  -0.012886
     6  Na  -0.308196   0.531137
     7  Na   0.469339   0.070122
 Sum of Mulliken charges =  -0.00000   1.00000

 Dipole moment (field-independent basis, Debye):
    X=             -0.1605    Y=              0.0137    Z=              0.5480  Tot=              0.5712
 Quadrupole moment (field-independent basis, Debye-Ang):
   XX=            -58.2628   YY=            -70.5594   ZZ=            -66.5583
   XY=             -0.8757   XZ=             -2.0054   YZ=              1.1801

 Normal termination of Gaussian 16 at Sun Dec  3 22:56:38 2023.
