 Gaussian 16, Revision B.01,
 Gaussian 16:  ES64L-G16RevB.01 20-Dec-2017

 -------------------------
 #P B3LYP/6-311+g(d) force
 -------------------------

 -----
 DPGEN
 -----
 Symbolic Z-matrix:
 Charge =  0 Multiplicity = 2

                         Standard orientation:
 ---------------------------------------------------------------------
 Center     Atomic      Atomic             Coordinates (Angstroms)
 Number     Number       Type             X           Y           Z
 ---------------------------------------------------------------------
      1         11           0       -3.219239    0.920245    1.178145
      2         11           0       -2.133152   -2.052157   -0.765428
      3         11           0        1.839435    2.258983   -0.467710
      4         11           0        1.145744   -1.085933   -1.310136
      5         11           0       -0.214718   -0.532127    1.599745
      6         11           0        3.782378   -0.772850    0.919801
      7         11           0       -1.200449    1.263838   -1.154417
 ---------------------------------------------------------------------

 SCF Done:  E(UB3LYP) =  -1136.12512579     A.U. after   24 cycles

 The electronic state is 2-A.
 Alpha  occ. eigenvalues --  -38.44835 -38.44562 -38.44387 -38.43372 -38.43277
 Alpha  occ. eigenvalues --  -38.43161 -38.42758  -2.20624  -2.20468  -2.20258
 Alpha  occ. eigenvalues --   -2.19244  -2.19227  -2.18996  -2.18749  -1.14293
 Alpha  occ. eigenvalues --   -1.14266  -1.14244  -1.14193  -1.14110  -1.14093
 Alpha  occ. eigenvalues --   -1.13933  -1.13907  -1.13865  -1.12966  -1.12921
 Alpha  occ. eigenvalues --   -1.12901  -1.12880  -1.12878  -1.12819  -1.12689
 Alpha  occ. eigenvalues --   -1.12664  -1.12622  -1.12439  -1.12415  -1.12355
 Alpha  occ. eigenvalues --   -0.18819  -0.13999  -0.11372  -0.11099
 Alpha virt. eigenvalues --   -0.06626  -0.05023  -0.04566  -0.03087  -0.02617
 Alpha virt. eigenvalues --   -0.02356  -0.02214  -0.01082  -0.00870  -0.00001
 Alpha virt. eigenvalues --    0.00143   0.00260   0.00342   0.00647   0.00766

  Beta  occ. eigenvalues --  -38.44795 -38.44532 -38.44346 -38.43352 -38.43238
  Beta  occ. eigenvalues --  -38.43153 -38.42728  -2.20549  -2.20415  -2.20181
  Beta  occ. eigenvalues --   -2.19211  -2.19162  -2.18986  -2.18699  -1.14240
  Beta  occ. eigenvalues --   -1.14215  -1.14196  -1.14148  -1.14072  -1.14051
  Beta  occ. eigenvalues --   -1.13888  -1.13846  -1.13815  -1.12924  -1.12887
  Beta  occ. eigenvalues --   -1.12882  -1.12843  -1.12809  -1.12768  -1.12672
  Beta  occ. eigenvalues --   -1.12651  -1.12615  -1.12409  -1.12349  -1.12318
  Beta  occ. eigenvalues --   -0.18123  -0.13617  -0.10836
  Beta virt. eigenvalues --   -0.07613  -0.06318  -0.05006  -0.03963  -0.02938
  Beta virt. eigenvalues --   -0.02263  -0.01791  -0.01526  -0.00971  -0.00535
  Beta virt. eigenvalues --    0.00033   0.00201   0.00300   0.00457   0.00744

 Mulliken charges and spin densities:
               1          2
     1  Na   0.262850   0.047381
     2  Na   0.028082   0.032396
     3  Na  -0.313635  -0.061532
     4  Na  -0.044237   0.150503
     5  Na  -0.393864   0.390441
     6  Na   0.367116   0.238675
     7  Na   0.093689   0.202136
 Sum of Mulliken charges =  -0.00000   1.00000

 Dipole moment (field-independent basis, Debye):
    X=              0.1718    Y=             -0.2795    Z=              0.5439  Tot=              0.6352
 Quadrupole moment (field-independent basis, Debye-Ang):
   XX=            -48.8348   YY=            -76.1036   ZZ=            -68.0712
   XY=              1.0626   XZ=              1.2404   YZ=              1.7905

 Normal termination of Gaussian 16 at Tue Dec  5 17:01:44 2023.
