 Gaussian 16, Revision B.01,
 Gaussian 16:  ES64L-G16RevB.01 20-Dec-2017

 -------------------------
 #P B3LYP/6-311+g(d) force
 -------------------------

 -----
 DPGEN
 -----
 Symbolic Z-matrix:
 Charge =  0 Multiplicity = 2

                         Standard orientation:
 ---------------------------------------------------------------------
 Center     Atomic      Atomic             Coordinates (Angstroms)
 Number     Number       Type             X           Y           Z
 ---------------------------------------------------------------------
      1         11           0       -2.297121    2.157358   -0.885429
      2         11           0        2.616739   -0.775625    0.995421
      3         11           0       -3.349419   -1.415170   -1.626824
      4         11           0        3.766275   -1.799783   -1.811642
      5         11           0       -2.008272   -2.391836    1.346553
      6         11           0        0.033475    0.839640    2.501959
      7         11           0        1.238322    3.385417   -0.520038
 ---------------------------------------------------------------------

 SCF Done:  E(UB3LYP) =  -1136.10954765     A.U. after   20 cycles

 The electronic state is 2-A.
 Alpha  occ. eigenvalues --  -38.45017 -38.44654 -38.44596 -38.44578 -38.44333
 Alpha  occ. eigenvalues --  -38.44188 -38.43597  -2.20817  -2.20408  -2.20328
 Alpha  occ. eigenvalues --   -2.20322  -2.20137  -2.19964  -2.19398  -1.14488
 Alpha  occ. eigenvalues --   -1.14466  -1.14414  -1.14088  -1.14070  -1.14045
 Alpha  occ. eigenvalues --   -1.14018  -1.14007  -1.13993  -1.13981  -1.13963
 Alpha  occ. eigenvalues --   -1.13924  -1.13781  -1.13771  -1.13770  -1.13632
 Alpha  occ. eigenvalues --   -1.13613  -1.13602  -1.13079  -1.13066  -1.13062
 Alpha  occ. eigenvalues --   -0.16092  -0.13222  -0.11925  -0.11552
 Alpha virt. eigenvalues --   -0.06406  -0.05899  -0.04619  -0.03505  -0.03121
 Alpha virt. eigenvalues --   -0.02792  -0.01635  -0.01245  -0.01028  -0.00862
 Alpha virt. eigenvalues --   -0.00640  -0.00352   0.00136   0.00395   0.00570

  Beta  occ. eigenvalues --  -38.44938 -38.44645 -38.44595 -38.44555 -38.44256
  Beta  occ. eigenvalues --  -38.44169 -38.43603  -2.20671  -2.20391  -2.20324
  Beta  occ. eigenvalues --   -2.20282  -2.19994  -2.19929  -2.19418  -1.14393
  Beta  occ. eigenvalues --   -1.14368  -1.14304  -1.14077  -1.14059  -1.14024
  Beta  occ. eigenvalues --   -1.14005  -1.13987  -1.13978  -1.13969  -1.13959
  Beta  occ. eigenvalues --   -1.13894  -1.13688  -1.13674  -1.13673  -1.13608
  Beta  occ. eigenvalues --   -1.13585  -1.13581  -1.13095  -1.13083  -1.13030
  Beta  occ. eigenvalues --   -0.15428  -0.12705  -0.11671
  Beta virt. eigenvalues --   -0.08210  -0.06139  -0.05401  -0.04129  -0.03373
  Beta virt. eigenvalues --   -0.02832  -0.02385  -0.01503  -0.01045  -0.00744
  Beta virt. eigenvalues --   -0.00604  -0.00407  -0.00115   0.00207   0.00557

 Mulliken charges and spin densities:
               1          2
     1  Na  -0.402830   0.189458
     2  Na  -0.652586  -0.036720
     3  Na   0.207214   0.091818
     4  Na   0.214417   0.331196
     5  Na  -0.318787   0.012176
     6  Na   1.056355   0.387467
     7  Na  -0.103783   0.024605
 Sum of Mulliken charges =  -0.00000   1.00000

 Dipole moment (field-independent basis, Debye):
    X=             -0.2657    Y=              0.1748    Z=             -0.3931  Tot=              0.5056
 Quadrupole moment (field-independent basis, Debye-Ang):
   XX=            -68.8029   YY=            -68.8821   ZZ=            -62.4685
   XY=              3.7321   XZ=             -2.5541   YZ=              1.8982

 Normal termination of Gaussian 16 at Sun Dec  3 14:10:00 2023.
