 Gaussian 16, Revision B.01,
 Gaussian 16:  ES64L-G16RevB.01 20-Dec-2017

 -------------------------
 #P B3LYP/6-311+g(d) force
 -------------------------

 -----
 DPGEN
 -----
 Symbolic Z-matrix:
 Charge =  0 Multiplicity = 2

                         Standard orientation:
 ---------------------------------------------------------------------
 Center     Atomic      Atomic             Coordinates (Angstroms)
 Number     Number       Type             X           Y           Z
 ---------------------------------------------------------------------
      1         11           0        2.859035   -1.545908   -0.140559
      2         11           0       -0.640666   -2.836891   -0.537936
      3         11           0        2.294299    2.255686    0.153843
      4         11           0       -0.959574    2.669950   -0.150640
      5         11           0       -0.179344    0.147286   -1.607806
      6         11           0       -3.330863    0.004282    0.191826
      7         11           0       -0.042888   -0.694405    2.091271
 ---------------------------------------------------------------------

 SCF Done:  E(UB3LYP) =  -1136.13446780     A.U. after   19 cycles

 The electronic state is 2-A.
 Alpha  occ. eigenvalues --  -38.44225 -38.44145 -38.43765 -38.43731 -38.43704
 Alpha  occ. eigenvalues --  -38.43411 -38.43231  -2.20006  -2.19939  -2.19616
 Alpha  occ. eigenvalues --   -2.19558  -2.19539  -2.19298  -2.19208  -1.13684
 Alpha  occ. eigenvalues --   -1.13665  -1.13646  -1.13610  -1.13597  -1.13584
 Alpha  occ. eigenvalues --   -1.13331  -1.13293  -1.13224  -1.13224  -1.13214
 Alpha  occ. eigenvalues --   -1.13207  -1.13187  -1.13182  -1.13166  -1.13097
 Alpha  occ. eigenvalues --   -1.12948  -1.12901  -1.12870  -1.12821  -1.12801
 Alpha  occ. eigenvalues --   -0.18290  -0.12754  -0.12574  -0.10588
 Alpha virt. eigenvalues --   -0.05845  -0.05265  -0.04778  -0.03090  -0.02950
 Alpha virt. eigenvalues --   -0.02497  -0.01676  -0.01218  -0.00557  -0.00390
 Alpha virt. eigenvalues --   -0.00024   0.00341   0.00753   0.00825   0.00866

  Beta  occ. eigenvalues --  -38.44224 -38.44142 -38.43748 -38.43731 -38.43615
  Beta  occ. eigenvalues --  -38.43406 -38.43168  -2.20007  -2.19936  -2.19588
  Beta  occ. eigenvalues --   -2.19541  -2.19391  -2.19291  -2.19094  -1.13671
  Beta  occ. eigenvalues --   -1.13664  -1.13648  -1.13599  -1.13588  -1.13582
  Beta  occ. eigenvalues --   -1.13305  -1.13244  -1.13224  -1.13208  -1.13198
  Beta  occ. eigenvalues --   -1.13183  -1.13107  -1.13077  -1.13068  -1.13046
  Beta  occ. eigenvalues --   -1.12928  -1.12899  -1.12796  -1.12746  -1.12724
  Beta  occ. eigenvalues --   -0.17588  -0.12519  -0.12393
  Beta virt. eigenvalues --   -0.06693  -0.05818  -0.05214  -0.04704  -0.02336
  Beta virt. eigenvalues --   -0.02265  -0.01573  -0.01447  -0.01141  -0.00604
  Beta virt. eigenvalues --   -0.00418   0.00132   0.00373   0.00779   0.00854

 Mulliken charges and spin densities:
               1          2
     1  Na   0.053167  -0.058837
     2  Na   0.236654  -0.059930
     3  Na  -0.074383  -0.051292
     4  Na   0.205957  -0.006071
     5  Na   0.019413   0.373714
     6  Na   0.124107  -0.011916
     7  Na  -0.564915   0.814331
 Sum of Mulliken charges =  -0.00000   1.00000

 Dipole moment (field-independent basis, Debye):
    X=              0.0229    Y=             -0.2783    Z=              0.1584  Tot=              0.3211
 Quadrupole moment (field-independent basis, Debye-Ang):
   XX=            -55.5029   YY=            -62.3718   ZZ=            -75.2225
   XY=             -0.0073   XZ=             -0.3190   YZ=              1.6906

 Normal termination of Gaussian 16 at Thu Dec  7 16:37:09 2023.
