 Gaussian 16, Revision B.01,
 Gaussian 16:  ES64L-G16RevB.01 20-Dec-2017

 -------------------------
 #P B3LYP/6-311+g(d) force
 -------------------------

 -----
 DPGEN
 -----
 Symbolic Z-matrix:
 Charge =  0 Multiplicity = 2

                         Standard orientation:
 ---------------------------------------------------------------------
 Center     Atomic      Atomic             Coordinates (Angstroms)
 Number     Number       Type             X           Y           Z
 ---------------------------------------------------------------------
      1         11           0        2.872211    0.507956    0.004918
      2         11           0        0.165640   -0.167797   -1.671312
      3         11           0        1.493433   -2.422580    0.134173
      4         11           0       -1.874888   -2.034254   -0.098128
      5         11           0       -0.304701    0.274942    2.015448
      6         11           0       -2.624716    0.894595   -0.206231
      7         11           0        0.273021    2.947138   -0.178868
 ---------------------------------------------------------------------

 SCF Done:  E(UB3LYP) =  -1136.13760704     A.U. after   19 cycles

 The electronic state is 2-A.
 Alpha  occ. eigenvalues --  -38.43656 -38.43554 -38.43499 -38.43406 -38.43328
 Alpha  occ. eigenvalues --  -38.43292 -38.43129  -2.19534  -2.19487  -2.19437
 Alpha  occ. eigenvalues --   -2.19259  -2.19237  -2.19231  -2.19174  -1.13241
 Alpha  occ. eigenvalues --   -1.13221  -1.13202  -1.13171  -1.13154  -1.13129
 Alpha  occ. eigenvalues --   -1.13110  -1.13089  -1.13053  -1.12991  -1.12938
 Alpha  occ. eigenvalues --   -1.12922  -1.12920  -1.12893  -1.12890  -1.12878
 Alpha  occ. eigenvalues --   -1.12864  -1.12827  -1.12823  -1.12781  -1.12764
 Alpha  occ. eigenvalues --   -0.19360  -0.13150  -0.12728  -0.11047
 Alpha virt. eigenvalues --   -0.05228  -0.04833  -0.04826  -0.03262  -0.03037
 Alpha virt. eigenvalues --   -0.02632  -0.01149  -0.01064  -0.00080  -0.00017
 Alpha virt. eigenvalues --    0.00010   0.00378   0.00909   0.00946   0.00971

  Beta  occ. eigenvalues --  -38.43653 -38.43489 -38.43462 -38.43402 -38.43322
  Beta  occ. eigenvalues --  -38.43284 -38.43059  -2.19530  -2.19424  -2.19317
  Beta  occ. eigenvalues --   -2.19254  -2.19226  -2.19224  -2.19047  -1.13237
  Beta  occ. eigenvalues --   -1.13198  -1.13181  -1.13167  -1.13102  -1.13064
  Beta  occ. eigenvalues --   -1.13029  -1.12993  -1.12973  -1.12963  -1.12925
  Beta  occ. eigenvalues --   -1.12905  -1.12897  -1.12892  -1.12875  -1.12854
  Beta  occ. eigenvalues --   -1.12837  -1.12823  -1.12747  -1.12695  -1.12682
  Beta  occ. eigenvalues --   -0.18595  -0.12884  -0.12476
  Beta virt. eigenvalues --   -0.07068  -0.05226  -0.04834  -0.04783  -0.02418
  Beta virt. eigenvalues --   -0.02223  -0.01552  -0.01073  -0.01001  -0.00132
  Beta virt. eigenvalues --   -0.00054   0.00127   0.00393   0.00932   0.00946

 Mulliken charges and spin densities:
               1          2
     1  Na   0.128439  -0.067455
     2  Na  -0.484693   0.443943
     3  Na   0.198146  -0.001395
     4  Na   0.344351   0.020648
     5  Na  -0.713390   0.716707
     6  Na   0.392855  -0.014963
     7  Na   0.134292  -0.097485
 Sum of Mulliken charges =  -0.00000   1.00000

 Dipole moment (field-independent basis, Debye):
    X=              0.1534    Y=              0.1699    Z=              0.1987  Tot=              0.3031
 Quadrupole moment (field-independent basis, Debye-Ang):
   XX=            -60.3551   YY=            -61.4443   ZZ=            -72.6944
   XY=              0.1062   XZ=              0.9716   YZ=             -0.9977

 Normal termination of Gaussian 16 at Thu Dec  7 07:34:44 2023.
