 Gaussian 16, Revision B.01,
 Gaussian 16:  ES64L-G16RevB.01 20-Dec-2017

 -------------------------
 #P B3LYP/6-311+g(d) force
 -------------------------

 -----
 DPGEN
 -----
 Symbolic Z-matrix:
 Charge =  0 Multiplicity = 2

                         Standard orientation:
 ---------------------------------------------------------------------
 Center     Atomic      Atomic             Coordinates (Angstroms)
 Number     Number       Type             X           Y           Z
 ---------------------------------------------------------------------
      1         11           0        3.620404   -2.044863    0.299436
      2         11           0        0.662768    2.612471    0.570849
      3         11           0       -3.452217   -2.126064   -0.455909
      4         11           0        2.948967    0.795788   -0.778745
      5         11           0       -1.831499    1.269932   -1.582213
      6         11           0        0.246967   -1.147408    0.260348
      7         11           0       -2.195391    0.640144    1.686234
 ---------------------------------------------------------------------

 SCF Done:  E(UB3LYP) =  -1136.12409718     A.U. after   22 cycles

 The electronic state is 2-A.
 Alpha  occ. eigenvalues --  -38.44392 -38.44311 -38.44291 -38.44147 -38.44087
 Alpha  occ. eigenvalues --  -38.43720 -38.42971  -2.20194  -2.20162  -2.20136
 Alpha  occ. eigenvalues --   -2.19973  -2.19963  -2.19617  -2.18830  -1.13876
 Alpha  occ. eigenvalues --   -1.13872  -1.13859  -1.13839  -1.13828  -1.13821
 Alpha  occ. eigenvalues --   -1.13811  -1.13786  -1.13721  -1.13680  -1.13651
 Alpha  occ. eigenvalues --   -1.13629  -1.13622  -1.13605  -1.13556  -1.13293
 Alpha  occ. eigenvalues --   -1.13271  -1.13205  -1.12520  -1.12480  -1.12477
 Alpha  occ. eigenvalues --   -0.18011  -0.14180  -0.11809  -0.10090
 Alpha virt. eigenvalues --   -0.06512  -0.06175  -0.04448  -0.03231  -0.02528
 Alpha virt. eigenvalues --   -0.02404  -0.02045  -0.01559  -0.00948  -0.00330
 Alpha virt. eigenvalues --   -0.00097   0.00169   0.00297   0.00500   0.00656

  Beta  occ. eigenvalues --  -38.44377 -38.44300 -38.44238 -38.44150 -38.44067
  Beta  occ. eigenvalues --  -38.43653 -38.42965  -2.20174  -2.20136  -2.20038
  Beta  occ. eigenvalues --   -2.19979  -2.19931  -2.19495  -2.18825  -1.13864
  Beta  occ. eigenvalues --   -1.13861  -1.13841  -1.13822  -1.13789  -1.13773
  Beta  occ. eigenvalues --   -1.13757  -1.13740  -1.13647  -1.13642  -1.13629
  Beta  occ. eigenvalues --   -1.13624  -1.13614  -1.13603  -1.13543  -1.13202
  Beta  occ. eigenvalues --   -1.13186  -1.13115  -1.12520  -1.12478  -1.12443
  Beta  occ. eigenvalues --   -0.17425  -0.13955  -0.11617
  Beta virt. eigenvalues --   -0.06572  -0.06105  -0.05968  -0.04241  -0.02906
  Beta virt. eigenvalues --   -0.02364  -0.01947  -0.01605  -0.01078  -0.00789
  Beta virt. eigenvalues --   -0.00062   0.00072   0.00245   0.00423   0.00582

 Mulliken charges and spin densities:
               1          2
     1  Na   0.156734  -0.012293
     2  Na   0.316752   0.167178
     3  Na   0.365983   0.048994
     4  Na   0.051552  -0.009030
     5  Na  -0.249329   0.416610
     6  Na  -1.169222   0.214813
     7  Na   0.527531   0.173728
 Sum of Mulliken charges =  -0.00000   1.00000

 Dipole moment (field-independent basis, Debye):
    X=              0.2757    Y=             -0.4016    Z=              0.1228  Tot=              0.5024
 Quadrupole moment (field-independent basis, Debye-Ang):
   XX=            -53.0061   YY=            -65.8519   ZZ=            -74.6120
   XY=              0.3287   XZ=             -0.7698   YZ=              0.3418

 Normal termination of Gaussian 16 at Thu Dec  7 17:51:16 2023.
