 Gaussian 16, Revision B.01,
 Gaussian 16:  ES64L-G16RevB.01 20-Dec-2017

 -------------------------
 #P B3LYP/6-311+g(d) force
 -------------------------

 -----
 DPGEN
 -----
 Symbolic Z-matrix:
 Charge =  0 Multiplicity = 2

                         Standard orientation:
 ---------------------------------------------------------------------
 Center     Atomic      Atomic             Coordinates (Angstroms)
 Number     Number       Type             X           Y           Z
 ---------------------------------------------------------------------
      1         11           0       -0.577428    2.932679    0.274699
      2         11           0        0.148422    0.062227   -1.722743
      3         11           0       -3.388231    0.039243   -0.019495
      4         11           0        2.766895   -1.614117    0.237035
      5         11           0       -1.315471   -2.412316   -0.268983
      6         11           0        0.008036   -0.327830    1.786106
      7         11           0        2.357778    1.320114   -0.286619
 ---------------------------------------------------------------------

 SCF Done:  E(UB3LYP) =  -1136.13010060     A.U. after   20 cycles

 The electronic state is 2-A.
 Alpha  occ. eigenvalues --  -38.44833 -38.43873 -38.43608 -38.43431 -38.43415
 Alpha  occ. eigenvalues --  -38.43357 -38.42960  -2.20632  -2.19746  -2.19588
 Alpha  occ. eigenvalues --   -2.19414  -2.19334  -2.19310  -2.18791  -1.14302
 Alpha  occ. eigenvalues --   -1.14299  -1.14270  -1.13518  -1.13413  -1.13398
 Alpha  occ. eigenvalues --   -1.13365  -1.13222  -1.13168  -1.13131  -1.13055
 Alpha  occ. eigenvalues --   -1.13041  -1.12997  -1.12976  -1.12967  -1.12947
 Alpha  occ. eigenvalues --   -1.12915  -1.12911  -1.12462  -1.12453  -1.12435
 Alpha  occ. eigenvalues --   -0.19011  -0.13536  -0.12164  -0.10724
 Alpha virt. eigenvalues --   -0.06178  -0.04826  -0.04464  -0.03404  -0.02686
 Alpha virt. eigenvalues --   -0.02356  -0.01934  -0.00993  -0.00245  -0.00164
 Alpha virt. eigenvalues --    0.00013   0.00327   0.00757   0.00882   0.00905

  Beta  occ. eigenvalues --  -38.44834 -38.43867 -38.43594 -38.43419 -38.43336
  Beta  occ. eigenvalues --  -38.43277 -38.42956  -2.20637  -2.19739  -2.19568
  Beta  occ. eigenvalues --   -2.19318  -2.19272  -2.19166  -2.18787  -1.14306
  Beta  occ. eigenvalues --   -1.14289  -1.14273  -1.13514  -1.13386  -1.13368
  Beta  occ. eigenvalues --   -1.13344  -1.13179  -1.13162  -1.13078  -1.12992
  Beta  occ. eigenvalues --   -1.12966  -1.12942  -1.12901  -1.12893  -1.12883
  Beta  occ. eigenvalues --   -1.12827  -1.12804  -1.12456  -1.12442  -1.12428
  Beta  occ. eigenvalues --   -0.18271  -0.13289  -0.11913
  Beta virt. eigenvalues --   -0.06797  -0.06138  -0.04806  -0.04435  -0.02586
  Beta virt. eigenvalues --   -0.01950  -0.01844  -0.01323  -0.00927  -0.00282
  Beta virt. eigenvalues --   -0.00174   0.00138   0.00350   0.00792   0.00916

 Mulliken charges and spin densities:
               1          2
     1  Na  -0.169714  -0.103770
     2  Na  -0.143690   0.459607
     3  Na  -0.106274  -0.102685
     4  Na   0.236380  -0.054468
     5  Na   0.223789  -0.080527
     6  Na  -0.440712   0.761108
     7  Na   0.400221   0.120735
 Sum of Mulliken charges =  -0.00000   1.00000

 Dipole moment (field-independent basis, Debye):
    X=             -0.5773    Y=             -0.2116    Z=              0.1046  Tot=              0.6237
 Quadrupole moment (field-independent basis, Debye-Ang):
   XX=            -52.7874   YY=            -65.3581   ZZ=            -74.8289
   XY=             -2.0497   XZ=              0.1870   YZ=              0.7059

 Normal termination of Gaussian 16 at Thu Dec  7 04:25:30 2023.
