 Gaussian 16, Revision B.01,
 Gaussian 16:  ES64L-G16RevB.01 20-Dec-2017

 -------------------------
 #P B3LYP/6-311+g(d) force
 -------------------------

 -----
 DPGEN
 -----
 Symbolic Z-matrix:
 Charge =  0 Multiplicity = 2

                         Standard orientation:
 ---------------------------------------------------------------------
 Center     Atomic      Atomic             Coordinates (Angstroms)
 Number     Number       Type             X           Y           Z
 ---------------------------------------------------------------------
      1         11           0        2.395579   -1.978848    0.230583
      2         11           0        2.260080    1.943757    0.376822
      3         11           0        0.891868    0.086905   -1.986814
      4         11           0       -1.142711    2.385206   -0.546324
      5         11           0       -0.943735   -2.182698   -0.526495
      6         11           0       -3.275658   -0.287516    0.096599
      7         11           0       -0.185423    0.033194    2.355630
 ---------------------------------------------------------------------

 SCF Done:  E(UB3LYP) =  -1136.13523834     A.U. after   19 cycles

 The electronic state is 2-A.
 Alpha  occ. eigenvalues --  -38.44655 -38.43850 -38.43759 -38.43689 -38.43593
 Alpha  occ. eigenvalues --  -38.43324 -38.43032  -2.20489  -2.19787  -2.19604
 Alpha  occ. eigenvalues --   -2.19525  -2.19423  -2.19170  -2.18945  -1.14142
 Alpha  occ. eigenvalues --   -1.14119  -1.14108  -1.13469  -1.13445  -1.13406
 Alpha  occ. eigenvalues --   -1.13314  -1.13252  -1.13244  -1.13197  -1.13189
 Alpha  occ. eigenvalues --   -1.13156  -1.13089  -1.13085  -1.13066  -1.12862
 Alpha  occ. eigenvalues --   -1.12832  -1.12788  -1.12636  -1.12602  -1.12567
 Alpha  occ. eigenvalues --   -0.18558  -0.12909  -0.12150  -0.11645
 Alpha virt. eigenvalues --   -0.05459  -0.05153  -0.04163  -0.03568  -0.03346
 Alpha virt. eigenvalues --   -0.03203  -0.01334  -0.00953  -0.00257   0.00014
 Alpha virt. eigenvalues --    0.00163   0.00392   0.00734   0.00747   0.00911

  Beta  occ. eigenvalues --  -38.44555 -38.43782 -38.43761 -38.43684 -38.43591
  Beta  occ. eigenvalues --  -38.43313 -38.43020  -2.20306  -2.19663  -2.19609
  Beta  occ. eigenvalues --   -2.19518  -2.19422  -2.19153  -2.18927  -1.14022
  Beta  occ. eigenvalues --   -1.13990  -1.13974  -1.13388  -1.13363  -1.13320
  Beta  occ. eigenvalues --   -1.13314  -1.13252  -1.13240  -1.13184  -1.13170
  Beta  occ. eigenvalues --   -1.13149  -1.13086  -1.13077  -1.13058  -1.12842
  Beta  occ. eigenvalues --   -1.12808  -1.12780  -1.12618  -1.12568  -1.12560
  Beta  occ. eigenvalues --   -0.17769  -0.12755  -0.11930
  Beta virt. eigenvalues --   -0.07655  -0.05302  -0.05122  -0.04012  -0.02918
  Beta virt. eigenvalues --   -0.02453  -0.02290  -0.01257  -0.00896  -0.00112
  Beta virt. eigenvalues --    0.00049   0.00142   0.00423   0.00861   0.00907

 Mulliken charges and spin densities:
               1          2
     1  Na   0.188557  -0.025035
     2  Na   0.109492  -0.011561
     3  Na   0.097190   0.334899
     4  Na  -0.014596   0.006727
     5  Na  -0.024442   0.066439
     6  Na   0.197029  -0.062065
     7  Na  -0.553230   0.690596
 Sum of Mulliken charges =  -0.00000   1.00000

 Dipole moment (field-independent basis, Debye):
    X=              0.2227    Y=              0.1580    Z=              0.3921  Tot=              0.4778
 Quadrupole moment (field-independent basis, Debye-Ang):
   XX=            -58.6633   YY=            -69.5533   ZZ=            -68.0170
   XY=             -0.7167   XZ=              1.3230   YZ=             -0.3294

 Normal termination of Gaussian 16 at Thu Dec  7 09:35:32 2023.
