 Gaussian 16, Revision B.01,
 Gaussian 16:  ES64L-G16RevB.01 20-Dec-2017

 -------------------------
 #P B3LYP/6-311+g(d) force
 -------------------------

 -----
 DPGEN
 -----
 Symbolic Z-matrix:
 Charge =  0 Multiplicity = 2

                         Standard orientation:
 ---------------------------------------------------------------------
 Center     Atomic      Atomic             Coordinates (Angstroms)
 Number     Number       Type             X           Y           Z
 ---------------------------------------------------------------------
      1         11           0        1.772518   -2.329287   -1.371485
      2         11           0       -0.664532   -1.497056    1.038875
      3         11           0       -3.393153   -1.841643   -0.308561
      4         11           0        2.603752   -0.287786    2.030570
      5         11           0       -3.377441    1.858851   -0.144831
      6         11           0        2.859972    1.164020   -1.298108
      7         11           0        0.198884    2.932901    0.053539
 ---------------------------------------------------------------------

 SCF Done:  E(UB3LYP) =  -1136.11747081     A.U. after   21 cycles

 The electronic state is 2-A.
 Alpha  occ. eigenvalues --  -38.44859 -38.44755 -38.44481 -38.44417 -38.44327
 Alpha  occ. eigenvalues --  -38.43823 -38.43781  -2.20596  -2.20557  -2.20273
 Alpha  occ. eigenvalues --   -2.20224  -2.20141  -2.19631  -2.19581  -1.14286
 Alpha  occ. eigenvalues --   -1.14269  -1.14258  -1.14235  -1.14211  -1.14172
 Alpha  occ. eigenvalues --   -1.13942  -1.13915  -1.13909  -1.13902  -1.13876
 Alpha  occ. eigenvalues --   -1.13851  -1.13802  -1.13772  -1.13760  -1.13310
 Alpha  occ. eigenvalues --   -1.13295  -1.13269  -1.13266  -1.13256  -1.13210
 Alpha  occ. eigenvalues --   -0.16954  -0.13679  -0.12041  -0.10610
 Alpha virt. eigenvalues --   -0.06862  -0.06382  -0.04182  -0.03431  -0.02896
 Alpha virt. eigenvalues --   -0.02389  -0.02004  -0.01657  -0.01304  -0.00567
 Alpha virt. eigenvalues --   -0.00459   0.00042   0.00302   0.00373   0.00604

  Beta  occ. eigenvalues --  -38.44867 -38.44756 -38.44428 -38.44382 -38.44246
  Beta  occ. eigenvalues --  -38.43821 -38.43764  -2.20611  -2.20559  -2.20175
  Beta  occ. eigenvalues --   -2.20161  -2.19992  -2.19602  -2.19579  -1.14294
  Beta  occ. eigenvalues --   -1.14273  -1.14267  -1.14246  -1.14210  -1.14174
  Beta  occ. eigenvalues --   -1.13877  -1.13858  -1.13849  -1.13836  -1.13828
  Beta  occ. eigenvalues --   -1.13793  -1.13689  -1.13668  -1.13662  -1.13290
  Beta  occ. eigenvalues --   -1.13264  -1.13262  -1.13248  -1.13245  -1.13212
  Beta  occ. eigenvalues --   -0.16385  -0.13456  -0.11955
  Beta virt. eigenvalues --   -0.06764  -0.06655  -0.06206  -0.03850  -0.03227
  Beta virt. eigenvalues --   -0.02438  -0.01941  -0.01533  -0.01468  -0.01105
  Beta virt. eigenvalues --   -0.00422  -0.00134   0.00152   0.00411   0.00547

 Mulliken charges and spin densities:
               1          2
     1  Na  -0.180242   0.237085
     2  Na  -0.692239   0.320462
     3  Na   0.640648  -0.011690
     4  Na   0.380798   0.251017
     5  Na  -0.092077  -0.080616
     6  Na   0.138193   0.272373
     7  Na  -0.195082   0.011369
 Sum of Mulliken charges =  -0.00000   1.00000

 Dipole moment (field-independent basis, Debye):
    X=             -0.6364    Y=             -0.3273    Z=             -0.3503  Tot=              0.7968
 Quadrupole moment (field-independent basis, Debye-Ang):
   XX=            -53.3106   YY=            -68.8900   ZZ=            -74.2494
   XY=              1.4261   XZ=              2.4058   YZ=              2.0677

 Normal termination of Gaussian 16 at Sun Dec  3 14:09:20 2023.
