 Gaussian 16, Revision B.01,
 Gaussian 16:  ES64L-G16RevB.01 20-Dec-2017

 -------------------------
 #P B3LYP/6-311+g(d) force
 -------------------------

 -----
 DPGEN
 -----
 Symbolic Z-matrix:
 Charge =  0 Multiplicity = 2

                         Standard orientation:
 ---------------------------------------------------------------------
 Center     Atomic      Atomic             Coordinates (Angstroms)
 Number     Number       Type             X           Y           Z
 ---------------------------------------------------------------------
      1         11           0        2.828023   -0.847009    1.613652
      2         11           0        2.751854    1.008362   -1.149517
      3         11           0        0.356144    3.288902    0.198874
      4         11           0        0.740465   -3.236091   -0.859779
      5         11           0       -0.214901   -0.213459   -0.037428
      6         11           0       -3.037893    2.066103   -0.105117
      7         11           0       -3.423692   -2.066808    0.339315
 ---------------------------------------------------------------------

 SCF Done:  E(UB3LYP) =  -1136.11873331     A.U. after   26 cycles

 The electronic state is 2-A.
 Alpha  occ. eigenvalues --  -38.45050 -38.44945 -38.44498 -38.43937 -38.43919
 Alpha  occ. eigenvalues --  -38.43260 -38.43192  -2.20776  -2.20769  -2.20262
 Alpha  occ. eigenvalues --   -2.19743  -2.19726  -2.19134  -2.19120  -1.14461
 Alpha  occ. eigenvalues --   -1.14451  -1.14435  -1.14423  -1.14414  -1.14404
 Alpha  occ. eigenvalues --   -1.13949  -1.13929  -1.13885  -1.13410  -1.13403
 Alpha  occ. eigenvalues --   -1.13392  -1.13383  -1.13359  -1.13357  -1.12869
 Alpha  occ. eigenvalues --   -1.12793  -1.12775  -1.12768  -1.12753  -1.12723
 Alpha  occ. eigenvalues --   -0.17316  -0.13228  -0.12706  -0.09377
 Alpha virt. eigenvalues --   -0.06895  -0.05702  -0.05358  -0.02798  -0.02472
 Alpha virt. eigenvalues --   -0.02174  -0.01800  -0.01704  -0.01407  -0.01099
 Alpha virt. eigenvalues --   -0.00071   0.00223   0.00266   0.00505   0.00619

  Beta  occ. eigenvalues --  -38.45046 -38.44939 -38.44494 -38.43909 -38.43878
  Beta  occ. eigenvalues --  -38.43188 -38.43169  -2.20771  -2.20764  -2.20257
  Beta  occ. eigenvalues --   -2.19709  -2.19633  -2.19127  -2.18951  -1.14459
  Beta  occ. eigenvalues --   -1.14448  -1.14421  -1.14420  -1.14400  -1.14383
  Beta  occ. eigenvalues --   -1.13945  -1.13926  -1.13875  -1.13390  -1.13366
  Beta  occ. eigenvalues --   -1.13350  -1.13334  -1.13313  -1.13285  -1.12839
  Beta  occ. eigenvalues --   -1.12782  -1.12771  -1.12658  -1.12641  -1.12613
  Beta  occ. eigenvalues --   -0.16927  -0.12827  -0.12329
  Beta virt. eigenvalues --   -0.06771  -0.05989  -0.05495  -0.05077  -0.02382
  Beta virt. eigenvalues --   -0.02127  -0.02020  -0.01628  -0.01455  -0.01214
  Beta virt. eigenvalues --   -0.00602   0.00170   0.00354   0.00421   0.00596

 Mulliken charges and spin densities:
               1          2
     1  Na   0.408763   0.366899
     2  Na   1.498182   0.062551
     3  Na   0.710540   0.044668
     4  Na   0.967276   0.235736
     5  Na  -3.454732   0.163995
     6  Na  -0.048383  -0.012551
     7  Na  -0.081647   0.138700
 Sum of Mulliken charges =  -0.00000   1.00000

 Dipole moment (field-independent basis, Debye):
    X=             -0.5429    Y=              0.3764    Z=             -0.6037  Tot=              0.8949
 Quadrupole moment (field-independent basis, Debye-Ang):
   XX=            -61.3878   YY=            -59.6579   ZZ=            -73.7908
   XY=              2.2698   XZ=             -5.4710   YZ=             -0.8180

 Normal termination of Gaussian 16 at Tue Dec  5 17:17:42 2023.
