 Gaussian 16, Revision B.01,
 Gaussian 16:  ES64L-G16RevB.01 20-Dec-2017

 -------------------------
 #P B3LYP/6-311+g(d) force
 -------------------------

 -----
 DPGEN
 -----
 Symbolic Z-matrix:
 Charge =  0 Multiplicity = 2

                         Standard orientation:
 ---------------------------------------------------------------------
 Center     Atomic      Atomic             Coordinates (Angstroms)
 Number     Number       Type             X           Y           Z
 ---------------------------------------------------------------------
      1         11           0       -1.626660    2.276858    0.429301
      2         11           0        1.662528    2.249682   -0.398922
      3         11           0        0.326751   -0.082876    1.821999
      4         11           0       -0.516798   -2.662353    0.070372
      5         11           0       -0.133925   -0.099786   -1.788594
      6         11           0       -3.054070   -0.659963   -0.158126
      7         11           0        3.342173   -1.021563    0.023970
 ---------------------------------------------------------------------

 SCF Done:  E(UB3LYP) =  -1136.13551106     A.U. after   20 cycles

 The electronic state is 2-A.
 Alpha  occ. eigenvalues --  -38.44560 -38.44027 -38.43424 -38.43370 -38.43350
 Alpha  occ. eigenvalues --  -38.43252 -38.43025  -2.20329  -2.19902  -2.19343
 Alpha  occ. eigenvalues --   -2.19302  -2.19299  -2.19153  -2.18917  -1.14007
 Alpha  occ. eigenvalues --   -1.13984  -1.13968  -1.13577  -1.13563  -1.13556
 Alpha  occ. eigenvalues --   -1.13066  -1.13053  -1.12992  -1.12987  -1.12963
 Alpha  occ. eigenvalues --   -1.12938  -1.12933  -1.12918  -1.12904  -1.12817
 Alpha  occ. eigenvalues --   -1.12809  -1.12758  -1.12590  -1.12570  -1.12555
 Alpha  occ. eigenvalues --   -0.18932  -0.13156  -0.12343  -0.10823
 Alpha virt. eigenvalues --   -0.06079  -0.04943  -0.04293  -0.03257  -0.02872
 Alpha virt. eigenvalues --   -0.02502  -0.01882  -0.01011  -0.00223  -0.00127
 Alpha virt. eigenvalues --    0.00019   0.00329   0.00785   0.00885   0.00910

  Beta  occ. eigenvalues --  -38.44563 -38.44022 -38.43412 -38.43292 -38.43270
  Beta  occ. eigenvalues --  -38.43243 -38.43013  -2.20336  -2.19897  -2.19282
  Beta  occ. eigenvalues --   -2.19200  -2.19154  -2.19142  -2.18900  -1.14001
  Beta  occ. eigenvalues --   -1.13986  -1.13974  -1.13573  -1.13565  -1.13529
  Beta  occ. eigenvalues --   -1.13016  -1.12974  -1.12940  -1.12912  -1.12898
  Beta  occ. eigenvalues --   -1.12881  -1.12853  -1.12843  -1.12801  -1.12785
  Beta  occ. eigenvalues --   -1.12768  -1.12742  -1.12577  -1.12552  -1.12528
  Beta  occ. eigenvalues --   -0.18184  -0.12924  -0.12075
  Beta virt. eigenvalues --   -0.06891  -0.06046  -0.04921  -0.04282  -0.02486
  Beta virt. eigenvalues --   -0.02074  -0.01827  -0.01425  -0.00937  -0.00258
  Beta virt. eigenvalues --   -0.00128   0.00117   0.00349   0.00825   0.00913

 Mulliken charges and spin densities:
               1          2
     1  Na   0.172525   0.020929
     2  Na   0.089098  -0.012205
     3  Na  -0.338358   0.690400
     4  Na   0.164414  -0.147102
     5  Na  -0.262759   0.579000
     6  Na   0.200890   0.012085
     7  Na  -0.025811  -0.143108
 Sum of Mulliken charges =  -0.00000   1.00000

 Dipole moment (field-independent basis, Debye):
    X=              0.3664    Y=             -0.2168    Z=             -0.0272  Tot=              0.4266
 Quadrupole moment (field-independent basis, Debye-Ang):
   XX=            -53.0035   YY=            -65.6759   ZZ=            -74.0969
   XY=             -0.6051   XZ=             -0.8008   YZ=             -0.0181

 Normal termination of Gaussian 16 at Tue Dec  5 20:03:45 2023.
