 Gaussian 16, Revision B.01,
 Gaussian 16:  ES64L-G16RevB.01 20-Dec-2017

 -------------------------
 #P B3LYP/6-311+g(d) force
 -------------------------

 -----
 DPGEN
 -----
 Symbolic Z-matrix:
 Charge =  0 Multiplicity = 2

                         Standard orientation:
 ---------------------------------------------------------------------
 Center     Atomic      Atomic             Coordinates (Angstroms)
 Number     Number       Type             X           Y           Z
 ---------------------------------------------------------------------
      1         11           0       -0.923135   -2.422463   -0.444572
      2         11           0       -0.215585    3.028330    0.186153
      3         11           0        3.135726    1.079034   -0.521633
      4         11           0       -0.058865   -0.149961   -1.641940
      5         11           0       -3.417204    0.167003   -0.337140
      6         11           0        2.456356   -1.767331    0.790175
      7         11           0       -0.977293    0.065387    1.968958
 ---------------------------------------------------------------------

 SCF Done:  E(UB3LYP) =  -1136.12535393     A.U. after   20 cycles

 The electronic state is 2-A.
 Alpha  occ. eigenvalues --  -38.45084 -38.44237 -38.43774 -38.43722 -38.43669
 Alpha  occ. eigenvalues --  -38.43415 -38.43386  -2.20891  -2.20043  -2.19716
 Alpha  occ. eigenvalues --   -2.19602  -2.19561  -2.19356  -2.19170  -1.14575
 Alpha  occ. eigenvalues --   -1.14542  -1.14525  -1.13732  -1.13715  -1.13673
 Alpha  occ. eigenvalues --   -1.13658  -1.13349  -1.13294  -1.13267  -1.13256
 Alpha  occ. eigenvalues --   -1.13238  -1.13226  -1.13204  -1.13177  -1.12978
 Alpha  occ. eigenvalues --   -1.12977  -1.12916  -1.12853  -1.12841  -1.12798
 Alpha  occ. eigenvalues --   -0.18439  -0.13330  -0.11959  -0.10811
 Alpha virt. eigenvalues --   -0.06469  -0.04898  -0.04411  -0.03447  -0.02857
 Alpha virt. eigenvalues --   -0.02543  -0.02058  -0.00883  -0.00521  -0.00170
 Alpha virt. eigenvalues --   -0.00020   0.00319   0.00557   0.00802   0.00857

  Beta  occ. eigenvalues --  -38.45078 -38.44233 -38.43758 -38.43653 -38.43589
  Beta  occ. eigenvalues --  -38.43398 -38.43387  -2.20885  -2.20038  -2.19594
  Beta  occ. eigenvalues --   -2.19573  -2.19413  -2.19329  -2.19174  -1.14556
  Beta  occ. eigenvalues --   -1.14539  -1.14514  -1.13727  -1.13702  -1.13670
  Beta  occ. eigenvalues --   -1.13587  -1.13259  -1.13249  -1.13226  -1.13223
  Beta  occ. eigenvalues --   -1.13199  -1.13129  -1.13104  -1.13067  -1.12953
  Beta  occ. eigenvalues --   -1.12926  -1.12886  -1.12848  -1.12839  -1.12798
  Beta  occ. eigenvalues --   -0.17726  -0.13126  -0.11696
  Beta virt. eigenvalues --   -0.06971  -0.06410  -0.04715  -0.04357  -0.02831
  Beta virt. eigenvalues --   -0.02121  -0.01972  -0.01562  -0.00780  -0.00495
  Beta virt. eigenvalues --   -0.00150   0.00089   0.00354   0.00713   0.00825

 Mulliken charges and spin densities:
               1          2
     1  Na   0.313112   0.217899
     2  Na  -0.396625  -0.136068
     3  Na   0.104550  -0.004744
     4  Na   0.195639   0.229798
     5  Na   0.117424  -0.079422
     6  Na  -0.272431   0.105576
     7  Na  -0.061669   0.666960
 Sum of Mulliken charges =  -0.00000   1.00000

 Dipole moment (field-independent basis, Debye):
    X=             -0.5400    Y=              0.1393    Z=              0.0850  Tot=              0.5641
 Quadrupole moment (field-independent basis, Debye-Ang):
   XX=            -51.6674   YY=            -68.0523   ZZ=            -73.5643
   XY=             -0.1804   XZ=              1.5998   YZ=             -1.6010

 Normal termination of Gaussian 16 at Wed Dec  6 00:39:29 2023.
