 Gaussian 16, Revision B.01,
 Gaussian 16:  ES64L-G16RevB.01 20-Dec-2017

 -------------------------
 #P B3LYP/6-311+g(d) force
 -------------------------

 -----
 DPGEN
 -----
 Symbolic Z-matrix:
 Charge =  0 Multiplicity = 2

                         Standard orientation:
 ---------------------------------------------------------------------
 Center     Atomic      Atomic             Coordinates (Angstroms)
 Number     Number       Type             X           Y           Z
 ---------------------------------------------------------------------
      1         11           0       -1.413285   -2.471538    0.920039
      2         11           0        2.706191    2.457397    0.174685
      3         11           0        1.838465   -2.656735   -0.632307
      4         11           0       -0.160472    3.264880   -0.264224
      5         11           0       -3.423356    1.845305    0.211097
      6         11           0        4.836546   -0.988212    0.094995
      7         11           0       -4.384090   -1.451095   -0.504286
 ---------------------------------------------------------------------

 SCF Done:  E(UB3LYP) =  -1136.10926840     A.U. after   23 cycles

 The electronic state is 2-A.
 Alpha  occ. eigenvalues --  -38.45205 -38.45120 -38.45068 -38.44701 -38.44184
 Alpha  occ. eigenvalues --  -38.43785 -38.43496  -2.21000  -2.20892  -2.20845
 Alpha  occ. eigenvalues --   -2.20458  -2.19982  -2.19581  -2.19322  -1.14697
 Alpha  occ. eigenvalues --   -1.14663  -1.14622  -1.14570  -1.14554  -1.14531
 Alpha  occ. eigenvalues --   -1.14518  -1.14504  -1.14469  -1.14146  -1.14137
 Alpha  occ. eigenvalues --   -1.14090  -1.13646  -1.13639  -1.13597  -1.13231
 Alpha  occ. eigenvalues --   -1.13221  -1.13204  -1.13007  -1.12971  -1.12963
 Alpha  occ. eigenvalues --   -0.15727  -0.13926  -0.13219  -0.10648
 Alpha virt. eigenvalues --   -0.07635  -0.05073  -0.04335  -0.03595  -0.03173
 Alpha virt. eigenvalues --   -0.02723  -0.02183  -0.02005  -0.00886  -0.00729
 Alpha virt. eigenvalues --   -0.00461  -0.00134  -0.00006   0.00318   0.00618

  Beta  occ. eigenvalues --  -38.45179 -38.45088 -38.45066 -38.44691 -38.44127
  Beta  occ. eigenvalues --  -38.43712 -38.43482  -2.20956  -2.20844  -2.20833
  Beta  occ. eigenvalues --   -2.20446  -2.19877  -2.19444  -2.19300  -1.14655
  Beta  occ. eigenvalues --   -1.14637  -1.14579  -1.14532  -1.14520  -1.14519
  Beta  occ. eigenvalues --   -1.14504  -1.14491  -1.14442  -1.14144  -1.14133
  Beta  occ. eigenvalues --   -1.14040  -1.13578  -1.13568  -1.13518  -1.13137
  Beta  occ. eigenvalues --   -1.13128  -1.13117  -1.12980  -1.12958  -1.12948
  Beta  occ. eigenvalues --   -0.15270  -0.13283  -0.12569
  Beta virt. eigenvalues --   -0.07791  -0.07327  -0.04729  -0.03868  -0.03331
  Beta virt. eigenvalues --   -0.02740  -0.02546  -0.02006  -0.01823  -0.00808
  Beta virt. eigenvalues --   -0.00427  -0.00047   0.00042   0.00118   0.00340

 Mulliken charges and spin densities:
               1          2
     1  Na  -0.394281   0.222318
     2  Na  -0.164169   0.165313
     3  Na  -0.219909   0.070337
     4  Na   0.084726  -0.079427
     5  Na   0.048190   0.255288
     6  Na   0.307536   0.348426
     7  Na   0.337907   0.017745
 Sum of Mulliken charges =  -0.00000   1.00000

 Dipole moment (field-independent basis, Debye):
    X=             -1.1178    Y=             -0.0770    Z=             -0.0968  Tot=              1.1247
 Quadrupole moment (field-independent basis, Debye-Ang):
   XX=            -59.2241   YY=            -69.4932   ZZ=            -71.1437
   XY=              4.6873   XZ=              2.1232   YZ=              2.4439

 Normal termination of Gaussian 16 at Sun Dec  3 18:41:39 2023.
