 Gaussian 16, Revision B.01,
 Gaussian 16:  ES64L-G16RevB.01 20-Dec-2017

 -------------------------
 #P B3LYP/6-311+g(d) force
 -------------------------

 -----
 DPGEN
 -----
 Symbolic Z-matrix:
 Charge =  0 Multiplicity = 2

                         Standard orientation:
 ---------------------------------------------------------------------
 Center     Atomic      Atomic             Coordinates (Angstroms)
 Number     Number       Type             X           Y           Z
 ---------------------------------------------------------------------
      1         11           0        1.667811    1.454839    1.097687
      2         11           0        1.437385   -2.125123    0.623899
      3         11           0       -0.164128    0.019984   -1.398982
      4         11           0        3.691042   -0.005377   -1.359548
      5         11           0       -1.578560    2.516665    0.234606
      6         11           0       -3.886755   -0.901729   -1.238078
      7         11           0       -1.166794   -0.959258    2.040416
 ---------------------------------------------------------------------

 SCF Done:  E(UB3LYP) =  -1136.12357083     A.U. after   24 cycles

 The electronic state is 2-A.
 Alpha  occ. eigenvalues --  -38.45228 -38.44506 -38.44397 -38.43803 -38.43611
 Alpha  occ. eigenvalues --  -38.42951 -38.42797  -2.20985  -2.20312  -2.20297
 Alpha  occ. eigenvalues --   -2.19677  -2.19467  -2.18777  -2.18683  -1.14646
 Alpha  occ. eigenvalues --   -1.14623  -1.14592  -1.14018  -1.13980  -1.13964
 Alpha  occ. eigenvalues --   -1.13956  -1.13936  -1.13903  -1.13372  -1.13337
 Alpha  occ. eigenvalues --   -1.13295  -1.13158  -1.13104  -1.13093  -1.12462
 Alpha  occ. eigenvalues --   -1.12444  -1.12401  -1.12382  -1.12361  -1.12289
 Alpha  occ. eigenvalues --   -0.18164  -0.13462  -0.11520  -0.11093
 Alpha virt. eigenvalues --   -0.06553  -0.05235  -0.04434  -0.03040  -0.02788
 Alpha virt. eigenvalues --   -0.02521  -0.02351  -0.01314  -0.00722  -0.00275
 Alpha virt. eigenvalues --    0.00083   0.00261   0.00393   0.00525   0.00692

  Beta  occ. eigenvalues --  -38.45155 -38.44471 -38.44382 -38.43784 -38.43566
  Beta  occ. eigenvalues --  -38.42946 -38.42790  -2.20849  -2.20271  -2.20246
  Beta  occ. eigenvalues --   -2.19646  -2.19386  -2.18770  -2.18675  -1.14550
  Beta  occ. eigenvalues --   -1.14531  -1.14504  -1.13984  -1.13952  -1.13934
  Beta  occ. eigenvalues --   -1.13913  -1.13898  -1.13878  -1.13353  -1.13298
  Beta  occ. eigenvalues --   -1.13267  -1.13100  -1.13042  -1.13033  -1.12460
  Beta  occ. eigenvalues --   -1.12432  -1.12389  -1.12382  -1.12339  -1.12274
  Beta  occ. eigenvalues --   -0.17580  -0.12911  -0.10846
  Beta virt. eigenvalues --   -0.07962  -0.06179  -0.04799  -0.04295  -0.02882
  Beta virt. eigenvalues --   -0.02298  -0.02003  -0.01816  -0.00984  -0.00680
  Beta virt. eigenvalues --   -0.00076   0.00159   0.00330   0.00449   0.00665

 Mulliken charges and spin densities:
               1          2
     1  Na   0.090014   0.195145
     2  Na  -0.144291   0.146469
     3  Na  -0.352731   0.082541
     4  Na   0.496160   0.121672
     5  Na  -0.063298   0.046675
     6  Na  -0.022964   0.295961
     7  Na  -0.002889   0.111537
 Sum of Mulliken charges =  -0.00000   1.00000

 Dipole moment (field-independent basis, Debye):
    X=             -0.0338    Y=             -0.0314    Z=             -0.2498  Tot=              0.2541
 Quadrupole moment (field-independent basis, Debye-Ang):
   XX=            -50.7372   YY=            -76.9311   ZZ=            -65.8894
   XY=             -0.0144   XZ=             -1.5161   YZ=              3.8039

 Normal termination of Gaussian 16 at Wed Nov 29 15:58:59 2023.
