 Gaussian 16, Revision B.01,
 Gaussian 16:  ES64L-G16RevB.01 20-Dec-2017

 -------------------------
 #P B3LYP/6-311+g(d) force
 -------------------------

 -----
 DPGEN
 -----
 Symbolic Z-matrix:
 Charge =  0 Multiplicity = 2

                         Standard orientation:
 ---------------------------------------------------------------------
 Center     Atomic      Atomic             Coordinates (Angstroms)
 Number     Number       Type             X           Y           Z
 ---------------------------------------------------------------------
      1         11           0       -3.107683    0.323066    0.445616
      2         11           0       -0.893428    2.955136   -0.026076
      3         11           0       -0.183082   -0.513073   -1.674561
      4         11           0        1.879514    1.510250   -0.744963
      5         11           0        3.321567   -0.872820    0.463386
      6         11           0       -1.212752   -3.036516   -0.436595
      7         11           0        0.195863   -0.366043    1.973193
 ---------------------------------------------------------------------

 SCF Done:  E(UB3LYP) =  -1136.12819746     A.U. after   20 cycles

 The electronic state is 2-A.
 Alpha  occ. eigenvalues --  -38.44496 -38.44234 -38.44143 -38.43633 -38.43540
 Alpha  occ. eigenvalues --  -38.43252 -38.43181  -2.20300  -2.20073  -2.20005
 Alpha  occ. eigenvalues --   -2.19519  -2.19467  -2.19223  -2.19019  -1.13981
 Alpha  occ. eigenvalues --   -1.13963  -1.13920  -1.13779  -1.13730  -1.13705
 Alpha  occ. eigenvalues --   -1.13679  -1.13640  -1.13613  -1.13339  -1.13214
 Alpha  occ. eigenvalues --   -1.13130  -1.13106  -1.13082  -1.13059  -1.12895
 Alpha  occ. eigenvalues --   -1.12879  -1.12848  -1.12684  -1.12671  -1.12664
 Alpha  occ. eigenvalues --   -0.18526  -0.13165  -0.12283  -0.11081
 Alpha virt. eigenvalues --   -0.06002  -0.05069  -0.04417  -0.03337  -0.02937
 Alpha virt. eigenvalues --   -0.02692  -0.01824  -0.01174  -0.00353  -0.00047
 Alpha virt. eigenvalues --   -0.00039   0.00315   0.00683   0.00799   0.00874

  Beta  occ. eigenvalues --  -38.44483 -38.44225 -38.44066 -38.43621 -38.43469
  Beta  occ. eigenvalues --  -38.43228 -38.43183  -2.20278  -2.20057  -2.19863
  Beta  occ. eigenvalues --   -2.19451  -2.19388  -2.19184  -2.19026  -1.13955
  Beta  occ. eigenvalues --   -1.13947  -1.13909  -1.13772  -1.13699  -1.13691
  Beta  occ. eigenvalues --   -1.13588  -1.13545  -1.13507  -1.13272  -1.13140
  Beta  occ. eigenvalues --   -1.13086  -1.13078  -1.13030  -1.13001  -1.12870
  Beta  occ. eigenvalues --   -1.12846  -1.12796  -1.12689  -1.12672  -1.12651
  Beta  occ. eigenvalues --   -0.17821  -0.12918  -0.12002
  Beta virt. eigenvalues --   -0.07246  -0.05873  -0.04944  -0.04298  -0.02729
  Beta virt. eigenvalues --   -0.02251  -0.01756  -0.01603  -0.01088  -0.00350
  Beta virt. eigenvalues --   -0.00028   0.00085   0.00362   0.00743   0.00895

 Mulliken charges and spin densities:
               1          2
     1  Na  -0.001405   0.078188
     2  Na  -0.253263  -0.029238
     3  Na   0.153150   0.240453
     4  Na   0.369261   0.144541
     5  Na   0.059666   0.040200
     6  Na  -0.051681  -0.052075
     7  Na  -0.275728   0.577931
 Sum of Mulliken charges =  -0.00000   1.00000

 Dipole moment (field-independent basis, Debye):
    X=             -0.1850    Y=             -0.4730    Z=              0.4632  Tot=              0.6874
 Quadrupole moment (field-independent basis, Debye-Ang):
   XX=            -56.8422   YY=            -64.5502   ZZ=            -73.0021
   XY=             -1.2589   XZ=             -0.6745   YZ=             -0.8777

 Normal termination of Gaussian 16 at Thu Dec  7 16:55:31 2023.
