 Gaussian 16, Revision B.01,
 Gaussian 16:  ES64L-G16RevB.01 20-Dec-2017

 -------------------------
 #P B3LYP/6-311+g(d) force
 -------------------------

 -----
 DPGEN
 -----
 Symbolic Z-matrix:
 Charge =  0 Multiplicity = 2

                         Standard orientation:
 ---------------------------------------------------------------------
 Center     Atomic      Atomic             Coordinates (Angstroms)
 Number     Number       Type             X           Y           Z
 ---------------------------------------------------------------------
      1         11           0        0.892467    2.181843    0.887837
      2         11           0        0.016672   -0.664140   -1.432233
      3         11           0        2.910097    0.531879   -0.805585
      4         11           0        1.980963   -2.092277    0.397329
      5         11           0       -0.742124   -0.545735    1.873230
      6         11           0       -3.151973   -1.105538   -0.340485
      7         11           0       -1.906103    1.693968   -0.580093
 ---------------------------------------------------------------------

 SCF Done:  E(UB3LYP) =  -1136.12392267     A.U. after   24 cycles

 The electronic state is 2-A.
 Alpha  occ. eigenvalues --  -38.44380 -38.44352 -38.43644 -38.43597 -38.43526
 Alpha  occ. eigenvalues --  -38.43472 -38.42457  -2.20315  -2.20240  -2.19609
 Alpha  occ. eigenvalues --   -2.19575  -2.19557  -2.19392  -2.18389  -1.14005
 Alpha  occ. eigenvalues --   -1.13978  -1.13957  -1.13935  -1.13898  -1.13880
 Alpha  occ. eigenvalues --   -1.13346  -1.13340  -1.13262  -1.13242  -1.13227
 Alpha  occ. eigenvalues --   -1.13194  -1.13189  -1.13184  -1.13172  -1.13039
 Alpha  occ. eigenvalues --   -1.13025  -1.13018  -1.12063  -1.12052  -1.12026
 Alpha  occ. eigenvalues --   -0.19500  -0.14178  -0.11737  -0.11376
 Alpha virt. eigenvalues --   -0.06129  -0.05034  -0.04096  -0.03383  -0.02821
 Alpha virt. eigenvalues --   -0.02596  -0.01948  -0.00818  -0.00272   0.00136
 Alpha virt. eigenvalues --    0.00299   0.00374   0.00647   0.00836   0.00885

  Beta  occ. eigenvalues --  -38.44363 -38.44344 -38.43579 -38.43552 -38.43481
  Beta  occ. eigenvalues --  -38.43464 -38.42441  -2.20284  -2.20228  -2.19530
  Beta  occ. eigenvalues --   -2.19495  -2.19441  -2.19381  -2.18362  -1.13987
  Beta  occ. eigenvalues --   -1.13946  -1.13936  -1.13928  -1.13876  -1.13866
  Beta  occ. eigenvalues --   -1.13307  -1.13271  -1.13181  -1.13167  -1.13162
  Beta  occ. eigenvalues --   -1.13139  -1.13128  -1.13108  -1.13089  -1.13033
  Beta  occ. eigenvalues --   -1.13003  -1.12980  -1.12043  -1.12037  -1.11985
  Beta  occ. eigenvalues --   -0.18748  -0.13888  -0.11516
  Beta virt. eigenvalues --   -0.07378  -0.06013  -0.04987  -0.03594  -0.03102
  Beta virt. eigenvalues --   -0.02079  -0.01819  -0.01581  -0.00749  -0.00057
  Beta virt. eigenvalues --    0.00149   0.00335   0.00379   0.00771   0.00883

 Mulliken charges and spin densities:
               1          2
     1  Na  -0.322603   0.104542
     2  Na  -0.509052   0.186960
     3  Na   0.621735  -0.034282
     4  Na  -0.116525   0.106320
     5  Na  -0.209702   0.451654
     6  Na   0.579615   0.113037
     7  Na  -0.043468   0.071769
 Sum of Mulliken charges =  -0.00000   1.00000

 Dipole moment (field-independent basis, Debye):
    X=             -0.3568    Y=             -0.3050    Z=             -0.0285  Tot=              0.4702
 Quadrupole moment (field-independent basis, Debye-Ang):
   XX=            -52.4357   YY=            -71.8567   ZZ=            -70.3867
   XY=              1.2108   XZ=              0.3492   YZ=             -1.6297

 Normal termination of Gaussian 16 at Tue Dec  5 15:15:39 2023.
