 Gaussian 16, Revision B.01,
 Gaussian 16:  ES64L-G16RevB.01 20-Dec-2017

 -------------------------
 #P B3LYP/6-311+g(d) force
 -------------------------

 -----
 DPGEN
 -----
 Symbolic Z-matrix:
 Charge =  0 Multiplicity = 2

                         Standard orientation:
 ---------------------------------------------------------------------
 Center     Atomic      Atomic             Coordinates (Angstroms)
 Number     Number       Type             X           Y           Z
 ---------------------------------------------------------------------
      1         11           0       -1.028442   -0.954865    1.895041
      2         11           0        4.086486    1.768017   -0.255497
      3         11           0        2.470169   -0.904976    0.870139
      4         11           0       -2.609160   -0.751680   -0.691009
      5         11           0       -0.091124   -2.781450   -1.028319
      6         11           0        0.322552    0.931200   -1.020153
      7         11           0       -3.150482    2.693754    0.229797
 ---------------------------------------------------------------------

 SCF Done:  E(UB3LYP) =  -1136.12327734     A.U. after   22 cycles

 The electronic state is 2-A.
 Alpha  occ. eigenvalues --  -38.44515 -38.44515 -38.44010 -38.43968 -38.43885
 Alpha  occ. eigenvalues --  -38.43802 -38.43329  -2.20360  -2.20289  -2.19950
 Alpha  occ. eigenvalues --   -2.19750  -2.19720  -2.19706  -2.19203  -1.14080
 Alpha  occ. eigenvalues --   -1.14025  -1.13972  -1.13964  -1.13954  -1.13919
 Alpha  occ. eigenvalues --   -1.13716  -1.13629  -1.13537  -1.13448  -1.13425
 Alpha  occ. eigenvalues --   -1.13397  -1.13389  -1.13372  -1.13350  -1.13346
 Alpha  occ. eigenvalues --   -1.13345  -1.13279  -1.12875  -1.12858  -1.12825
 Alpha  occ. eigenvalues --   -0.18259  -0.13551  -0.11814  -0.10529
 Alpha virt. eigenvalues --   -0.06620  -0.05929  -0.04237  -0.03126  -0.02533
 Alpha virt. eigenvalues --   -0.02364  -0.02145  -0.01623  -0.01008  -0.00300
 Alpha virt. eigenvalues --   -0.00088   0.00169   0.00266   0.00608   0.00703

  Beta  occ. eigenvalues --  -38.44518 -38.44486 -38.43987 -38.43974 -38.43863
  Beta  occ. eigenvalues --  -38.43723 -38.43296  -2.20309  -2.20294  -2.19912
  Beta  occ. eigenvalues --   -2.19730  -2.19711  -2.19559  -2.19146  -1.14038
  Beta  occ. eigenvalues --   -1.13976  -1.13967  -1.13957  -1.13942  -1.13918
  Beta  occ. eigenvalues --   -1.13679  -1.13587  -1.13500  -1.13423  -1.13404
  Beta  occ. eigenvalues --   -1.13392  -1.13389  -1.13352  -1.13316  -1.13262
  Beta  occ. eigenvalues --   -1.13255  -1.13176  -1.12835  -1.12816  -1.12770
  Beta  occ. eigenvalues --   -0.17532  -0.13420  -0.11653
  Beta virt. eigenvalues --   -0.06600  -0.06435  -0.05777  -0.04026  -0.02691
  Beta virt. eigenvalues --   -0.02257  -0.02018  -0.01722  -0.01020  -0.00960
  Beta virt. eigenvalues --   -0.00068   0.00057   0.00234   0.00449   0.00628

 Mulliken charges and spin densities:
               1          2
     1  Na  -0.257387   0.359765
     2  Na   0.308504  -0.051428
     3  Na   0.075155   0.101290
     4  Na   0.895373   0.327601
     5  Na   0.036945   0.191652
     6  Na  -1.177307   0.144452
     7  Na   0.118716  -0.073331
 Sum of Mulliken charges =  -0.00000   1.00000

 Dipole moment (field-independent basis, Debye):
    X=              0.6332    Y=              0.2280    Z=             -0.0814  Tot=              0.6779
 Quadrupole moment (field-independent basis, Debye-Ang):
   XX=            -55.2681   YY=            -62.6923   ZZ=            -74.7036
   XY=              1.4830   XZ=             -0.7956   YZ=              0.9641

 Normal termination of Gaussian 16 at Tue Dec  5 12:11:07 2023.
