 Gaussian 16, Revision B.01,
 Gaussian 16:  ES64L-G16RevB.01 20-Dec-2017

 -------------------------
 #P B3LYP/6-311+g(d) force
 -------------------------

 -----
 DPGEN
 -----
 Symbolic Z-matrix:
 Charge =  0 Multiplicity = 2

                         Standard orientation:
 ---------------------------------------------------------------------
 Center     Atomic      Atomic             Coordinates (Angstroms)
 Number     Number       Type             X           Y           Z
 ---------------------------------------------------------------------
      1         11           0        2.217910   -2.455781    0.060167
      2         11           0       -0.065824    2.842554   -0.009397
      3         11           0       -0.246190   -0.206439    2.042194
      4         11           0        0.222955   -0.535647   -1.644929
      5         11           0       -2.733655    1.190710   -0.290110
      6         11           0       -2.550717   -2.031726   -0.077236
      7         11           0        3.155520    1.196330   -0.080689
 ---------------------------------------------------------------------

 SCF Done:  E(UB3LYP) =  -1136.13297653     A.U. after   19 cycles

 The electronic state is 2-A.
 Alpha  occ. eigenvalues --  -38.44744 -38.44163 -38.44083 -38.43814 -38.43530
 Alpha  occ. eigenvalues --  -38.43412 -38.42917  -2.20515  -2.19962  -2.19914
 Alpha  occ. eigenvalues --   -2.19703  -2.19399  -2.19324  -2.18773  -1.14196
 Alpha  occ. eigenvalues --   -1.14172  -1.14152  -1.13655  -1.13619  -1.13603
 Alpha  occ. eigenvalues --   -1.13594  -1.13574  -1.13560  -1.13388  -1.13355
 Alpha  occ. eigenvalues --   -1.13339  -1.13070  -1.13022  -1.13019  -1.13007
 Alpha  occ. eigenvalues --   -1.12969  -1.12941  -1.12454  -1.12430  -1.12418
 Alpha  occ. eigenvalues --   -0.18310  -0.13273  -0.12152  -0.10493
 Alpha virt. eigenvalues --   -0.06218  -0.05593  -0.04377  -0.03290  -0.02677
 Alpha virt. eigenvalues --   -0.02474  -0.01852  -0.01355  -0.00716  -0.00299
 Alpha virt. eigenvalues --   -0.00027   0.00324   0.00711   0.00732   0.00855

  Beta  occ. eigenvalues --  -38.44744 -38.44162 -38.44078 -38.43805 -38.43431
  Beta  occ. eigenvalues --  -38.43357 -38.42913  -2.20518  -2.19962  -2.19908
  Beta  occ. eigenvalues --   -2.19690  -2.19223  -2.19215  -2.18768  -1.14185
  Beta  occ. eigenvalues --   -1.14174  -1.14157  -1.13649  -1.13608  -1.13603
  Beta  occ. eigenvalues --   -1.13596  -1.13562  -1.13541  -1.13382  -1.13335
  Beta  occ. eigenvalues --   -1.13317  -1.12957  -1.12926  -1.12896  -1.12891
  Beta  occ. eigenvalues --   -1.12889  -1.12865  -1.12453  -1.12419  -1.12402
  Beta  occ. eigenvalues --   -0.17591  -0.13078  -0.11943
  Beta virt. eigenvalues --   -0.06593  -0.06215  -0.05503  -0.04360  -0.02532
  Beta virt. eigenvalues --   -0.01958  -0.01761  -0.01458  -0.01227  -0.00779
  Beta virt. eigenvalues --   -0.00324   0.00138   0.00363   0.00730   0.00798

 Mulliken charges and spin densities:
               1          2
     1  Na   0.083479  -0.118443
     2  Na  -0.098584  -0.027489
     3  Na  -0.408563   0.721404
     4  Na  -0.076635   0.376119
     5  Na   0.156190   0.106669
     6  Na   0.350471  -0.020200
     7  Na  -0.006359  -0.038061
 Sum of Mulliken charges =  -0.00000   1.00000

 Dipole moment (field-independent basis, Debye):
    X=              0.4722    Y=             -0.4604    Z=              0.0514  Tot=              0.6615
 Quadrupole moment (field-independent basis, Debye-Ang):
   XX=            -53.4787   YY=            -63.8598   ZZ=            -75.9021
   XY=              1.0326   XZ=              1.0425   YZ=             -0.7763

 Normal termination of Gaussian 16 at Thu Dec  7 11:35:06 2023.
