 Gaussian 16, Revision B.01,
 Gaussian 16:  ES64L-G16RevB.01 20-Dec-2017

 -------------------------
 #P B3LYP/6-311+g(d) force
 -------------------------

 -----
 DPGEN
 -----
 Symbolic Z-matrix:
 Charge =  0 Multiplicity = 2

                         Standard orientation:
 ---------------------------------------------------------------------
 Center     Atomic      Atomic             Coordinates (Angstroms)
 Number     Number       Type             X           Y           Z
 ---------------------------------------------------------------------
      1         11           0        1.735473   -2.263212    0.154142
      2         11           0        2.853121    0.584768    0.032048
      3         11           0       -1.820530   -2.290478   -0.287636
      4         11           0       -2.971695    1.031273    0.117651
      5         11           0        0.064239    0.088164   -1.611536
      6         11           0       -0.245712   -0.080953    1.654710
      7         11           0        0.385103    2.930437   -0.059379
 ---------------------------------------------------------------------

 SCF Done:  E(UB3LYP) =  -1136.13738037     A.U. after   20 cycles

 The electronic state is 2-A.
 Alpha  occ. eigenvalues --  -38.44109 -38.43669 -38.43570 -38.43410 -38.43314
 Alpha  occ. eigenvalues --  -38.42886 -38.42809  -2.19944  -2.19590  -2.19449
 Alpha  occ. eigenvalues --   -2.19273  -2.19235  -2.18906  -2.18851  -1.13628
 Alpha  occ. eigenvalues --   -1.13605  -1.13576  -1.13312  -1.13249  -1.13239
 Alpha  occ. eigenvalues --   -1.13141  -1.13119  -1.13072  -1.12968  -1.12939
 Alpha  occ. eigenvalues --   -1.12917  -1.12898  -1.12888  -1.12863  -1.12632
 Alpha  occ. eigenvalues --   -1.12523  -1.12521  -1.12513  -1.12469  -1.12462
 Alpha  occ. eigenvalues --   -0.19277  -0.13281  -0.12682  -0.10445
 Alpha virt. eigenvalues --   -0.05628  -0.05086  -0.04733  -0.03077  -0.02729
 Alpha virt. eigenvalues --   -0.02048  -0.01535  -0.01192  -0.00296  -0.00204
 Alpha virt. eigenvalues --    0.00053   0.00362   0.00832   0.00902   0.00925

  Beta  occ. eigenvalues --  -38.44104 -38.43663 -38.43560 -38.43405 -38.43305
  Beta  occ. eigenvalues --  -38.42811 -38.42734  -2.19939  -2.19582  -2.19434
  Beta  occ. eigenvalues --   -2.19268  -2.19224  -2.18770  -2.18715  -1.13616
  Beta  occ. eigenvalues --   -1.13587  -1.13576  -1.13311  -1.13244  -1.13204
  Beta  occ. eigenvalues --   -1.13132  -1.13080  -1.13066  -1.12961  -1.12917
  Beta  occ. eigenvalues --   -1.12910  -1.12895  -1.12866  -1.12840  -1.12541
  Beta  occ. eigenvalues --   -1.12427  -1.12420  -1.12417  -1.12369  -1.12365
  Beta  occ. eigenvalues --   -0.18556  -0.13005  -0.12405
  Beta virt. eigenvalues --   -0.06531  -0.05610  -0.05069  -0.04735  -0.02259
  Beta virt. eigenvalues --   -0.01954  -0.01450  -0.01128  -0.01025  -0.00345
  Beta virt. eigenvalues --   -0.00257   0.00177   0.00397   0.00857   0.00923

 Mulliken charges and spin densities:
               1          2
     1  Na   0.311559   0.010187
     2  Na   0.207279  -0.019344
     3  Na   0.173362  -0.041313
     4  Na   0.057398  -0.118923
     5  Na  -0.422558   0.620343
     6  Na  -0.425067   0.671661
     7  Na   0.098027  -0.122612
 Sum of Mulliken charges =  -0.00000   1.00000

 Dipole moment (field-independent basis, Debye):
    X=             -0.3646    Y=              0.1350    Z=              0.0207  Tot=              0.3894
 Quadrupole moment (field-independent basis, Debye-Ang):
   XX=            -55.5633   YY=            -60.0897   ZZ=            -76.1395
   XY=             -0.2302   XZ=              0.6674   YZ=              0.4378

 Normal termination of Gaussian 16 at Thu Dec  7 12:26:48 2023.
