 Gaussian 16, Revision B.01,
 Gaussian 16:  ES64L-G16RevB.01 20-Dec-2017

 -------------------------
 #P B3LYP/6-311+g(d) force
 -------------------------

 -----
 DPGEN
 -----
 Symbolic Z-matrix:
 Charge =  0 Multiplicity = 2

                         Standard orientation:
 ---------------------------------------------------------------------
 Center     Atomic      Atomic             Coordinates (Angstroms)
 Number     Number       Type             X           Y           Z
 ---------------------------------------------------------------------
      1         11           0       -1.745238   -1.851625   -0.662243
      2         11           0        0.855288    0.025596    1.450728
      3         11           0        1.376116    3.311453   -0.509834
      4         11           0       -1.523718    1.900083   -0.157569
      5         11           0       -4.463485   -0.224745    0.246163
      6         11           0        3.850674   -0.319002   -0.104637
      7         11           0        1.650364   -2.841761   -0.262608
 ---------------------------------------------------------------------

 SCF Done:  E(UB3LYP) =  -1136.12700482     A.U. after   21 cycles

 The electronic state is 2-A.
 Alpha  occ. eigenvalues --  -38.45106 -38.44184 -38.43800 -38.43751 -38.43683
 Alpha  occ. eigenvalues --  -38.43455 -38.43298  -2.20962  -2.19974  -2.19647
 Alpha  occ. eigenvalues --   -2.19612  -2.19528  -2.19308  -2.19138  -1.14655
 Alpha  occ. eigenvalues --   -1.14644  -1.14574  -1.13660  -1.13638  -1.13611
 Alpha  occ. eigenvalues --   -1.13327  -1.13320  -1.13309  -1.13306  -1.13298
 Alpha  occ. eigenvalues --   -1.13224  -1.13205  -1.13191  -1.13154  -1.12963
 Alpha  occ. eigenvalues --   -1.12942  -1.12925  -1.12789  -1.12781  -1.12749
 Alpha  occ. eigenvalues --   -0.17455  -0.13864  -0.12809  -0.10013
 Alpha virt. eigenvalues --   -0.06615  -0.05478  -0.04783  -0.03192  -0.02746
 Alpha virt. eigenvalues --   -0.02498  -0.01870  -0.01119  -0.00984  -0.00755
 Alpha virt. eigenvalues --   -0.00247  -0.00054   0.00495   0.00525   0.00730

  Beta  occ. eigenvalues --  -38.45095 -38.44191 -38.43784 -38.43743 -38.43663
  Beta  occ. eigenvalues --  -38.43374 -38.43227  -2.20946  -2.19989  -2.19624
  Beta  occ. eigenvalues --   -2.19601  -2.19497  -2.19157  -2.19005  -1.14644
  Beta  occ. eigenvalues --   -1.14616  -1.14563  -1.13667  -1.13641  -1.13622
  Beta  occ. eigenvalues --   -1.13316  -1.13313  -1.13300  -1.13294  -1.13237
  Beta  occ. eigenvalues --   -1.13207  -1.13188  -1.13173  -1.13093  -1.12858
  Beta  occ. eigenvalues --   -1.12842  -1.12824  -1.12698  -1.12688  -1.12665
  Beta  occ. eigenvalues --   -0.16996  -0.13197  -0.12458
  Beta virt. eigenvalues --   -0.06562  -0.06465  -0.05380  -0.04440  -0.02585
  Beta virt. eigenvalues --   -0.02508  -0.02354  -0.01369  -0.00918  -0.00913
  Beta virt. eigenvalues --   -0.00607   0.00120   0.00227   0.00621   0.00694

 Mulliken charges and spin densities:
               1          2
     1  Na  -0.370318   0.070724
     2  Na   0.486072   0.024372
     3  Na   0.155051  -0.040169
     4  Na  -0.743978  -0.008033
     5  Na   0.635195   0.405996
     6  Na  -0.117047   0.524527
     7  Na  -0.044975   0.022583
 Sum of Mulliken charges =  -0.00000   1.00000

 Dipole moment (field-independent basis, Debye):
    X=              0.4940    Y=              0.2347    Z=             -0.1003  Tot=              0.5560
 Quadrupole moment (field-independent basis, Debye-Ang):
   XX=            -74.2970   YY=            -63.2655   ZZ=            -66.2328
   XY=              1.7146   XZ=             -2.5864   YZ=             -0.0993

 Normal termination of Gaussian 16 at Wed Nov 29 00:19:57 2023.
