 Gaussian 16, Revision B.01,
 Gaussian 16:  ES64L-G16RevB.01 20-Dec-2017

 -------------------------
 #P B3LYP/6-311+g(d) force
 -------------------------

 -----
 DPGEN
 -----
 Symbolic Z-matrix:
 Charge =  0 Multiplicity = 2

                         Standard orientation:
 ---------------------------------------------------------------------
 Center     Atomic      Atomic             Coordinates (Angstroms)
 Number     Number       Type             X           Y           Z
 ---------------------------------------------------------------------
      1         11           0       -2.379859   -1.875899   -1.424451
      2         11           0        0.683809   -1.923684   -1.065928
      3         11           0        2.817828    1.696742   -0.867459
      4         11           0       -0.533764    2.155579   -1.026986
      5         11           0       -0.876362   -0.548314    2.287747
      6         11           0        3.516318   -0.839276    1.187565
      7         11           0       -3.227970    1.334852    0.909513
 ---------------------------------------------------------------------

 SCF Done:  E(UB3LYP) =  -1136.12085858     A.U. after   22 cycles

 The electronic state is 2-A.
 Alpha  occ. eigenvalues --  -38.45384 -38.44815 -38.44176 -38.43951 -38.43819
 Alpha  occ. eigenvalues --  -38.43676 -38.43287  -2.21180  -2.20604  -2.19993
 Alpha  occ. eigenvalues --   -2.19763  -2.19644  -2.19488  -2.19122  -1.14840
 Alpha  occ. eigenvalues --   -1.14818  -1.14804  -1.14266  -1.14255  -1.14240
 Alpha  occ. eigenvalues --   -1.13669  -1.13648  -1.13641  -1.13442  -1.13430
 Alpha  occ. eigenvalues --   -1.13399  -1.13348  -1.13288  -1.13264  -1.13160
 Alpha  occ. eigenvalues --   -1.13149  -1.13112  -1.12807  -1.12790  -1.12745
 Alpha  occ. eigenvalues --   -0.17359  -0.13651  -0.11696  -0.11473
 Alpha virt. eigenvalues --   -0.06549  -0.05527  -0.04684  -0.03479  -0.02951
 Alpha virt. eigenvalues --   -0.02647  -0.02121  -0.01215  -0.00996  -0.00338
 Alpha virt. eigenvalues --   -0.00020   0.00203   0.00250   0.00370   0.00716

  Beta  occ. eigenvalues --  -38.45309 -38.44785 -38.44173 -38.43939 -38.43786
  Beta  occ. eigenvalues --  -38.43640 -38.43275  -2.21040  -2.20548  -2.19990
  Beta  occ. eigenvalues --   -2.19743  -2.19584  -2.19423  -2.19105  -1.14746
  Beta  occ. eigenvalues --   -1.14720  -1.14702  -1.14227  -1.14219  -1.14202
  Beta  occ. eigenvalues --   -1.13655  -1.13643  -1.13641  -1.13420  -1.13416
  Beta  occ. eigenvalues --   -1.13380  -1.13302  -1.13247  -1.13224  -1.13119
  Beta  occ. eigenvalues --   -1.13101  -1.13064  -1.12796  -1.12769  -1.12723
  Beta  occ. eigenvalues --   -0.16737  -0.13427  -0.11285
  Beta virt. eigenvalues --   -0.07904  -0.06147  -0.05346  -0.04186  -0.03210
  Beta virt. eigenvalues --   -0.02485  -0.02005  -0.01958  -0.01026  -0.00676
  Beta virt. eigenvalues --   -0.00184   0.00075   0.00258   0.00373   0.00447

 Mulliken charges and spin densities:
               1          2
     1  Na   0.093411  -0.028778
     2  Na  -0.456513   0.245041
     3  Na   0.196477  -0.170776
     4  Na  -0.540276   0.267315
     5  Na  -0.299291   0.330422
     6  Na   0.402305   0.291295
     7  Na   0.603887   0.065482
 Sum of Mulliken charges =  -0.00000   1.00000

 Dipole moment (field-independent basis, Debye):
    X=             -0.0551    Y=             -0.1594    Z=              0.7664  Tot=              0.7848
 Quadrupole moment (field-independent basis, Debye-Ang):
   XX=            -52.1624   YY=            -77.3613   ZZ=            -68.3372
   XY=             -1.3288   XZ=              2.3893   YZ=             -2.7951

 Normal termination of Gaussian 16 at Mon Dec  4 04:50:01 2023.
