 Gaussian 16, Revision B.01,
 Gaussian 16:  ES64L-G16RevB.01 20-Dec-2017

 -------------------------
 #P B3LYP/6-311+g(d) force
 -------------------------

 -----
 DPGEN
 -----
 Symbolic Z-matrix:
 Charge =  0 Multiplicity = 2

                         Standard orientation:
 ---------------------------------------------------------------------
 Center     Atomic      Atomic             Coordinates (Angstroms)
 Number     Number       Type             X           Y           Z
 ---------------------------------------------------------------------
      1         11           0        0.164540   -2.644645    0.645707
      2         11           0        3.224874   -2.643071   -0.321055
      3         11           0        3.331795    0.500858   -0.563501
      4         11           0       -0.146722    0.924211    0.011581
      5         11           0       -3.046679    0.404780    1.359958
      6         11           0        2.030799    3.673504    0.086366
      7         11           0       -5.558608   -0.215639   -1.219056
 ---------------------------------------------------------------------

 SCF Done:  E(UB3LYP) =  -1136.12012192     A.U. after   20 cycles

 The electronic state is 2-A.
 Alpha  occ. eigenvalues --  -38.44744 -38.44660 -38.44112 -38.44075 -38.43945
 Alpha  occ. eigenvalues --  -38.43705 -38.43668  -2.20529  -2.20460  -2.19966
 Alpha  occ. eigenvalues --   -2.19858  -2.19735  -2.19578  -2.19524  -1.14166
 Alpha  occ. eigenvalues --   -1.14165  -1.14138  -1.14131  -1.14129  -1.14084
 Alpha  occ. eigenvalues --   -1.13651  -1.13643  -1.13601  -1.13570  -1.13519
 Alpha  occ. eigenvalues --   -1.13510  -1.13403  -1.13402  -1.13364  -1.13271
 Alpha  occ. eigenvalues --   -1.13257  -1.13188  -1.13169  -1.13163  -1.13158
 Alpha  occ. eigenvalues --   -0.16733  -0.13777  -0.12488  -0.11054
 Alpha virt. eigenvalues --   -0.06393  -0.05329  -0.04716  -0.03824  -0.02641
 Alpha virt. eigenvalues --   -0.02087  -0.01893  -0.01684  -0.01310  -0.00702
 Alpha virt. eigenvalues --   -0.00413  -0.00061   0.00085   0.00282   0.00679

  Beta  occ. eigenvalues --  -38.44640 -38.44622 -38.44089 -38.44081 -38.43946
  Beta  occ. eigenvalues --  -38.43674 -38.43651  -2.20421  -2.20302  -2.19911
  Beta  occ. eigenvalues --   -2.19891  -2.19737  -2.19522  -2.19492  -1.14112
  Beta  occ. eigenvalues --   -1.14103  -1.14053  -1.14011  -1.14009  -1.13981
  Beta  occ. eigenvalues --   -1.13615  -1.13607  -1.13589  -1.13551  -1.13545
  Beta  occ. eigenvalues --   -1.13498  -1.13405  -1.13399  -1.13365  -1.13234
  Beta  occ. eigenvalues --   -1.13222  -1.13155  -1.13149  -1.13140  -1.13119
  Beta  occ. eigenvalues --   -0.16293  -0.12979  -0.12453
  Beta virt. eigenvalues --   -0.07456  -0.05890  -0.05106  -0.04458  -0.03540
  Beta virt. eigenvalues --   -0.02311  -0.01889  -0.01653  -0.01295  -0.01169
  Beta virt. eigenvalues --   -0.00395  -0.00033   0.00119   0.00234   0.00484

 Mulliken charges and spin densities:
               1          2
     1  Na   0.291021   0.083558
     2  Na  -0.050955   0.040852
     3  Na   0.172232   0.310722
     4  Na  -1.657212  -0.047005
     5  Na   0.248254  -0.087278
     6  Na   0.804052   0.060848
     7  Na   0.192609   0.638303
 Sum of Mulliken charges =  -0.00000   1.00000

 Dipole moment (field-independent basis, Debye):
    X=              0.4646    Y=             -0.0680    Z=              0.1767  Tot=              0.5017
 Quadrupole moment (field-independent basis, Debye-Ang):
   XX=            -68.5068   YY=            -60.4875   ZZ=            -69.1082
   XY=              1.7250   XZ=             -0.4326   YZ=              1.3120

 Normal termination of Gaussian 16 at Wed Nov 29 03:46:36 2023.
