 Gaussian 16, Revision B.01,
 Gaussian 16:  ES64L-G16RevB.01 20-Dec-2017

 -------------------------
 #P B3LYP/6-311+g(d) force
 -------------------------

 -----
 DPGEN
 -----
 Symbolic Z-matrix:
 Charge =  0 Multiplicity = 2

                         Standard orientation:
 ---------------------------------------------------------------------
 Center     Atomic      Atomic             Coordinates (Angstroms)
 Number     Number       Type             X           Y           Z
 ---------------------------------------------------------------------
      1         11           0       -1.197800   -3.155241   -0.761580
      2         11           0        1.906063   -2.505717   -1.264404
      3         11           0       -3.483732   -0.757578    1.946658
      4         11           0       -0.930632    3.777289   -0.633329
      5         11           0        4.048959   -0.732794    1.427131
      6         11           0       -3.148389    0.776992   -0.657742
      7         11           0        2.805532    2.597048   -0.056734
 ---------------------------------------------------------------------

 SCF Done:  E(UB3LYP) =  -1136.10601592     A.U. after   20 cycles

 The electronic state is 2-A.
 Alpha  occ. eigenvalues --  -38.45175 -38.44754 -38.44711 -38.44674 -38.44398
 Alpha  occ. eigenvalues --  -38.44082 -38.43940  -2.20875  -2.20576  -2.20476
 Alpha  occ. eigenvalues --   -2.20473  -2.20187  -2.19866  -2.19706  -1.14577
 Alpha  occ. eigenvalues --   -1.14558  -1.14502  -1.14330  -1.14212  -1.14195
 Alpha  occ. eigenvalues --   -1.14135  -1.14134  -1.14129  -1.14108  -1.14099
 Alpha  occ. eigenvalues --   -1.14073  -1.13870  -1.13856  -1.13808  -1.13538
 Alpha  occ. eigenvalues --   -1.13533  -1.13491  -1.13367  -1.13353  -1.13329
 Alpha  occ. eigenvalues --   -0.15549  -0.13658  -0.12799  -0.10865
 Alpha virt. eigenvalues --   -0.06897  -0.05451  -0.04844  -0.03549  -0.03068
 Alpha virt. eigenvalues --   -0.02161  -0.01866  -0.01685  -0.01519  -0.01215
 Alpha virt. eigenvalues --   -0.00584  -0.00199  -0.00147   0.00381   0.00556

  Beta  occ. eigenvalues --  -38.45194 -38.44692 -38.44674 -38.44649 -38.44358
  Beta  occ. eigenvalues --  -38.44065 -38.43882  -2.20913  -2.20482  -2.20457
  Beta  occ. eigenvalues --   -2.20357  -2.20117  -2.19840  -2.19597  -1.14607
  Beta  occ. eigenvalues --   -1.14587  -1.14506  -1.14275  -1.14150  -1.14139
  Beta  occ. eigenvalues --   -1.14118  -1.14110  -1.14055  -1.14033  -1.14030
  Beta  occ. eigenvalues --   -1.14019  -1.13818  -1.13812  -1.13748  -1.13524
  Beta  occ. eigenvalues --   -1.13517  -1.13447  -1.13293  -1.13280  -1.13259
  Beta  occ. eigenvalues --   -0.15037  -0.13012  -0.12052
  Beta virt. eigenvalues --   -0.07802  -0.06951  -0.05054  -0.04455  -0.03342
  Beta virt. eigenvalues --   -0.02688  -0.01836  -0.01632  -0.01467  -0.01292
  Beta virt. eigenvalues --   -0.01061  -0.00418   0.00055   0.00088   0.00451

 Mulliken charges and spin densities:
               1          2
     1  Na  -0.019024   0.144835
     2  Na  -0.123476   0.039674
     3  Na   0.105542   0.273530
     4  Na  -0.031193   0.310551
     5  Na   0.109384   0.318951
     6  Na   0.034779   0.013174
     7  Na  -0.076011  -0.100714
 Sum of Mulliken charges =  -0.00000   1.00000

 Dipole moment (field-independent basis, Debye):
    X=             -0.3279    Y=             -0.4684    Z=              0.7576  Tot=              0.9491
 Quadrupole moment (field-independent basis, Debye-Ang):
   XX=            -64.0088   YY=            -70.9965   ZZ=            -66.2222
   XY=              1.6419   XZ=              0.3275   YZ=             -3.1437

 Normal termination of Gaussian 16 at Sun Dec  3 18:40:13 2023.
