 Gaussian 16, Revision B.01,
 Gaussian 16:  ES64L-G16RevB.01 20-Dec-2017

 -------------------------
 #P B3LYP/6-311+g(d) force
 -------------------------

 -----
 DPGEN
 -----
 Symbolic Z-matrix:
 Charge =  0 Multiplicity = 2

                         Standard orientation:
 ---------------------------------------------------------------------
 Center     Atomic      Atomic             Coordinates (Angstroms)
 Number     Number       Type             X           Y           Z
 ---------------------------------------------------------------------
      1         11           0        0.136723    0.211213   -1.793346
      2         11           0       -2.176197   -1.971908    0.335259
      3         11           0        0.405427    3.071856    0.340058
      4         11           0        3.052808    0.300981   -0.108754
      5         11           0       -2.865067    1.219559   -0.324274
      6         11           0        1.121446   -2.599049   -0.331444
      7         11           0        0.324861   -0.232652    1.882501
 ---------------------------------------------------------------------

 SCF Done:  E(UB3LYP) =  -1136.13977084     A.U. after   19 cycles

 The electronic state is 2-A.
 Alpha  occ. eigenvalues --  -38.43920 -38.43768 -38.43738 -38.43420 -38.43374
 Alpha  occ. eigenvalues --  -38.43351 -38.43329  -2.19773  -2.19588  -2.19540
 Alpha  occ. eigenvalues --   -2.19354  -2.19276  -2.19248  -2.19239  -1.13455
 Alpha  occ. eigenvalues --   -1.13450  -1.13399  -1.13270  -1.13256  -1.13231
 Alpha  occ. eigenvalues --   -1.13219  -1.13203  -1.13171  -1.13053  -1.12997
 Alpha  occ. eigenvalues --   -1.12986  -1.12982  -1.12932  -1.12916  -1.12903
 Alpha  occ. eigenvalues --   -1.12898  -1.12893  -1.12884  -1.12869  -1.12845
 Alpha  occ. eigenvalues --   -0.18726  -0.12913  -0.12550  -0.10832
 Alpha virt. eigenvalues --   -0.05569  -0.04954  -0.04882  -0.03136  -0.03033
 Alpha virt. eigenvalues --   -0.02561  -0.01386  -0.01162  -0.00401  -0.00225
 Alpha virt. eigenvalues --    0.00007   0.00372   0.00856   0.00860   0.00921

  Beta  occ. eigenvalues --  -38.43914 -38.43764 -38.43733 -38.43368 -38.43341
  Beta  occ. eigenvalues --  -38.43338 -38.43254  -2.19766  -2.19583  -2.19533
  Beta  occ. eigenvalues --   -2.19233  -2.19231  -2.19204  -2.19139  -1.13450
  Beta  occ. eigenvalues --   -1.13424  -1.13391  -1.13263  -1.13241  -1.13229
  Beta  occ. eigenvalues --   -1.13200  -1.13196  -1.13166  -1.12988  -1.12924
  Beta  occ. eigenvalues --   -1.12919  -1.12900  -1.12895  -1.12872  -1.12855
  Beta  occ. eigenvalues --   -1.12848  -1.12837  -1.12832  -1.12803  -1.12783
  Beta  occ. eigenvalues --   -0.17987  -0.12668  -0.12303
  Beta virt. eigenvalues --   -0.06927  -0.05559  -0.04909  -0.04823  -0.02370
  Beta virt. eigenvalues --   -0.02269  -0.01520  -0.01305  -0.01076  -0.00428
  Beta virt. eigenvalues --   -0.00273   0.00128   0.00397   0.00854   0.00894

 Mulliken charges and spin densities:
               1          2
     1  Na  -0.155383   0.577366
     2  Na   0.070849  -0.016428
     3  Na  -0.109676  -0.088452
     4  Na   0.185522  -0.100576
     5  Na  -0.013473  -0.066862
     6  Na   0.255940  -0.000842
     7  Na  -0.233778   0.695793
 Sum of Mulliken charges =  -0.00000   1.00000

 Dipole moment (field-independent basis, Debye):
    X=              0.2089    Y=              0.2143    Z=              0.0334  Tot=              0.3011
 Quadrupole moment (field-independent basis, Debye-Ang):
   XX=            -58.3341   YY=            -61.4127   ZZ=            -73.8270
   XY=             -0.0305   XZ=             -0.3196   YZ=              0.9016

 Normal termination of Gaussian 16 at Fri Dec  8 04:59:48 2023.
