 Gaussian 16, Revision B.01,
 Gaussian 16:  ES64L-G16RevB.01 20-Dec-2017

 -------------------------
 #P B3LYP/6-311+g(d) force
 -------------------------

 -----
 DPGEN
 -----
 Symbolic Z-matrix:
 Charge =  0 Multiplicity = 2

                         Standard orientation:
 ---------------------------------------------------------------------
 Center     Atomic      Atomic             Coordinates (Angstroms)
 Number     Number       Type             X           Y           Z
 ---------------------------------------------------------------------
      1         11           0        0.666993    1.272290    0.942985
      2         11           0        2.037758    3.805937   -0.388853
      3         11           0        3.550268   -0.035922   -0.745759
      4         11           0        0.106324   -1.779111   -0.108686
      5         11           0       -2.934667    0.518254    0.718197
      6         11           0        3.318645   -3.206853    0.209811
      7         11           0       -6.745322   -0.574594   -0.627695
 ---------------------------------------------------------------------

 SCF Done:  E(UB3LYP) =  -1136.11758079     A.U. after   20 cycles

 The electronic state is 2-A.
 Alpha  occ. eigenvalues --  -38.45156 -38.44754 -38.44455 -38.44245 -38.43836
 Alpha  occ. eigenvalues --  -38.43741 -38.43438  -2.20930  -2.20565  -2.20283
 Alpha  occ. eigenvalues --   -2.20053  -2.19577  -2.19534  -2.19336  -1.14559
 Alpha  occ. eigenvalues --   -1.14559  -1.14528  -1.14264  -1.14252  -1.14155
 Alpha  occ. eigenvalues --   -1.14002  -1.13975  -1.13851  -1.13718  -1.13714
 Alpha  occ. eigenvalues --   -1.13679  -1.13275  -1.13263  -1.13234  -1.13208
 Alpha  occ. eigenvalues --   -1.13194  -1.13163  -1.13044  -1.13011  -1.12916
 Alpha  occ. eigenvalues --   -0.16808  -0.13313  -0.12467  -0.11341
 Alpha virt. eigenvalues --   -0.05955  -0.05766  -0.04946  -0.03564  -0.02570
 Alpha virt. eigenvalues --   -0.02290  -0.01939  -0.01893  -0.01589  -0.00834
 Alpha virt. eigenvalues --   -0.00420  -0.00066   0.00090   0.00290   0.00566

  Beta  occ. eigenvalues --  -38.45013 -38.44734 -38.44426 -38.44239 -38.43854
  Beta  occ. eigenvalues --  -38.43734 -38.43421  -2.20664  -2.20528  -2.20232
  Beta  occ. eigenvalues --   -2.20043  -2.19616  -2.19522  -2.19309  -1.14379
  Beta  occ. eigenvalues --   -1.14379  -1.14351  -1.14239  -1.14228  -1.14126
  Beta  occ. eigenvalues --   -1.13964  -1.13941  -1.13813  -1.13708  -1.13703
  Beta  occ. eigenvalues --   -1.13673  -1.13306  -1.13294  -1.13226  -1.13200
  Beta  occ. eigenvalues --   -1.13186  -1.13152  -1.13028  -1.12996  -1.12878
  Beta  occ. eigenvalues --   -0.16467  -0.12710  -0.11944
  Beta virt. eigenvalues --   -0.07711  -0.05873  -0.05349  -0.04651  -0.03380
  Beta virt. eigenvalues --   -0.02215  -0.02014  -0.01730  -0.01613  -0.01046
  Beta virt. eigenvalues --   -0.00409  -0.00175   0.00049   0.00274   0.00407

 Mulliken charges and spin densities:
               1          2
     1  Na  -0.951872  -0.014290
     2  Na   0.629277   0.056964
     3  Na   0.211406   0.224874
     4  Na  -0.470559  -0.004943
     5  Na   0.015862   0.012435
     6  Na   0.516028   0.055673
     7  Na   0.049856   0.669286
 Sum of Mulliken charges =  -0.00000   1.00000

 Dipole moment (field-independent basis, Debye):
    X=              1.1829    Y=             -0.6934    Z=             -0.3686  Tot=              1.4199
 Quadrupole moment (field-independent basis, Debye-Ang):
   XX=            -64.4758   YY=            -60.5759   ZZ=            -71.0344
   XY=             -3.0816   XZ=              0.3238   YZ=             -1.4258

 Normal termination of Gaussian 16 at Wed Nov 29 01:09:45 2023.
