 Gaussian 16, Revision B.01,
 Gaussian 16:  ES64L-G16RevB.01 20-Dec-2017

 -------------------------
 #P B3LYP/6-311+g(d) force
 -------------------------

 -----
 DPGEN
 -----
 Symbolic Z-matrix:
 Charge =  0 Multiplicity = 2

                         Standard orientation:
 ---------------------------------------------------------------------
 Center     Atomic      Atomic             Coordinates (Angstroms)
 Number     Number       Type             X           Y           Z
 ---------------------------------------------------------------------
      1         11           0       -0.012053   -2.853516    0.039965
      2         11           0        2.816927   -0.876939   -0.387349
      3         11           0       -3.173210   -0.895668   -0.050083
      4         11           0       -0.102027    0.047964   -1.435514
      5         11           0        0.174065   -0.084672    1.820514
      6         11           0        1.961812    2.034385    0.135115
      7         11           0       -1.665513    2.628447   -0.122649
 ---------------------------------------------------------------------

 SCF Done:  E(UB3LYP) =  -1136.13525067     A.U. after   19 cycles

 The electronic state is 2-A.
 Alpha  occ. eigenvalues --  -38.44401 -38.43725 -38.43618 -38.43442 -38.43321
 Alpha  occ. eigenvalues --  -38.43025 -38.42765  -2.20192  -2.19547  -2.19542
 Alpha  occ. eigenvalues --   -2.19372  -2.19205  -2.19006  -2.18831  -1.13873
 Alpha  occ. eigenvalues --   -1.13845  -1.13829  -1.13282  -1.13240  -1.13209
 Alpha  occ. eigenvalues --   -1.13207  -1.13180  -1.13177  -1.13057  -1.13030
 Alpha  occ. eigenvalues --   -1.12977  -1.12915  -1.12882  -1.12819  -1.12709
 Alpha  occ. eigenvalues --   -1.12618  -1.12606  -1.12518  -1.12456  -1.12446
 Alpha  occ. eigenvalues --   -0.19124  -0.13143  -0.12622  -0.10411
 Alpha virt. eigenvalues --   -0.05811  -0.05136  -0.04667  -0.02984  -0.02704
 Alpha virt. eigenvalues --   -0.02082  -0.01659  -0.01218  -0.00344  -0.00318
 Alpha virt. eigenvalues --    0.00047   0.00344   0.00796   0.00869   0.00922

  Beta  occ. eigenvalues --  -38.44401 -38.43723 -38.43603 -38.43432 -38.43314
  Beta  occ. eigenvalues --  -38.42933 -38.42706  -2.20194  -2.19546  -2.19519
  Beta  occ. eigenvalues --   -2.19357  -2.19195  -2.18838  -2.18727  -1.13861
  Beta  occ. eigenvalues --   -1.13847  -1.13832  -1.13272  -1.13233  -1.13196
  Beta  occ. eigenvalues --   -1.13188  -1.13177  -1.13138  -1.13047  -1.12982
  Beta  occ. eigenvalues --   -1.12970  -1.12907  -1.12843  -1.12816  -1.12604
  Beta  occ. eigenvalues --   -1.12497  -1.12490  -1.12437  -1.12383  -1.12363
  Beta  occ. eigenvalues --   -0.18395  -0.12887  -0.12357
  Beta virt. eigenvalues --   -0.06477  -0.05795  -0.05102  -0.04666  -0.02219
  Beta virt. eigenvalues --   -0.01929  -0.01592  -0.01168  -0.01026  -0.00372
  Beta virt. eigenvalues --   -0.00368   0.00178   0.00381   0.00814   0.00883

 Mulliken charges and spin densities:
               1          2
     1  Na   0.178896  -0.047104
     2  Na   0.350786   0.092576
     3  Na  -0.041116  -0.113603
     4  Na  -0.540768   0.410989
     5  Na  -0.352418   0.711171
     6  Na   0.386929   0.049174
     7  Na   0.017692  -0.103205
 Sum of Mulliken charges =  -0.00000   1.00000

 Dipole moment (field-independent basis, Debye):
    X=             -0.5097    Y=             -0.0321    Z=              0.1342  Tot=              0.5281
 Quadrupole moment (field-independent basis, Debye-Ang):
   XX=            -54.4004   YY=            -60.5165   ZZ=            -76.3699
   XY=              0.0203   XZ=             -0.7271   YZ=              0.3981

 Normal termination of Gaussian 16 at Thu Dec  7 13:11:51 2023.
