 Gaussian 16, Revision B.01,
 Gaussian 16:  ES64L-G16RevB.01 20-Dec-2017

 -------------------------
 #P B3LYP/6-311+g(d) force
 -------------------------

 -----
 DPGEN
 -----
 Symbolic Z-matrix:
 Charge =  0 Multiplicity = 2

                         Standard orientation:
 ---------------------------------------------------------------------
 Center     Atomic      Atomic             Coordinates (Angstroms)
 Number     Number       Type             X           Y           Z
 ---------------------------------------------------------------------
      1         11           0        0.450225   -2.293037    0.059951
      2         11           0       -8.429530    1.286894   -0.770259
      3         11           0       -5.461856    0.730250    0.023138
      4         11           0       -2.837874   -1.566277    1.183415
      5         11           0        4.200495   -1.017649   -0.702643
      6         11           0        6.770690    0.354832   -0.806129
      7         11           0        5.307850    2.504987    1.012527
 ---------------------------------------------------------------------

 SCF Done:  E(UB3LYP) =  -1136.10268713     A.U. after   25 cycles

 The electronic state is 2-A.
 Alpha  occ. eigenvalues --  -38.45720 -38.45651 -38.44696 -38.44140 -38.44114
 Alpha  occ. eigenvalues --  -38.44111 -38.43546  -2.21589  -2.21468  -2.20551
 Alpha  occ. eigenvalues --   -2.19936  -2.19893  -2.19841  -2.19339  -1.15329
 Alpha  occ. eigenvalues --   -1.15267  -1.15231  -1.15110  -1.15108  -1.15054
 Alpha  occ. eigenvalues --   -1.14208  -1.14196  -1.14162  -1.13599  -1.13580
 Alpha  occ. eigenvalues --   -1.13580  -1.13557  -1.13554  -1.13533  -1.13532
 Alpha  occ. eigenvalues --   -1.13520  -1.13461  -1.13011  -1.13010  -1.12988
 Alpha  occ. eigenvalues --   -0.16381  -0.14024  -0.12385  -0.10982
 Alpha virt. eigenvalues --   -0.07657  -0.05667  -0.04056  -0.03934  -0.03082
 Alpha virt. eigenvalues --   -0.02639  -0.02449  -0.01839  -0.01498  -0.01348
 Alpha virt. eigenvalues --   -0.00675  -0.00368  -0.00184   0.00150   0.00265

  Beta  occ. eigenvalues --  -38.45723 -38.45568 -38.44626 -38.44138 -38.44104
  Beta  occ. eigenvalues --  -38.44066 -38.43553  -2.21602  -2.21313  -2.20420
  Beta  occ. eigenvalues --   -2.19893  -2.19868  -2.19802  -2.19356  -1.15323
  Beta  occ. eigenvalues --   -1.15246  -1.15233  -1.15004  -1.14998  -1.14965
  Beta  occ. eigenvalues --   -1.14123  -1.14106  -1.14073  -1.13572  -1.13570
  Beta  occ. eigenvalues --   -1.13556  -1.13534  -1.13534  -1.13504  -1.13494
  Beta  occ. eigenvalues --   -1.13490  -1.13439  -1.13025  -1.13024  -1.12972
  Beta  occ. eigenvalues --   -0.15750  -0.13646  -0.12023
  Beta virt. eigenvalues --   -0.07822  -0.06872  -0.05443  -0.03856  -0.03655
  Beta virt. eigenvalues --   -0.02622  -0.02516  -0.02079  -0.01704  -0.01449
  Beta virt. eigenvalues --   -0.00938  -0.00240  -0.00177   0.00025   0.00259

 Mulliken charges and spin densities:
               1          2
     1  Na  -0.314158  -0.336986
     2  Na   0.271772   0.150275
     3  Na  -0.353966   0.012603
     4  Na  -0.353212   0.211328
     5  Na  -0.960201   0.159714
     6  Na   1.709071   0.393798
     7  Na   0.000695   0.409267
 Sum of Mulliken charges =  -0.00000   1.00000

 Dipole moment (field-independent basis, Debye):
    X=              3.3406    Y=              1.1821    Z=             -0.0540  Tot=              3.5440
 Quadrupole moment (field-independent basis, Debye-Ang):
   XX=            -42.2518   YY=            -72.2758   ZZ=            -71.6464
   XY=              0.5438   XZ=             -1.8076   YZ=              1.0171

 Normal termination of Gaussian 16 at Sun Dec  3 14:33:48 2023.
