 Gaussian 16, Revision B.01,
 Gaussian 16:  ES64L-G16RevB.01 20-Dec-2017

 -------------------------
 #P B3LYP/6-311+g(d) force
 -------------------------

 -----
 DPGEN
 -----
 Symbolic Z-matrix:
 Charge =  0 Multiplicity = 2

                         Standard orientation:
 ---------------------------------------------------------------------
 Center     Atomic      Atomic             Coordinates (Angstroms)
 Number     Number       Type             X           Y           Z
 ---------------------------------------------------------------------
      1         11           0       -2.941610   -1.002657   -0.351862
      2         11           0       -1.653948    2.157358   -0.020696
      3         11           0        1.725181    2.095829    0.159472
      4         11           0       -0.250556   -0.008319   -1.543274
      5         11           0        3.040276   -0.627322   -0.395346
      6         11           0       -0.358449   -0.070724    1.848063
      7         11           0        0.439105   -2.544166    0.303644
 ---------------------------------------------------------------------

 SCF Done:  E(UB3LYP) =  -1136.13085699     A.U. after   19 cycles

 The electronic state is 2-A.
 Alpha  occ. eigenvalues --  -38.44118 -38.43976 -38.43297 -38.43268 -38.43177
 Alpha  occ. eigenvalues --  -38.43177 -38.43055  -2.20001  -2.19856  -2.19323
 Alpha  occ. eigenvalues --   -2.19275  -2.19223  -2.19100  -2.18987  -1.13712
 Alpha  occ. eigenvalues --   -1.13654  -1.13622  -1.13555  -1.13512  -1.13498
 Alpha  occ. eigenvalues --   -1.13106  -1.13052  -1.13011  -1.12933  -1.12928
 Alpha  occ. eigenvalues --   -1.12898  -1.12855  -1.12833  -1.12810  -1.12765
 Alpha  occ. eigenvalues --   -1.12749  -1.12726  -1.12661  -1.12640  -1.12582
 Alpha  occ. eigenvalues --   -0.19617  -0.13549  -0.12483  -0.10975
 Alpha virt. eigenvalues --   -0.05764  -0.04934  -0.04194  -0.03300  -0.02821
 Alpha virt. eigenvalues --   -0.02406  -0.01691  -0.00906  -0.00116   0.00088
 Alpha virt. eigenvalues --    0.00119   0.00343   0.00849   0.00947   0.00957

  Beta  occ. eigenvalues --  -38.44106 -38.43970 -38.43258 -38.43203 -38.43172
  Beta  occ. eigenvalues --  -38.43115 -38.43042  -2.19982  -2.19847  -2.19214
  Beta  occ. eigenvalues --   -2.19158  -2.19150  -2.19094  -2.18969  -1.13689
  Beta  occ. eigenvalues --   -1.13632  -1.13603  -1.13552  -1.13502  -1.13479
  Beta  occ. eigenvalues --   -1.13059  -1.12954  -1.12922  -1.12854  -1.12847
  Beta  occ. eigenvalues --   -1.12812  -1.12803  -1.12789  -1.12757  -1.12749
  Beta  occ. eigenvalues --   -1.12727  -1.12706  -1.12636  -1.12588  -1.12575
  Beta  occ. eigenvalues --   -0.18889  -0.13254  -0.12191
  Beta virt. eigenvalues --   -0.07010  -0.05697  -0.04927  -0.04194  -0.02525
  Beta virt. eigenvalues --   -0.01992  -0.01587  -0.01335  -0.00864  -0.00069
  Beta virt. eigenvalues --    0.00071   0.00155   0.00372   0.00886   0.00949

 Mulliken charges and spin densities:
               1          2
     1  Na   0.318940  -0.040227
     2  Na   0.338760  -0.019634
     3  Na   0.210760   0.023739
     4  Na  -0.742652   0.479292
     5  Na  -0.027596  -0.010637
     6  Na  -0.444285   0.569543
     7  Na   0.346073  -0.002074
 Sum of Mulliken charges =  -0.00000   1.00000

 Dipole moment (field-independent basis, Debye):
    X=             -0.2119    Y=             -0.1391    Z=              0.0565  Tot=              0.2597
 Quadrupole moment (field-independent basis, Debye-Ang):
   XX=            -53.9793   YY=            -65.8546   ZZ=            -73.5303
   XY=              0.2900   XZ=             -0.0793   YZ=              0.5549

 Normal termination of Gaussian 16 at Tue Nov 28 19:35:09 2023.
