 Gaussian 16, Revision B.01,
 Gaussian 16:  ES64L-G16RevB.01 20-Dec-2017

 -------------------------
 #P B3LYP/6-311+g(d) force
 -------------------------

 -----
 DPGEN
 -----
 Symbolic Z-matrix:
 Charge =  0 Multiplicity = 2

                         Standard orientation:
 ---------------------------------------------------------------------
 Center     Atomic      Atomic             Coordinates (Angstroms)
 Number     Number       Type             X           Y           Z
 ---------------------------------------------------------------------
      1         11           0       -3.070641    1.673817   -0.433270
      2         11           0       -4.892041   -0.701806    1.070397
      3         11           0       -1.258958   -2.544917   -0.529784
      4         11           0        3.528863   -0.895902    1.262743
      5         11           0        3.398496    2.040545    0.272230
      6         11           0        1.986625   -3.217773   -0.974955
      7         11           0        0.307656    3.646037   -0.667360
 ---------------------------------------------------------------------

 SCF Done:  E(UB3LYP) =  -1136.11161719     A.U. after   20 cycles

 The electronic state is 2-A.
 Alpha  occ. eigenvalues --  -38.45314 -38.44934 -38.44621 -38.44474 -38.44133
 Alpha  occ. eigenvalues --  -38.44024 -38.43939  -2.21068  -2.20691  -2.20446
 Alpha  occ. eigenvalues --   -2.20267  -2.19934  -2.19817  -2.19715  -1.14753
 Alpha  occ. eigenvalues --   -1.14741  -1.14671  -1.14385  -1.14371  -1.14323
 Alpha  occ. eigenvalues --   -1.14137  -1.14099  -1.14064  -1.13918  -1.13915
 Alpha  occ. eigenvalues --   -1.13883  -1.13613  -1.13601  -1.13573  -1.13485
 Alpha  occ. eigenvalues --   -1.13474  -1.13465  -1.13377  -1.13364  -1.13335
 Alpha  occ. eigenvalues --   -0.15596  -0.14013  -0.13034  -0.11041
 Alpha virt. eigenvalues --   -0.06926  -0.05539  -0.04379  -0.03390  -0.03337
 Alpha virt. eigenvalues --   -0.02320  -0.02189  -0.01790  -0.01300  -0.01102
 Alpha virt. eigenvalues --   -0.00420  -0.00327  -0.00034   0.00526   0.00560

  Beta  occ. eigenvalues --  -38.45279 -38.44928 -38.44570 -38.44416 -38.44130
  Beta  occ. eigenvalues --  -38.44017 -38.43879  -2.21006  -2.20685  -2.20353
  Beta  occ. eigenvalues --   -2.20159  -2.19933  -2.19806  -2.19602  -1.14711
  Beta  occ. eigenvalues --   -1.14702  -1.14612  -1.14386  -1.14372  -1.14280
  Beta  occ. eigenvalues --   -1.14070  -1.14038  -1.14000  -1.13844  -1.13840
  Beta  occ. eigenvalues --   -1.13814  -1.13609  -1.13605  -1.13547  -1.13480
  Beta  occ. eigenvalues --   -1.13468  -1.13442  -1.13301  -1.13288  -1.13261
  Beta  occ. eigenvalues --   -0.15088  -0.13375  -0.12372
  Beta virt. eigenvalues --   -0.07836  -0.06933  -0.05059  -0.04085  -0.03092
  Beta virt. eigenvalues --   -0.03028  -0.02131  -0.01849  -0.01667  -0.01059
  Beta virt. eigenvalues --   -0.00773  -0.00260  -0.00037   0.00177   0.00530

 Mulliken charges and spin densities:
               1          2
     1  Na  -0.425136   0.067551
     2  Na   0.756581   0.295938
     3  Na  -0.259207   0.202803
     4  Na  -0.051247   0.197259
     5  Na  -0.284672  -0.018404
     6  Na   0.071651  -0.051312
     7  Na   0.192029   0.306163
 Sum of Mulliken charges =  -0.00000   1.00000

 Dipole moment (field-independent basis, Debye):
    X=             -0.4655    Y=             -0.9345    Z=              0.2144  Tot=              1.0658
 Quadrupole moment (field-independent basis, Debye-Ang):
   XX=            -60.8851   YY=            -68.1137   ZZ=            -70.3447
   XY=             -0.0559   XZ=             -2.1866   YZ=             -2.0094

 Normal termination of Gaussian 16 at Sun Dec  3 15:07:21 2023.
