 Gaussian 16, Revision B.01,
 Gaussian 16:  ES64L-G16RevB.01 20-Dec-2017

 -------------------------
 #P B3LYP/6-311+g(d) force
 -------------------------

 -----
 DPGEN
 -----
 Symbolic Z-matrix:
 Charge =  0 Multiplicity = 2

                         Standard orientation:
 ---------------------------------------------------------------------
 Center     Atomic      Atomic             Coordinates (Angstroms)
 Number     Number       Type             X           Y           Z
 ---------------------------------------------------------------------
      1         11           0       -0.029031    0.074137    1.819228
      2         11           0       -0.165974   -0.170010   -1.538311
      3         11           0       -3.165058    0.663572   -0.276481
      4         11           0        2.978153    1.019807   -0.189110
      5         11           0        2.092677   -2.165379   -0.096075
      6         11           0       -0.162019    3.218690    0.087599
      7         11           0       -1.548749   -2.640817    0.193150
 ---------------------------------------------------------------------

 SCF Done:  E(UB3LYP) =  -1136.13839283     A.U. after   20 cycles

 The electronic state is 2-A.
 Alpha  occ. eigenvalues --  -38.44192 -38.43897 -38.43852 -38.43678 -38.43548
 Alpha  occ. eigenvalues --  -38.43055 -38.42983  -2.20001  -2.19724  -2.19640
 Alpha  occ. eigenvalues --   -2.19526  -2.19414  -2.18981  -2.18967  -1.13685
 Alpha  occ. eigenvalues --   -1.13657  -1.13630  -1.13400  -1.13396  -1.13365
 Alpha  occ. eigenvalues --   -1.13318  -1.13299  -1.13278  -1.13211  -1.13195
 Alpha  occ. eigenvalues --   -1.13155  -1.13097  -1.13075  -1.13043  -1.12715
 Alpha  occ. eigenvalues --   -1.12630  -1.12602  -1.12595  -1.12588  -1.12585
 Alpha  occ. eigenvalues --   -0.18551  -0.12974  -0.12523  -0.10217
 Alpha virt. eigenvalues --   -0.05741  -0.05206  -0.05114  -0.02933  -0.02733
 Alpha virt. eigenvalues --   -0.02077  -0.01611  -0.01381  -0.00665  -0.00534
 Alpha virt. eigenvalues --    0.00026   0.00343   0.00783   0.00826   0.00853

  Beta  occ. eigenvalues --  -38.44183 -38.43892 -38.43851 -38.43671 -38.43542
  Beta  occ. eigenvalues --  -38.42969 -38.42924  -2.19987  -2.19719  -2.19639
  Beta  occ. eigenvalues --   -2.19515  -2.19406  -2.18860  -2.18823  -1.13665
  Beta  occ. eigenvalues --   -1.13639  -1.13624  -1.13399  -1.13379  -1.13356
  Beta  occ. eigenvalues --   -1.13301  -1.13300  -1.13280  -1.13206  -1.13165
  Beta  occ. eigenvalues --   -1.13147  -1.13090  -1.13058  -1.13028  -1.12623
  Beta  occ. eigenvalues --   -1.12535  -1.12518  -1.12506  -1.12491  -1.12470
  Beta  occ. eigenvalues --   -0.17851  -0.12706  -0.12293
  Beta virt. eigenvalues --   -0.06386  -0.05694  -0.05192  -0.05072  -0.02185
  Beta virt. eigenvalues --   -0.02001  -0.01503  -0.01307  -0.01070  -0.00706
  Beta virt. eigenvalues --   -0.00592   0.00164   0.00383   0.00801   0.00846

 Mulliken charges and spin densities:
               1          2
     1  Na  -0.287243   0.764759
     2  Na  -0.278073   0.529258
     3  Na   0.067789  -0.076945
     4  Na   0.037462  -0.063181
     5  Na   0.252476  -0.013805
     6  Na  -0.037709  -0.115559
     7  Na   0.245297  -0.024528
 Sum of Mulliken charges =  -0.00000   1.00000

 Dipole moment (field-independent basis, Debye):
    X=             -0.1951    Y=              0.1220    Z=              0.0635  Tot=              0.2387
 Quadrupole moment (field-independent basis, Debye-Ang):
   XX=            -55.7795   YY=            -58.2952   ZZ=            -77.1760
   XY=              0.2385   XZ=             -0.3234   YZ=             -0.6631

 Normal termination of Gaussian 16 at Thu Dec  7 04:30:51 2023.
