 Gaussian 16, Revision B.01,
 Gaussian 16:  ES64L-G16RevB.01 20-Dec-2017

 -------------------------
 #P B3LYP/6-311+g(d) force
 -------------------------

 -----
 DPGEN
 -----
 Symbolic Z-matrix:
 Charge =  0 Multiplicity = 2

                         Standard orientation:
 ---------------------------------------------------------------------
 Center     Atomic      Atomic             Coordinates (Angstroms)
 Number     Number       Type             X           Y           Z
 ---------------------------------------------------------------------
      1         11           0        2.559803   -0.031661    1.792304
      2         11           0        2.197838   -2.112056   -0.854424
      3         11           0       -0.128577    2.615252    0.215921
      4         11           0       -3.051921    1.225855   -0.093044
      5         11           0       -2.842834   -2.222357   -0.046646
      6         11           0       -0.506296   -0.681412    0.571429
      7         11           0        1.771987    1.206379   -1.585539
 ---------------------------------------------------------------------

 SCF Done:  E(UB3LYP) =  -1136.12258507     A.U. after   20 cycles

 The electronic state is 2-A.
 Alpha  occ. eigenvalues --  -38.44655 -38.44200 -38.44040 -38.43885 -38.43790
 Alpha  occ. eigenvalues --  -38.43024 -38.42878  -2.20505  -2.20052  -2.19891
 Alpha  occ. eigenvalues --   -2.19760  -2.19704  -2.19089  -2.18797  -1.14201
 Alpha  occ. eigenvalues --   -1.14172  -1.14128  -1.13820  -1.13688  -1.13659
 Alpha  occ. eigenvalues --   -1.13570  -1.13548  -1.13539  -1.13428  -1.13412
 Alpha  occ. eigenvalues --   -1.13385  -1.13372  -1.13351  -1.13308  -1.12778
 Alpha  occ. eigenvalues --   -1.12765  -1.12716  -1.12484  -1.12456  -1.12414
 Alpha  occ. eigenvalues --   -0.18519  -0.14018  -0.12183  -0.10472
 Alpha virt. eigenvalues --   -0.06191  -0.05743  -0.04218  -0.03396  -0.02610
 Alpha virt. eigenvalues --   -0.02217  -0.01779  -0.01100  -0.00814  -0.00202
 Alpha virt. eigenvalues --   -0.00102   0.00316   0.00580   0.00736   0.00800

  Beta  occ. eigenvalues --  -38.44658 -38.44204 -38.44014 -38.43807 -38.43731
  Beta  occ. eigenvalues --  -38.43005 -38.42872  -2.20512  -2.20059  -2.19848
  Beta  occ. eigenvalues --   -2.19617  -2.19596  -2.19059  -2.18788  -1.14205
  Beta  occ. eigenvalues --   -1.14172  -1.14137  -1.13824  -1.13690  -1.13665
  Beta  occ. eigenvalues --   -1.13542  -1.13515  -1.13484  -1.13336  -1.13321
  Beta  occ. eigenvalues --   -1.13292  -1.13275  -1.13265  -1.13235  -1.12761
  Beta  occ. eigenvalues --   -1.12710  -1.12699  -1.12475  -1.12448  -1.12391
  Beta  occ. eigenvalues --   -0.17926  -0.13772  -0.12035
  Beta virt. eigenvalues --   -0.06498  -0.06102  -0.05497  -0.04164  -0.02911
  Beta virt. eigenvalues --   -0.02033  -0.01850  -0.01210  -0.00913  -0.00684
  Beta virt. eigenvalues --   -0.00058   0.00111   0.00400   0.00672   0.00806

 Mulliken charges and spin densities:
               1          2
     1  Na   0.262211   0.076616
     2  Na   0.230975   0.117671
     3  Na   0.753204   0.116646
     4  Na  -0.039823  -0.087777
     5  Na   0.152404  -0.030896
     6  Na  -1.141326   0.561745
     7  Na  -0.217645   0.245995
 Sum of Mulliken charges =  -0.00000   1.00000

 Dipole moment (field-independent basis, Debye):
    X=             -0.6144    Y=             -0.2624    Z=             -0.2382  Tot=              0.7093
 Quadrupole moment (field-independent basis, Debye-Ang):
   XX=            -53.4108   YY=            -64.9018   ZZ=            -74.4756
   XY=             -1.2972   XZ=              1.3949   YZ=              2.0424

 Normal termination of Gaussian 16 at Thu Dec  7 16:41:26 2023.
