 Gaussian 16, Revision B.01,
 Gaussian 16:  ES64L-G16RevB.01 20-Dec-2017

 -------------------------
 #P B3LYP/6-311+g(d) force
 -------------------------

 -----
 DPGEN
 -----
 Symbolic Z-matrix:
 Charge =  0 Multiplicity = 2

                         Standard orientation:
 ---------------------------------------------------------------------
 Center     Atomic      Atomic             Coordinates (Angstroms)
 Number     Number       Type             X           Y           Z
 ---------------------------------------------------------------------
      1         11           0        0.641092   -0.353459   -1.281586
      2         11           0       -0.898573   -2.155489    0.196114
      3         11           0        3.398385    0.015493   -0.374786
      4         11           0        1.150489   -0.174849    1.487414
      5         11           0       -0.299057    2.219623    0.137614
      6         11           0       -2.094019    0.236189   -1.475686
      7         11           0       -1.898318    0.212492    1.310914
 ---------------------------------------------------------------------

 SCF Done:  E(UB3LYP) =  -1136.08457938     A.U. after   24 cycles

 The electronic state is 2-A.
 Alpha  occ. eigenvalues --  -38.44851 -38.44435 -38.44316 -38.43868 -38.43834
 Alpha  occ. eigenvalues --  -38.42618 -38.42402  -2.20757  -2.20566  -2.20508
 Alpha  occ. eigenvalues --   -2.20172  -2.20004  -2.18720  -2.18466  -1.14550
 Alpha  occ. eigenvalues --   -1.14492  -1.14456  -1.14373  -1.14339  -1.14240
 Alpha  occ. eigenvalues --   -1.14188  -1.14073  -1.14041  -1.13984  -1.13795
 Alpha  occ. eigenvalues --   -1.13738  -1.13655  -1.13574  -1.13559  -1.12429
 Alpha  occ. eigenvalues --   -1.12371  -1.12293  -1.12198  -1.12116  -1.12052
 Alpha  occ. eigenvalues --   -0.21153  -0.14058  -0.12538  -0.11863
 Alpha virt. eigenvalues --   -0.06161  -0.04178  -0.03518  -0.03482  -0.02861
 Alpha virt. eigenvalues --   -0.02688  -0.01731  -0.00531  -0.00256   0.00274
 Alpha virt. eigenvalues --    0.00537   0.00670   0.00892   0.01010   0.01028

  Beta  occ. eigenvalues --  -38.44845 -38.44378 -38.44264 -38.43809 -38.43776
  Beta  occ. eigenvalues --  -38.42604 -38.42389  -2.20747  -2.20468  -2.20415
  Beta  occ. eigenvalues --   -2.20069  -2.19903  -2.18701  -2.18449  -1.14526
  Beta  occ. eigenvalues --   -1.14446  -1.14429  -1.14334  -1.14280  -1.14156
  Beta  occ. eigenvalues --   -1.14127  -1.14003  -1.13972  -1.13907  -1.13727
  Beta  occ. eigenvalues --   -1.13661  -1.13567  -1.13501  -1.13473  -1.12422
  Beta  occ. eigenvalues --   -1.12334  -1.12253  -1.12190  -1.12066  -1.12037
  Beta  occ. eigenvalues --   -0.20284  -0.13911  -0.11534
  Beta virt. eigenvalues --   -0.08101  -0.06047  -0.03568  -0.03476  -0.03292
  Beta virt. eigenvalues --   -0.01908  -0.01872  -0.01595  -0.00245  -0.00169
  Beta virt. eigenvalues --    0.00309   0.00607   0.00834   0.00879   0.01015

 Mulliken charges and spin densities:
               1          2
     1  Na   0.758184   0.407961
     2  Na  -0.999398   0.269260
     3  Na  -0.156524   0.048109
     4  Na   0.176211   0.107527
     5  Na  -1.221528  -0.006090
     6  Na   0.280013  -0.025689
     7  Na   1.163042   0.198922
 Sum of Mulliken charges =  -0.00000   1.00000

 Dipole moment (field-independent basis, Debye):
    X=              0.6347    Y=              0.1564    Z=             -0.0910  Tot=              0.6599
 Quadrupole moment (field-independent basis, Debye-Ang):
   XX=            -53.3763   YY=            -75.3570   ZZ=            -65.6429
   XY=              0.6247   XZ=             -0.2123   YZ=             -0.8205

 Normal termination of Gaussian 16 at Fri Dec  8 04:42:06 2023.
