 Gaussian 16, Revision B.01,
 Gaussian 16:  ES64L-G16RevB.01 20-Dec-2017

 -------------------------
 #P B3LYP/6-311+g(d) force
 -------------------------

 -----
 DPGEN
 -----
 Symbolic Z-matrix:
 Charge =  0 Multiplicity = 2

                         Standard orientation:
 ---------------------------------------------------------------------
 Center     Atomic      Atomic             Coordinates (Angstroms)
 Number     Number       Type             X           Y           Z
 ---------------------------------------------------------------------
      1         11           0        2.875196    1.564660   -0.728095
      2         11           0       -1.366092    0.639525    2.250233
      3         11           0        3.618241   -1.860414    0.214254
      4         11           0        0.657698   -1.738052   -0.022844
      5         11           0       -0.093788    2.979990   -0.169813
      6         11           0       -2.841160    1.069072   -0.948802
      7         11           0       -2.850095   -2.654780   -0.594933
 ---------------------------------------------------------------------

 SCF Done:  E(UB3LYP) =  -1136.12024904     A.U. after   22 cycles

 The electronic state is 2-A.
 Alpha  occ. eigenvalues --  -38.45157 -38.44666 -38.44334 -38.44127 -38.43966
 Alpha  occ. eigenvalues --  -38.43885 -38.43322  -2.20949  -2.20494  -2.20132
 Alpha  occ. eigenvalues --   -2.19961  -2.19742  -2.19728  -2.19154  -1.14641
 Alpha  occ. eigenvalues --   -1.14613  -1.14570  -1.14224  -1.14138  -1.14113
 Alpha  occ. eigenvalues --   -1.13806  -1.13806  -1.13745  -1.13615  -1.13586
 Alpha  occ. eigenvalues --   -1.13575  -1.13416  -1.13407  -1.13402  -1.13398
 Alpha  occ. eigenvalues --   -1.13376  -1.13342  -1.12833  -1.12830  -1.12793
 Alpha  occ. eigenvalues --   -0.17176  -0.13762  -0.12475  -0.10298
 Alpha virt. eigenvalues --   -0.06972  -0.05776  -0.04643  -0.03210  -0.02861
 Alpha virt. eigenvalues --   -0.02337  -0.01904  -0.01598  -0.01456  -0.00566
 Alpha virt. eigenvalues --   -0.00197   0.00168   0.00310   0.00442   0.00663

  Beta  occ. eigenvalues --  -38.45145 -38.44663 -38.44303 -38.44026 -38.43938
  Beta  occ. eigenvalues --  -38.43880 -38.43316  -2.20929  -2.20488  -2.20074
  Beta  occ. eigenvalues --   -2.19772  -2.19720  -2.19689  -2.19146  -1.14625
  Beta  occ. eigenvalues --   -1.14593  -1.14551  -1.14217  -1.14133  -1.14110
  Beta  occ. eigenvalues --   -1.13768  -1.13766  -1.13700  -1.13485  -1.13460
  Beta  occ. eigenvalues --   -1.13448  -1.13397  -1.13387  -1.13379  -1.13362
  Beta  occ. eigenvalues --   -1.13344  -1.13332  -1.12830  -1.12827  -1.12761
  Beta  occ. eigenvalues --   -0.16691  -0.13518  -0.12078
  Beta virt. eigenvalues --   -0.06954  -0.06550  -0.05461  -0.04486  -0.02807
  Beta virt. eigenvalues --   -0.02337  -0.02107  -0.01483  -0.01368  -0.01212
  Beta virt. eigenvalues --   -0.00508   0.00107   0.00285   0.00427   0.00555

 Mulliken charges and spin densities:
               1          2
     1  Na   0.094688   0.018576
     2  Na  -0.003500   0.305819
     3  Na   1.199717  -0.226983
     4  Na  -2.248742   0.136477
     5  Na  -0.148369   0.299903
     6  Na   0.310145   0.072591
     7  Na   0.796060   0.393616
 Sum of Mulliken charges =  -0.00000   1.00000

 Dipole moment (field-independent basis, Debye):
    X=              0.4146    Y=             -0.2712    Z=              0.1639  Tot=              0.5218
 Quadrupole moment (field-independent basis, Debye-Ang):
   XX=            -54.9342   YY=            -67.7612   ZZ=            -73.9095
   XY=             -4.1644   XZ=              1.1488   YZ=             -1.5779

 Normal termination of Gaussian 16 at Mon Dec  4 02:37:35 2023.
