 Gaussian 16, Revision B.01,
 Gaussian 16:  ES64L-G16RevB.01 20-Dec-2017

 -------------------------
 #P B3LYP/6-311+g(d) force
 -------------------------

 -----
 DPGEN
 -----
 Symbolic Z-matrix:
 Charge =  0 Multiplicity = 2

                         Standard orientation:
 ---------------------------------------------------------------------
 Center     Atomic      Atomic             Coordinates (Angstroms)
 Number     Number       Type             X           Y           Z
 ---------------------------------------------------------------------
      1         11           0       -0.136734    0.226324    2.018984
      2         11           0        2.503785    1.214890   -0.663405
      3         11           0       -0.256460   -0.996822   -1.925064
      4         11           0       -2.790911    0.729347   -0.129440
      5         11           0       -0.119622    2.936510   -0.023524
      6         11           0        2.364194   -1.860576    0.562413
      7         11           0       -1.564252   -2.249673    0.160036
 ---------------------------------------------------------------------

 SCF Done:  E(UB3LYP) =  -1136.13257203     A.U. after   19 cycles

 The electronic state is 2-A.
 Alpha  occ. eigenvalues --  -38.44036 -38.43798 -38.43714 -38.43711 -38.43692
 Alpha  occ. eigenvalues --  -38.43585 -38.43189  -2.19981  -2.19720  -2.19643
 Alpha  occ. eigenvalues --   -2.19594  -2.19544  -2.19447  -2.19050  -1.13870
 Alpha  occ. eigenvalues --   -1.13607  -1.13563  -1.13408  -1.13364  -1.13353
 Alpha  occ. eigenvalues --   -1.13308  -1.13267  -1.13262  -1.13251  -1.13239
 Alpha  occ. eigenvalues --   -1.13229  -1.13209  -1.13184  -1.13178  -1.13130
 Alpha  occ. eigenvalues --   -1.13101  -1.13077  -1.12719  -1.12709  -1.12691
 Alpha  occ. eigenvalues --   -0.18882  -0.13083  -0.12566  -0.11319
 Alpha virt. eigenvalues --   -0.05333  -0.04964  -0.04647  -0.03524  -0.03326
 Alpha virt. eigenvalues --   -0.02852  -0.01203  -0.00866  -0.00175  -0.00022
 Alpha virt. eigenvalues --    0.00027   0.00391   0.00879   0.00911   0.00948

  Beta  occ. eigenvalues --  -38.43967 -38.43712 -38.43709 -38.43700 -38.43682
  Beta  occ. eigenvalues --  -38.43572 -38.43187  -2.19855  -2.19631  -2.19588
  Beta  occ. eigenvalues --   -2.19563  -2.19527  -2.19424  -2.19049  -1.13800
  Beta  occ. eigenvalues --   -1.13520  -1.13473  -1.13341  -1.13285  -1.13265
  Beta  occ. eigenvalues --   -1.13253  -1.13244  -1.13228  -1.13220  -1.13204
  Beta  occ. eigenvalues --   -1.13202  -1.13178  -1.13171  -1.13169  -1.13114
  Beta  occ. eigenvalues --   -1.13074  -1.13063  -1.12719  -1.12696  -1.12686
  Beta  occ. eigenvalues --   -0.18126  -0.12827  -0.12350
  Beta virt. eigenvalues --   -0.07407  -0.05299  -0.04884  -0.04514  -0.02743
  Beta virt. eigenvalues --   -0.02588  -0.01842  -0.01128  -0.00799  -0.00109
  Beta virt. eigenvalues --   -0.00047   0.00105   0.00428   0.00893   0.00950

 Mulliken charges and spin densities:
               1          2
     1  Na  -0.369299   0.583991
     2  Na  -0.074143   0.031245
     3  Na  -0.444026   0.428513
     4  Na   0.062278  -0.053510
     5  Na   0.026955  -0.005736
     6  Na   0.093969  -0.001577
     7  Na   0.704266   0.017073
 Sum of Mulliken charges =  -0.00000   1.00000

 Dipole moment (field-independent basis, Debye):
    X=             -0.0466    Y=             -0.1543    Z=              0.0293  Tot=              0.1639
 Quadrupole moment (field-independent basis, Debye-Ang):
   XX=            -61.4773   YY=            -64.8719   ZZ=            -70.2000
   XY=             -1.1786   XZ=             -0.1023   YZ=             -2.3089

 Normal termination of Gaussian 16 at Tue Dec  5 18:20:49 2023.
