 Gaussian 16, Revision B.01,
 Gaussian 16:  ES64L-G16RevB.01 20-Dec-2017

 -------------------------
 #P B3LYP/6-311+g(d) force
 -------------------------

 -----
 DPGEN
 -----
 Symbolic Z-matrix:
 Charge =  0 Multiplicity = 2

                         Standard orientation:
 ---------------------------------------------------------------------
 Center     Atomic      Atomic             Coordinates (Angstroms)
 Number     Number       Type             X           Y           Z
 ---------------------------------------------------------------------
      1         11           0        1.690875   -1.549431   -0.897270
      2         11           0        4.491559   -0.317933   -0.761071
      3         11           0        2.499613    1.981177    0.156655
      4         11           0       -0.964837    1.978740    0.649007
      5         11           0       -1.846782   -0.477733   -1.130337
      6         11           0        0.145497   -1.556785    2.436510
      7         11           0       -6.015925   -0.058035   -0.453494
 ---------------------------------------------------------------------

 SCF Done:  E(UB3LYP) =  -1136.09999247     A.U. after   32 cycles

 The electronic state is 2-A.
 Alpha  occ. eigenvalues --  -38.45223 -38.44742 -38.44739 -38.44596 -38.44576
 Alpha  occ. eigenvalues --  -38.44387 -38.43626  -2.21058  -2.20617  -2.20595
 Alpha  occ. eigenvalues --   -2.20378  -2.20350  -2.20088  -2.19498  -1.14751
 Alpha  occ. eigenvalues --   -1.14702  -1.14670  -1.14317  -1.14278  -1.14267
 Alpha  occ. eigenvalues --   -1.14241  -1.14231  -1.14219  -1.14090  -1.14049
 Alpha  occ. eigenvalues --   -1.14028  -1.14016  -1.13971  -1.13960  -1.13769
 Alpha  occ. eigenvalues --   -1.13766  -1.13718  -1.13176  -1.13147  -1.13131
 Alpha  occ. eigenvalues --   -0.17716  -0.13506  -0.12216  -0.10737
 Alpha virt. eigenvalues --   -0.07640  -0.05377  -0.04974  -0.03576  -0.03082
 Alpha virt. eigenvalues --   -0.02754  -0.02202  -0.01588  -0.01394  -0.00769
 Alpha virt. eigenvalues --   -0.00392   0.00007   0.00290   0.00388   0.00415

  Beta  occ. eigenvalues --  -38.45156 -38.44690 -38.44681 -38.44581 -38.44562
  Beta  occ. eigenvalues --  -38.44394 -38.43622  -2.20939  -2.20526  -2.20485
  Beta  occ. eigenvalues --   -2.20351  -2.20323  -2.20101  -2.19492  -1.14675
  Beta  occ. eigenvalues --   -1.14601  -1.14584  -1.14253  -1.14216  -1.14194
  Beta  occ. eigenvalues --   -1.14171  -1.14161  -1.14122  -1.14063  -1.14031
  Beta  occ. eigenvalues --   -1.14011  -1.13988  -1.13954  -1.13943  -1.13779
  Beta  occ. eigenvalues --   -1.13775  -1.13726  -1.13161  -1.13143  -1.13127
  Beta  occ. eigenvalues --   -0.16916  -0.13361  -0.10626
  Beta virt. eigenvalues --   -0.08288  -0.07379  -0.04976  -0.04405  -0.03068
  Beta virt. eigenvalues --   -0.02840  -0.02368  -0.01801  -0.01487  -0.01125
  Beta virt. eigenvalues --   -0.00756  -0.00268   0.00158   0.00365   0.00541

 Mulliken charges and spin densities:
               1          2
     1  Na  -0.624513   0.421900
     2  Na   0.693658  -0.052621
     3  Na  -0.160016   0.132068
     4  Na  -0.098606   0.486169
     5  Na   0.027963   0.040800
     6  Na   0.031549   0.029586
     7  Na   0.129965  -0.057903
 Sum of Mulliken charges =  -0.00000   1.00000

 Dipole moment (field-independent basis, Debye):
    X=              1.5480    Y=             -0.1679    Z=              1.1190  Tot=              1.9174
 Quadrupole moment (field-independent basis, Debye-Ang):
   XX=            -70.8498   YY=            -69.1015   ZZ=            -68.3952
   XY=             -1.2432   XZ=             -3.1981   YZ=              2.7712

 Normal termination of Gaussian 16 at Tue Nov 28 21:21:36 2023.
