 Gaussian 16, Revision B.01,
 Gaussian 16:  ES64L-G16RevB.01 20-Dec-2017

 -------------------------
 #P B3LYP/6-311+g(d) force
 -------------------------

 -----
 DPGEN
 -----
 Symbolic Z-matrix:
 Charge =  0 Multiplicity = 2

                         Standard orientation:
 ---------------------------------------------------------------------
 Center     Atomic      Atomic             Coordinates (Angstroms)
 Number     Number       Type             X           Y           Z
 ---------------------------------------------------------------------
      1         11           0       -1.135084   -1.378683    2.072347
      2         11           0       -0.981523   -2.282739   -0.988716
      3         11           0        4.960823   -0.017844    0.274874
      4         11           0        2.201479   -0.091256   -0.394559
      5         11           0       -0.814536    1.186980   -2.108517
      6         11           0       -0.908936    2.500275    1.231478
      7         11           0       -3.322224    0.083268   -0.086907
 ---------------------------------------------------------------------

 SCF Done:  E(UB3LYP) =  -1136.11453247     A.U. after   22 cycles

 The electronic state is 2-A.
 Alpha  occ. eigenvalues --  -38.45596 -38.44831 -38.43927 -38.43769 -38.43701
 Alpha  occ. eigenvalues --  -38.43474 -38.43328  -2.21445  -2.20645  -2.19788
 Alpha  occ. eigenvalues --   -2.19574  -2.19566  -2.19333  -2.19207  -1.15147
 Alpha  occ. eigenvalues --   -1.15115  -1.15051  -1.14390  -1.14275  -1.14272
 Alpha  occ. eigenvalues --   -1.13456  -1.13437  -1.13416  -1.13247  -1.13236
 Alpha  occ. eigenvalues --   -1.13230  -1.13223  -1.13205  -1.13158  -1.13019
 Alpha  occ. eigenvalues --   -1.12987  -1.12960  -1.12876  -1.12862  -1.12835
 Alpha  occ. eigenvalues --   -0.18135  -0.13260  -0.11728  -0.11390
 Alpha virt. eigenvalues --   -0.07525  -0.04328  -0.03783  -0.03420  -0.03184
 Alpha virt. eigenvalues --   -0.02960  -0.02682  -0.00880  -0.00695  -0.00440
 Alpha virt. eigenvalues --   -0.00352  -0.00228   0.00254   0.00704   0.00994

  Beta  occ. eigenvalues --  -38.45589 -38.44830 -38.43879 -38.43728 -38.43643
  Beta  occ. eigenvalues --  -38.43469 -38.43300  -2.21437  -2.20643  -2.19698
  Beta  occ. eigenvalues --   -2.19499  -2.19460  -2.19325  -2.19158  -1.15118
  Beta  occ. eigenvalues --   -1.15094  -1.15053  -1.14389  -1.14273  -1.14271
  Beta  occ. eigenvalues --   -1.13401  -1.13374  -1.13342  -1.13195  -1.13168
  Beta  occ. eigenvalues --   -1.13166  -1.13157  -1.13143  -1.13078  -1.13005
  Beta  occ. eigenvalues --   -1.12974  -1.12957  -1.12848  -1.12828  -1.12779
  Beta  occ. eigenvalues --   -0.17289  -0.13135  -0.11287
  Beta virt. eigenvalues --   -0.07749  -0.07269  -0.03801  -0.03426  -0.03164
  Beta virt. eigenvalues --   -0.03076  -0.02561  -0.01916  -0.00694  -0.00592
  Beta virt. eigenvalues --   -0.00326  -0.00233  -0.00009   0.00266   0.00765

 Mulliken charges and spin densities:
               1          2
     1  Na   0.242631   0.275603
     2  Na   0.519138   0.057590
     3  Na  -1.055384   0.305558
     4  Na  -0.588913  -0.125978
     5  Na   0.889340   0.118699
     6  Na   0.072461   0.170579
     7  Na  -0.079274   0.197951
 Sum of Mulliken charges =  -0.00000   1.00000

 Dipole moment (field-independent basis, Debye):
    X=             -0.3551    Y=              0.1194    Z=              0.3048  Tot=              0.4830
 Quadrupole moment (field-independent basis, Debye-Ang):
   XX=            -50.9973   YY=            -76.6694   ZZ=            -66.5610
   XY=              0.2678   XZ=              3.3719   YZ=              2.9202

 Normal termination of Gaussian 16 at Fri Dec  8 02:31:06 2023.
