 Gaussian 16, Revision B.01,
 Gaussian 16:  ES64L-G16RevB.01 20-Dec-2017

 -------------------------
 #P B3LYP/6-311+g(d) force
 -------------------------

 -----
 DPGEN
 -----
 Symbolic Z-matrix:
 Charge =  0 Multiplicity = 2

                         Standard orientation:
 ---------------------------------------------------------------------
 Center     Atomic      Atomic             Coordinates (Angstroms)
 Number     Number       Type             X           Y           Z
 ---------------------------------------------------------------------
      1         11           0        2.213658    0.194110   -0.725738
      2         11           0       -3.399713   -2.414338   -0.314269
      3         11           0       -0.473322    2.992225   -0.542164
      4         11           0        4.709805   -1.205820   -0.598902
      5         11           0       -2.545872    1.216129   -1.190839
      6         11           0       -0.704910   -1.889569    0.668421
      7         11           0        0.200354    1.107262    2.703491
 ---------------------------------------------------------------------

 SCF Done:  E(UB3LYP) =  -1136.11132710     A.U. after   23 cycles

 The electronic state is 2-A.
 Alpha  occ. eigenvalues --  -38.45464 -38.44691 -38.44214 -38.44178 -38.43746
 Alpha  occ. eigenvalues --  -38.43656 -38.43576  -2.21262  -2.20560  -2.20068
 Alpha  occ. eigenvalues --   -2.20008  -2.19585  -2.19516  -2.19453  -1.14905
 Alpha  occ. eigenvalues --   -1.14895  -1.14864  -1.14314  -1.14206  -1.14161
 Alpha  occ. eigenvalues --   -1.13795  -1.13775  -1.13735  -1.13716  -1.13635
 Alpha  occ. eigenvalues --   -1.13631  -1.13241  -1.13225  -1.13210  -1.13184
 Alpha  occ. eigenvalues --   -1.13164  -1.13157  -1.13134  -1.13085  -1.13054
 Alpha  occ. eigenvalues --   -0.17343  -0.13337  -0.12482  -0.11739
 Alpha virt. eigenvalues --   -0.06325  -0.05363  -0.04517  -0.03473  -0.02795
 Alpha virt. eigenvalues --   -0.02756  -0.02222  -0.01491  -0.00761  -0.00656
 Alpha virt. eigenvalues --   -0.00095   0.00040   0.00406   0.00438   0.00756

  Beta  occ. eigenvalues --  -38.45349 -38.44643 -38.44198 -38.44154 -38.43745
  Beta  occ. eigenvalues --  -38.43654 -38.43566  -2.21049  -2.20470  -2.20041
  Beta  occ. eigenvalues --   -2.19963  -2.19583  -2.19515  -2.19437  -1.14758
  Beta  occ. eigenvalues --   -1.14746  -1.14722  -1.14253  -1.14145  -1.14095
  Beta  occ. eigenvalues --   -1.13775  -1.13747  -1.13712  -1.13692  -1.13605
  Beta  occ. eigenvalues --   -1.13600  -1.13238  -1.13223  -1.13205  -1.13184
  Beta  occ. eigenvalues --   -1.13160  -1.13135  -1.13122  -1.13077  -1.13034
  Beta  occ. eigenvalues --   -0.16702  -0.13003  -0.12199
  Beta virt. eigenvalues --   -0.07992  -0.05862  -0.05116  -0.04205  -0.02961
  Beta virt. eigenvalues --   -0.02485  -0.02208  -0.02040  -0.01353  -0.00667
  Beta virt. eigenvalues --   -0.00315   0.00066   0.00162   0.00600   0.00621

 Mulliken charges and spin densities:
               1          2
     1  Na  -0.844730   0.201560
     2  Na   0.501857   0.018528
     3  Na   1.076575   0.225033
     4  Na  -0.233320  -0.109455
     5  Na  -0.000856   0.178166
     6  Na  -0.593222   0.071690
     7  Na   0.093697   0.414478
 Sum of Mulliken charges =  -0.00000   1.00000

 Dipole moment (field-independent basis, Debye):
    X=             -0.2850    Y=              0.1276    Z=              0.8320  Tot=              0.8887
 Quadrupole moment (field-independent basis, Debye-Ang):
   XX=            -59.4383   YY=            -69.0473   ZZ=            -68.6938
   XY=             -0.0011   XZ=              2.9204   YZ=              1.9098

 Normal termination of Gaussian 16 at Sun Dec  3 18:22:09 2023.
