 Gaussian 16, Revision B.01,
 Gaussian 16:  ES64L-G16RevB.01 20-Dec-2017

 -------------------------
 #P B3LYP/6-311+g(d) force
 -------------------------

 -----
 DPGEN
 -----
 Symbolic Z-matrix:
 Charge =  0 Multiplicity = 2

                         Standard orientation:
 ---------------------------------------------------------------------
 Center     Atomic      Atomic             Coordinates (Angstroms)
 Number     Number       Type             X           Y           Z
 ---------------------------------------------------------------------
      1         11           0        2.697392    1.304712    0.893072
      2         11           0       -3.083109    1.498570   -0.265389
      3         11           0        0.261684   -0.795763   -1.212350
      4         11           0       -3.246823   -2.027199    0.072870
      5         11           0        3.621029   -1.490903   -0.636431
      6         11           0       -0.227172   -0.786406    1.676997
      7         11           0       -0.023000    2.296990   -0.528769
 ---------------------------------------------------------------------

 SCF Done:  E(UB3LYP) =  -1136.11655219     A.U. after   25 cycles

 The electronic state is 2-A.
 Alpha  occ. eigenvalues --  -38.44910 -38.44564 -38.44526 -38.44279 -38.44181
 Alpha  occ. eigenvalues --  -38.43986 -38.42367  -2.20831  -2.20436  -2.20352
 Alpha  occ. eigenvalues --   -2.20064  -2.20004  -2.19889  -2.18292  -1.14629
 Alpha  occ. eigenvalues --   -1.14496  -1.14401  -1.14111  -1.14094  -1.14074
 Alpha  occ. eigenvalues --   -1.14025  -1.14016  -1.13981  -1.13740  -1.13730
 Alpha  occ. eigenvalues --   -1.13699  -1.13668  -1.13649  -1.13627  -1.13622
 Alpha  occ. eigenvalues --   -1.13505  -1.13449  -1.11998  -1.11949  -1.11929
 Alpha  occ. eigenvalues --   -0.18526  -0.14075  -0.11641  -0.10373
 Alpha virt. eigenvalues --   -0.07238  -0.05940  -0.03901  -0.03227  -0.02943
 Alpha virt. eigenvalues --   -0.02314  -0.02058  -0.01739  -0.00580  -0.00407
 Alpha virt. eigenvalues --   -0.00018   0.00137   0.00499   0.00582   0.00617

  Beta  occ. eigenvalues --  -38.44886 -38.44539 -38.44508 -38.44284 -38.44139
  Beta  occ. eigenvalues --  -38.43909 -38.42363  -2.20792  -2.20394  -2.20318
  Beta  occ. eigenvalues --   -2.20075  -2.19925  -2.19748  -2.18288  -1.14574
  Beta  occ. eigenvalues --   -1.14471  -1.14372  -1.14088  -1.14051  -1.14032
  Beta  occ. eigenvalues --   -1.14006  -1.13984  -1.13959  -1.13748  -1.13728
  Beta  occ. eigenvalues --   -1.13703  -1.13613  -1.13588  -1.13578  -1.13530
  Beta  occ. eigenvalues --   -1.13413  -1.13339  -1.11999  -1.11950  -1.11893
  Beta  occ. eigenvalues --   -0.17925  -0.13772  -0.11305
  Beta virt. eigenvalues --   -0.07105  -0.06762  -0.05700  -0.03515  -0.02968
  Beta virt. eigenvalues --   -0.02747  -0.01822  -0.01707  -0.01097  -0.00529
  Beta virt. eigenvalues --   -0.00147   0.00075   0.00179   0.00586   0.00633

 Mulliken charges and spin densities:
               1          2
     1  Na   0.726484   0.236730
     2  Na  -0.030733   0.128107
     3  Na  -0.443033   0.474564
     4  Na   0.446564  -0.047145
     5  Na  -0.055601   0.066283
     6  Na  -0.353216   0.262907
     7  Na  -0.290464  -0.121447
 Sum of Mulliken charges =  -0.00000   1.00000

 Dipole moment (field-independent basis, Debye):
    X=             -0.2296    Y=             -0.1920    Z=              0.5399  Tot=              0.6173
 Quadrupole moment (field-independent basis, Debye-Ang):
   XX=            -48.3115   YY=            -72.8274   ZZ=            -73.5276
   XY=              3.2108   XZ=              2.2499   YZ=              2.3882

 Normal termination of Gaussian 16 at Thu Dec  7 04:31:37 2023.
