 Gaussian 16, Revision B.01,
 Gaussian 16:  ES64L-G16RevB.01 20-Dec-2017

 -------------------------
 #P B3LYP/6-311+g(d) force
 -------------------------

 -----
 DPGEN
 -----
 Symbolic Z-matrix:
 Charge =  0 Multiplicity = 2

                         Standard orientation:
 ---------------------------------------------------------------------
 Center     Atomic      Atomic             Coordinates (Angstroms)
 Number     Number       Type             X           Y           Z
 ---------------------------------------------------------------------
      1         11           0       -1.849795    0.733946   -0.959122
      2         11           0       -3.532119   -1.989535    0.264774
      3         11           0        0.039735   -0.568591    1.801394
      4         11           0        1.896976    1.564503   -0.586291
      5         11           0        3.459554   -1.811783    0.395751
      6         11           0       -0.539090    3.227839    0.645364
      7         11           0        0.524740   -1.156380   -1.561871
 ---------------------------------------------------------------------

 SCF Done:  E(UB3LYP) =  -1136.12716068     A.U. after   21 cycles

 The electronic state is 2-A.
 Alpha  occ. eigenvalues --  -38.44314 -38.44298 -38.44274 -38.43867 -38.43651
 Alpha  occ. eigenvalues --  -38.43261 -38.43186  -2.20140  -2.20091  -2.20031
 Alpha  occ. eigenvalues --   -2.19764  -2.19593  -2.19208  -2.19045  -1.13847
 Alpha  occ. eigenvalues --   -1.13777  -1.13766  -1.13756  -1.13741  -1.13713
 Alpha  occ. eigenvalues --   -1.13710  -1.13696  -1.13659  -1.13498  -1.13443
 Alpha  occ. eigenvalues --   -1.13373  -1.13316  -1.13225  -1.13187  -1.12920
 Alpha  occ. eigenvalues --   -1.12888  -1.12807  -1.12709  -1.12681  -1.12675
 Alpha  occ. eigenvalues --   -0.18430  -0.12925  -0.12172  -0.10737
 Alpha virt. eigenvalues --   -0.06307  -0.05514  -0.04062  -0.03203  -0.02749
 Alpha virt. eigenvalues --   -0.02443  -0.02016  -0.01587  -0.00569  -0.00257
 Alpha virt. eigenvalues --    0.00186   0.00294   0.00603   0.00705   0.00797

  Beta  occ. eigenvalues --  -38.44310 -38.44278 -38.44230 -38.43851 -38.43582
  Beta  occ. eigenvalues --  -38.43234 -38.43178  -2.20085  -2.20040  -2.20013
  Beta  occ. eigenvalues --   -2.19738  -2.19471  -2.19163  -2.19031  -1.13763
  Beta  occ. eigenvalues --   -1.13761  -1.13739  -1.13717  -1.13715  -1.13696
  Beta  occ. eigenvalues --   -1.13684  -1.13666  -1.13645  -1.13466  -1.13401
  Beta  occ. eigenvalues --   -1.13360  -1.13238  -1.13118  -1.13106  -1.12880
  Beta  occ. eigenvalues --   -1.12842  -1.12774  -1.12699  -1.12665  -1.12659
  Beta  occ. eigenvalues --   -0.17633  -0.12783  -0.12023
  Beta virt. eigenvalues --   -0.06795  -0.06129  -0.05426  -0.03926  -0.02650
  Beta virt. eigenvalues --   -0.02221  -0.01918  -0.01629  -0.01274  -0.00479
  Beta virt. eigenvalues --   -0.00127   0.00204   0.00382   0.00676   0.00736

 Mulliken charges and spin densities:
               1          2
     1  Na   0.140514   0.347807
     2  Na  -0.085587  -0.161114
     3  Na  -0.700338   0.751199
     4  Na  -0.020336   0.167472
     5  Na   0.101879  -0.034263
     6  Na   0.435333  -0.168942
     7  Na   0.128534   0.097841
 Sum of Mulliken charges =  -0.00000   1.00000

 Dipole moment (field-independent basis, Debye):
    X=              0.3856    Y=             -0.5099    Z=              0.3343  Tot=              0.7214
 Quadrupole moment (field-independent basis, Debye-Ang):
   XX=            -54.4068   YY=            -63.6713   ZZ=            -73.2526
   XY=             -0.4680   XZ=             -0.3982   YZ=             -0.2821

 Normal termination of Gaussian 16 at Tue Dec  5 13:10:21 2023.
