 Gaussian 16, Revision B.01,
 Gaussian 16:  ES64L-G16RevB.01 20-Dec-2017

 -------------------------
 #P B3LYP/6-311+g(d) force
 -------------------------

 -----
 DPGEN
 -----
 Symbolic Z-matrix:
 Charge =  0 Multiplicity = 2

                         Standard orientation:
 ---------------------------------------------------------------------
 Center     Atomic      Atomic             Coordinates (Angstroms)
 Number     Number       Type             X           Y           Z
 ---------------------------------------------------------------------
      1         11           0       -0.087317   -0.006836   -1.472802
      2         11           0       -2.468674    1.821108    0.095339
      3         11           0       -2.795001   -1.310126   -0.013523
      4         11           0        0.321302   -2.759565   -0.117208
      5         11           0        0.598961    0.356348    2.198780
      6         11           0        1.402273    2.610234   -0.541789
      7         11           0        3.028456   -0.711162   -0.148797
 ---------------------------------------------------------------------

 SCF Done:  E(UB3LYP) =  -1136.13541854     A.U. after   19 cycles

 The electronic state is 2-A.
 Alpha  occ. eigenvalues --  -38.44191 -38.43900 -38.43782 -38.43713 -38.43531
 Alpha  occ. eigenvalues --  -38.43082 -38.42977  -2.20038  -2.19742  -2.19640
 Alpha  occ. eigenvalues --   -2.19583  -2.19378  -2.19023  -2.18969  -1.13712
 Alpha  occ. eigenvalues --   -1.13707  -1.13673  -1.13461  -1.13407  -1.13381
 Alpha  occ. eigenvalues --   -1.13294  -1.13267  -1.13259  -1.13255  -1.13234
 Alpha  occ. eigenvalues --   -1.13212  -1.13098  -1.13025  -1.12998  -1.12787
 Alpha  occ. eigenvalues --   -1.12686  -1.12644  -1.12618  -1.12589  -1.12587
 Alpha  occ. eigenvalues --   -0.18718  -0.13260  -0.12368  -0.10784
 Alpha virt. eigenvalues --   -0.05774  -0.05182  -0.04500  -0.03276  -0.02845
 Alpha virt. eigenvalues --   -0.02582  -0.01572  -0.01082  -0.00389  -0.00235
 Alpha virt. eigenvalues --   -0.00026   0.00353   0.00797   0.00862   0.00918

  Beta  occ. eigenvalues --  -38.44186 -38.43898 -38.43713 -38.43681 -38.43516
  Beta  occ. eigenvalues --  -38.43077 -38.42921  -2.20032  -2.19741  -2.19584
  Beta  occ. eigenvalues --   -2.19454  -2.19354  -2.18965  -2.18921  -1.13709
  Beta  occ. eigenvalues --   -1.13677  -1.13672  -1.13463  -1.13390  -1.13379
  Beta  occ. eigenvalues --   -1.13252  -1.13225  -1.13213  -1.13171  -1.13139
  Beta  occ. eigenvalues --   -1.13126  -1.13070  -1.12993  -1.12984  -1.12748
  Beta  occ. eigenvalues --   -1.12620  -1.12602  -1.12588  -1.12563  -1.12538
  Beta  occ. eigenvalues --   -0.18019  -0.13049  -0.12125
  Beta virt. eigenvalues --   -0.06825  -0.05720  -0.05159  -0.04467  -0.02515
  Beta virt. eigenvalues --   -0.02072  -0.01510  -0.01480  -0.01013  -0.00439
  Beta virt. eigenvalues --   -0.00271   0.00151   0.00391   0.00856   0.00863

 Mulliken charges and spin densities:
               1          2
     1  Na  -0.377576   0.164010
     2  Na   0.196355   0.014236
     3  Na   0.077939   0.017235
     4  Na   0.233872   0.028291
     5  Na  -0.713652   0.735822
     6  Na   0.197264  -0.002759
     7  Na   0.385799   0.043164
 Sum of Mulliken charges =  -0.00000   1.00000

 Dipole moment (field-independent basis, Debye):
    X=              0.1507    Y=              0.1696    Z=              0.2462  Tot=              0.3348
 Quadrupole moment (field-independent basis, Debye-Ang):
   XX=            -55.7253   YY=            -63.6062   ZZ=            -74.3657
   XY=             -0.2832   XZ=             -1.4051   YZ=             -0.6175

 Normal termination of Gaussian 16 at Thu Dec  7 08:15:48 2023.
