 Gaussian 16, Revision B.01,
 Gaussian 16:  ES64L-G16RevB.01 20-Dec-2017

 -------------------------
 #P B3LYP/6-311+g(d) force
 -------------------------

 -----
 DPGEN
 -----
 Symbolic Z-matrix:
 Charge =  0 Multiplicity = 2

                         Standard orientation:
 ---------------------------------------------------------------------
 Center     Atomic      Atomic             Coordinates (Angstroms)
 Number     Number       Type             X           Y           Z
 ---------------------------------------------------------------------
      1         11           0       -4.313054   -0.412174    0.897545
      2         11           0        5.238837   -1.681263    1.168884
      3         11           0        1.089805    3.273752   -0.675438
      4         11           0       -2.881221   -2.896184   -0.977446
      5         11           0        3.307147    0.333969   -0.855977
      6         11           0       -0.116584   -1.256066   -0.214237
      7         11           0       -2.324930    2.637967    0.656669
 ---------------------------------------------------------------------

 SCF Done:  E(UB3LYP) =  -1136.11411593     A.U. after   21 cycles

 The electronic state is 2-A.
 Alpha  occ. eigenvalues --  -38.45484 -38.44884 -38.44503 -38.44299 -38.44204
 Alpha  occ. eigenvalues --  -38.43987 -38.43960  -2.21250  -2.20678  -2.20291
 Alpha  occ. eigenvalues --   -2.20116  -2.19965  -2.19745  -2.19743  -1.14949
 Alpha  occ. eigenvalues --   -1.14908  -1.14858  -1.14354  -1.14328  -1.14301
 Alpha  occ. eigenvalues --   -1.13933  -1.13932  -1.13905  -1.13782  -1.13772
 Alpha  occ. eigenvalues --   -1.13751  -1.13644  -1.13616  -1.13602  -1.13437
 Alpha  occ. eigenvalues --   -1.13434  -1.13427  -1.13423  -1.13382  -1.13362
 Alpha  occ. eigenvalues --   -0.16129  -0.14025  -0.12268  -0.11143
 Alpha virt. eigenvalues --   -0.06734  -0.06210  -0.04174  -0.03492  -0.02954
 Alpha virt. eigenvalues --   -0.02781  -0.02143  -0.01754  -0.01135  -0.00969
 Alpha virt. eigenvalues --   -0.00420  -0.00288  -0.00058   0.00303   0.00513

  Beta  occ. eigenvalues --  -38.45447 -38.44837 -38.44412 -38.44283 -38.44188
  Beta  occ. eigenvalues --  -38.43978 -38.43969  -2.21183  -2.20592  -2.20121
  Beta  occ. eigenvalues --   -2.20088  -2.19935  -2.19767  -2.19728  -1.14899
  Beta  occ. eigenvalues --   -1.14863  -1.14810  -1.14297  -1.14269  -1.14233
  Beta  occ. eigenvalues --   -1.13817  -1.13815  -1.13795  -1.13756  -1.13744
  Beta  occ. eigenvalues --   -1.13737  -1.13623  -1.13593  -1.13589  -1.13455
  Beta  occ. eigenvalues --   -1.13448  -1.13426  -1.13415  -1.13355  -1.13336
  Beta  occ. eigenvalues --   -0.15644  -0.13496  -0.11836
  Beta virt. eigenvalues --   -0.07775  -0.06497  -0.05674  -0.03960  -0.03229
  Beta virt. eigenvalues --   -0.02726  -0.02595  -0.01768  -0.01466  -0.00991
  Beta virt. eigenvalues --   -0.00523  -0.00175  -0.00083   0.00044   0.00423

 Mulliken charges and spin densities:
               1          2
     1  Na  -0.054184   0.186966
     2  Na   0.291534   0.457717
     3  Na   0.041460   0.008488
     4  Na   0.813306  -0.010966
     5  Na   0.070517   0.107147
     6  Na  -1.232545   0.147829
     7  Na   0.069913   0.102819
 Sum of Mulliken charges =  -0.00000   1.00000

 Dipole moment (field-independent basis, Debye):
    X=             -0.8055    Y=             -0.8851    Z=             -0.0163  Tot=              1.1969
 Quadrupole moment (field-independent basis, Debye-Ang):
   XX=            -61.3286   YY=            -66.2302   ZZ=            -70.0231
   XY=              6.7687   XZ=              0.9631   YZ=             -1.8345

 Normal termination of Gaussian 16 at Sun Dec  3 17:39:15 2023.
