 Gaussian 16, Revision B.01,
 Gaussian 16:  ES64L-G16RevB.01 20-Dec-2017

 -------------------------
 #P B3LYP/6-311+g(d) force
 -------------------------

 -----
 DPGEN
 -----
 Symbolic Z-matrix:
 Charge =  0 Multiplicity = 2

                         Standard orientation:
 ---------------------------------------------------------------------
 Center     Atomic      Atomic             Coordinates (Angstroms)
 Number     Number       Type             X           Y           Z
 ---------------------------------------------------------------------
      1         11           0        2.420145   -1.330958   -1.780814
      2         11           0        3.897140    1.236848   -0.021997
      3         11           0       -2.825897    1.679610   -0.628964
      4         11           0        1.913568   -1.363605    1.905557
      5         11           0       -1.123089   -1.415021   -0.380458
      6         11           0       -4.789740   -0.672293    0.361675
      7         11           0        0.507873    1.865420    0.545001
 ---------------------------------------------------------------------

 SCF Done:  E(UB3LYP) =  -1136.11200189     A.U. after   29 cycles

 The electronic state is 2-A.
 Alpha  occ. eigenvalues --  -38.45865 -38.44973 -38.44715 -38.44144 -38.43715
 Alpha  occ. eigenvalues --  -38.43548 -38.42471  -2.21634  -2.20781  -2.20526
 Alpha  occ. eigenvalues --   -2.19976  -2.19558  -2.19370  -2.18307  -1.15319
 Alpha  occ. eigenvalues --   -1.15283  -1.15269  -1.14443  -1.14431  -1.14400
 Alpha  occ. eigenvalues --   -1.14209  -1.14172  -1.14140  -1.13670  -1.13643
 Alpha  occ. eigenvalues --   -1.13609  -1.13227  -1.13199  -1.13179  -1.13085
 Alpha  occ. eigenvalues --   -1.13056  -1.12958  -1.12000  -1.11974  -1.11935
 Alpha  occ. eigenvalues --   -0.17474  -0.14660  -0.10807  -0.10636
 Alpha virt. eigenvalues --   -0.07843  -0.05523  -0.04390  -0.03469  -0.02942
 Alpha virt. eigenvalues --   -0.02198  -0.02080  -0.01846  -0.01031  -0.00792
 Alpha virt. eigenvalues --   -0.00440   0.00121   0.00147   0.00540   0.00590

  Beta  occ. eigenvalues --  -38.45863 -38.44920 -38.44660 -38.44149 -38.43654
  Beta  occ. eigenvalues --  -38.43527 -38.42452  -2.21634  -2.20683  -2.20427
  Beta  occ. eigenvalues --   -2.19989  -2.19446  -2.19335  -2.18272  -1.15299
  Beta  occ. eigenvalues --   -1.15287  -1.15264  -1.14374  -1.14363  -1.14339
  Beta  occ. eigenvalues --   -1.14144  -1.14103  -1.14049  -1.13677  -1.13653
  Beta  occ. eigenvalues --   -1.13600  -1.13150  -1.13129  -1.13090  -1.13067
  Beta  occ. eigenvalues --   -1.13016  -1.12931  -1.11978  -1.11942  -1.11909
  Beta  occ. eigenvalues --   -0.16848  -0.14078  -0.10476
  Beta virt. eigenvalues --   -0.07466  -0.07227  -0.05541  -0.03939  -0.02990
  Beta virt. eigenvalues --   -0.02789  -0.01875  -0.01769  -0.01477  -0.00705
  Beta virt. eigenvalues --   -0.00425  -0.00262   0.00142   0.00282   0.00577

 Mulliken charges and spin densities:
               1          2
     1  Na   0.189093   0.290882
     2  Na   0.232263   0.389831
     3  Na   0.259072   0.069000
     4  Na   0.404165   0.019817
     5  Na  -0.692403  -0.012635
     6  Na   0.152585   0.247255
     7  Na  -0.544776  -0.004151
 Sum of Mulliken charges =  -0.00000   1.00000

 Dipole moment (field-independent basis, Debye):
    X=             -0.5296    Y=             -0.9362    Z=              0.8717  Tot=              1.3844
 Quadrupole moment (field-independent basis, Debye-Ang):
   XX=            -57.8667   YY=            -79.5239   ZZ=            -61.4427
   XY=             -1.5610   XZ=              2.3221   YZ=             -4.9108

 Normal termination of Gaussian 16 at Thu Dec  7 03:29:54 2023.
