 Gaussian 16, Revision B.01,
 Gaussian 16:  ES64L-G16RevB.01 20-Dec-2017

 -------------------------
 #P B3LYP/6-311+g(d) force
 -------------------------

 -----
 DPGEN
 -----
 Symbolic Z-matrix:
 Charge =  0 Multiplicity = 2

                         Standard orientation:
 ---------------------------------------------------------------------
 Center     Atomic      Atomic             Coordinates (Angstroms)
 Number     Number       Type             X           Y           Z
 ---------------------------------------------------------------------
      1         11           0       -1.290494   -2.632823   -0.122343
      2         11           0       -0.441101    3.022122   -0.354532
      3         11           0        2.701189    1.500871    0.124773
      4         11           0       -3.173350    0.392115    0.064302
      5         11           0        0.114123   -0.102456   -1.715952
      6         11           0        2.136156   -2.274324   -0.072481
      7         11           0       -0.046522    0.094495    2.076234
 ---------------------------------------------------------------------

 SCF Done:  E(UB3LYP) =  -1136.14060570     A.U. after   19 cycles

 The electronic state is 2-A.
 Alpha  occ. eigenvalues --  -38.43757 -38.43756 -38.43712 -38.43666 -38.43642
 Alpha  occ. eigenvalues --  -38.43580 -38.43276  -2.19579  -2.19577  -2.19534
 Alpha  occ. eigenvalues --   -2.19514  -2.19472  -2.19438  -2.19223  -1.13273
 Alpha  occ. eigenvalues --   -1.13258  -1.13250  -1.13236  -1.13229  -1.13205
 Alpha  occ. eigenvalues --   -1.13190  -1.13189  -1.13179  -1.13169  -1.13162
 Alpha  occ. eigenvalues --   -1.13159  -1.13145  -1.13141  -1.13127  -1.13114
 Alpha  occ. eigenvalues --   -1.13094  -1.13046  -1.12901  -1.12851  -1.12843
 Alpha  occ. eigenvalues --   -0.18420  -0.12784  -0.12512  -0.10722
 Alpha virt. eigenvalues --   -0.05367  -0.05223  -0.05055  -0.03100  -0.02956
 Alpha virt. eigenvalues --   -0.02623  -0.01350  -0.01288  -0.00498  -0.00424
 Alpha virt. eigenvalues --   -0.00020   0.00368   0.00820   0.00854   0.00871

  Beta  occ. eigenvalues --  -38.43753 -38.43749 -38.43712 -38.43639 -38.43575
  Beta  occ. eigenvalues --  -38.43571 -38.43210  -2.19574  -2.19567  -2.19516
  Beta  occ. eigenvalues --   -2.19471  -2.19432  -2.19358  -2.19102  -1.13265
  Beta  occ. eigenvalues --   -1.13238  -1.13233  -1.13224  -1.13218  -1.13188
  Beta  occ. eigenvalues --   -1.13184  -1.13171  -1.13165  -1.13161  -1.13133
  Beta  occ. eigenvalues --   -1.13116  -1.13107  -1.13085  -1.13073  -1.13045
  Beta  occ. eigenvalues --   -1.13035  -1.13020  -1.12820  -1.12765  -1.12755
  Beta  occ. eigenvalues --   -0.17687  -0.12547  -0.12305
  Beta virt. eigenvalues --   -0.06816  -0.05371  -0.05242  -0.04934  -0.02308
  Beta virt. eigenvalues --   -0.02206  -0.01566  -0.01265  -0.01200  -0.00556
  Beta virt. eigenvalues --   -0.00483   0.00120   0.00386   0.00845   0.00861

 Mulliken charges and spin densities:
               1          2
     1  Na   0.176096  -0.067277
     2  Na   0.083130  -0.067106
     3  Na   0.109007  -0.061699
     4  Na   0.044197  -0.080492
     5  Na  -0.101625   0.536482
     6  Na   0.136349  -0.077040
     7  Na  -0.447154   0.817133
 Sum of Mulliken charges =  -0.00000   1.00000

 Dipole moment (field-independent basis, Debye):
    X=              0.0548    Y=              0.0749    Z=              0.0980  Tot=              0.1350
 Quadrupole moment (field-independent basis, Debye-Ang):
   XX=            -58.8378   YY=            -60.0530   ZZ=            -74.5301
   XY=             -0.4415   XZ=              0.4123   YZ=             -0.4655

 Normal termination of Gaussian 16 at Thu Dec  7 05:42:39 2023.
