 Gaussian 16, Revision B.01,
 Gaussian 16:  ES64L-G16RevB.01 20-Dec-2017

 -------------------------
 #P B3LYP/6-311+g(d) force
 -------------------------

 -----
 DPGEN
 -----
 Symbolic Z-matrix:
 Charge =  0 Multiplicity = 2

                         Standard orientation:
 ---------------------------------------------------------------------
 Center     Atomic      Atomic             Coordinates (Angstroms)
 Number     Number       Type             X           Y           Z
 ---------------------------------------------------------------------
      1         11           0       -2.157085    0.629986   -1.316134
      2         11           0        1.199193    0.853444    1.011093
      3         11           0        2.255947   -2.005602   -0.770028
      4         11           0       -1.217984   -1.759650    1.417910
      5         11           0       -4.391782   -1.359033   -0.208890
      6         11           0        4.930254   -0.180174   -0.286121
      7         11           0       -0.618544    3.821028    0.152171
 ---------------------------------------------------------------------

 SCF Done:  E(UB3LYP) =  -1136.12198665     A.U. after   20 cycles

 The electronic state is 2-A.
 Alpha  occ. eigenvalues --  -38.44697 -38.44433 -38.44392 -38.44146 -38.43854
 Alpha  occ. eigenvalues --  -38.43718 -38.42952  -2.20496  -2.20257  -2.20200
 Alpha  occ. eigenvalues --   -2.19973  -2.19684  -2.19548  -2.18723  -1.14184
 Alpha  occ. eigenvalues --   -1.14163  -1.14147  -1.13961  -1.13927  -1.13864
 Alpha  occ. eigenvalues --   -1.13848  -1.13844  -1.13810  -1.13651  -1.13637
 Alpha  occ. eigenvalues --   -1.13579  -1.13387  -1.13374  -1.13272  -1.13214
 Alpha  occ. eigenvalues --   -1.13199  -1.13167  -1.12395  -1.12390  -1.12356
 Alpha  occ. eigenvalues --   -0.16916  -0.13996  -0.11648  -0.10920
 Alpha virt. eigenvalues --   -0.06473  -0.05169  -0.04634  -0.03632  -0.03124
 Alpha virt. eigenvalues --   -0.02228  -0.01673  -0.01378  -0.01239  -0.00761
 Alpha virt. eigenvalues --   -0.00311  -0.00212   0.00337   0.00554   0.00643

  Beta  occ. eigenvalues --  -38.44702 -38.44405 -38.44327 -38.44087 -38.43833
  Beta  occ. eigenvalues --  -38.43684 -38.42951  -2.20510  -2.20207  -2.20077
  Beta  occ. eigenvalues --   -2.19868  -2.19648  -2.19486  -2.18722  -1.14199
  Beta  occ. eigenvalues --   -1.14179  -1.14112  -1.13923  -1.13891  -1.13820
  Beta  occ. eigenvalues --   -1.13762  -1.13760  -1.13734  -1.13579  -1.13567
  Beta  occ. eigenvalues --   -1.13490  -1.13367  -1.13321  -1.13255  -1.13161
  Beta  occ. eigenvalues --   -1.13156  -1.13131  -1.12394  -1.12387  -1.12355
  Beta  occ. eigenvalues --   -0.16235  -0.13429  -0.11535
  Beta virt. eigenvalues --   -0.07356  -0.06230  -0.05017  -0.04092  -0.03302
  Beta virt. eigenvalues --   -0.02779  -0.02108  -0.01440  -0.01135  -0.00749
  Beta virt. eigenvalues --   -0.00432  -0.00214  -0.00013   0.00412   0.00626

 Mulliken charges and spin densities:
               1          2
     1  Na  -0.277374   0.237765
     2  Na  -0.716559   0.078246
     3  Na   0.026189   0.037472
     4  Na   0.194143   0.201836
     5  Na   0.196379   0.158482
     6  Na   0.243788   0.314206
     7  Na   0.333434  -0.028008
 Sum of Mulliken charges =  -0.00000   1.00000

 Dipole moment (field-independent basis, Debye):
    X=              0.3273    Y=             -0.8610    Z=              0.0291  Tot=              0.9216
 Quadrupole moment (field-independent basis, Debye-Ang):
   XX=            -61.8599   YY=            -68.4498   ZZ=            -67.4833
   XY=              3.3443   XZ=             -0.1407   YZ=              1.2918

 Normal termination of Gaussian 16 at Tue Nov 28 20:04:39 2023.
