 Gaussian 16, Revision B.01,
 Gaussian 16:  ES64L-G16RevB.01 20-Dec-2017

 -------------------------
 #P B3LYP/6-311+g(d) force
 -------------------------

 -----
 DPGEN
 -----
 Symbolic Z-matrix:
 Charge =  0 Multiplicity = 2

                         Standard orientation:
 ---------------------------------------------------------------------
 Center     Atomic      Atomic             Coordinates (Angstroms)
 Number     Number       Type             X           Y           Z
 ---------------------------------------------------------------------
      1         11           0        0.011611    0.312659    1.837299
      2         11           0       -2.132684   -1.953670   -0.092846
      3         11           0       -2.488310    1.310297    0.280882
      4         11           0        0.493863    2.779405   -0.434072
      5         11           0        1.418224   -2.379379    0.266242
      6         11           0       -0.253347   -0.404682   -1.809368
      7         11           0        2.950643    0.335369   -0.048138
 ---------------------------------------------------------------------

 SCF Done:  E(UB3LYP) =  -1136.13751590     A.U. after   18 cycles

 The electronic state is 2-A.
 Alpha  occ. eigenvalues --  -38.43673 -38.43519 -38.43459 -38.43382 -38.43377
 Alpha  occ. eigenvalues --  -38.43326 -38.43256  -2.19549  -2.19440  -2.19386
 Alpha  occ. eigenvalues --   -2.19364  -2.19363  -2.19234  -2.19133  -1.13254
 Alpha  occ. eigenvalues --   -1.13231  -1.13211  -1.13201  -1.13194  -1.13103
 Alpha  occ. eigenvalues --   -1.13090  -1.13054  -1.13017  -1.13006  -1.13001
 Alpha  occ. eigenvalues --   -1.12983  -1.12970  -1.12967  -1.12929  -1.12890
 Alpha  occ. eigenvalues --   -1.12886  -1.12851  -1.12799  -1.12789  -1.12765
 Alpha  occ. eigenvalues --   -0.19330  -0.13187  -0.12700  -0.11073
 Alpha virt. eigenvalues --   -0.05217  -0.04987  -0.04650  -0.03291  -0.03128
 Alpha virt. eigenvalues --   -0.02583  -0.01226  -0.00988  -0.00091  -0.00022
 Alpha virt. eigenvalues --    0.00056   0.00377   0.00895   0.00958   0.00966

  Beta  occ. eigenvalues --  -38.43670 -38.43508 -38.43452 -38.43318 -38.43304
  Beta  occ. eigenvalues --  -38.43297 -38.43246  -2.19547  -2.19424  -2.19364
  Beta  occ. eigenvalues --   -2.19236  -2.19223  -2.19217  -2.19116  -1.13253
  Beta  occ. eigenvalues --   -1.13206  -1.13194  -1.13181  -1.13151  -1.13082
  Beta  occ. eigenvalues --   -1.13062  -1.13001  -1.12973  -1.12956  -1.12926
  Beta  occ. eigenvalues --   -1.12916  -1.12899  -1.12874  -1.12861  -1.12855
  Beta  occ. eigenvalues --   -1.12848  -1.12829  -1.12782  -1.12762  -1.12748
  Beta  occ. eigenvalues --   -0.18581  -0.12912  -0.12440
  Beta virt. eigenvalues --   -0.07120  -0.05193  -0.04977  -0.04608  -0.02457
  Beta virt. eigenvalues --   -0.02327  -0.01528  -0.01149  -0.00919  -0.00082
  Beta virt. eigenvalues --   -0.00065   0.00133   0.00397   0.00941   0.00952

 Mulliken charges and spin densities:
               1          2
     1  Na  -0.396279   0.568054
     2  Na   0.372481  -0.057534
     3  Na   0.313208  -0.005269
     4  Na   0.033266  -0.020497
     5  Na   0.183488  -0.059599
     6  Na  -0.501729   0.647616
     7  Na  -0.004435  -0.072772
 Sum of Mulliken charges =  -0.00000   1.00000

 Dipole moment (field-independent basis, Debye):
    X=              0.0415    Y=              0.0285    Z=              0.0124  Tot=              0.0518
 Quadrupole moment (field-independent basis, Debye-Ang):
   XX=            -59.1623   YY=            -62.8918   ZZ=            -72.5801
   XY=              0.4282   XZ=             -0.6867   YZ=             -1.6065

 Normal termination of Gaussian 16 at Thu Dec  7 04:12:31 2023.
