 Gaussian 16, Revision B.01,
 Gaussian 16:  ES64L-G16RevB.01 20-Dec-2017

 -------------------------
 #P B3LYP/6-311+g(d) force
 -------------------------

 -----
 DPGEN
 -----
 Symbolic Z-matrix:
 Charge =  0 Multiplicity = 2

                         Standard orientation:
 ---------------------------------------------------------------------
 Center     Atomic      Atomic             Coordinates (Angstroms)
 Number     Number       Type             X           Y           Z
 ---------------------------------------------------------------------
      1         11           0       -0.082389    1.144232    1.149439
      2         11           0       -1.857560    3.417263   -0.974015
      3         11           0       -3.114325    0.635604    0.546885
      4         11           0       -0.325829   -2.196627   -0.129313
      5         11           0        2.861739   -0.451070    1.125792
      6         11           0       -3.482892   -2.561775   -0.742251
      7         11           0        6.001257    0.012373   -0.976537
 ---------------------------------------------------------------------

 SCF Done:  E(UB3LYP) =  -1136.12078857     A.U. after   20 cycles

 The electronic state is 2-A.
 Alpha  occ. eigenvalues --  -38.44871 -38.44434 -38.44344 -38.44193 -38.43845
 Alpha  occ. eigenvalues --  -38.43407 -38.43275  -2.20656  -2.20224  -2.20216
 Alpha  occ. eigenvalues --   -2.20017  -2.19744  -2.19236  -2.19071  -1.14286
 Alpha  occ. eigenvalues --   -1.14286  -1.14257  -1.13967  -1.13912  -1.13892
 Alpha  occ. eigenvalues --   -1.13883  -1.13850  -1.13774  -1.13711  -1.13702
 Alpha  occ. eigenvalues --   -1.13627  -1.13457  -1.13422  -1.13318  -1.12897
 Alpha  occ. eigenvalues --   -1.12890  -1.12874  -1.12764  -1.12748  -1.12710
 Alpha  occ. eigenvalues --   -0.17017  -0.13571  -0.12439  -0.11297
 Alpha virt. eigenvalues --   -0.06335  -0.05234  -0.04602  -0.03792  -0.02612
 Alpha virt. eigenvalues --   -0.02308  -0.02056  -0.01764  -0.00920  -0.00660
 Alpha virt. eigenvalues --   -0.00516  -0.00227   0.00124   0.00450   0.00643

  Beta  occ. eigenvalues --  -38.44735 -38.44425 -38.44334 -38.44181 -38.43816
  Beta  occ. eigenvalues --  -38.43392 -38.43280  -2.20402  -2.20207  -2.20198
  Beta  occ. eigenvalues --   -2.19997  -2.19693  -2.19209  -2.19089  -1.14114
  Beta  occ. eigenvalues --   -1.14114  -1.14088  -1.13948  -1.13899  -1.13879
  Beta  occ. eigenvalues --   -1.13871  -1.13839  -1.13760  -1.13700  -1.13688
  Beta  occ. eigenvalues --   -1.13604  -1.13430  -1.13389  -1.13266  -1.12878
  Beta  occ. eigenvalues --   -1.12870  -1.12857  -1.12781  -1.12767  -1.12672
  Beta  occ. eigenvalues --   -0.16662  -0.12614  -0.12358
  Beta virt. eigenvalues --   -0.07586  -0.06221  -0.04771  -0.04324  -0.03672
  Beta virt. eigenvalues --   -0.02438  -0.01975  -0.01476  -0.01379  -0.00725
  Beta virt. eigenvalues --   -0.00378  -0.00294   0.00016   0.00288   0.00562

 Mulliken charges and spin densities:
               1          2
     1  Na  -0.666915   0.061184
     2  Na   0.370141   0.083186
     3  Na   0.119843   0.150789
     4  Na  -0.329238   0.053596
     5  Na   0.124926  -0.098928
     6  Na   0.394411   0.067082
     7  Na  -0.013169   0.683091
 Sum of Mulliken charges =  -0.00000   1.00000

 Dipole moment (field-independent basis, Debye):
    X=             -1.0333    Y=              0.6883    Z=             -0.7978  Tot=              1.4758
 Quadrupole moment (field-independent basis, Debye-Ang):
   XX=            -66.5804   YY=            -64.9938   ZZ=            -67.3643
   XY=             -0.2343   XZ=             -0.7964   YZ=             -2.2105

 Normal termination of Gaussian 16 at Tue Nov 28 22:32:32 2023.
