 Gaussian 16, Revision B.01,
 Gaussian 16:  ES64L-G16RevB.01 20-Dec-2017

 -------------------------
 #P B3LYP/6-311+g(d) force
 -------------------------

 -----
 DPGEN
 -----
 Symbolic Z-matrix:
 Charge =  0 Multiplicity = 2

                         Standard orientation:
 ---------------------------------------------------------------------
 Center     Atomic      Atomic             Coordinates (Angstroms)
 Number     Number       Type             X           Y           Z
 ---------------------------------------------------------------------
      1         11           0       -2.335393   -0.248947    1.405429
      2         11           0       -5.770444    0.568271    0.025254
      3         11           0       -8.642787    1.189977   -0.707964
      4         11           0       -0.485445   -2.216789    0.278838
      5         11           0        3.142057   -1.825229   -1.147721
      6         11           0        7.112344   -0.272629    0.230277
      7         11           0        6.979667    2.805346   -0.084112
 ---------------------------------------------------------------------

 SCF Done:  E(UB3LYP) =  -1136.10127827     A.U. after   21 cycles

 The electronic state is 2-A.
 Alpha  occ. eigenvalues --  -38.45607 -38.45068 -38.44734 -38.44385 -38.44329
 Alpha  occ. eigenvalues --  -38.44067 -38.43622  -2.21374  -2.20859  -2.20511
 Alpha  occ. eigenvalues --   -2.20194  -2.20167  -2.19877  -2.19421  -1.15018
 Alpha  occ. eigenvalues --   -1.15009  -1.14972  -1.14535  -1.14506  -1.14503
 Alpha  occ. eigenvalues --   -1.14176  -1.14162  -1.14157  -1.14041  -1.13856
 Alpha  occ. eigenvalues --   -1.13845  -1.13796  -1.13789  -1.13712  -1.13569
 Alpha  occ. eigenvalues --   -1.13516  -1.13516  -1.13088  -1.13087  -1.13063
 Alpha  occ. eigenvalues --   -0.15023  -0.14136  -0.12981  -0.11600
 Alpha virt. eigenvalues --   -0.06832  -0.05647  -0.04137  -0.03244  -0.03155
 Alpha virt. eigenvalues --   -0.02891  -0.02253  -0.02148  -0.01770  -0.01302
 Alpha virt. eigenvalues --   -0.00965  -0.00707  -0.00323   0.00284   0.00370

  Beta  occ. eigenvalues --  -38.45482 -38.45035 -38.44742 -38.44399 -38.44279
  Beta  occ. eigenvalues --  -38.44034 -38.43629  -2.21141  -2.20798  -2.20530
  Beta  occ. eigenvalues --   -2.20222  -2.20077  -2.19815  -2.19437  -1.14860
  Beta  occ. eigenvalues --   -1.14852  -1.14815  -1.14499  -1.14465  -1.14462
  Beta  occ. eigenvalues --   -1.14190  -1.14176  -1.14150  -1.14016  -1.13880
  Beta  occ. eigenvalues --   -1.13856  -1.13736  -1.13728  -1.13674  -1.13530
  Beta  occ. eigenvalues --   -1.13473  -1.13473  -1.13101  -1.13101  -1.13047
  Beta  occ. eigenvalues --   -0.14375  -0.13700  -0.12457
  Beta virt. eigenvalues --   -0.08268  -0.06429  -0.05260  -0.03897  -0.03012
  Beta virt. eigenvalues --   -0.02937  -0.02629  -0.02034  -0.01878  -0.01651
  Beta virt. eigenvalues --   -0.01072  -0.00528  -0.00437  -0.00039   0.00348

 Mulliken charges and spin densities:
               1          2
     1  Na  -0.717141   0.007817
     2  Na  -0.888598   0.234472
     3  Na   1.597277   0.078305
     4  Na  -0.099059  -0.054138
     5  Na   0.081976   0.645618
     6  Na  -0.134313  -0.057552
     7  Na   0.159858   0.145477
 Sum of Mulliken charges =  -0.00000   1.00000

 Dipole moment (field-independent basis, Debye):
    X=              2.1133    Y=              0.6044    Z=             -0.1644  Tot=              2.2042
 Quadrupole moment (field-independent basis, Debye-Ang):
   XX=            -56.9780   YY=            -62.4375   ZZ=            -73.2021
   XY=              0.4128   XZ=              1.5083   YZ=             -0.0962

 Normal termination of Gaussian 16 at Sun Dec  3 17:43:12 2023.
