 Gaussian 16, Revision B.01,
 Gaussian 16:  ES64L-G16RevB.01 20-Dec-2017

 -------------------------
 #P B3LYP/6-311+g(d) force
 -------------------------

 -----
 DPGEN
 -----
 Symbolic Z-matrix:
 Charge =  0 Multiplicity = 2

                         Standard orientation:
 ---------------------------------------------------------------------
 Center     Atomic      Atomic             Coordinates (Angstroms)
 Number     Number       Type             X           Y           Z
 ---------------------------------------------------------------------
      1         11           0        1.211176    1.620899   -1.193143
      2         11           0       -1.662100    3.083840    0.629684
      3         11           0        0.220088   -0.190117    1.656905
      4         11           0       -3.111656   -2.305979    0.461967
      5         11           0        1.153221   -1.875305   -0.990126
      6         11           0       -1.482791    0.113377   -1.315679
      7         11           0        3.672063   -0.446714    0.750390
 ---------------------------------------------------------------------

 SCF Done:  E(UB3LYP) =  -1136.12925767     A.U. after   21 cycles

 The electronic state is 2-A.
 Alpha  occ. eigenvalues --  -38.44188 -38.44097 -38.43884 -38.43833 -38.43619
 Alpha  occ. eigenvalues --  -38.43498 -38.42880  -2.20009  -2.19993  -2.19791
 Alpha  occ. eigenvalues --   -2.19598  -2.19416  -2.19409  -2.18863  -1.13731
 Alpha  occ. eigenvalues --   -1.13677  -1.13671  -1.13651  -1.13630  -1.13586
 Alpha  occ. eigenvalues --   -1.13497  -1.13451  -1.13377  -1.13278  -1.13260
 Alpha  occ. eigenvalues --   -1.13224  -1.13162  -1.13081  -1.13073  -1.13070
 Alpha  occ. eigenvalues --   -1.13037  -1.12987  -1.12587  -1.12515  -1.12447
 Alpha  occ. eigenvalues --   -0.18559  -0.13037  -0.11792  -0.10922
 Alpha virt. eigenvalues --   -0.06130  -0.05333  -0.04261  -0.03117  -0.02651
 Alpha virt. eigenvalues --   -0.02390  -0.01941  -0.01340  -0.00824   0.00006
 Alpha virt. eigenvalues --    0.00211   0.00277   0.00562   0.00660   0.00778

  Beta  occ. eigenvalues --  -38.44173 -38.44043 -38.43852 -38.43831 -38.43606
  Beta  occ. eigenvalues --  -38.43459 -38.42842  -2.19982  -2.19894  -2.19737
  Beta  occ. eigenvalues --   -2.19594  -2.19386  -2.19349  -2.18799  -1.13666
  Beta  occ. eigenvalues --   -1.13658  -1.13637  -1.13629  -1.13561  -1.13515
  Beta  occ. eigenvalues --   -1.13457  -1.13377  -1.13347  -1.13276  -1.13253
  Beta  occ. eigenvalues --   -1.13222  -1.13108  -1.13065  -1.13046  -1.13023
  Beta  occ. eigenvalues --   -1.13009  -1.12943  -1.12541  -1.12431  -1.12411
  Beta  occ. eigenvalues --   -0.17752  -0.12826  -0.11649
  Beta virt. eigenvalues --   -0.06999  -0.05947  -0.05179  -0.04032  -0.02697
  Beta virt. eigenvalues --   -0.02213  -0.01855  -0.01436  -0.01224  -0.00445
  Beta virt. eigenvalues --    0.00016   0.00233   0.00362   0.00637   0.00751

 Mulliken charges and spin densities:
               1          2
     1  Na  -0.004717   0.092918
     2  Na  -0.219983  -0.099499
     3  Na  -0.571238   0.722384
     4  Na  -0.171968  -0.118720
     5  Na   0.013664   0.029238
     6  Na   0.503242   0.349238
     7  Na   0.450999   0.024443
 Sum of Mulliken charges =  -0.00000   1.00000

 Dipole moment (field-independent basis, Debye):
    X=              0.6095    Y=              0.0387    Z=              0.2881  Tot=              0.6752
 Quadrupole moment (field-independent basis, Debye-Ang):
   XX=            -54.4272   YY=            -65.8291   ZZ=            -71.1516
   XY=             -0.7811   XZ=             -1.4400   YZ=              0.8434

 Normal termination of Gaussian 16 at Thu Dec  7 07:05:02 2023.
