 Gaussian 16, Revision B.01,
 Gaussian 16:  ES64L-G16RevB.01 20-Dec-2017

 -------------------------
 #P B3LYP/6-311+g(d) force
 -------------------------

 -----
 DPGEN
 -----
 Symbolic Z-matrix:
 Charge =  0 Multiplicity = 2

                         Standard orientation:
 ---------------------------------------------------------------------
 Center     Atomic      Atomic             Coordinates (Angstroms)
 Number     Number       Type             X           Y           Z
 ---------------------------------------------------------------------
      1         11           0       -2.020492   -2.358377   -0.277106
      2         11           0        0.019353   -0.076745   -1.589828
      3         11           0        3.015305    0.885149   -0.346953
      4         11           0        2.012499   -2.119280    0.089637
      5         11           0       -0.207957    2.963909   -0.032290
      6         11           0       -3.076921    0.819549    0.068036
      7         11           0        0.258213   -0.114204    2.088504
 ---------------------------------------------------------------------

 SCF Done:  E(UB3LYP) =  -1136.13724711     A.U. after   20 cycles

 The electronic state is 2-A.
 Alpha  occ. eigenvalues --  -38.44214 -38.44148 -38.43660 -38.43581 -38.43500
 Alpha  occ. eigenvalues --  -38.43196 -38.43101  -2.20035  -2.20002  -2.19542
 Alpha  occ. eigenvalues --   -2.19470  -2.19332  -2.19177  -2.18925  -1.13709
 Alpha  occ. eigenvalues --   -1.13699  -1.13688  -1.13675  -1.13663  -1.13639
 Alpha  occ. eigenvalues --   -1.13232  -1.13180  -1.13160  -1.13149  -1.13109
 Alpha  occ. eigenvalues --   -1.13097  -1.13026  -1.12990  -1.12967  -1.12863
 Alpha  occ. eigenvalues --   -1.12814  -1.12796  -1.12602  -1.12590  -1.12560
 Alpha  occ. eigenvalues --   -0.18615  -0.13331  -0.12146  -0.10735
 Alpha virt. eigenvalues --   -0.05820  -0.05263  -0.04537  -0.03308  -0.02695
 Alpha virt. eigenvalues --   -0.02578  -0.01677  -0.01104  -0.00413  -0.00389
 Alpha virt. eigenvalues --   -0.00018   0.00349   0.00757   0.00876   0.00879

  Beta  occ. eigenvalues --  -38.44214 -38.44138 -38.43572 -38.43559 -38.43495
  Beta  occ. eigenvalues --  -38.43137 -38.43099  -2.20036  -2.19987  -2.19459
  Beta  occ. eigenvalues --   -2.19357  -2.19326  -2.19070  -2.18925  -1.13702
  Beta  occ. eigenvalues --   -1.13697  -1.13679  -1.13676  -1.13636  -1.13625
  Beta  occ. eigenvalues --   -1.13170  -1.13106  -1.13097  -1.13069  -1.13031
  Beta  occ. eigenvalues --   -1.13015  -1.13012  -1.12981  -1.12961  -1.12790
  Beta  occ. eigenvalues --   -1.12742  -1.12716  -1.12596  -1.12577  -1.12560
  Beta  occ. eigenvalues --   -0.17888  -0.13105  -0.11914
  Beta virt. eigenvalues --   -0.06799  -0.05765  -0.05254  -0.04508  -0.02525
  Beta virt. eigenvalues --   -0.01955  -0.01588  -0.01489  -0.01036  -0.00470
  Beta virt. eigenvalues --   -0.00422   0.00132   0.00380   0.00829   0.00870

 Mulliken charges and spin densities:
               1          2
     1  Na   0.164865  -0.049390
     2  Na  -0.235420   0.405748
     3  Na   0.200545  -0.009081
     4  Na   0.368284   0.028111
     5  Na  -0.026173  -0.072865
     6  Na   0.028607  -0.041710
     7  Na  -0.500707   0.739187
 Sum of Mulliken charges =  -0.00000   1.00000

 Dipole moment (field-independent basis, Debye):
    X=              0.0106    Y=             -0.0016    Z=              0.1383  Tot=              0.1387
 Quadrupole moment (field-independent basis, Debye-Ang):
   XX=            -54.8258   YY=            -63.9675   ZZ=            -74.6937
   XY=              0.1719   XZ=             -0.8882   YZ=              0.1241

 Normal termination of Gaussian 16 at Thu Dec  7 21:21:59 2023.
