 Gaussian 16, Revision B.01,
 Gaussian 16:  ES64L-G16RevB.01 20-Dec-2017

 -------------------------
 #P B3LYP/6-311+g(d) force
 -------------------------

 -----
 DPGEN
 -----
 Symbolic Z-matrix:
 Charge =  0 Multiplicity = 2

                         Standard orientation:
 ---------------------------------------------------------------------
 Center     Atomic      Atomic             Coordinates (Angstroms)
 Number     Number       Type             X           Y           Z
 ---------------------------------------------------------------------
      1         11           0        1.140203   -2.625663   -0.591604
      2         11           0       -2.808271   -1.490481    0.295932
      3         11           0       -0.144622   -0.197798    1.881833
      4         11           0       -0.364763   -0.059179   -1.858427
      5         11           0        3.201915    0.014788    0.585090
      6         11           0        1.065018    2.478119   -0.452425
      7         11           0       -2.089480    1.880214    0.139601
 ---------------------------------------------------------------------

 SCF Done:  E(UB3LYP) =  -1136.13671192     A.U. after   19 cycles

 The electronic state is 2-A.
 Alpha  occ. eigenvalues --  -38.44019 -38.43927 -38.43760 -38.43491 -38.43486
 Alpha  occ. eigenvalues --  -38.43402 -38.42920  -2.19839  -2.19764  -2.19686
 Alpha  occ. eigenvalues --   -2.19466  -2.19323  -2.19320  -2.18815  -1.13512
 Alpha  occ. eigenvalues --   -1.13498  -1.13480  -1.13458  -1.13433  -1.13399
 Alpha  occ. eigenvalues --   -1.13363  -1.13324  -1.13293  -1.13153  -1.13148
 Alpha  occ. eigenvalues --   -1.13095  -1.13001  -1.12997  -1.12972  -1.12968
 Alpha  occ. eigenvalues --   -1.12941  -1.12939  -1.12504  -1.12469  -1.12444
 Alpha  occ. eigenvalues --   -0.18863  -0.13131  -0.12274  -0.11213
 Alpha virt. eigenvalues --   -0.05668  -0.05002  -0.04325  -0.03373  -0.03028
 Alpha virt. eigenvalues --   -0.02803  -0.01572  -0.00966  -0.00313   0.00003
 Alpha virt. eigenvalues --    0.00080   0.00358   0.00821   0.00867   0.00920

  Beta  occ. eigenvalues --  -38.44009 -38.43921 -38.43687 -38.43470 -38.43405
  Beta  occ. eigenvalues --  -38.43394 -38.42912  -2.19822  -2.19758  -2.19552
  Beta  occ. eigenvalues --   -2.19312  -2.19310  -2.19297  -2.18805  -1.13489
  Beta  occ. eigenvalues --   -1.13485  -1.13469  -1.13439  -1.13423  -1.13388
  Beta  occ. eigenvalues --   -1.13280  -1.13233  -1.13195  -1.13067  -1.13061
  Beta  occ. eigenvalues --   -1.12995  -1.12983  -1.12955  -1.12947  -1.12933
  Beta  occ. eigenvalues --   -1.12924  -1.12905  -1.12490  -1.12458  -1.12425
  Beta  occ. eigenvalues --   -0.18123  -0.12869  -0.11986
  Beta virt. eigenvalues --   -0.07310  -0.05575  -0.04990  -0.04251  -0.02666
  Beta virt. eigenvalues --   -0.02257  -0.01761  -0.01449  -0.00906  -0.00271
  Beta virt. eigenvalues --    0.00023   0.00114   0.00385   0.00877   0.00894

 Mulliken charges and spin densities:
               1          2
     1  Na  -0.089075  -0.050987
     2  Na   0.057515  -0.092979
     3  Na  -0.272463   0.579370
     4  Na   0.041371   0.489630
     5  Na   0.022682   0.045893
     6  Na   0.003375   0.022525
     7  Na   0.236595   0.006547
 Sum of Mulliken charges =  -0.00000   1.00000

 Dipole moment (field-independent basis, Debye):
    X=             -0.1294    Y=             -0.2787    Z=              0.2022  Tot=              0.3678
 Quadrupole moment (field-independent basis, Debye-Ang):
   XX=            -56.3567   YY=            -65.9969   ZZ=            -71.9281
   XY=              0.5981   XZ=              0.1754   YZ=              0.3922

 Normal termination of Gaussian 16 at Thu Dec  7 20:01:51 2023.
