 Gaussian 16, Revision B.01,
 Gaussian 16:  ES64L-G16RevB.01 20-Dec-2017

 -------------------------
 #P B3LYP/6-311+g(d) force
 -------------------------

 -----
 DPGEN
 -----
 Symbolic Z-matrix:
 Charge =  0 Multiplicity = 2

                         Standard orientation:
 ---------------------------------------------------------------------
 Center     Atomic      Atomic             Coordinates (Angstroms)
 Number     Number       Type             X           Y           Z
 ---------------------------------------------------------------------
      1         11           0       -0.189189    0.365947   -1.503431
      2         11           0        3.355418    1.077847   -0.046158
      3         11           0       -1.460180   -2.403550   -0.637520
      4         11           0       -3.356075    0.529909    0.075637
      5         11           0        2.239644   -2.161508    0.017952
      6         11           0       -0.396182   -0.314041    2.179315
      7         11           0       -0.193436    2.905395   -0.085794
 ---------------------------------------------------------------------

 SCF Done:  E(UB3LYP) =  -1136.13016130     A.U. after   19 cycles

 The electronic state is 2-A.
 Alpha  occ. eigenvalues --  -38.44874 -38.44599 -38.43829 -38.43672 -38.43404
 Alpha  occ. eigenvalues --  -38.43282 -38.43254  -2.20672  -2.20366  -2.19675
 Alpha  occ. eigenvalues --   -2.19475  -2.19263  -2.19236  -2.19148  -1.14346
 Alpha  occ. eigenvalues --   -1.14326  -1.14314  -1.14045  -1.14028  -1.14002
 Alpha  occ. eigenvalues --   -1.13335  -1.13304  -1.13290  -1.13158  -1.13149
 Alpha  occ. eigenvalues --   -1.13141  -1.13116  -1.12958  -1.12899  -1.12865
 Alpha  occ. eigenvalues --   -1.12850  -1.12815  -1.12794  -1.12777  -1.12763
 Alpha  occ. eigenvalues --   -0.18239  -0.13059  -0.12115  -0.10636
 Alpha virt. eigenvalues --   -0.06399  -0.05217  -0.04403  -0.03144  -0.02770
 Alpha virt. eigenvalues --   -0.02556  -0.02062  -0.01150  -0.00534  -0.00427
 Alpha virt. eigenvalues --   -0.00067   0.00296   0.00729   0.00754   0.00811

  Beta  occ. eigenvalues --  -38.44870 -38.44602 -38.43728 -38.43672 -38.43400
  Beta  occ. eigenvalues --  -38.43262 -38.43200  -2.20668  -2.20373  -2.19488
  Beta  occ. eigenvalues --   -2.19476  -2.19248  -2.19148  -2.19114  -1.14328
  Beta  occ. eigenvalues --   -1.14318  -1.14312  -1.14043  -1.14032  -1.14007
  Beta  occ. eigenvalues --   -1.13210  -1.13175  -1.13158  -1.13143  -1.13131
  Beta  occ. eigenvalues --   -1.13121  -1.13117  -1.12908  -1.12875  -1.12846
  Beta  occ. eigenvalues --   -1.12804  -1.12765  -1.12757  -1.12742  -1.12724
  Beta  occ. eigenvalues --   -0.17526  -0.12907  -0.11881
  Beta virt. eigenvalues --   -0.06679  -0.06316  -0.05222  -0.04344  -0.02477
  Beta virt. eigenvalues --   -0.02025  -0.01958  -0.01471  -0.01096  -0.00555
  Beta virt. eigenvalues --   -0.00453   0.00109   0.00335   0.00804   0.00821

 Mulliken charges and spin densities:
               1          2
     1  Na   0.024378   0.280866
     2  Na  -0.038304  -0.058430
     3  Na   0.171610   0.031751
     4  Na   0.252280   0.031605
     5  Na   0.040946  -0.033805
     6  Na  -0.509132   0.812208
     7  Na   0.058221  -0.064195
 Sum of Mulliken charges =  -0.00000   1.00000

 Dipole moment (field-independent basis, Debye):
    X=             -0.1939    Y=              0.1849    Z=              0.2485  Tot=              0.3654
 Quadrupole moment (field-independent basis, Debye-Ang):
   XX=            -51.1657   YY=            -65.7957   ZZ=            -75.5938
   XY=              0.0104   XZ=              0.3446   YZ=              1.4937

 Normal termination of Gaussian 16 at Thu Dec  7 04:00:28 2023.
