 Gaussian 16, Revision B.01,
 Gaussian 16:  ES64L-G16RevB.01 20-Dec-2017

 -------------------------
 #P B3LYP/6-311+g(d) force
 -------------------------

 -----
 DPGEN
 -----
 Symbolic Z-matrix:
 Charge =  0 Multiplicity = 2

                         Standard orientation:
 ---------------------------------------------------------------------
 Center     Atomic      Atomic             Coordinates (Angstroms)
 Number     Number       Type             X           Y           Z
 ---------------------------------------------------------------------
      1         11           0       -0.816533    2.097150   -0.696422
      2         11           0       -3.237474    0.929417    1.142202
      3         11           0        0.357222   -0.865989   -1.604771
      4         11           0        3.889317   -1.159345    0.755476
      5         11           0        2.382337    1.661982   -0.492770
      6         11           0       -2.611464   -2.144147   -0.719515
      7         11           0        0.036594   -0.519068    1.615799
 ---------------------------------------------------------------------

 SCF Done:  E(UB3LYP) =  -1136.12359265     A.U. after   24 cycles

 The electronic state is 2-A.
 Alpha  occ. eigenvalues --  -38.45170 -38.44469 -38.44459 -38.43855 -38.43734
 Alpha  occ. eigenvalues --  -38.43666 -38.42281  -2.21012  -2.20302  -2.20256
 Alpha  occ. eigenvalues --   -2.19796  -2.19616  -2.19482  -2.18203  -1.14748
 Alpha  occ. eigenvalues --   -1.14662  -1.14609  -1.13967  -1.13953  -1.13922
 Alpha  occ. eigenvalues --   -1.13917  -1.13915  -1.13874  -1.13503  -1.13429
 Alpha  occ. eigenvalues --   -1.13415  -1.13292  -1.13288  -1.13238  -1.13151
 Alpha  occ. eigenvalues --   -1.13137  -1.13112  -1.11893  -1.11864  -1.11850
 Alpha  occ. eigenvalues --   -0.18480  -0.13943  -0.11377  -0.11183
 Alpha virt. eigenvalues --   -0.06833  -0.05268  -0.04428  -0.03123  -0.02763
 Alpha virt. eigenvalues --   -0.02594  -0.02242  -0.01362  -0.00779  -0.00132
 Alpha virt. eigenvalues --    0.00068   0.00192   0.00440   0.00592   0.00700

  Beta  occ. eigenvalues --  -38.45148 -38.44436 -38.44413 -38.43780 -38.43727
  Beta  occ. eigenvalues --  -38.43646 -38.42274  -2.20972  -2.20216  -2.20193
  Beta  occ. eigenvalues --   -2.19660  -2.19606  -2.19449  -2.18197  -1.14710
  Beta  occ. eigenvalues --   -1.14636  -1.14578  -1.13910  -1.13889  -1.13881
  Beta  occ. eigenvalues --   -1.13869  -1.13863  -1.13835  -1.13418  -1.13333
  Beta  occ. eigenvalues --   -1.13322  -1.13290  -1.13253  -1.13219  -1.13124
  Beta  occ. eigenvalues --   -1.13102  -1.13090  -1.11888  -1.11863  -1.11813
  Beta  occ. eigenvalues --   -0.17852  -0.13520  -0.10984
  Beta virt. eigenvalues --   -0.07627  -0.06573  -0.05156  -0.03890  -0.02918
  Beta virt. eigenvalues --   -0.02485  -0.01989  -0.01573  -0.01239  -0.00520
  Beta virt. eigenvalues --   -0.00074   0.00125   0.00236   0.00536   0.00696

 Mulliken charges and spin densities:
               1          2
     1  Na  -0.674421  -0.105945
     2  Na   0.894964   0.223626
     3  Na   0.188415   0.423476
     4  Na   0.172489   0.196133
     5  Na   0.470338   0.020326
     6  Na  -0.272046  -0.056993
     7  Na  -0.779739   0.299377
 Sum of Mulliken charges =  -0.00000   1.00000

 Dipole moment (field-independent basis, Debye):
    X=              0.1558    Y=             -0.2005    Z=              0.2733  Tot=              0.3731
 Quadrupole moment (field-independent basis, Debye-Ang):
   XX=            -50.6583   YY=            -74.8959   ZZ=            -69.7419
   XY=              0.3625   XZ=             -0.9796   YZ=              0.2288

 Normal termination of Gaussian 16 at Thu Dec  7 11:28:10 2023.
