 Gaussian 16, Revision B.01,
 Gaussian 16:  ES64L-G16RevB.01 20-Dec-2017

 -------------------------
 #P B3LYP/6-311+g(d) force
 -------------------------

 -----
 DPGEN
 -----
 Symbolic Z-matrix:
 Charge =  0 Multiplicity = 2

                         Standard orientation:
 ---------------------------------------------------------------------
 Center     Atomic      Atomic             Coordinates (Angstroms)
 Number     Number       Type             X           Y           Z
 ---------------------------------------------------------------------
      1         11           0        5.497051    0.359238    0.041202
      2         11           0       -2.307597    0.637848   -0.942375
      3         11           0       -4.525946    1.125245    1.509300
      4         11           0       -5.910249   -0.531482   -0.601043
      5         11           0        3.148994   -2.596343    0.578844
      6         11           0        3.673217    2.831225   -0.214380
      7         11           0        0.424530   -1.825731   -0.371548
 ---------------------------------------------------------------------

 SCF Done:  E(UB3LYP) =  -1136.10383828     A.U. after   21 cycles

 The electronic state is 2-A.
 Alpha  occ. eigenvalues --  -38.46071 -38.45673 -38.44300 -38.43619 -38.43359
 Alpha  occ. eigenvalues --  -38.43326 -38.42844  -2.21908  -2.21506  -2.20142
 Alpha  occ. eigenvalues --   -2.19416  -2.19201  -2.19123  -2.18651  -1.15617
 Alpha  occ. eigenvalues --   -1.15560  -1.15556  -1.15156  -1.15147  -1.15115
 Alpha  occ. eigenvalues --   -1.13819  -1.13788  -1.13738  -1.13104  -1.13064
 Alpha  occ. eigenvalues --   -1.13057  -1.12910  -1.12840  -1.12818  -1.12789
 Alpha  occ. eigenvalues --   -1.12774  -1.12762  -1.12327  -1.12319  -1.12302
 Alpha  occ. eigenvalues --   -0.16441  -0.14179  -0.11722  -0.10605
 Alpha virt. eigenvalues --   -0.06964  -0.05840  -0.04439  -0.03473  -0.02946
 Alpha virt. eigenvalues --   -0.02416  -0.02107  -0.01711  -0.01347  -0.00771
 Alpha virt. eigenvalues --   -0.00377  -0.00096   0.00117   0.00145   0.00314

  Beta  occ. eigenvalues --  -38.46066 -38.45625 -38.44221 -38.43584 -38.43338
  Beta  occ. eigenvalues --  -38.43302 -38.42859  -2.21904  -2.21419  -2.19995
  Beta  occ. eigenvalues --   -2.19351  -2.19146  -2.19093  -2.18685  -1.15600
  Beta  occ. eigenvalues --   -1.15562  -1.15532  -1.15091  -1.15082  -1.15060
  Beta  occ. eigenvalues --   -1.13718  -1.13689  -1.13639  -1.13069  -1.13020
  Beta  occ. eigenvalues --   -1.13013  -1.12851  -1.12807  -1.12792  -1.12765
  Beta  occ. eigenvalues --   -1.12762  -1.12737  -1.12351  -1.12347  -1.12283
  Beta  occ. eigenvalues --   -0.15880  -0.13756  -0.11258
  Beta virt. eigenvalues --   -0.07400  -0.06708  -0.05381  -0.04161  -0.03155
  Beta virt. eigenvalues --   -0.02608  -0.02252  -0.01898  -0.01272  -0.01077
  Beta virt. eigenvalues --   -0.00599  -0.00144   0.00123   0.00195   0.00300

 Mulliken charges and spin densities:
               1          2
     1  Na  -0.179435  -0.038736
     2  Na  -0.726067   0.357930
     3  Na   0.430498   0.005603
     4  Na   0.279961   0.299524
     5  Na   0.799076   0.319135
     6  Na  -0.023809   0.176862
     7  Na  -0.580223  -0.120318
 Sum of Mulliken charges =  -0.00000   1.00000

 Dipole moment (field-independent basis, Debye):
    X=             -4.3059    Y=              0.7203    Z=              0.4227  Tot=              4.3862
 Quadrupole moment (field-independent basis, Debye-Ang):
   XX=            -59.9089   YY=            -70.4015   ZZ=            -66.6697
   XY=             -6.0562   XZ=              2.5368   YZ=              3.4144

 Normal termination of Gaussian 16 at Mon Dec  4 04:06:20 2023.
