 Gaussian 16, Revision B.01,
 Gaussian 16:  ES64L-G16RevB.01 20-Dec-2017

 -------------------------
 #P B3LYP/6-311+g(d) force
 -------------------------

 -----
 DPGEN
 -----
 Symbolic Z-matrix:
 Charge =  0 Multiplicity = 2

                         Standard orientation:
 ---------------------------------------------------------------------
 Center     Atomic      Atomic             Coordinates (Angstroms)
 Number     Number       Type             X           Y           Z
 ---------------------------------------------------------------------
      1         11           0        1.518696   -2.686415   -0.495486
      2         11           0        2.267521    2.372328   -0.552403
      3         11           0       -0.077776    0.036575    0.866856
      4         11           0        3.329458   -0.419795    0.489501
      5         11           0       -1.850114   -2.565239   -0.217109
      6         11           0       -1.382176    3.206637   -0.126524
      7         11           0       -3.805608    0.055910    0.035166
 ---------------------------------------------------------------------

 SCF Done:  E(UB3LYP) =  -1136.12439872     A.U. after   22 cycles

 The electronic state is 2-A.
 Alpha  occ. eigenvalues --  -38.44354 -38.44321 -38.43943 -38.43694 -38.43639
 Alpha  occ. eigenvalues --  -38.43587 -38.43573  -2.20228  -2.20187  -2.19813
 Alpha  occ. eigenvalues --   -2.19591  -2.19561  -2.19424  -2.19380  -1.13957
 Alpha  occ. eigenvalues --   -1.13899  -1.13864  -1.13863  -1.13859  -1.13810
 Alpha  occ. eigenvalues --   -1.13496  -1.13490  -1.13464  -1.13353  -1.13240
 Alpha  occ. eigenvalues --   -1.13228  -1.13203  -1.13198  -1.13131  -1.13083
 Alpha  occ. eigenvalues --   -1.13068  -1.13044  -1.13043  -1.13016  -1.13012
 Alpha  occ. eigenvalues --   -0.17734  -0.14022  -0.13265  -0.09553
 Alpha virt. eigenvalues --   -0.06466  -0.06159  -0.04396  -0.02776  -0.02726
 Alpha virt. eigenvalues --   -0.02428  -0.02108  -0.01680  -0.01070  -0.00322
 Alpha virt. eigenvalues --    0.00193   0.00322   0.00501   0.00623   0.00713

  Beta  occ. eigenvalues --  -38.44334 -38.44328 -38.43929 -38.43665 -38.43604
  Beta  occ. eigenvalues --  -38.43524 -38.43523  -2.20238  -2.20157  -2.19794
  Beta  occ. eigenvalues --   -2.19538  -2.19499  -2.19308  -2.19288  -1.13960
  Beta  occ. eigenvalues --   -1.13914  -1.13867  -1.13852  -1.13845  -1.13750
  Beta  occ. eigenvalues --   -1.13494  -1.13485  -1.13388  -1.13312  -1.13205
  Beta  occ. eigenvalues --   -1.13189  -1.13162  -1.13153  -1.13079  -1.13004
  Beta  occ. eigenvalues --   -1.12987  -1.12981  -1.12964  -1.12951  -1.12945
  Beta  occ. eigenvalues --   -0.17473  -0.13260  -0.12664
  Beta virt. eigenvalues --   -0.06516  -0.06251  -0.05916  -0.04217  -0.02528
  Beta virt. eigenvalues --   -0.02251  -0.02071  -0.01621  -0.01384  -0.00921
  Beta virt. eigenvalues --   -0.00261   0.00391   0.00486   0.00582   0.00747

 Mulliken charges and spin densities:
               1          2
     1  Na   0.094479   0.080275
     2  Na   0.182193   0.101358
     3  Na  -1.764680  -0.208105
     4  Na   0.766255   0.325079
     5  Na   0.282136   0.126457
     6  Na   0.171041   0.219653
     7  Na   0.268576   0.355283
 Sum of Mulliken charges =  -0.00000   1.00000

 Dipole moment (field-independent basis, Debye):
    X=              0.4083    Y=             -0.0463    Z=             -0.4570  Tot=              0.6146
 Quadrupole moment (field-independent basis, Debye-Ang):
   XX=            -69.3598   YY=            -63.3994   ZZ=            -68.7457
   XY=             -4.6790   XZ=             -0.4017   YZ=             -0.7026

 Normal termination of Gaussian 16 at Tue Dec  5 22:58:01 2023.
