 Gaussian 16, Revision B.01,
 Gaussian 16:  ES64L-G16RevB.01 20-Dec-2017

 -------------------------
 #P B3LYP/6-311+g(d) force
 -------------------------

 -----
 DPGEN
 -----
 Symbolic Z-matrix:
 Charge =  0 Multiplicity = 2

                         Standard orientation:
 ---------------------------------------------------------------------
 Center     Atomic      Atomic             Coordinates (Angstroms)
 Number     Number       Type             X           Y           Z
 ---------------------------------------------------------------------
      1         11           0        2.189988    1.952644    0.168226
      2         11           0        0.183967    0.226750    1.821556
      3         11           0       -0.265409   -2.547437    0.163419
      4         11           0       -0.492385   -0.399777   -1.728975
      5         11           0       -3.198710   -0.495405    0.390172
      6         11           0       -1.398974    2.406560   -0.494173
      7         11           0        2.981524   -1.143335   -0.320224
 ---------------------------------------------------------------------

 SCF Done:  E(UB3LYP) =  -1136.13282314     A.U. after   20 cycles

 The electronic state is 2-A.
 Alpha  occ. eigenvalues --  -38.44504 -38.44136 -38.43498 -38.43413 -38.43407
 Alpha  occ. eigenvalues --  -38.43188 -38.43030  -2.20337  -2.19970  -2.19418
 Alpha  occ. eigenvalues --   -2.19378  -2.19369  -2.19060  -2.18969  -1.14007
 Alpha  occ. eigenvalues --   -1.13992  -1.13980  -1.13653  -1.13630  -1.13609
 Alpha  occ. eigenvalues --   -1.13207  -1.13149  -1.13091  -1.13047  -1.13024
 Alpha  occ. eigenvalues --   -1.13007  -1.13004  -1.12980  -1.12951  -1.12749
 Alpha  occ. eigenvalues --   -1.12713  -1.12677  -1.12645  -1.12627  -1.12546
 Alpha  occ. eigenvalues --   -0.19032  -0.13393  -0.12275  -0.10830
 Alpha virt. eigenvalues --   -0.06039  -0.05027  -0.04170  -0.03385  -0.02838
 Alpha virt. eigenvalues --   -0.02422  -0.01885  -0.00928  -0.00195  -0.00080
 Alpha virt. eigenvalues --    0.00016   0.00337   0.00801   0.00907   0.00914

  Beta  occ. eigenvalues --  -38.44496 -38.44132 -38.43494 -38.43342 -38.43328
  Beta  occ. eigenvalues --  -38.43173 -38.43019  -2.20326  -2.19965  -2.19370
  Beta  occ. eigenvalues --   -2.19287  -2.19229  -2.19038  -2.18954  -1.13989
  Beta  occ. eigenvalues --   -1.13984  -1.13965  -1.13652  -1.13615  -1.13603
  Beta  occ. eigenvalues --   -1.13123  -1.13109  -1.13019  -1.13005  -1.12990
  Beta  occ. eigenvalues --   -1.12948  -1.12912  -1.12896  -1.12863  -1.12723
  Beta  occ. eigenvalues --   -1.12683  -1.12663  -1.12628  -1.12581  -1.12532
  Beta  occ. eigenvalues --   -0.18302  -0.13166  -0.11993
  Beta virt. eigenvalues --   -0.06918  -0.05968  -0.05010  -0.04150  -0.02623
  Beta virt. eigenvalues --   -0.02060  -0.01785  -0.01380  -0.00861  -0.00183
  Beta virt. eigenvalues --   -0.00125   0.00123   0.00365   0.00858   0.00904

 Mulliken charges and spin densities:
               1          2
     1  Na   0.209083  -0.029950
     2  Na  -0.334892   0.599493
     3  Na   0.274776   0.014463
     4  Na  -0.319080   0.538757
     5  Na   0.188232  -0.008716
     6  Na   0.003586  -0.059825
     7  Na  -0.021704  -0.054222
 Sum of Mulliken charges =  -0.00000   1.00000

 Dipole moment (field-independent basis, Debye):
    X=             -0.1914    Y=             -0.0629    Z=              0.0842  Tot=              0.2183
 Quadrupole moment (field-independent basis, Debye-Ang):
   XX=            -52.3413   YY=            -66.9996   ZZ=            -73.7207
   XY=             -0.2074   XZ=             -2.0611   YZ=             -1.1395

 Normal termination of Gaussian 16 at Thu Dec  7 06:01:16 2023.
