 Gaussian 16, Revision B.01,
 Gaussian 16:  ES64L-G16RevB.01 20-Dec-2017

 -------------------------
 #P B3LYP/6-311+g(d) force
 -------------------------

 -----
 DPGEN
 -----
 Symbolic Z-matrix:
 Charge =  0 Multiplicity = 2

                         Standard orientation:
 ---------------------------------------------------------------------
 Center     Atomic      Atomic             Coordinates (Angstroms)
 Number     Number       Type             X           Y           Z
 ---------------------------------------------------------------------
      1         11           0       -2.456951   -1.777678   -0.246001
      2         11           0        0.714038   -2.703875    0.515931
      3         11           0       -2.583304    1.612203    0.088541
      4         11           0        2.810364   -0.635674   -0.333716
      5         11           0        0.231297    0.517795    1.942509
      6         11           0        1.183940    2.855986   -0.053146
      7         11           0        0.100616    0.131243   -1.914117
 ---------------------------------------------------------------------

 SCF Done:  E(UB3LYP) =  -1136.13759111     A.U. after   19 cycles

 The electronic state is 2-A.
 Alpha  occ. eigenvalues --  -38.43910 -38.43742 -38.43652 -38.43626 -38.43608
 Alpha  occ. eigenvalues --  -38.43491 -38.43292  -2.19731  -2.19581  -2.19549
 Alpha  occ. eigenvalues --   -2.19543  -2.19536  -2.19325  -2.19182  -1.13415
 Alpha  occ. eigenvalues --   -1.13402  -1.13364  -1.13314  -1.13296  -1.13260
 Alpha  occ. eigenvalues --   -1.13241  -1.13210  -1.13200  -1.13188  -1.13177
 Alpha  occ. eigenvalues --   -1.13156  -1.13151  -1.13147  -1.13134  -1.12998
 Alpha  occ. eigenvalues --   -1.12991  -1.12971  -1.12842  -1.12829  -1.12814
 Alpha  occ. eigenvalues --   -0.18726  -0.12841  -0.12647  -0.11078
 Alpha virt. eigenvalues --   -0.05540  -0.04961  -0.04704  -0.03286  -0.03151
 Alpha virt. eigenvalues --   -0.02810  -0.01216  -0.01207  -0.00235  -0.00180
 Alpha virt. eigenvalues --    0.00009   0.00384   0.00855   0.00917   0.00940

  Beta  occ. eigenvalues --  -38.43908 -38.43738 -38.43642 -38.43546 -38.43525
  Beta  occ. eigenvalues --  -38.43489 -38.43282  -2.19729  -2.19577  -2.19534
  Beta  occ. eigenvalues --   -2.19395  -2.19384  -2.19324  -2.19165  -1.13408
  Beta  occ. eigenvalues --   -1.13388  -1.13363  -1.13289  -1.13272  -1.13234
  Beta  occ. eigenvalues --   -1.13210  -1.13194  -1.13164  -1.13106  -1.13091
  Beta  occ. eigenvalues --   -1.13063  -1.13052  -1.13049  -1.13042  -1.12996
  Beta  occ. eigenvalues --   -1.12974  -1.12970  -1.12830  -1.12813  -1.12790
  Beta  occ. eigenvalues --   -0.17973  -0.12602  -0.12413
  Beta virt. eigenvalues --   -0.07154  -0.05560  -0.04838  -0.04682  -0.02473
  Beta virt. eigenvalues --   -0.02389  -0.01762  -0.01144  -0.01141  -0.00258
  Beta virt. eigenvalues --   -0.00195   0.00113   0.00412   0.00851   0.00929

 Mulliken charges and spin densities:
               1          2
     1  Na  -0.026992  -0.030056
     2  Na  -0.014641   0.041665
     3  Na   0.012106  -0.121028
     4  Na   0.303655  -0.005177
     5  Na  -0.205828   0.646142
     6  Na   0.129550  -0.158736
     7  Na  -0.197850   0.627189
 Sum of Mulliken charges =  -0.00000   1.00000

 Dipole moment (field-independent basis, Debye):
    X=             -0.0594    Y=              0.4141    Z=             -0.0110  Tot=              0.4185
 Quadrupole moment (field-independent basis, Debye-Ang):
   XX=            -61.0394   YY=            -61.5035   ZZ=            -72.4427
   XY=              0.1834   XZ=             -0.3868   YZ=             -0.8374

 Normal termination of Gaussian 16 at Tue Dec  5 17:39:19 2023.
