 Gaussian 16, Revision B.01,
 Gaussian 16:  ES64L-G16RevB.01 20-Dec-2017

 -------------------------
 #P B3LYP/6-311+g(d) force
 -------------------------

 -----
 DPGEN
 -----
 Symbolic Z-matrix:
 Charge =  0 Multiplicity = 2

                         Standard orientation:
 ---------------------------------------------------------------------
 Center     Atomic      Atomic             Coordinates (Angstroms)
 Number     Number       Type             X           Y           Z
 ---------------------------------------------------------------------
      1         11           0        1.390370    2.072427    0.027562
      2         11           0        0.253306   -0.730456   -1.811809
      3         11           0        0.634261   -0.903247    1.363242
      4         11           0       -2.490026   -2.210068   -0.218852
      5         11           0       -1.642075    0.739770    1.856015
      6         11           0       -1.990868    1.778358   -1.154048
      7         11           0        3.845032   -0.746785   -0.062111
 ---------------------------------------------------------------------

 SCF Done:  E(UB3LYP) =  -1136.12688345     A.U. after   22 cycles

 The electronic state is 2-A.
 Alpha  occ. eigenvalues --  -38.44586 -38.44091 -38.44016 -38.43646 -38.43585
 Alpha  occ. eigenvalues --  -38.43233 -38.43183  -2.20364  -2.20003  -2.19969
 Alpha  occ. eigenvalues --   -2.19648  -2.19454  -2.19097  -2.18991  -1.14042
 Alpha  occ. eigenvalues --   -1.14026  -1.13990  -1.13821  -1.13724  -1.13645
 Alpha  occ. eigenvalues --   -1.13605  -1.13601  -1.13527  -1.13324  -1.13285
 Alpha  occ. eigenvalues --   -1.13206  -1.13134  -1.13110  -1.13062  -1.12805
 Alpha  occ. eigenvalues --   -1.12785  -1.12682  -1.12662  -1.12653  -1.12635
 Alpha  occ. eigenvalues --   -0.18877  -0.13231  -0.11859  -0.11335
 Alpha virt. eigenvalues --   -0.06225  -0.04840  -0.03977  -0.03295  -0.02902
 Alpha virt. eigenvalues --   -0.02844  -0.02067  -0.01044  -0.00560   0.00165
 Alpha virt. eigenvalues --    0.00238   0.00323   0.00501   0.00734   0.00874

  Beta  occ. eigenvalues --  -38.44588 -38.44025 -38.43946 -38.43590 -38.43557
  Beta  occ. eigenvalues --  -38.43227 -38.43183  -2.20368  -2.19884  -2.19844
  Beta  occ. eigenvalues --   -2.19552  -2.19405  -2.19089  -2.18993  -1.14041
  Beta  occ. eigenvalues --   -1.14028  -1.13993  -1.13716  -1.13648  -1.13547
  Beta  occ. eigenvalues --   -1.13521  -1.13514  -1.13442  -1.13264  -1.13184
  Beta  occ. eigenvalues --   -1.13141  -1.13083  -1.13077  -1.13028  -1.12801
  Beta  occ. eigenvalues --   -1.12752  -1.12681  -1.12658  -1.12647  -1.12635
  Beta  occ. eigenvalues --   -0.18051  -0.13081  -0.11152
  Beta virt. eigenvalues --   -0.07661  -0.06116  -0.04826  -0.03400  -0.02945
  Beta virt. eigenvalues --   -0.02204  -0.02077  -0.01912  -0.00943  -0.00234
  Beta virt. eigenvalues --    0.00164   0.00246   0.00334   0.00655   0.00779

 Mulliken charges and spin densities:
               1          2
     1  Na  -0.211028  -0.025723
     2  Na  -0.166733   0.671296
     3  Na  -0.064264   0.295922
     4  Na  -0.239174  -0.130247
     5  Na   0.384476   0.172347
     6  Na   0.041404   0.057477
     7  Na   0.255319  -0.041072
 Sum of Mulliken charges =  -0.00000   1.00000

 Dipole moment (field-independent basis, Debye):
    X=              0.6328    Y=              0.0623    Z=             -0.3148  Tot=              0.7095
 Quadrupole moment (field-independent basis, Debye-Ang):
   XX=            -51.0691   YY=            -73.5431   ZZ=            -68.0079
   XY=             -0.9757   XZ=             -0.3241   YZ=              0.0372

 Normal termination of Gaussian 16 at Tue Dec  5 17:04:12 2023.
