 Gaussian 16, Revision B.01,
 Gaussian 16:  ES64L-G16RevB.01 20-Dec-2017

 -------------------------
 #P B3LYP/6-311+g(d) force
 -------------------------

 -----
 DPGEN
 -----
 Symbolic Z-matrix:
 Charge =  0 Multiplicity = 2

                         Standard orientation:
 ---------------------------------------------------------------------
 Center     Atomic      Atomic             Coordinates (Angstroms)
 Number     Number       Type             X           Y           Z
 ---------------------------------------------------------------------
      1         11           0        2.661011   -1.584940   -0.164447
      2         11           0       -3.432618   -0.311097   -0.040041
      3         11           0       -0.188585    0.431015    1.896654
      4         11           0       -1.056616    2.538827   -0.510263
      5         11           0        2.474691    1.912030    0.143507
      6         11           0        0.027316   -0.520746   -1.716136
      7         11           0       -0.485198   -2.465089    0.390726
 ---------------------------------------------------------------------

 SCF Done:  E(UB3LYP) =  -1136.13448512     A.U. after   19 cycles

 The electronic state is 2-A.
 Alpha  occ. eigenvalues --  -38.44533 -38.43719 -38.43714 -38.43420 -38.43402
 Alpha  occ. eigenvalues --  -38.43397 -38.43137  -2.20316  -2.19586  -2.19534
 Alpha  occ. eigenvalues --   -2.19390  -2.19327  -2.19273  -2.19086  -1.13989
 Alpha  occ. eigenvalues --   -1.13973  -1.13956  -1.13296  -1.13250  -1.13240
 Alpha  occ. eigenvalues --   -1.13209  -1.13187  -1.13171  -1.13169  -1.13050
 Alpha  occ. eigenvalues --   -1.13013  -1.13007  -1.12983  -1.12943  -1.12931
 Alpha  occ. eigenvalues --   -1.12913  -1.12879  -1.12751  -1.12734  -1.12665
 Alpha  occ. eigenvalues --   -0.18804  -0.13005  -0.12439  -0.10761
 Alpha virt. eigenvalues --   -0.05988  -0.05073  -0.04327  -0.03140  -0.02986
 Alpha virt. eigenvalues --   -0.02455  -0.01888  -0.01040  -0.00249  -0.00126
 Alpha virt. eigenvalues --   -0.00002   0.00330   0.00779   0.00874   0.00911

  Beta  occ. eigenvalues --  -38.44534 -38.43715 -38.43712 -38.43406 -38.43334
  Beta  occ. eigenvalues --  -38.43314 -38.43121  -2.20319  -2.19582  -2.19532
  Beta  occ. eigenvalues --   -2.19266  -2.19251  -2.19175  -2.19061  -1.13982
  Beta  occ. eigenvalues --   -1.13969  -1.13960  -1.13283  -1.13245  -1.13223
  Beta  occ. eigenvalues --   -1.13192  -1.13182  -1.13171  -1.13102  -1.12986
  Beta  occ. eigenvalues --   -1.12944  -1.12914  -1.12908  -1.12884  -1.12866
  Beta  occ. eigenvalues --   -1.12837  -1.12821  -1.12724  -1.12677  -1.12648
  Beta  occ. eigenvalues --   -0.18059  -0.12787  -0.12197
  Beta virt. eigenvalues --   -0.06823  -0.05954  -0.05061  -0.04274  -0.02400
  Beta virt. eigenvalues --   -0.02212  -0.01815  -0.01400  -0.00994  -0.00262
  Beta virt. eigenvalues --   -0.00128   0.00109   0.00353   0.00832   0.00870

 Mulliken charges and spin densities:
               1          2
     1  Na   0.253700  -0.031293
     2  Na   0.068635  -0.101590
     3  Na  -0.348379   0.647997
     4  Na  -0.007371  -0.041157
     5  Na   0.063477  -0.071793
     6  Na  -0.349420   0.595993
     7  Na   0.319358   0.001842
 Sum of Mulliken charges =  -0.00000   1.00000

 Dipole moment (field-independent basis, Debye):
    X=             -0.2758    Y=              0.1184    Z=              0.0340  Tot=              0.3021
 Quadrupole moment (field-independent basis, Debye-Ang):
   XX=            -52.4357   YY=            -66.1633   ZZ=            -74.0343
   XY=              0.0572   XZ=              0.3622   YZ=             -1.5673

 Normal termination of Gaussian 16 at Thu Dec  7 16:09:44 2023.
