 Gaussian 16, Revision B.01,
 Gaussian 16:  ES64L-G16RevB.01 20-Dec-2017

 -------------------------
 #P B3LYP/6-311+g(d) force
 -------------------------

 -----
 DPGEN
 -----
 Symbolic Z-matrix:
 Charge =  0 Multiplicity = 2

                         Standard orientation:
 ---------------------------------------------------------------------
 Center     Atomic      Atomic             Coordinates (Angstroms)
 Number     Number       Type             X           Y           Z
 ---------------------------------------------------------------------
      1         11           0       -0.222168    3.126888    0.083688
      2         11           0       -0.748158    0.277271   -1.748587
      3         11           0       -3.394924   -0.059402    0.078151
      4         11           0       -0.842092   -2.779640    0.028035
      5         11           0        2.367481   -1.987025   -0.006013
      6         11           0        2.850871    1.076096   -0.338672
      7         11           0       -0.011010    0.345812    1.903398
 ---------------------------------------------------------------------

 SCF Done:  E(UB3LYP) =  -1136.13470141     A.U. after   19 cycles

 The electronic state is 2-A.
 Alpha  occ. eigenvalues --  -38.44624 -38.44028 -38.43797 -38.43710 -38.43422
 Alpha  occ. eigenvalues --  -38.43381 -38.43340  -2.20426  -2.19865  -2.19624
 Alpha  occ. eigenvalues --   -2.19546  -2.19295  -2.19277  -2.19238  -1.14114
 Alpha  occ. eigenvalues --   -1.14077  -1.14062  -1.13566  -1.13527  -1.13496
 Alpha  occ. eigenvalues --   -1.13308  -1.13297  -1.13253  -1.13239  -1.13216
 Alpha  occ. eigenvalues --   -1.13181  -1.12970  -1.12947  -1.12935  -1.12927
 Alpha  occ. eigenvalues --   -1.12924  -1.12915  -1.12903  -1.12863  -1.12858
 Alpha  occ. eigenvalues --   -0.18348  -0.13027  -0.12580  -0.10459
 Alpha virt. eigenvalues --   -0.06163  -0.05040  -0.04874  -0.03165  -0.02910
 Alpha virt. eigenvalues --   -0.02392  -0.01759  -0.01219  -0.00555  -0.00397
 Alpha virt. eigenvalues --   -0.00011   0.00344   0.00769   0.00839   0.00855

  Beta  occ. eigenvalues --  -38.44623 -38.44019 -38.43791 -38.43706 -38.43421
  Beta  occ. eigenvalues --  -38.43317 -38.43253  -2.20425  -2.19851  -2.19617
  Beta  occ. eigenvalues --   -2.19541  -2.19277  -2.19175  -2.19076  -1.14103
  Beta  occ. eigenvalues --   -1.14067  -1.14064  -1.13559  -1.13499  -1.13488
  Beta  occ. eigenvalues --   -1.13301  -1.13266  -1.13252  -1.13236  -1.13190
  Beta  occ. eigenvalues --   -1.13181  -1.12949  -1.12926  -1.12908  -1.12887
  Beta  occ. eigenvalues --   -1.12850  -1.12828  -1.12797  -1.12748  -1.12743
  Beta  occ. eigenvalues --   -0.17652  -0.12803  -0.12356
  Beta virt. eigenvalues --   -0.06634  -0.06114  -0.04933  -0.04868  -0.02422
  Beta virt. eigenvalues --   -0.02155  -0.01692  -0.01363  -0.01150  -0.00593
  Beta virt. eigenvalues --   -0.00430   0.00143   0.00387   0.00771   0.00865

 Mulliken charges and spin densities:
               1          2
     1  Na   0.190472  -0.122257
     2  Na  -0.173804   0.582099
     3  Na   0.263288  -0.140360
     4  Na   0.028640  -0.021471
     5  Na  -0.119676  -0.051172
     6  Na   0.084718   0.045422
     7  Na  -0.273637   0.707739
 Sum of Mulliken charges =  -0.00000   1.00000

 Dipole moment (field-independent basis, Debye):
    X=             -0.5869    Y=              0.2662    Z=              0.0506  Tot=              0.6464
 Quadrupole moment (field-independent basis, Debye-Ang):
   XX=            -56.3538   YY=            -61.5821   ZZ=            -75.7159
   XY=              0.4672   XZ=             -1.6934   YZ=             -0.3828

 Normal termination of Gaussian 16 at Thu Dec  7 22:41:58 2023.
