 Gaussian 16, Revision B.01,
 Gaussian 16:  ES64L-G16RevB.01 20-Dec-2017

 -------------------------
 #P B3LYP/6-311+g(d) force
 -------------------------

 -----
 DPGEN
 -----
 Symbolic Z-matrix:
 Charge =  0 Multiplicity = 2

                         Standard orientation:
 ---------------------------------------------------------------------
 Center     Atomic      Atomic             Coordinates (Angstroms)
 Number     Number       Type             X           Y           Z
 ---------------------------------------------------------------------
      1         11           0        3.785582   -0.472482   -0.637556
      2         11           0       -2.302574    1.967379    0.547359
      3         11           0        1.010991    1.543614   -1.956950
      4         11           0       -4.207170   -0.870724   -0.036051
      5         11           0        1.369788   -1.767615    1.952042
      6         11           0       -0.822223   -2.003436   -1.345127
      7         11           0        1.165605    1.603265    1.476283
 ---------------------------------------------------------------------

 SCF Done:  E(UB3LYP) =  -1136.11497512     A.U. after   25 cycles

 The electronic state is 2-A.
 Alpha  occ. eigenvalues --  -38.45753 -38.44681 -38.44566 -38.44192 -38.44112
 Alpha  occ. eigenvalues --  -38.43645 -38.43471  -2.21501  -2.20431  -2.20310
 Alpha  occ. eigenvalues --   -2.20006  -2.19922  -2.19428  -2.19326  -1.15179
 Alpha  occ. eigenvalues --   -1.15158  -1.15140  -1.14108  -1.14100  -1.14070
 Alpha  occ. eigenvalues --   -1.13993  -1.13982  -1.13915  -1.13679  -1.13662
 Alpha  occ. eigenvalues --   -1.13616  -1.13597  -1.13556  -1.13541  -1.13117
 Alpha  occ. eigenvalues --   -1.13093  -1.13054  -1.13015  -1.12982  -1.12935
 Alpha  occ. eigenvalues --   -0.17190  -0.13230  -0.11538  -0.11145
 Alpha virt. eigenvalues --   -0.07315  -0.05194  -0.04361  -0.03437  -0.03244
 Alpha virt. eigenvalues --   -0.02774  -0.02417  -0.01336  -0.00665  -0.00290
 Alpha virt. eigenvalues --   -0.00189  -0.00035   0.00019   0.00670   0.00762

  Beta  occ. eigenvalues --  -38.45748 -38.44693 -38.44535 -38.44137 -38.44046
  Beta  occ. eigenvalues --  -38.43635 -38.43434  -2.21495  -2.20455  -2.20252
  Beta  occ. eigenvalues --   -2.19904  -2.19801  -2.19409  -2.19259  -1.15172
  Beta  occ. eigenvalues --   -1.15146  -1.15128  -1.14123  -1.14115  -1.14084
  Beta  occ. eigenvalues --   -1.13952  -1.13936  -1.13878  -1.13609  -1.13595
  Beta  occ. eigenvalues --   -1.13536  -1.13510  -1.13469  -1.13461  -1.13097
  Beta  occ. eigenvalues --   -1.13080  -1.13046  -1.12969  -1.12925  -1.12886
  Beta  occ. eigenvalues --   -0.16440  -0.13128  -0.10998
  Beta virt. eigenvalues --   -0.07616  -0.07123  -0.05078  -0.03693  -0.03092
  Beta virt. eigenvalues --   -0.02938  -0.02299  -0.01923  -0.01262  -0.00422
  Beta virt. eigenvalues --   -0.00179  -0.00131   0.00066   0.00116   0.00761

 Mulliken charges and spin densities:
               1          2
     1  Na   0.214551  -0.072878
     2  Na  -0.280729  -0.002334
     3  Na  -0.312681   0.542245
     4  Na   0.315757  -0.109059
     5  Na  -0.214951   0.253764
     6  Na  -0.240745   0.109052
     7  Na   0.518798   0.279211
 Sum of Mulliken charges =  -0.00000   1.00000

 Dipole moment (field-independent basis, Debye):
    X=              0.5940    Y=             -0.3070    Z=             -0.2863  Tot=              0.7274
 Quadrupole moment (field-independent basis, Debye-Ang):
   XX=            -50.0505   YY=            -76.8367   ZZ=            -68.7688
   XY=             -0.4052   XZ=             -2.6736   YZ=             -0.7851

 Normal termination of Gaussian 16 at Sun Dec  3 22:22:34 2023.
