 Gaussian 16, Revision B.01,
 Gaussian 16:  ES64L-G16RevB.01 20-Dec-2017

 -------------------------
 #P B3LYP/6-311+g(d) force
 -------------------------

 -----
 DPGEN
 -----
 Symbolic Z-matrix:
 Charge =  0 Multiplicity = 2

                         Standard orientation:
 ---------------------------------------------------------------------
 Center     Atomic      Atomic             Coordinates (Angstroms)
 Number     Number       Type             X           Y           Z
 ---------------------------------------------------------------------
      1         11           0        0.617906   -2.831209   -0.349643
      2         11           0       -2.945007    1.646697   -0.423956
      3         11           0        3.538136   -0.090643    0.119351
      4         11           0       -2.739621   -1.669945    0.135064
      5         11           0        0.022008    0.076176    2.143691
      6         11           0        0.816153    2.880760   -0.082260
      7         11           0        0.690425   -0.011837   -1.542247
 ---------------------------------------------------------------------

 SCF Done:  E(UB3LYP) =  -1136.12972458     A.U. after   19 cycles

 The electronic state is 2-A.
 Alpha  occ. eigenvalues --  -38.45223 -38.44172 -38.43906 -38.43673 -38.43649
 Alpha  occ. eigenvalues --  -38.43384 -38.43340  -2.20999  -2.19948  -2.19712
 Alpha  occ. eigenvalues --   -2.19519  -2.19464  -2.19304  -2.19231  -1.14681
 Alpha  occ. eigenvalues --   -1.14651  -1.14636  -1.13625  -1.13618  -1.13583
 Alpha  occ. eigenvalues --   -1.13384  -1.13372  -1.13356  -1.13193  -1.13179
 Alpha  occ. eigenvalues --   -1.13151  -1.13136  -1.13119  -1.13080  -1.13072
 Alpha  occ. eigenvalues --   -1.12964  -1.12919  -1.12880  -1.12863  -1.12833
 Alpha  occ. eigenvalues --   -0.18048  -0.13025  -0.12174  -0.10470
 Alpha virt. eigenvalues --   -0.06474  -0.05237  -0.04606  -0.03170  -0.02751
 Alpha virt. eigenvalues --   -0.02459  -0.02106  -0.01099  -0.00721  -0.00499
 Alpha virt. eigenvalues --   -0.00069   0.00285   0.00712   0.00765   0.00776

  Beta  occ. eigenvalues --  -38.45223 -38.44165 -38.43906 -38.43644 -38.43568
  Beta  occ. eigenvalues --  -38.43376 -38.43290  -2.21001  -2.19937  -2.19713
  Beta  occ. eigenvalues --   -2.19458  -2.19325  -2.19224  -2.19208  -1.14670
  Beta  occ. eigenvalues --   -1.14650  -1.14636  -1.13618  -1.13601  -1.13577
  Beta  occ. eigenvalues --   -1.13375  -1.13368  -1.13359  -1.13176  -1.13113
  Beta  occ. eigenvalues --   -1.13077  -1.13054  -1.13030  -1.13008  -1.12994
  Beta  occ. eigenvalues --   -1.12899  -1.12860  -1.12853  -1.12838  -1.12807
  Beta  occ. eigenvalues --   -0.17358  -0.12856  -0.11937
  Beta virt. eigenvalues --   -0.06593  -0.06411  -0.05198  -0.04536  -0.02487
  Beta virt. eigenvalues --   -0.02033  -0.01980  -0.01420  -0.01038  -0.00751
  Beta virt. eigenvalues --   -0.00527   0.00098   0.00330   0.00774   0.00804

 Mulliken charges and spin densities:
               1          2
     1  Na   0.116396  -0.067814
     2  Na  -0.067366   0.000775
     3  Na   0.180984  -0.067096
     4  Na   0.044201   0.000077
     5  Na  -0.382940   0.780851
     6  Na   0.024106  -0.032578
     7  Na   0.084620   0.385785
 Sum of Mulliken charges =  -0.00000   1.00000

 Dipole moment (field-independent basis, Debye):
    X=              0.6677    Y=              0.0920    Z=              0.1812  Tot=              0.6980
 Quadrupole moment (field-independent basis, Debye-Ang):
   XX=            -51.9150   YY=            -64.5611   ZZ=            -76.1930
   XY=              0.0634   XZ=              1.5300   YZ=             -0.5483

 Normal termination of Gaussian 16 at Thu Dec  7 02:16:39 2023.
