 Gaussian 16, Revision B.01,
 Gaussian 16:  ES64L-G16RevB.01 20-Dec-2017

 -------------------------
 #P B3LYP/6-311+g(d) force
 -------------------------

 -----
 DPGEN
 -----
 Symbolic Z-matrix:
 Charge =  0 Multiplicity = 2

                         Standard orientation:
 ---------------------------------------------------------------------
 Center     Atomic      Atomic             Coordinates (Angstroms)
 Number     Number       Type             X           Y           Z
 ---------------------------------------------------------------------
      1         11           0        3.682300   -1.917086   -0.001232
      2         11           0       -3.696971    0.076697    1.200579
      3         11           0        0.448879   -2.816742   -0.911377
      4         11           0        3.522701    0.938950    1.043167
      5         11           0        0.975509    3.497385   -0.542388
      6         11           0       -2.047608    3.015748   -0.679542
      7         11           0       -2.884810   -2.794952   -0.109207
 ---------------------------------------------------------------------

 SCF Done:  E(UB3LYP) =  -1136.10925779     A.U. after   19 cycles

 The electronic state is 2-A.
 Alpha  occ. eigenvalues --  -38.44699 -38.44643 -38.44624 -38.44536 -38.44304
 Alpha  occ. eigenvalues --  -38.44255 -38.44031  -2.20515  -2.20444  -2.20440
 Alpha  occ. eigenvalues --   -2.20327  -2.20108  -2.20063  -2.19838  -1.14275
 Alpha  occ. eigenvalues --   -1.14164  -1.14150  -1.14146  -1.14102  -1.14099
 Alpha  occ. eigenvalues --   -1.14093  -1.14084  -1.14040  -1.14010  -1.14000
 Alpha  occ. eigenvalues --   -1.13996  -1.13763  -1.13755  -1.13741  -1.13710
 Alpha  occ. eigenvalues --   -1.13695  -1.13691  -1.13492  -1.13481  -1.13460
 Alpha  occ. eigenvalues --   -0.15807  -0.14024  -0.13510  -0.10664
 Alpha virt. eigenvalues --   -0.07584  -0.04745  -0.04560  -0.03771  -0.03377
 Alpha virt. eigenvalues --   -0.02070  -0.01951  -0.01791  -0.01280  -0.01152
 Alpha virt. eigenvalues --   -0.00738   0.00010   0.00128   0.00276   0.00781

  Beta  occ. eigenvalues --  -38.44648 -38.44630 -38.44624 -38.44541 -38.44281
  Beta  occ. eigenvalues --  -38.44186 -38.43955  -2.20450  -2.20421  -2.20420
  Beta  occ. eigenvalues --   -2.20344  -2.20069  -2.19935  -2.19697  -1.14230
  Beta  occ. eigenvalues --   -1.14122  -1.14119  -1.14099  -1.14092  -1.14089
  Beta  occ. eigenvalues --   -1.14072  -1.14061  -1.14022  -1.14017  -1.13997
  Beta  occ. eigenvalues --   -1.13963  -1.13737  -1.13731  -1.13703  -1.13623
  Beta  occ. eigenvalues --   -1.13613  -1.13606  -1.13396  -1.13386  -1.13370
  Beta  occ. eigenvalues --   -0.15280  -0.13368  -0.12875
  Beta virt. eigenvalues --   -0.07607  -0.07481  -0.04333  -0.04045  -0.03602
  Beta virt. eigenvalues --   -0.02944  -0.01922  -0.01769  -0.01754  -0.01126
  Beta virt. eigenvalues --   -0.00747  -0.00450   0.00226   0.00289   0.00351

 Mulliken charges and spin densities:
               1          2
     1  Na   0.673956   0.016101
     2  Na  -0.246405   0.346250
     3  Na  -0.457067   0.364528
     4  Na  -0.330060   0.233224
     5  Na   0.148566   0.067363
     6  Na  -0.104237   0.037527
     7  Na   0.315246  -0.064994
 Sum of Mulliken charges =  -0.00000   1.00000

 Dipole moment (field-independent basis, Debye):
    X=              0.2975    Y=              0.2020    Z=              0.1061  Tot=              0.3750
 Quadrupole moment (field-independent basis, Debye-Ang):
   XX=            -62.8628   YY=            -66.8868   ZZ=            -71.7161
   XY=             -0.1442   XZ=              0.5109   YZ=              1.5077

 Normal termination of Gaussian 16 at Sun Dec  3 22:15:22 2023.
