 Gaussian 16, Revision B.01,
 Gaussian 16:  ES64L-G16RevB.01 20-Dec-2017

 -------------------------
 #P B3LYP/6-311+g(d) force
 -------------------------

 -----
 DPGEN
 -----
 Symbolic Z-matrix:
 Charge =  0 Multiplicity = 2

                         Standard orientation:
 ---------------------------------------------------------------------
 Center     Atomic      Atomic             Coordinates (Angstroms)
 Number     Number       Type             X           Y           Z
 ---------------------------------------------------------------------
      1         11           0        0.406212   -1.979378    0.141649
      2         11           0       -0.063576    0.134278    1.845898
      3         11           0        2.635568   -0.406269    0.078872
      4         11           0        0.153760   -0.151063   -1.838303
      5         11           0        1.012936    2.084509   -0.110895
      6         11           0       -2.229792   -1.283649   -0.071314
      7         11           0       -1.915108    1.601573   -0.045906
 ---------------------------------------------------------------------

 SCF Done:  E(UB3LYP) =  -1136.09016426     A.U. after   19 cycles

 The electronic state is 2-A.
 Alpha  occ. eigenvalues --  -38.44190 -38.44160 -38.43832 -38.43679 -38.43629
 Alpha  occ. eigenvalues --  -38.43379 -38.43113  -2.20386  -2.20352  -2.19951
 Alpha  occ. eigenvalues --   -2.19880  -2.19702  -2.19436  -2.19208  -1.14319
 Alpha  occ. eigenvalues --   -1.14200  -1.14063  -1.14036  -1.14013  -1.13956
 Alpha  occ. eigenvalues --   -1.13881  -1.13633  -1.13560  -1.13509  -1.13454
 Alpha  occ. eigenvalues --   -1.13450  -1.13377  -1.13301  -1.13189  -1.13166
 Alpha  occ. eigenvalues --   -1.13068  -1.13023  -1.12874  -1.12854  -1.12773
 Alpha  occ. eigenvalues --   -0.21469  -0.13815  -0.12861  -0.12301
 Alpha virt. eigenvalues --   -0.05111  -0.04351  -0.04026  -0.03692  -0.03247
 Alpha virt. eigenvalues --   -0.02978  -0.01098  -0.00475  -0.00113   0.00355
 Alpha virt. eigenvalues --    0.00743   0.00805   0.01017   0.01139   0.01185

  Beta  occ. eigenvalues --  -38.44095 -38.44063 -38.43823 -38.43657 -38.43620
  Beta  occ. eigenvalues --  -38.43370 -38.43100  -2.20215  -2.20179  -2.19925
  Beta  occ. eigenvalues --   -2.19862  -2.19691  -2.19425  -2.19191  -1.14234
  Beta  occ. eigenvalues --   -1.14083  -1.13997  -1.13929  -1.13898  -1.13831
  Beta  occ. eigenvalues --   -1.13802  -1.13607  -1.13555  -1.13450  -1.13447
  Beta  occ. eigenvalues --   -1.13363  -1.13356  -1.13246  -1.13183  -1.13161
  Beta  occ. eigenvalues --   -1.13028  -1.13009  -1.12868  -1.12788  -1.12770
  Beta  occ. eigenvalues --   -0.20620  -0.13453  -0.12492
  Beta virt. eigenvalues --   -0.08112  -0.05139  -0.04341  -0.03996  -0.02734
  Beta virt. eigenvalues --   -0.02317  -0.01890  -0.01024  -0.00434   0.00038
  Beta virt. eigenvalues --    0.00379   0.00717   0.00785   0.01055   0.01146

 Mulliken charges and spin densities:
               1          2
     1  Na   0.107616   0.094775
     2  Na  -0.210030   0.465746
     3  Na   0.075275  -0.071195
     4  Na  -0.207015   0.500074
     5  Na   0.150902   0.038738
     6  Na   0.020010  -0.039491
     7  Na   0.063242   0.011353
 Sum of Mulliken charges =  -0.00000   1.00000

 Dipole moment (field-independent basis, Debye):
    X=             -0.0212    Y=              0.2801    Z=             -0.0241  Tot=              0.2820
 Quadrupole moment (field-independent basis, Debye-Ang):
   XX=            -59.7513   YY=            -70.0982   ZZ=            -67.9040
   XY=              0.2078   XZ=              0.4527   YZ=             -0.4029

 Normal termination of Gaussian 16 at Sat Dec  9 07:12:28 2023.
