 Gaussian 16, Revision B.01,
 Gaussian 16:  ES64L-G16RevB.01 20-Dec-2017

 -------------------------
 #P B3LYP/6-311+g(d) force
 -------------------------

 -----
 DPGEN
 -----
 Symbolic Z-matrix:
 Charge =  0 Multiplicity = 2

                         Standard orientation:
 ---------------------------------------------------------------------
 Center     Atomic      Atomic             Coordinates (Angstroms)
 Number     Number       Type             X           Y           Z
 ---------------------------------------------------------------------
      1         11           0        0.010890   -1.980382    0.451535
      2         11           0       -3.639315   -2.976895   -0.475817
      3         11           0       -3.279087    0.298982    0.110416
      4         11           0        0.139779    1.450954   -0.642936
      5         11           0        2.523179   -0.263052    0.983537
      6         11           0       -2.047435    3.742064    0.129655
      7         11           0        6.291990   -0.271671   -0.556392
 ---------------------------------------------------------------------

 SCF Done:  E(UB3LYP) =  -1136.12200254     A.U. after   19 cycles

 The electronic state is 2-A.
 Alpha  occ. eigenvalues --  -38.45449 -38.44185 -38.44081 -38.43993 -38.43588
 Alpha  occ. eigenvalues --  -38.43572 -38.43566  -2.21233  -2.20032  -2.19948
 Alpha  occ. eigenvalues --   -2.19811  -2.19418  -2.19381  -2.19379  -1.14857
 Alpha  occ. eigenvalues --   -1.14857  -1.14833  -1.13721  -1.13720  -1.13656
 Alpha  occ. eigenvalues --   -1.13649  -1.13631  -1.13558  -1.13516  -1.13508
 Alpha  occ. eigenvalues --   -1.13401  -1.13096  -1.13073  -1.13062  -1.13046
 Alpha  occ. eigenvalues --   -1.13043  -1.13042  -1.13041  -1.13010  -1.13004
 Alpha  occ. eigenvalues --   -0.16776  -0.13724  -0.12316  -0.11690
 Alpha virt. eigenvalues --   -0.05579  -0.05375  -0.05149  -0.03813  -0.02591
 Alpha virt. eigenvalues --   -0.02199  -0.01875  -0.01778  -0.01471  -0.00949
 Alpha virt. eigenvalues --   -0.00556  -0.00122   0.00147   0.00398   0.00631

  Beta  occ. eigenvalues --  -38.45293 -38.44161 -38.44073 -38.43983 -38.43577
  Beta  occ. eigenvalues --  -38.43568 -38.43566  -2.20943  -2.19990  -2.19933
  Beta  occ. eigenvalues --   -2.19794  -2.19424  -2.19374  -2.19360  -1.14660
  Beta  occ. eigenvalues --   -1.14660  -1.14637  -1.13693  -1.13689  -1.13642
  Beta  occ. eigenvalues --   -1.13626  -1.13618  -1.13542  -1.13505  -1.13495
  Beta  occ. eigenvalues --   -1.13386  -1.13104  -1.13080  -1.13042  -1.13037
  Beta  occ. eigenvalues --   -1.13030  -1.13026  -1.13025  -1.13005  -1.12994
  Beta  occ. eigenvalues --   -0.16475  -0.12820  -0.12251
  Beta virt. eigenvalues --   -0.07612  -0.05468  -0.05280  -0.04712  -0.03582
  Beta virt. eigenvalues --   -0.02265  -0.01766  -0.01727  -0.01278  -0.01007
  Beta virt. eigenvalues --   -0.00509  -0.00272   0.00068   0.00310   0.00533

 Mulliken charges and spin densities:
               1          2
     1  Na  -0.567968  -0.008863
     2  Na   0.543863   0.022765
     3  Na  -0.288984   0.153214
     4  Na  -1.202911  -0.044839
     5  Na   0.668229   0.088702
     6  Na   0.849932   0.019589
     7  Na  -0.002161   0.769431
 Sum of Mulliken charges =  -0.00000   1.00000

 Dipole moment (field-independent basis, Debye):
    X=              0.0504    Y=              0.1000    Z=             -0.0180  Tot=              0.1134
 Quadrupole moment (field-independent basis, Debye-Ang):
   XX=            -65.3930   YY=            -62.2955   ZZ=            -70.5385
   XY=              0.0475   XZ=             -1.0985   YZ=              1.7561

 Normal termination of Gaussian 16 at Tue Nov 28 21:13:05 2023.
