 Gaussian 16, Revision B.01,
 Gaussian 16:  ES64L-G16RevB.01 20-Dec-2017

 -------------------------
 #P B3LYP/6-311+g(d) force
 -------------------------

 -----
 DPGEN
 -----
 Symbolic Z-matrix:
 Charge =  0 Multiplicity = 2

                         Standard orientation:
 ---------------------------------------------------------------------
 Center     Atomic      Atomic             Coordinates (Angstroms)
 Number     Number       Type             X           Y           Z
 ---------------------------------------------------------------------
      1         11           0       -1.277614   -2.576399    0.427502
      2         11           0       -3.661102   -0.983831   -1.119032
      3         11           0       -2.263807    2.476465   -0.565399
      4         11           0        0.764321    2.486518    0.114020
      5         11           0        3.858951    0.037993   -1.739439
      6         11           0        0.629780    0.398371    2.897990
      7         11           0        1.949472   -1.839116   -0.015643
 ---------------------------------------------------------------------

 SCF Done:  E(UB3LYP) =  -1136.11554981     A.U. after   20 cycles

 The electronic state is 2-A.
 Alpha  occ. eigenvalues --  -38.45707 -38.44910 -38.44180 -38.44007 -38.43848
 Alpha  occ. eigenvalues --  -38.43651 -38.43581  -2.21495  -2.20718  -2.19961
 Alpha  occ. eigenvalues --   -2.19802  -2.19674  -2.19468  -2.19392  -1.15140
 Alpha  occ. eigenvalues --   -1.15127  -1.15108  -1.14374  -1.14354  -1.14337
 Alpha  occ. eigenvalues --   -1.13631  -1.13628  -1.13602  -1.13512  -1.13463
 Alpha  occ. eigenvalues --   -1.13433  -1.13361  -1.13351  -1.13327  -1.13144
 Alpha  occ. eigenvalues --   -1.13140  -1.13093  -1.13068  -1.13051  -1.13029
 Alpha  occ. eigenvalues --   -0.16781  -0.13289  -0.12284  -0.11797
 Alpha virt. eigenvalues --   -0.06508  -0.05622  -0.04396  -0.03551  -0.03257
 Alpha virt. eigenvalues --   -0.02785  -0.01591  -0.01177  -0.01020  -0.00623
 Alpha virt. eigenvalues --   -0.00354   0.00035   0.00312   0.00398   0.00668

  Beta  occ. eigenvalues --  -38.45604 -38.44830 -38.44172 -38.43998 -38.43847
  Beta  occ. eigenvalues --  -38.43655 -38.43576  -2.21303  -2.20569  -2.19945
  Beta  occ. eigenvalues --   -2.19784  -2.19679  -2.19478  -2.19384  -1.15012
  Beta  occ. eigenvalues --   -1.14998  -1.14971  -1.14273  -1.14253  -1.14236
  Beta  occ. eigenvalues --   -1.13623  -1.13617  -1.13588  -1.13504  -1.13449
  Beta  occ. eigenvalues --   -1.13420  -1.13369  -1.13338  -1.13307  -1.13152
  Beta  occ. eigenvalues --   -1.13126  -1.13105  -1.13065  -1.13046  -1.13015
  Beta  occ. eigenvalues --   -0.16139  -0.12639  -0.12244
  Beta virt. eigenvalues --   -0.08280  -0.06015  -0.05326  -0.03941  -0.03379
  Beta virt. eigenvalues --   -0.02687  -0.02379  -0.01324  -0.01008  -0.00736
  Beta virt. eigenvalues --   -0.00512  -0.00288   0.00320   0.00470   0.00530

 Mulliken charges and spin densities:
               1          2
     1  Na  -0.099641   0.076350
     2  Na   0.014247   0.031509
     3  Na   0.144565   0.084599
     4  Na  -0.514571   0.073208
     5  Na   0.691710   0.277747
     6  Na   0.331554   0.372430
     7  Na  -0.567864   0.084158
 Sum of Mulliken charges =  -0.00000   1.00000

 Dipole moment (field-independent basis, Debye):
    X=              0.4672    Y=              0.3464    Z=              0.3647  Tot=              0.6865
 Quadrupole moment (field-independent basis, Debye-Ang):
   XX=            -61.1954   YY=            -73.1009   ZZ=            -64.1326
   XY=              1.2738   XZ=             -0.5431   YZ=             -1.6832

 Normal termination of Gaussian 16 at Sun Dec  3 21:50:32 2023.
