 Gaussian 16, Revision B.01,
 Gaussian 16:  ES64L-G16RevB.01 20-Dec-2017

 -------------------------
 #P B3LYP/6-311+g(d) force
 -------------------------

 -----
 DPGEN
 -----
 Symbolic Z-matrix:
 Charge =  0 Multiplicity = 2

                         Standard orientation:
 ---------------------------------------------------------------------
 Center     Atomic      Atomic             Coordinates (Angstroms)
 Number     Number       Type             X           Y           Z
 ---------------------------------------------------------------------
      1         11           0        3.375542   -0.579563   -1.670184
      2         11           0        0.128711   -0.946319   -0.762456
      3         11           0       -0.421490    1.598937    1.814468
      4         11           0        2.469158   -0.407071    2.136332
      5         11           0       -3.199466    0.378288   -0.376072
      6         11           0       -0.227170    2.567508   -1.266912
      7         11           0       -2.125286   -2.611780    0.124824
 ---------------------------------------------------------------------

 SCF Done:  E(UB3LYP) =  -1136.12392435     A.U. after   22 cycles

 The electronic state is 2-A.
 Alpha  occ. eigenvalues --  -38.44521 -38.44501 -38.44376 -38.43659 -38.43547
 Alpha  occ. eigenvalues --  -38.43135 -38.43074  -2.20340  -2.20318  -2.20162
 Alpha  occ. eigenvalues --   -2.19525  -2.19386  -2.19101  -2.18951  -1.14035
 Alpha  occ. eigenvalues --   -1.14010  -1.13985  -1.13972  -1.13950  -1.13926
 Alpha  occ. eigenvalues --   -1.13830  -1.13809  -1.13779  -1.13217  -1.13195
 Alpha  occ. eigenvalues --   -1.13151  -1.13058  -1.13030  -1.12990  -1.12908
 Alpha  occ. eigenvalues --   -1.12782  -1.12739  -1.12582  -1.12577  -1.12555
 Alpha  occ. eigenvalues --   -0.17858  -0.13217  -0.11781  -0.11431
 Alpha virt. eigenvalues --   -0.06018  -0.05078  -0.04488  -0.03401  -0.03039
 Alpha virt. eigenvalues --   -0.02566  -0.01971  -0.00898  -0.00709  -0.00101
 Alpha virt. eigenvalues --    0.00156   0.00260   0.00393   0.00623   0.00747

  Beta  occ. eigenvalues --  -38.44500 -38.44460 -38.44333 -38.43623 -38.43516
  Beta  occ. eigenvalues --  -38.43117 -38.43073  -2.20339  -2.20207  -2.20081
  Beta  occ. eigenvalues --   -2.19460  -2.19328  -2.19073  -2.18950  -1.14028
  Beta  occ. eigenvalues --   -1.14010  -1.13952  -1.13906  -1.13895  -1.13843
  Beta  occ. eigenvalues --   -1.13769  -1.13751  -1.13730  -1.13180  -1.13151
  Beta  occ. eigenvalues --   -1.13087  -1.13011  -1.12989  -1.12948  -1.12879
  Beta  occ. eigenvalues --   -1.12753  -1.12722  -1.12581  -1.12572  -1.12546
  Beta  occ. eigenvalues --   -0.17275  -0.12829  -0.11615
  Beta virt. eigenvalues --   -0.07615  -0.05903  -0.04424  -0.04343  -0.03188
  Beta virt. eigenvalues --   -0.02453  -0.01987  -0.01817  -0.00675  -0.00401
  Beta virt. eigenvalues --   -0.00045   0.00233   0.00380   0.00482   0.00775

 Mulliken charges and spin densities:
               1          2
     1  Na   0.859390   0.056467
     2  Na  -2.115116   0.549865
     3  Na   0.514204   0.223170
     4  Na  -0.313043   0.133379
     5  Na   0.476896  -0.072557
     6  Na  -0.467919   0.130394
     7  Na   1.045588  -0.020718
 Sum of Mulliken charges =  -0.00000   1.00000

 Dipole moment (field-independent basis, Debye):
    X=              0.0787    Y=              0.4589    Z=              0.1208  Tot=              0.4810
 Quadrupole moment (field-independent basis, Debye-Ang):
   XX=            -55.5097   YY=            -72.2415   ZZ=            -66.0789
   XY=             -1.6787   XZ=             -1.0229   YZ=             -3.5737

 Normal termination of Gaussian 16 at Wed Nov 29 17:22:55 2023.
