 Gaussian 16, Revision B.01,
 Gaussian 16:  ES64L-G16RevB.01 20-Dec-2017

 -------------------------
 #P B3LYP/6-311+g(d) force
 -------------------------

 -----
 DPGEN
 -----
 Symbolic Z-matrix:
 Charge =  0 Multiplicity = 2

                         Standard orientation:
 ---------------------------------------------------------------------
 Center     Atomic      Atomic             Coordinates (Angstroms)
 Number     Number       Type             X           Y           Z
 ---------------------------------------------------------------------
      1         11           0        0.011280    0.554918    1.888738
      2         11           0        1.403865    1.362465   -1.414034
      3         11           0        4.464023    0.164075    0.917455
      4         11           0       -1.630942   -1.453419   -1.119175
      5         11           0       -3.971061   -0.821909    1.023025
      6         11           0       -2.264169    2.039654   -0.630561
      7         11           0        1.987004   -1.845784   -0.665449
 ---------------------------------------------------------------------

 SCF Done:  E(UB3LYP) =  -1136.11491297     A.U. after   30 cycles

 The electronic state is 2-A.
 Alpha  occ. eigenvalues --  -38.46357 -38.44983 -38.43837 -38.43699 -38.43694
 Alpha  occ. eigenvalues --  -38.43672 -38.43490  -2.22111  -2.20761  -2.19646
 Alpha  occ. eigenvalues --   -2.19532  -2.19516  -2.19515  -2.19352  -1.15804
 Alpha  occ. eigenvalues --   -1.15750  -1.15733  -1.14423  -1.14410  -1.14374
 Alpha  occ. eigenvalues --   -1.13346  -1.13307  -1.13267  -1.13256  -1.13202
 Alpha  occ. eigenvalues --   -1.13196  -1.13194  -1.13179  -1.13178  -1.13155
 Alpha  occ. eigenvalues --   -1.13139  -1.13117  -1.13040  -1.13005  -1.12962
 Alpha  occ. eigenvalues --   -0.17821  -0.14118  -0.11141  -0.10533
 Alpha virt. eigenvalues --   -0.07513  -0.05312  -0.04983  -0.03174  -0.03033
 Alpha virt. eigenvalues --   -0.02345  -0.02166  -0.01661  -0.01146  -0.00433
 Alpha virt. eigenvalues --   -0.00175   0.00126   0.00205   0.00435   0.00514

  Beta  occ. eigenvalues --  -38.46339 -38.44927 -38.43837 -38.43684 -38.43667
  Beta  occ. eigenvalues --  -38.43643 -38.43457  -2.22077  -2.20655  -2.19648
  Beta  occ. eigenvalues --   -2.19488  -2.19484  -2.19467  -2.19294  -1.15777
  Beta  occ. eigenvalues --   -1.15725  -1.15708  -1.14349  -1.14337  -1.14306
  Beta  occ. eigenvalues --   -1.13342  -1.13307  -1.13263  -1.13217  -1.13178
  Beta  occ. eigenvalues --   -1.13173  -1.13159  -1.13153  -1.13136  -1.13131
  Beta  occ. eigenvalues --   -1.13100  -1.13065  -1.13003  -1.12969  -1.12898
  Beta  occ. eigenvalues --   -0.17177  -0.13818  -0.10370
  Beta virt. eigenvalues --   -0.07532  -0.07140  -0.05100  -0.04506  -0.02860
  Beta virt. eigenvalues --   -0.02779  -0.01981  -0.01645  -0.01187  -0.01052
  Beta virt. eigenvalues --   -0.00310  -0.00091   0.00219   0.00305   0.00537

 Mulliken charges and spin densities:
               1          2
     1  Na  -0.362584   0.156766
     2  Na  -0.041250   0.171663
     3  Na   0.260036   0.373403
     4  Na  -0.588859   0.073023
     5  Na   0.491392   0.117021
     6  Na   0.229551   0.058865
     7  Na   0.011714   0.049259
 Sum of Mulliken charges =  -0.00000   1.00000

 Dipole moment (field-independent basis, Debye):
    X=              0.5688    Y=              0.9472    Z=              0.7396  Tot=              1.3296
 Quadrupole moment (field-independent basis, Debye-Ang):
   XX=            -56.6523   YY=            -79.3714   ZZ=            -64.3451
   XY=             -1.9038   XZ=             -0.3452   YZ=             -1.4191

 Normal termination of Gaussian 16 at Thu Dec  7 23:13:32 2023.
