 Gaussian 16, Revision B.01,
 Gaussian 16:  ES64L-G16RevB.01 20-Dec-2017

 -------------------------
 #P B3LYP/6-311+g(d) force
 -------------------------

 -----
 DPGEN
 -----
 Symbolic Z-matrix:
 Charge =  0 Multiplicity = 2

                         Standard orientation:
 ---------------------------------------------------------------------
 Center     Atomic      Atomic             Coordinates (Angstroms)
 Number     Number       Type             X           Y           Z
 ---------------------------------------------------------------------
      1         11           0        0.004483   -0.733407   -2.242882
      2         11           0        0.770185    0.825443    2.264967
      3         11           0        2.766614   -1.409310   -0.141996
      4         11           0       -3.379281   -0.590236   -0.280303
      5         11           0       -1.498084    2.099489    0.142751
      6         11           0       -0.440560   -2.146072    1.142130
      7         11           0        1.776643    1.954093   -0.884666
 ---------------------------------------------------------------------

 SCF Done:  E(UB3LYP) =  -1136.13476903     A.U. after   20 cycles

 The electronic state is 2-A.
 Alpha  occ. eigenvalues --  -38.44690 -38.44360 -38.43738 -38.43726 -38.43507
 Alpha  occ. eigenvalues --  -38.43344 -38.42902  -2.20535  -2.20240  -2.19552
 Alpha  occ. eigenvalues --   -2.19545  -2.19359  -2.19211  -2.18769  -1.14207
 Alpha  occ. eigenvalues --   -1.14173  -1.14149  -1.13917  -1.13867  -1.13854
 Alpha  occ. eigenvalues --   -1.13222  -1.13219  -1.13215  -1.13210  -1.13204
 Alpha  occ. eigenvalues --   -1.13186  -1.13054  -1.13010  -1.12968  -1.12901
 Alpha  occ. eigenvalues --   -1.12866  -1.12835  -1.12458  -1.12443  -1.12391
 Alpha  occ. eigenvalues --   -0.18450  -0.12789  -0.12209  -0.11774
 Alpha virt. eigenvalues --   -0.05640  -0.04706  -0.04309  -0.03633  -0.03507
 Alpha virt. eigenvalues --   -0.03331  -0.01397  -0.00676  -0.00435   0.00075
 Alpha virt. eigenvalues --    0.00255   0.00423   0.00503   0.00769   0.00907

  Beta  occ. eigenvalues --  -38.44617 -38.44280 -38.43740 -38.43727 -38.43473
  Beta  occ. eigenvalues --  -38.43324 -38.42899  -2.20401  -2.20093  -2.19556
  Beta  occ. eigenvalues --   -2.19548  -2.19299  -2.19178  -2.18765  -1.14118
  Beta  occ. eigenvalues --   -1.14078  -1.14049  -1.13815  -1.13771  -1.13742
  Beta  occ. eigenvalues --   -1.13223  -1.13223  -1.13212  -1.13205  -1.13195
  Beta  occ. eigenvalues --   -1.13189  -1.13005  -1.12960  -1.12928  -1.12870
  Beta  occ. eigenvalues --   -1.12843  -1.12804  -1.12450  -1.12427  -1.12392
  Beta  occ. eigenvalues --   -0.17600  -0.12621  -0.11621
  Beta virt. eigenvalues --   -0.08142  -0.05449  -0.04691  -0.03737  -0.03231
  Beta virt. eigenvalues --   -0.02858  -0.02421  -0.01329  -0.00640  -0.00158
  Beta virt. eigenvalues --    0.00110   0.00244   0.00449   0.00719   0.00890

 Mulliken charges and spin densities:
               1          2
     1  Na  -0.426559   0.537423
     2  Na  -0.107232   0.356631
     3  Na   0.263796  -0.116918
     4  Na   0.179922  -0.080175
     5  Na  -0.080557   0.065675
     6  Na  -0.024227   0.162682
     7  Na   0.194858   0.074683
 Sum of Mulliken charges =  -0.00000   1.00000

 Dipole moment (field-independent basis, Debye):
    X=              0.2558    Y=             -0.2475    Z=             -0.1720  Tot=              0.3954
 Quadrupole moment (field-independent basis, Debye-Ang):
   XX=            -59.6814   YY=            -73.0210   ZZ=            -64.0600
   XY=              0.4055   XZ=              0.3355   YZ=             -1.1312

 Normal termination of Gaussian 16 at Mon Dec  4 02:49:57 2023.
