 Gaussian 16, Revision B.01,
 Gaussian 16:  ES64L-G16RevB.01 20-Dec-2017

 -------------------------
 #P B3LYP/6-311+g(d) force
 -------------------------

 -----
 DPGEN
 -----
 Symbolic Z-matrix:
 Charge =  0 Multiplicity = 2

                         Standard orientation:
 ---------------------------------------------------------------------
 Center     Atomic      Atomic             Coordinates (Angstroms)
 Number     Number       Type             X           Y           Z
 ---------------------------------------------------------------------
      1         11           0       -2.411532   -2.266670   -0.560353
      2         11           0       -3.700719    0.709991    0.684314
      3         11           0       -0.101619   -0.436811    1.897494
      4         11           0        2.293944    2.127593    0.214869
      5         11           0       -0.658037    2.226288   -0.989846
      6         11           0        0.833399   -0.872495   -1.682224
      7         11           0        3.744563   -1.487897    0.435746
 ---------------------------------------------------------------------

 SCF Done:  E(UB3LYP) =  -1136.12183626     A.U. after   23 cycles

 The electronic state is 2-A.
 Alpha  occ. eigenvalues --  -38.45341 -38.44993 -38.44436 -38.44118 -38.43984
 Alpha  occ. eigenvalues --  -38.43632 -38.42555  -2.21121  -2.20773  -2.20191
 Alpha  occ. eigenvalues --   -2.19912  -2.19807  -2.19495  -2.18415  -1.14815
 Alpha  occ. eigenvalues --   -1.14779  -1.14725  -1.14443  -1.14423  -1.14405
 Alpha  occ. eigenvalues --   -1.13866  -1.13859  -1.13824  -1.13582  -1.13572
 Alpha  occ. eigenvalues --   -1.13551  -1.13487  -1.13482  -1.13435  -1.13184
 Alpha  occ. eigenvalues --   -1.13128  -1.13112  -1.12097  -1.12072  -1.12052
 Alpha  occ. eigenvalues --   -0.17717  -0.13495  -0.11373  -0.10738
 Alpha virt. eigenvalues --   -0.07037  -0.05806  -0.04131  -0.03281  -0.02934
 Alpha virt. eigenvalues --   -0.02499  -0.02386  -0.01454  -0.00787  -0.00562
 Alpha virt. eigenvalues --    0.00054   0.00099   0.00295   0.00600   0.00612

  Beta  occ. eigenvalues --  -38.45294 -38.44971 -38.44437 -38.44101 -38.43984
  Beta  occ. eigenvalues --  -38.43559 -38.42538  -2.21034  -2.20732  -2.20193
  Beta  occ. eigenvalues --   -2.19882  -2.19808  -2.19363  -2.18386  -1.14751
  Beta  occ. eigenvalues --   -1.14718  -1.14658  -1.14408  -1.14395  -1.14379
  Beta  occ. eigenvalues --   -1.13865  -1.13857  -1.13825  -1.13563  -1.13548
  Beta  occ. eigenvalues --   -1.13516  -1.13491  -1.13469  -1.13435  -1.13098
  Beta  occ. eigenvalues --   -1.13028  -1.13011  -1.12076  -1.12046  -1.12022
  Beta  occ. eigenvalues --   -0.17026  -0.13305  -0.11171
  Beta virt. eigenvalues --   -0.07111  -0.06698  -0.05698  -0.03799  -0.02994
  Beta virt. eigenvalues --   -0.02493  -0.02018  -0.01635  -0.01309  -0.00698
  Beta virt. eigenvalues --   -0.00384   0.00077   0.00142   0.00428   0.00673

 Mulliken charges and spin densities:
               1          2
     1  Na   0.014029   0.019964
     2  Na   0.264860   0.186178
     3  Na  -0.274029   0.353833
     4  Na   0.193342   0.031979
     5  Na  -0.245497  -0.003882
     6  Na  -0.076143   0.379611
     7  Na   0.123437   0.032316
 Sum of Mulliken charges =  -0.00000   1.00000

 Dipole moment (field-independent basis, Debye):
    X=             -0.2358    Y=             -0.1397    Z=              0.5155  Tot=              0.5839
 Quadrupole moment (field-independent basis, Debye-Ang):
   XX=            -50.1560   YY=            -72.3999   ZZ=            -72.1527
   XY=              0.1055   XZ=              0.8818   YZ=              1.1816

 Normal termination of Gaussian 16 at Thu Dec  7 23:36:18 2023.
