 Gaussian 16, Revision B.01,
 Gaussian 16:  ES64L-G16RevB.01 20-Dec-2017

 -------------------------
 #P B3LYP/6-311+g(d) force
 -------------------------

 -----
 DPGEN
 -----
 Symbolic Z-matrix:
 Charge =  0 Multiplicity = 2

                         Standard orientation:
 ---------------------------------------------------------------------
 Center     Atomic      Atomic             Coordinates (Angstroms)
 Number     Number       Type             X           Y           Z
 ---------------------------------------------------------------------
      1         11           0        0.808324    3.009336   -0.413725
      2         11           0       -0.139738   -0.293197    2.085200
      3         11           0        2.976419    0.608553    0.141805
      4         11           0       -0.251598    0.081873   -1.356619
      5         11           0       -2.888880    1.487656    0.205630
      6         11           0        1.703869   -2.754138   -0.257178
      7         11           0       -2.208396   -2.140084   -0.405113
 ---------------------------------------------------------------------

 SCF Done:  E(UB3LYP) =  -1136.13561715     A.U. after   19 cycles

 The electronic state is 2-A.
 Alpha  occ. eigenvalues --  -38.44195 -38.44047 -38.43838 -38.43748 -38.43507
 Alpha  occ. eigenvalues --  -38.43507 -38.42874  -2.19998  -2.19887  -2.19632
 Alpha  occ. eigenvalues --   -2.19588  -2.19377  -2.19348  -2.18892  -1.13675
 Alpha  occ. eigenvalues --   -1.13661  -1.13636  -1.13603  -1.13540  -1.13493
 Alpha  occ. eigenvalues --   -1.13312  -1.13294  -1.13277  -1.13269  -1.13258
 Alpha  occ. eigenvalues --   -1.13225  -1.13053  -1.13041  -1.13004  -1.12996
 Alpha  occ. eigenvalues --   -1.12981  -1.12975  -1.12586  -1.12542  -1.12508
 Alpha  occ. eigenvalues --   -0.18378  -0.12965  -0.12434  -0.10414
 Alpha virt. eigenvalues --   -0.05744  -0.05309  -0.04938  -0.03024  -0.02720
 Alpha virt. eigenvalues --   -0.02324  -0.01600  -0.01388  -0.00576  -0.00547
 Alpha virt. eigenvalues --   -0.00002   0.00329   0.00781   0.00801   0.00854

  Beta  occ. eigenvalues --  -38.44191 -38.44033 -38.43837 -38.43746 -38.43500
  Beta  occ. eigenvalues --  -38.43407 -38.42827  -2.19993  -2.19864  -2.19632
  Beta  occ. eigenvalues --   -2.19586  -2.19337  -2.19191  -2.18808  -1.13667
  Beta  occ. eigenvalues --   -1.13643  -1.13634  -1.13582  -1.13511  -1.13479
  Beta  occ. eigenvalues --   -1.13308  -1.13285  -1.13276  -1.13270  -1.13240
  Beta  occ. eigenvalues --   -1.13221  -1.13027  -1.12983  -1.12968  -1.12929
  Beta  occ. eigenvalues --   -1.12876  -1.12846  -1.12516  -1.12476  -1.12449
  Beta  occ. eigenvalues --   -0.17689  -0.12743  -0.12205
  Beta virt. eigenvalues --   -0.06530  -0.05715  -0.05252  -0.04875  -0.02279
  Beta virt. eigenvalues --   -0.02049  -0.01515  -0.01310  -0.01246  -0.00620
  Beta virt. eigenvalues --   -0.00567   0.00154   0.00374   0.00790   0.00850

 Mulliken charges and spin densities:
               1          2
     1  Na   0.200428   0.019420
     2  Na  -0.407720   0.751911
     3  Na   0.151836   0.027535
     4  Na  -0.376905   0.193824
     5  Na   0.141894   0.034982
     6  Na   0.043694  -0.023455
     7  Na   0.246773  -0.004217
 Sum of Mulliken charges =  -0.00000   1.00000

 Dipole moment (field-independent basis, Debye):
    X=             -0.3052    Y=             -0.1113    Z=              0.1813  Tot=              0.3720
 Quadrupole moment (field-independent basis, Debye-Ang):
   XX=            -56.4151   YY=            -59.0874   ZZ=            -76.4263
   XY=             -1.0885   XZ=             -0.1611   YZ=              0.8293

 Normal termination of Gaussian 16 at Fri Dec  8 01:36:53 2023.
