 Gaussian 16, Revision B.01,
 Gaussian 16:  ES64L-G16RevB.01 20-Dec-2017

 -------------------------
 #P B3LYP/6-311+g(d) force
 -------------------------

 -----
 DPGEN
 -----
 Symbolic Z-matrix:
 Charge =  0 Multiplicity = 2

                         Standard orientation:
 ---------------------------------------------------------------------
 Center     Atomic      Atomic             Coordinates (Angstroms)
 Number     Number       Type             X           Y           Z
 ---------------------------------------------------------------------
      1         11           0       -0.277110   -2.983133    0.151509
      2         11           0        2.086608    2.147859   -0.097984
      3         11           0        0.164414    0.042446   -1.656664
      4         11           0       -3.224204   -0.824046   -0.505376
      5         11           0       -1.943509    2.648774    0.144261
      6         11           0        3.166148   -0.890814   -0.281844
      7         11           0        0.027654   -0.141086    2.246097
 ---------------------------------------------------------------------

 SCF Done:  E(UB3LYP) =  -1136.13405115     A.U. after   19 cycles

 The electronic state is 2-A.
 Alpha  occ. eigenvalues --  -38.44395 -38.44210 -38.43938 -38.43719 -38.43684
 Alpha  occ. eigenvalues --  -38.43636 -38.43254  -2.20174  -2.20039  -2.19776
 Alpha  occ. eigenvalues --   -2.19573  -2.19554  -2.19453  -2.19068  -1.13855
 Alpha  occ. eigenvalues --   -1.13825  -1.13807  -1.13718  -1.13711  -1.13674
 Alpha  occ. eigenvalues --   -1.13430  -1.13405  -1.13392  -1.13310  -1.13240
 Alpha  occ. eigenvalues --   -1.13226  -1.13197  -1.13180  -1.13163  -1.13130
 Alpha  occ. eigenvalues --   -1.13109  -1.13100  -1.12744  -1.12740  -1.12700
 Alpha  occ. eigenvalues --   -0.18048  -0.13049  -0.11993  -0.10811
 Alpha virt. eigenvalues --   -0.05856  -0.05390  -0.04691  -0.03242  -0.02842
 Alpha virt. eigenvalues --   -0.02745  -0.01761  -0.01192  -0.00556  -0.00532
 Alpha virt. eigenvalues --   -0.00066   0.00322   0.00698   0.00827   0.00848

  Beta  occ. eigenvalues --  -38.44383 -38.44205 -38.43830 -38.43714 -38.43685
  Beta  occ. eigenvalues --  -38.43585 -38.43251  -2.20154  -2.20032  -2.19577
  Beta  occ. eigenvalues --   -2.19567  -2.19463  -2.19456  -2.19064  -1.13829
  Beta  occ. eigenvalues --   -1.13814  -1.13796  -1.13716  -1.13695  -1.13663
  Beta  occ. eigenvalues --   -1.13301  -1.13285  -1.13268  -1.13247  -1.13222
  Beta  occ. eigenvalues --   -1.13183  -1.13172  -1.13130  -1.13122  -1.13111
  Beta  occ. eigenvalues --   -1.13100  -1.13093  -1.12742  -1.12719  -1.12698
  Beta  occ. eigenvalues --   -0.17343  -0.12812  -0.11806
  Beta virt. eigenvalues --   -0.06909  -0.05764  -0.05394  -0.04587  -0.02525
  Beta virt. eigenvalues --   -0.02101  -0.01727  -0.01640  -0.01126  -0.00584
  Beta virt. eigenvalues --   -0.00571   0.00094   0.00368   0.00784   0.00832

 Mulliken charges and spin densities:
               1          2
     1  Na   0.056926  -0.038274
     2  Na   0.135355  -0.001254
     3  Na  -0.018122   0.306871
     4  Na   0.063963   0.002159
     5  Na  -0.061761  -0.036095
     6  Na   0.262378  -0.004907
     7  Na  -0.438738   0.771499
 Sum of Mulliken charges =  -0.00000   1.00000

 Dipole moment (field-independent basis, Debye):
    X=              0.0847    Y=             -0.0714    Z=              0.0189  Tot=              0.1124
 Quadrupole moment (field-independent basis, Debye-Ang):
   XX=            -55.5186   YY=            -64.3365   ZZ=            -74.1919
   XY=             -0.3590   XZ=              0.4392   YZ=              0.8238

 Normal termination of Gaussian 16 at Wed Nov 29 16:42:58 2023.
