 Gaussian 16, Revision B.01,
 Gaussian 16:  ES64L-G16RevB.01 20-Dec-2017

 -------------------------
 #P B3LYP/6-311+g(d) force
 -------------------------

 -----
 DPGEN
 -----
 Symbolic Z-matrix:
 Charge =  0 Multiplicity = 2

                         Standard orientation:
 ---------------------------------------------------------------------
 Center     Atomic      Atomic             Coordinates (Angstroms)
 Number     Number       Type             X           Y           Z
 ---------------------------------------------------------------------
      1         11           0       -3.539470   -0.014967    1.095930
      2         11           0       -1.614373    1.930984   -0.531604
      3         11           0        2.552595    1.716155   -0.051866
      4         11           0       -2.088639   -1.768543   -1.121258
      5         11           0        0.299053   -0.380330    1.982936
      6         11           0        3.737143   -1.273503    0.362112
      7         11           0        0.653692   -0.209797   -1.736250
 ---------------------------------------------------------------------

 SCF Done:  E(UB3LYP) =  -1136.11596537     A.U. after   31 cycles

 The electronic state is 2-A.
 Alpha  occ. eigenvalues --  -38.44761 -38.44658 -38.44618 -38.44344 -38.43998
 Alpha  occ. eigenvalues --  -38.43812 -38.42569  -2.20528  -2.20514  -2.20437
 Alpha  occ. eigenvalues --   -2.20239  -2.19874  -2.19695  -2.18521  -1.14239
 Alpha  occ. eigenvalues --   -1.14233  -1.14225  -1.14195  -1.14168  -1.14119
 Alpha  occ. eigenvalues --   -1.14092  -1.14070  -1.14037  -1.13925  -1.13883
 Alpha  occ. eigenvalues --   -1.13855  -1.13571  -1.13525  -1.13482  -1.13367
 Alpha  occ. eigenvalues --   -1.13339  -1.13317  -1.12213  -1.12184  -1.12140
 Alpha  occ. eigenvalues --   -0.18447  -0.14641  -0.11408  -0.10636
 Alpha virt. eigenvalues --   -0.07042  -0.05766  -0.04525  -0.03121  -0.02791
 Alpha virt. eigenvalues --   -0.02483  -0.02208  -0.01301  -0.00895  -0.00374
 Alpha virt. eigenvalues --    0.00063   0.00140   0.00297   0.00533   0.00680

  Beta  occ. eigenvalues --  -38.44804 -38.44647 -38.44577 -38.44264 -38.43957
  Beta  occ. eigenvalues --  -38.43774 -38.42532  -2.20596  -2.20510  -2.20359
  Beta  occ. eigenvalues --   -2.20095  -2.19799  -2.19628  -2.18458  -1.14289
  Beta  occ. eigenvalues --   -1.14268  -1.14218  -1.14192  -1.14172  -1.14138
  Beta  occ. eigenvalues --   -1.14034  -1.14025  -1.13991  -1.13804  -1.13791
  Beta  occ. eigenvalues --   -1.13760  -1.13515  -1.13457  -1.13441  -1.13321
  Beta  occ. eigenvalues --   -1.13287  -1.13255  -1.12175  -1.12115  -1.12088
  Beta  occ. eigenvalues --   -0.17830  -0.14206  -0.10557
  Beta virt. eigenvalues --   -0.07529  -0.06846  -0.05194  -0.04284  -0.02857
  Beta virt. eigenvalues --   -0.02654  -0.01927  -0.01684  -0.00978  -0.00552
  Beta virt. eigenvalues --   -0.00157   0.00136   0.00282   0.00359   0.00603

 Mulliken charges and spin densities:
               1          2
     1  Na   0.414749   0.291642
     2  Na  -0.219171   0.321519
     3  Na   0.674950   0.192325
     4  Na   0.011808   0.023179
     5  Na  -0.663158  -0.254714
     6  Na   0.231338   0.087228
     7  Na  -0.450515   0.338821
 Sum of Mulliken charges =  -0.00000   1.00000

 Dipole moment (field-independent basis, Debye):
    X=              0.5376    Y=              0.2745    Z=             -0.0036  Tot=              0.6037
 Quadrupole moment (field-independent basis, Debye-Ang):
   XX=            -53.8146   YY=            -66.2095   ZZ=            -77.9040
   XY=              0.3925   XZ=             -0.4687   YZ=              3.9684

 Normal termination of Gaussian 16 at Fri Dec  8 07:01:27 2023.
