 Gaussian 16, Revision B.01,
 Gaussian 16:  ES64L-G16RevB.01 20-Dec-2017

 -------------------------
 #P B3LYP/6-311+g(d) force
 -------------------------

 -----
 DPGEN
 -----
 Symbolic Z-matrix:
 Charge =  0 Multiplicity = 2

                         Standard orientation:
 ---------------------------------------------------------------------
 Center     Atomic      Atomic             Coordinates (Angstroms)
 Number     Number       Type             X           Y           Z
 ---------------------------------------------------------------------
      1         11           0       -2.117162    1.702438   -0.744159
      2         11           0        3.586569   -1.159163    0.706140
      3         11           0       -3.648603   -0.691440    0.585152
      4         11           0       -0.114102   -0.107819    2.029923
      5         11           0        1.494864    2.728375   -0.003664
      6         11           0       -0.880011   -2.070735   -1.009693
      7         11           0        1.678444   -0.401656   -1.563700
 ---------------------------------------------------------------------

 SCF Done:  E(UB3LYP) =  -1136.12018492     A.U. after   22 cycles

 The electronic state is 2-A.
 Alpha  occ. eigenvalues --  -38.45263 -38.44848 -38.44737 -38.44065 -38.43631
 Alpha  occ. eigenvalues --  -38.43443 -38.42931  -2.21052  -2.20657  -2.20572
 Alpha  occ. eigenvalues --   -2.19889  -2.19494  -2.19376  -2.18723  -1.14754
 Alpha  occ. eigenvalues --   -1.14689  -1.14684  -1.14342  -1.14293  -1.14274
 Alpha  occ. eigenvalues --   -1.14270  -1.14218  -1.14204  -1.13565  -1.13554
 Alpha  occ. eigenvalues --   -1.13516  -1.13255  -1.13151  -1.13108  -1.13039
 Alpha  occ. eigenvalues --   -1.13021  -1.12972  -1.12405  -1.12386  -1.12358
 Alpha  occ. eigenvalues --   -0.18070  -0.13863  -0.11305  -0.10870
 Alpha virt. eigenvalues --   -0.07110  -0.05313  -0.04427  -0.03372  -0.02807
 Alpha virt. eigenvalues --   -0.02485  -0.02371  -0.01188  -0.00745  -0.00251
 Alpha virt. eigenvalues --    0.00063   0.00172   0.00244   0.00610   0.00741

  Beta  occ. eigenvalues --  -38.45254 -38.44776 -38.44733 -38.44053 -38.43589
  Beta  occ. eigenvalues --  -38.43400 -38.42931  -2.21036  -2.20567  -2.20525
  Beta  occ. eigenvalues --   -2.19869  -2.19422  -2.19298  -2.18724  -1.14743
  Beta  occ. eigenvalues --   -1.14678  -1.14667  -1.14269  -1.14251  -1.14207
  Beta  occ. eigenvalues --   -1.14203  -1.14201  -1.14168  -1.13543  -1.13532
  Beta  occ. eigenvalues --   -1.13507  -1.13194  -1.13084  -1.13062  -1.12975
  Beta  occ. eigenvalues --   -1.12967  -1.12915  -1.12399  -1.12385  -1.12358
  Beta  occ. eigenvalues --   -0.17364  -0.13745  -0.11038
  Beta virt. eigenvalues --   -0.07149  -0.06839  -0.05225  -0.03912  -0.03161
  Beta virt. eigenvalues --   -0.02426  -0.01889  -0.01671  -0.01039  -0.00544
  Beta virt. eigenvalues --   -0.00164   0.00084   0.00200   0.00407   0.00698

 Mulliken charges and spin densities:
               1          2
     1  Na  -0.403987   0.051231
     2  Na   0.039615   0.099728
     3  Na   0.762466   0.118151
     4  Na  -0.392406   0.545528
     5  Na  -0.124852  -0.034747
     6  Na  -0.236365   0.156013
     7  Na   0.355529   0.064096
 Sum of Mulliken charges =  -0.00000   1.00000

 Dipole moment (field-independent basis, Debye):
    X=             -0.2684    Y=             -0.3778    Z=              0.6503  Tot=              0.7985
 Quadrupole moment (field-independent basis, Debye-Ang):
   XX=            -47.3780   YY=            -75.1339   ZZ=            -71.5670
   XY=              0.0739   XZ=              1.2183   YZ=             -2.0549

 Normal termination of Gaussian 16 at Thu Dec  7 22:21:04 2023.
