 Gaussian 16, Revision B.01,
 Gaussian 16:  ES64L-G16RevB.01 20-Dec-2017

 -------------------------
 #P B3LYP/6-311+g(d) force
 -------------------------

 -----
 DPGEN
 -----
 Symbolic Z-matrix:
 Charge =  0 Multiplicity = 2

                         Standard orientation:
 ---------------------------------------------------------------------
 Center     Atomic      Atomic             Coordinates (Angstroms)
 Number     Number       Type             X           Y           Z
 ---------------------------------------------------------------------
      1         11           0        2.777858   -1.356308    0.328432
      2         11           0       -0.384679   -2.753594   -0.603270
      3         11           0        2.146741    1.823362   -0.678677
      4         11           0       -1.011844    2.922448    0.329395
      5         11           0       -3.070519   -0.608713    0.065046
      6         11           0        0.031235   -0.252298    2.151494
      7         11           0       -0.488791    0.225103   -1.592420
 ---------------------------------------------------------------------

 SCF Done:  E(UB3LYP) =  -1136.13699235     A.U. after   20 cycles

 The electronic state is 2-A.
 Alpha  occ. eigenvalues --  -38.43932 -38.43910 -38.43671 -38.43590 -38.43519
 Alpha  occ. eigenvalues --  -38.43410 -38.43187  -2.19800  -2.19750  -2.19494
 Alpha  occ. eigenvalues --   -2.19462  -2.19383  -2.19245  -2.19199  -1.13464
 Alpha  occ. eigenvalues --   -1.13452  -1.13434  -1.13423  -1.13402  -1.13377
 Alpha  occ. eigenvalues --   -1.13199  -1.13175  -1.13164  -1.13134  -1.13112
 Alpha  occ. eigenvalues --   -1.13102  -1.13072  -1.13036  -1.13008  -1.12916
 Alpha  occ. eigenvalues --   -1.12891  -1.12889  -1.12860  -1.12831  -1.12813
 Alpha  occ. eigenvalues --   -0.18620  -0.12815  -0.12532  -0.11088
 Alpha virt. eigenvalues --   -0.05433  -0.04997  -0.04691  -0.03220  -0.03168
 Alpha virt. eigenvalues --   -0.02814  -0.01322  -0.01164  -0.00299  -0.00120
 Alpha virt. eigenvalues --    0.00039   0.00372   0.00844   0.00878   0.00902

  Beta  occ. eigenvalues --  -38.43907 -38.43835 -38.43667 -38.43575 -38.43504
  Beta  occ. eigenvalues --  -38.43407 -38.43129  -2.19749  -2.19621  -2.19490
  Beta  occ. eigenvalues --   -2.19437  -2.19358  -2.19242  -2.19095  -1.13449
  Beta  occ. eigenvalues --   -1.13403  -1.13370  -1.13342  -1.13306  -1.13288
  Beta  occ. eigenvalues --   -1.13176  -1.13164  -1.13152  -1.13123  -1.13083
  Beta  occ. eigenvalues --   -1.13074  -1.13057  -1.13012  -1.12995  -1.12901
  Beta  occ. eigenvalues --   -1.12890  -1.12880  -1.12792  -1.12757  -1.12736
  Beta  occ. eigenvalues --   -0.17888  -0.12563  -0.12319
  Beta virt. eigenvalues --   -0.07152  -0.05421  -0.04881  -0.04652  -0.02466
  Beta virt. eigenvalues --   -0.02427  -0.01754  -0.01245  -0.01081  -0.00252
  Beta virt. eigenvalues --   -0.00158   0.00137   0.00403   0.00859   0.00904

 Mulliken charges and spin densities:
               1          2
     1  Na   0.059698   0.026124
     2  Na   0.163434  -0.008590
     3  Na   0.123722  -0.018469
     4  Na  -0.026157   0.044360
     5  Na   0.063166   0.002984
     6  Na  -0.464061   0.736646
     7  Na   0.080199   0.216944
 Sum of Mulliken charges =  -0.00000   1.00000

 Dipole moment (field-independent basis, Debye):
    X=             -0.3266    Y=              0.0131    Z=              0.2852  Tot=              0.4337
 Quadrupole moment (field-independent basis, Debye-Ang):
   XX=            -59.4816   YY=            -62.1788   ZZ=            -72.4884
   XY=             -0.4950   XZ=             -1.4783   YZ=              1.1241

 Normal termination of Gaussian 16 at Thu Dec  7 21:19:12 2023.
