 Gaussian 16, Revision B.01,
 Gaussian 16:  ES64L-G16RevB.01 20-Dec-2017

 -------------------------
 #P B3LYP/6-311+g(d) force
 -------------------------

 -----
 DPGEN
 -----
 Symbolic Z-matrix:
 Charge =  0 Multiplicity = 2

                         Standard orientation:
 ---------------------------------------------------------------------
 Center     Atomic      Atomic             Coordinates (Angstroms)
 Number     Number       Type             X           Y           Z
 ---------------------------------------------------------------------
      1         11           0       -1.199247    3.439805    0.349074
      2         11           0       -3.387436    1.442749   -1.060448
      3         11           0       -1.931195   -2.762734    1.954760
      4         11           0       -2.034891   -2.108831   -0.955821
      5         11           0        0.880403    0.181642    0.068425
      6         11           0        3.849708   -1.396651   -1.588137
      7         11           0        3.822657    1.204020    1.232147
 ---------------------------------------------------------------------

 SCF Done:  E(UB3LYP) =  -1136.11121752     A.U. after   20 cycles

 The electronic state is 2-A.
 Alpha  occ. eigenvalues --  -38.44818 -38.44462 -38.44385 -38.44126 -38.44072
 Alpha  occ. eigenvalues --  -38.44065 -38.44040  -2.20594  -2.20277  -2.20193
 Alpha  occ. eigenvalues --   -2.19964  -2.19856  -2.19845  -2.19837  -1.14271
 Alpha  occ. eigenvalues --   -1.14260  -1.14217  -1.14001  -1.13918  -1.13912
 Alpha  occ. eigenvalues --   -1.13907  -1.13861  -1.13804  -1.13625  -1.13606
 Alpha  occ. eigenvalues --   -1.13595  -1.13544  -1.13523  -1.13512  -1.13509
 Alpha  occ. eigenvalues --   -1.13506  -1.13501  -1.13479  -1.13451  -1.13427
 Alpha  occ. eigenvalues --   -0.16304  -0.13758  -0.12317  -0.09989
 Alpha virt. eigenvalues --   -0.06731  -0.06267  -0.04511  -0.03233  -0.03124
 Alpha virt. eigenvalues --   -0.02362  -0.02200  -0.01528  -0.00970  -0.00876
 Alpha virt. eigenvalues --   -0.00429  -0.00123   0.00071   0.00390   0.00528

  Beta  occ. eigenvalues --  -38.44803 -38.44434 -38.44371 -38.44125 -38.44080
  Beta  occ. eigenvalues --  -38.44012 -38.43977  -2.20568  -2.20223  -2.20171
  Beta  occ. eigenvalues --   -2.19965  -2.19860  -2.19783  -2.19691  -1.14250
  Beta  occ. eigenvalues --   -1.14240  -1.14190  -1.13970  -1.13881  -1.13875
  Beta  occ. eigenvalues --   -1.13873  -1.13830  -1.13799  -1.13628  -1.13607
  Beta  occ. eigenvalues --   -1.13576  -1.13542  -1.13532  -1.13506  -1.13465
  Beta  occ. eigenvalues --   -1.13443  -1.13407  -1.13397  -1.13395  -1.13343
  Beta  occ. eigenvalues --   -0.15931  -0.13295  -0.12199
  Beta virt. eigenvalues --   -0.06902  -0.06128  -0.05677  -0.04326  -0.03081
  Beta virt. eigenvalues --   -0.02845  -0.02227  -0.01683  -0.01287  -0.00807
  Beta virt. eigenvalues --   -0.00611  -0.00147   0.00088   0.00167   0.00591

 Mulliken charges and spin densities:
               1          2
     1  Na   0.239167  -0.075379
     2  Na   0.118679   0.163377
     3  Na   0.329683   0.115855
     4  Na   0.617465   0.079191
     5  Na  -2.392488   0.185479
     6  Na   0.396050   0.453864
     7  Na   0.691445   0.077614
 Sum of Mulliken charges =  -0.00000   1.00000

 Dipole moment (field-independent basis, Debye):
    X=             -0.0101    Y=              0.0826    Z=              0.9849  Tot=              0.9884
 Quadrupole moment (field-independent basis, Debye-Ang):
   XX=            -60.8758   YY=            -69.2476   ZZ=            -67.0695
   XY=              4.9268   XZ=              3.8722   YZ=              1.7020

 Normal termination of Gaussian 16 at Fri Dec  8 18:59:39 2023.
