 Gaussian 16, Revision B.01,
 Gaussian 16:  ES64L-G16RevB.01 20-Dec-2017

 -------------------------
 #P B3LYP/6-311+g(d) force
 -------------------------

 -----
 DPGEN
 -----
 Symbolic Z-matrix:
 Charge =  0 Multiplicity = 2

                         Standard orientation:
 ---------------------------------------------------------------------
 Center     Atomic      Atomic             Coordinates (Angstroms)
 Number     Number       Type             X           Y           Z
 ---------------------------------------------------------------------
      1         11           0        2.581135   -1.412592   -1.275167
      2         11           0       -2.404518    2.294004   -1.126140
      3         11           0       -3.093295    0.022370    1.036344
      4         11           0        3.440611    1.945734    0.785515
      5         11           0        0.613317    0.815022    0.222992
      6         11           0       -0.869617   -1.754412   -1.736353
      7         11           0       -0.267634   -1.910126    2.092810
 ---------------------------------------------------------------------

 SCF Done:  E(UB3LYP) =  -1136.12430693     A.U. after   23 cycles

 The electronic state is 2-A.
 Alpha  occ. eigenvalues --  -38.44647 -38.44352 -38.44110 -38.44021 -38.43570
 Alpha  occ. eigenvalues --  -38.43566 -38.42908  -2.20456  -2.20188  -2.19940
 Alpha  occ. eigenvalues --   -2.19849  -2.19386  -2.19376  -2.18873  -1.14148
 Alpha  occ. eigenvalues --   -1.14116  -1.14061  -1.13868  -1.13850  -1.13831
 Alpha  occ. eigenvalues --   -1.13621  -1.13570  -1.13545  -1.13536  -1.13482
 Alpha  occ. eigenvalues --   -1.13468  -1.13078  -1.13045  -1.13035  -1.13028
 Alpha  occ. eigenvalues --   -1.13025  -1.13003  -1.12593  -1.12532  -1.12488
 Alpha  occ. eigenvalues --   -0.17830  -0.13320  -0.11575  -0.11397
 Alpha virt. eigenvalues --   -0.05799  -0.05554  -0.04491  -0.03396  -0.03003
 Alpha virt. eigenvalues --   -0.02298  -0.01899  -0.01138  -0.00788  -0.00199
 Alpha virt. eigenvalues --   -0.00137   0.00157   0.00412   0.00580   0.00745

  Beta  occ. eigenvalues --  -38.44620 -38.44340 -38.44036 -38.43977 -38.43559
  Beta  occ. eigenvalues --  -38.43547 -38.42894  -2.20409  -2.20169  -2.19805
  Beta  occ. eigenvalues --   -2.19770  -2.19356  -2.19351  -2.18852  -1.14112
  Beta  occ. eigenvalues --   -1.14085  -1.14019  -1.13854  -1.13838  -1.13798
  Beta  occ. eigenvalues --   -1.13526  -1.13481  -1.13475  -1.13453  -1.13421
  Beta  occ. eigenvalues --   -1.13410  -1.13062  -1.13022  -1.13015  -1.13010
  Beta  occ. eigenvalues --   -1.13001  -1.12991  -1.12537  -1.12529  -1.12478
  Beta  occ. eigenvalues --   -0.17165  -0.13073  -0.11188
  Beta virt. eigenvalues --   -0.07687  -0.05623  -0.05313  -0.04113  -0.02873
  Beta virt. eigenvalues --   -0.02556  -0.01850  -0.01681  -0.00956  -0.00445
  Beta virt. eigenvalues --   -0.00125  -0.00005   0.00235   0.00499   0.00640

 Mulliken charges and spin densities:
               1          2
     1  Na   0.062715  -0.003896
     2  Na   0.750680  -0.005655
     3  Na   0.952660   0.030198
     4  Na   0.089419  -0.014216
     5  Na  -2.287351   0.452440
     6  Na   0.620651   0.266834
     7  Na  -0.188774   0.274295
 Sum of Mulliken charges =  -0.00000   1.00000

 Dipole moment (field-independent basis, Debye):
    X=              0.0125    Y=             -0.8850    Z=             -0.1821  Tot=              0.9037
 Quadrupole moment (field-independent basis, Debye-Ang):
   XX=            -56.4011   YY=            -70.3610   ZZ=            -66.8035
   XY=             -1.0904   XZ=             -0.3613   YZ=             -0.7929

 Normal termination of Gaussian 16 at Tue Dec  5 20:51:12 2023.
