 Gaussian 16, Revision B.01,
 Gaussian 16:  ES64L-G16RevB.01 20-Dec-2017

 -------------------------
 #P B3LYP/6-311+g(d) force
 -------------------------

 -----
 DPGEN
 -----
 Symbolic Z-matrix:
 Charge =  0 Multiplicity = 2

                         Standard orientation:
 ---------------------------------------------------------------------
 Center     Atomic      Atomic             Coordinates (Angstroms)
 Number     Number       Type             X           Y           Z
 ---------------------------------------------------------------------
      1         11           0        1.282962    2.246476   -0.968575
      2         11           0        1.249418   -2.403061   -0.776614
      3         11           0       -0.867184   -0.053722   -1.567441
      4         11           0        3.362350    0.089228    0.422633
      5         11           0        0.400134   -0.143538    2.327024
      6         11           0       -2.579585    2.177830    0.390809
      7         11           0       -2.848096   -1.913214    0.172163
 ---------------------------------------------------------------------

 SCF Done:  E(UB3LYP) =  -1136.12666252     A.U. after   20 cycles

 The electronic state is 2-A.
 Alpha  occ. eigenvalues --  -38.44670 -38.44432 -38.44220 -38.44202 -38.43638
 Alpha  occ. eigenvalues --  -38.43406 -38.43196  -2.20480  -2.20211  -2.20053
 Alpha  occ. eigenvalues --   -2.19971  -2.19464  -2.19251  -2.19166  -1.14131
 Alpha  occ. eigenvalues --   -1.14112  -1.14102  -1.13906  -1.13868  -1.13839
 Alpha  occ. eigenvalues --   -1.13722  -1.13717  -1.13701  -1.13649  -1.13630
 Alpha  occ. eigenvalues --   -1.13608  -1.13177  -1.13117  -1.13080  -1.12989
 Alpha  occ. eigenvalues --   -1.12901  -1.12868  -1.12832  -1.12816  -1.12769
 Alpha  occ. eigenvalues --   -0.18023  -0.13169  -0.11644  -0.11203
 Alpha virt. eigenvalues --   -0.06052  -0.05728  -0.04120  -0.03477  -0.02929
 Alpha virt. eigenvalues --   -0.02847  -0.01787  -0.01262  -0.00605  -0.00086
 Alpha virt. eigenvalues --   -0.00010   0.00327   0.00540   0.00649   0.00741

  Beta  occ. eigenvalues --  -38.44574 -38.44435 -38.44218 -38.44200 -38.43619
  Beta  occ. eigenvalues --  -38.43382 -38.43146  -2.20300  -2.20217  -2.20052
  Beta  occ. eigenvalues --   -2.19968  -2.19431  -2.19209  -2.19077  -1.14011
  Beta  occ. eigenvalues --   -1.13989  -1.13971  -1.13906  -1.13869  -1.13842
  Beta  occ. eigenvalues --   -1.13724  -1.13704  -1.13691  -1.13641  -1.13628
  Beta  occ. eigenvalues --   -1.13605  -1.13145  -1.13084  -1.13061  -1.12945
  Beta  occ. eigenvalues --   -1.12867  -1.12839  -1.12780  -1.12741  -1.12706
  Beta  occ. eigenvalues --   -0.17287  -0.13025  -0.11424
  Beta virt. eigenvalues --   -0.07296  -0.05937  -0.05559  -0.03886  -0.02939
  Beta virt. eigenvalues --   -0.02257  -0.01930  -0.01653  -0.01164  -0.00524
  Beta virt. eigenvalues --   -0.00059   0.00078   0.00366   0.00711   0.00742

 Mulliken charges and spin densities:
               1          2
     1  Na  -0.184937   0.062757
     2  Na  -0.194958   0.047708
     3  Na   0.724603   0.045654
     4  Na   0.296327   0.115356
     5  Na  -0.438402   0.636094
     6  Na  -0.146258   0.075188
     7  Na  -0.056376   0.017243
 Sum of Mulliken charges =  -0.00000   1.00000

 Dipole moment (field-independent basis, Debye):
    X=             -0.2492    Y=             -0.1564    Z=              0.6253  Tot=              0.6910
 Quadrupole moment (field-independent basis, Debye-Ang):
   XX=            -53.8291   YY=            -68.7981   ZZ=            -71.6748
   XY=              0.0715   XZ=             -2.4429   YZ=              0.4218

 Normal termination of Gaussian 16 at Thu Dec  7 22:55:05 2023.
