 Gaussian 16, Revision B.01,
 Gaussian 16:  ES64L-G16RevB.01 20-Dec-2017

 -------------------------
 #P B3LYP/6-311+g(d) force
 -------------------------

 -----
 DPGEN
 -----
 Symbolic Z-matrix:
 Charge =  0 Multiplicity = 2

                         Standard orientation:
 ---------------------------------------------------------------------
 Center     Atomic      Atomic             Coordinates (Angstroms)
 Number     Number       Type             X           Y           Z
 ---------------------------------------------------------------------
      1         11           0       -0.116884    0.109313   -1.536265
      2         11           0       -1.388211   -2.452072   -0.218286
      3         11           0       -2.896739    0.604683   -0.187011
      4         11           0       -0.615455    2.751220    0.286683
      5         11           0        0.126092   -0.560042    2.113594
      6         11           0        2.092462   -1.971433   -0.239907
      7         11           0        2.798735    1.518332   -0.218807
 ---------------------------------------------------------------------

 SCF Done:  E(UB3LYP) =  -1136.13726081     A.U. after   20 cycles

 The electronic state is 2-A.
 Alpha  occ. eigenvalues --  -38.43783 -38.43654 -38.43630 -38.43579 -38.43390
 Alpha  occ. eigenvalues --  -38.43323 -38.43021  -2.19595  -2.19552  -2.19508
 Alpha  occ. eigenvalues --   -2.19484  -2.19267  -2.19234  -2.19078  -1.13273
 Alpha  occ. eigenvalues --   -1.13258  -1.13245  -1.13237  -1.13218  -1.13201
 Alpha  occ. eigenvalues --   -1.13192  -1.13176  -1.13156  -1.13141  -1.13122
 Alpha  occ. eigenvalues --   -1.13122  -1.12967  -1.12951  -1.12921  -1.12891
 Alpha  occ. eigenvalues --   -1.12887  -1.12848  -1.12743  -1.12703  -1.12684
 Alpha  occ. eigenvalues --   -0.19031  -0.13040  -0.12668  -0.10902
 Alpha virt. eigenvalues --   -0.05343  -0.05144  -0.04678  -0.03200  -0.02948
 Alpha virt. eigenvalues --   -0.02614  -0.01327  -0.01097  -0.00210  -0.00160
 Alpha virt. eigenvalues --   -0.00009   0.00359   0.00845   0.00903   0.00939

  Beta  occ. eigenvalues --  -38.43782 -38.43622 -38.43574 -38.43555 -38.43384
  Beta  occ. eigenvalues --  -38.43312 -38.42961  -2.19594  -2.19498  -2.19478
  Beta  occ. eigenvalues --   -2.19370  -2.19259  -2.19220  -2.18970  -1.13264
  Beta  occ. eigenvalues --   -1.13251  -1.13243  -1.13209  -1.13202  -1.13156
  Beta  occ. eigenvalues --   -1.13145  -1.13122  -1.13108  -1.13087  -1.13049
  Beta  occ. eigenvalues --   -1.13035  -1.12954  -1.12935  -1.12894  -1.12886
  Beta  occ. eigenvalues --   -1.12857  -1.12837  -1.12671  -1.12628  -1.12605
  Beta  occ. eigenvalues --   -0.18295  -0.12790  -0.12432
  Beta virt. eigenvalues --   -0.06933  -0.05336  -0.05117  -0.04622  -0.02383
  Beta virt. eigenvalues --   -0.02196  -0.01523  -0.01252  -0.01039  -0.00244
  Beta virt. eigenvalues --   -0.00204   0.00141   0.00389   0.00891   0.00909

 Mulliken charges and spin densities:
               1          2
     1  Na  -0.483186   0.279885
     2  Na   0.474810   0.001516
     3  Na   0.300247   0.025431
     4  Na   0.094777   0.043772
     5  Na  -0.701859   0.735093
     6  Na   0.290424  -0.044513
     7  Na   0.024786  -0.041184
 Sum of Mulliken charges =  -0.00000   1.00000

 Dipole moment (field-independent basis, Debye):
    X=              0.1858    Y=             -0.0355    Z=              0.2347  Tot=              0.3015
 Quadrupole moment (field-independent basis, Debye-Ang):
   XX=            -58.1587   YY=            -62.1982   ZZ=            -73.5090
   XY=              0.3839   XZ=             -0.3980   YZ=              1.3969

 Normal termination of Gaussian 16 at Thu Dec  7 15:41:13 2023.
