 Gaussian 16, Revision B.01,
 Gaussian 16:  ES64L-G16RevB.01 20-Dec-2017

 -------------------------
 #P B3LYP/6-311+g(d) force
 -------------------------

 -----
 DPGEN
 -----
 Symbolic Z-matrix:
 Charge =  0 Multiplicity = 2

                         Standard orientation:
 ---------------------------------------------------------------------
 Center     Atomic      Atomic             Coordinates (Angstroms)
 Number     Number       Type             X           Y           Z
 ---------------------------------------------------------------------
      1         11           0        2.964881   -1.248348   -0.215882
      2         11           0       -2.643789   -1.076569   -0.130063
      3         11           0       -0.280170   -2.695699    0.141621
      4         11           0        0.221599    0.098074    1.851599
      5         11           0        2.022342    2.386902    0.009805
      6         11           0       -2.135043    2.200883    0.172537
      7         11           0       -0.149821    0.334758   -1.829617
 ---------------------------------------------------------------------

 SCF Done:  E(UB3LYP) =  -1136.13493815     A.U. after   19 cycles

 The electronic state is 2-A.
 Alpha  occ. eigenvalues --  -38.44206 -38.44032 -38.43767 -38.43606 -38.43345
 Alpha  occ. eigenvalues --  -38.43313 -38.43106  -2.20004  -2.19841  -2.19610
 Alpha  occ. eigenvalues --   -2.19548  -2.19285  -2.19251  -2.19034  -1.13678
 Alpha  occ. eigenvalues --   -1.13662  -1.13645  -1.13523  -1.13511  -1.13466
 Alpha  occ. eigenvalues --   -1.13333  -1.13304  -1.13280  -1.13250  -1.13194
 Alpha  occ. eigenvalues --   -1.13165  -1.12967  -1.12930  -1.12912  -1.12900
 Alpha  occ. eigenvalues --   -1.12889  -1.12865  -1.12696  -1.12670  -1.12655
 Alpha  occ. eigenvalues --   -0.18865  -0.13085  -0.12483  -0.10756
 Alpha virt. eigenvalues --   -0.05801  -0.05275  -0.04431  -0.03240  -0.02916
 Alpha virt. eigenvalues --   -0.02493  -0.01528  -0.01239  -0.00365  -0.00140
 Alpha virt. eigenvalues --    0.00004   0.00364   0.00807   0.00840   0.00942

  Beta  occ. eigenvalues --  -38.44204 -38.44029 -38.43761 -38.43598 -38.43268
  Beta  occ. eigenvalues --  -38.43231 -38.43098  -2.20001  -2.19838  -2.19604
  Beta  occ. eigenvalues --   -2.19539  -2.19144  -2.19100  -2.19025  -1.13663
  Beta  occ. eigenvalues --   -1.13658  -1.13646  -1.13512  -1.13498  -1.13467
  Beta  occ. eigenvalues --   -1.13332  -1.13301  -1.13255  -1.13242  -1.13170
  Beta  occ. eigenvalues --   -1.13143  -1.12876  -1.12832  -1.12811  -1.12799
  Beta  occ. eigenvalues --   -1.12783  -1.12757  -1.12688  -1.12654  -1.12626
  Beta  occ. eigenvalues --   -0.18110  -0.12849  -0.12236
  Beta virt. eigenvalues --   -0.06842  -0.05809  -0.05204  -0.04427  -0.02434
  Beta virt. eigenvalues --   -0.02131  -0.01460  -0.01440  -0.01161  -0.00424
  Beta virt. eigenvalues --   -0.00177   0.00129   0.00383   0.00815   0.00880

 Mulliken charges and spin densities:
               1          2
     1  Na   0.010352  -0.065992
     2  Na   0.288343   0.064215
     3  Na   0.158854  -0.016072
     4  Na  -0.317183   0.669520
     5  Na   0.005279  -0.174980
     6  Na   0.209630  -0.104757
     7  Na  -0.355276   0.628067
 Sum of Mulliken charges =  -0.00000   1.00000

 Dipole moment (field-independent basis, Debye):
    X=              0.4593    Y=              0.4494    Z=             -0.0293  Tot=              0.6432
 Quadrupole moment (field-independent basis, Debye-Ang):
   XX=            -56.6176   YY=            -62.5767   ZZ=            -74.3151
   XY=             -0.7853   XZ=             -0.8933   YZ=              0.6923

 Normal termination of Gaussian 16 at Thu Dec  7 19:56:43 2023.
