 Gaussian 16, Revision B.01,
 Gaussian 16:  ES64L-G16RevB.01 20-Dec-2017

 -------------------------
 #P B3LYP/6-311+g(d) force
 -------------------------

 -----
 DPGEN
 -----
 Symbolic Z-matrix:
 Charge =  0 Multiplicity = 2

                         Standard orientation:
 ---------------------------------------------------------------------
 Center     Atomic      Atomic             Coordinates (Angstroms)
 Number     Number       Type             X           Y           Z
 ---------------------------------------------------------------------
      1         11           0        1.621479    1.717738   -0.473726
      2         11           0       -1.074944    0.654738   -1.742757
      3         11           0       -1.568230    2.338784    0.884990
      4         11           0       -3.077661   -1.188618    0.045031
      5         11           0        3.572903   -0.311824    0.080130
      6         11           0        0.336780   -2.370782   -0.638160
      7         11           0        0.189673   -0.840036    1.844492
 ---------------------------------------------------------------------

 SCF Done:  E(UB3LYP) =  -1136.12640325     A.U. after   21 cycles

 The electronic state is 2-A.
 Alpha  occ. eigenvalues --  -38.44726 -38.44719 -38.43687 -38.43492 -38.43327
 Alpha  occ. eigenvalues --  -38.43246 -38.43148  -2.20563  -2.20536  -2.19607
 Alpha  occ. eigenvalues --   -2.19379  -2.19221  -2.19191  -2.19089  -1.14321
 Alpha  occ. eigenvalues --   -1.14228  -1.14205  -1.14190  -1.14167  -1.14163
 Alpha  occ. eigenvalues --   -1.13416  -1.13250  -1.13195  -1.13052  -1.13029
 Alpha  occ. eigenvalues --   -1.12963  -1.12955  -1.12927  -1.12853  -1.12846
 Alpha  occ. eigenvalues --   -1.12819  -1.12780  -1.12740  -1.12736  -1.12717
 Alpha  occ. eigenvalues --   -0.18804  -0.13441  -0.12076  -0.10941
 Alpha virt. eigenvalues --   -0.06500  -0.04777  -0.04005  -0.03429  -0.03035
 Alpha virt. eigenvalues --   -0.02504  -0.02107  -0.00910  -0.00318  -0.00035
 Alpha virt. eigenvalues --    0.00161   0.00312   0.00597   0.00857   0.00888

  Beta  occ. eigenvalues --  -38.44729 -38.44715 -38.43618 -38.43477 -38.43302
  Beta  occ. eigenvalues --  -38.43187 -38.43136  -2.20570  -2.20532  -2.19482
  Beta  occ. eigenvalues --   -2.19355  -2.19146  -2.19112  -2.19070  -1.14327
  Beta  occ. eigenvalues --   -1.14215  -1.14201  -1.14173  -1.14172  -1.14163
  Beta  occ. eigenvalues --   -1.13345  -1.13162  -1.13106  -1.13026  -1.12976
  Beta  occ. eigenvalues --   -1.12940  -1.12913  -1.12865  -1.12809  -1.12789
  Beta  occ. eigenvalues --   -1.12772  -1.12730  -1.12725  -1.12695  -1.12680
  Beta  occ. eigenvalues --   -0.18061  -0.13262  -0.11867
  Beta virt. eigenvalues --   -0.06999  -0.06401  -0.04721  -0.03850  -0.02829
  Beta virt. eigenvalues --   -0.02319  -0.02065  -0.01460  -0.00840  -0.00197
  Beta virt. eigenvalues --    0.00065   0.00154   0.00354   0.00750   0.00883

 Mulliken charges and spin densities:
               1          2
     1  Na  -0.381351   0.138965
     2  Na   0.175082   0.308774
     3  Na  -0.066863   0.121019
     4  Na   0.290213  -0.053242
     5  Na   0.425927  -0.123673
     6  Na  -0.098027  -0.005687
     7  Na  -0.344981   0.613844
 Sum of Mulliken charges =  -0.00000   1.00000

 Dipole moment (field-independent basis, Debye):
    X=             -0.1928    Y=             -0.4891    Z=              0.2501  Tot=              0.5822
 Quadrupole moment (field-independent basis, Debye-Ang):
   XX=            -50.8820   YY=            -70.6636   ZZ=            -71.8432
   XY=             -0.6583   XZ=             -1.1358   YZ=              2.3792

 Normal termination of Gaussian 16 at Thu Dec  7 12:38:46 2023.
