 Gaussian 16, Revision B.01,
 Gaussian 16:  ES64L-G16RevB.01 20-Dec-2017

 -------------------------
 #P B3LYP/6-311+g(d) force
 -------------------------

 -----
 DPGEN
 -----
 Symbolic Z-matrix:
 Charge =  0 Multiplicity = 2

                         Standard orientation:
 ---------------------------------------------------------------------
 Center     Atomic      Atomic             Coordinates (Angstroms)
 Number     Number       Type             X           Y           Z
 ---------------------------------------------------------------------
      1         11           0       -3.449695   -0.788130   -1.486970
      2         11           0       -1.976760   -1.152582    1.595640
      3         11           0        0.089004   -0.857494   -1.278698
      4         11           0        3.965977   -1.088803   -0.681620
      5         11           0       -1.377967    2.034059    0.719504
      6         11           0        1.260528    2.446372   -0.645806
      7         11           0        1.488913   -0.593423    1.777950
 ---------------------------------------------------------------------

 SCF Done:  E(UB3LYP) =  -1136.12638952     A.U. after   21 cycles

 The electronic state is 2-A.
 Alpha  occ. eigenvalues --  -38.44408 -38.44379 -38.44243 -38.44213 -38.43937
 Alpha  occ. eigenvalues --  -38.42933 -38.42880  -2.20280  -2.20144  -2.20079
 Alpha  occ. eigenvalues --   -2.20058  -2.19828  -2.18828  -2.18747  -1.14016
 Alpha  occ. eigenvalues --   -1.13945  -1.13883  -1.13822  -1.13809  -1.13781
 Alpha  occ. eigenvalues --   -1.13774  -1.13719  -1.13716  -1.13705  -1.13684
 Alpha  occ. eigenvalues --   -1.13677  -1.13503  -1.13495  -1.13431  -1.12608
 Alpha  occ. eigenvalues --   -1.12492  -1.12468  -1.12408  -1.12374  -1.12328
 Alpha  occ. eigenvalues --   -0.18361  -0.13471  -0.11601  -0.11302
 Alpha virt. eigenvalues --   -0.06487  -0.05123  -0.04497  -0.03238  -0.02732
 Alpha virt. eigenvalues --   -0.02460  -0.02358  -0.01314  -0.00703  -0.00098
 Alpha virt. eigenvalues --    0.00122   0.00217   0.00416   0.00634   0.00745

  Beta  occ. eigenvalues --  -38.44378 -38.44377 -38.44203 -38.44159 -38.43889
  Beta  occ. eigenvalues --  -38.42927 -38.42867  -2.20228  -2.20142  -2.19983
  Beta  occ. eigenvalues --   -2.19982  -2.19743  -2.18818  -2.18723  -1.13962
  Beta  occ. eigenvalues --   -1.13906  -1.13843  -1.13818  -1.13805  -1.13769
  Beta  occ. eigenvalues --   -1.13717  -1.13661  -1.13653  -1.13650  -1.13639
  Beta  occ. eigenvalues --   -1.13593  -1.13446  -1.13439  -1.13345  -1.12600
  Beta  occ. eigenvalues --   -1.12477  -1.12452  -1.12384  -1.12360  -1.12316
  Beta  occ. eigenvalues --   -0.17583  -0.13297  -0.11150
  Beta virt. eigenvalues --   -0.07628  -0.06286  -0.04693  -0.04191  -0.03018
  Beta virt. eigenvalues --   -0.02280  -0.02046  -0.01842  -0.00964  -0.00510
  Beta virt. eigenvalues --   -0.00027   0.00166   0.00359   0.00537   0.00706

 Mulliken charges and spin densities:
               1          2
     1  Na   0.464267  -0.024056
     2  Na   0.435541   0.149753
     3  Na  -0.997352   0.565276
     4  Na   0.456855   0.027730
     5  Na  -0.174659   0.228346
     6  Na  -0.059479  -0.118289
     7  Na  -0.125173   0.171241
 Sum of Mulliken charges =  -0.00000   1.00000

 Dipole moment (field-independent basis, Debye):
    X=              0.0987    Y=             -0.2265    Z=             -0.1813  Tot=              0.3065
 Quadrupole moment (field-independent basis, Debye-Ang):
   XX=            -51.5732   YY=            -77.3456   ZZ=            -65.8776
   XY=              0.0704   XZ=             -1.4002   YZ=             -0.6159

 Normal termination of Gaussian 16 at Thu Dec  7 17:48:08 2023.
