 Gaussian 16, Revision B.01,
 Gaussian 16:  ES64L-G16RevB.01 20-Dec-2017

 -------------------------
 #P B3LYP/6-311+g(d) force
 -------------------------

 -----
 DPGEN
 -----
 Symbolic Z-matrix:
 Charge =  0 Multiplicity = 2

                         Standard orientation:
 ---------------------------------------------------------------------
 Center     Atomic      Atomic             Coordinates (Angstroms)
 Number     Number       Type             X           Y           Z
 ---------------------------------------------------------------------
      1         11           0       -2.030751    1.096157    1.673331
      2         11           0       -2.997451   -1.968444   -0.204042
      3         11           0        0.194431   -1.043035   -0.954371
      4         11           0        3.783959   -1.170529   -0.553794
      5         11           0        1.785420    2.349732   -0.364190
      6         11           0       -2.024048    1.263693   -1.569367
      7         11           0        1.288440   -0.527574    1.972434
 ---------------------------------------------------------------------

 SCF Done:  E(UB3LYP) =  -1136.12194259     A.U. after   24 cycles

 The electronic state is 2-A.
 Alpha  occ. eigenvalues --  -38.44754 -38.44425 -38.44256 -38.44024 -38.43716
 Alpha  occ. eigenvalues --  -38.43611 -38.43491  -2.20533  -2.20290  -2.20094
 Alpha  occ. eigenvalues --   -2.19897  -2.19486  -2.19423  -2.19419  -1.14210
 Alpha  occ. eigenvalues --   -1.14188  -1.14159  -1.14015  -1.13915  -1.13885
 Alpha  occ. eigenvalues --   -1.13782  -1.13756  -1.13710  -1.13605  -1.13549
 Alpha  occ. eigenvalues --   -1.13475  -1.13169  -1.13160  -1.13152  -1.13112
 Alpha  occ. eigenvalues --   -1.13102  -1.13084  -1.13081  -1.13065  -1.12998
 Alpha  occ. eigenvalues --   -0.18173  -0.13796  -0.11284  -0.10752
 Alpha virt. eigenvalues --   -0.06473  -0.05622  -0.04713  -0.03095  -0.02646
 Alpha virt. eigenvalues --   -0.02333  -0.02304  -0.01354  -0.00751  -0.00220
 Alpha virt. eigenvalues --    0.00189   0.00201   0.00267   0.00477   0.00656

  Beta  occ. eigenvalues --  -38.44748 -38.44361 -38.44212 -38.43985 -38.43706
  Beta  occ. eigenvalues --  -38.43612 -38.43467  -2.20522  -2.20173  -2.20014
  Beta  occ. eigenvalues --   -2.19824  -2.19470  -2.19424  -2.19383  -1.14198
  Beta  occ. eigenvalues --   -1.14180  -1.14154  -1.13938  -1.13838  -1.13783
  Beta  occ. eigenvalues --   -1.13724  -1.13690  -1.13657  -1.13546  -1.13501
  Beta  occ. eigenvalues --   -1.13422  -1.13148  -1.13140  -1.13110  -1.13102
  Beta  occ. eigenvalues --   -1.13099  -1.13075  -1.13068  -1.13047  -1.12978
  Beta  occ. eigenvalues --   -0.17441  -0.13643  -0.10584
  Beta virt. eigenvalues --   -0.07343  -0.06263  -0.05561  -0.04079  -0.02841
  Beta virt. eigenvalues --   -0.02237  -0.01901  -0.01744  -0.01228  -0.00324
  Beta virt. eigenvalues --   -0.00198   0.00216   0.00255   0.00411   0.00577

 Mulliken charges and spin densities:
               1          2
     1  Na   0.103496   0.263488
     2  Na   0.105621  -0.075081
     3  Na  -0.587450   0.487409
     4  Na   0.485872   0.047476
     5  Na  -0.368759   0.037944
     6  Na   0.336365   0.070396
     7  Na  -0.075146   0.168368
 Sum of Mulliken charges =  -0.00000   1.00000

 Dipole moment (field-independent basis, Debye):
    X=              0.6075    Y=              0.1074    Z=              0.1289  Tot=              0.6303
 Quadrupole moment (field-independent basis, Debye-Ang):
   XX=            -48.9843   YY=            -75.5423   ZZ=            -68.3451
   XY=             -0.8139   XZ=             -1.9480   YZ=             -1.3474

 Normal termination of Gaussian 16 at Thu Dec  7 16:25:24 2023.
