 Gaussian 16, Revision B.01,
 Gaussian 16:  ES64L-G16RevB.01 20-Dec-2017

 -------------------------
 #P B3LYP/6-311+g(d) force
 -------------------------

 -----
 DPGEN
 -----
 Symbolic Z-matrix:
 Charge =  0 Multiplicity = 2

                         Standard orientation:
 ---------------------------------------------------------------------
 Center     Atomic      Atomic             Coordinates (Angstroms)
 Number     Number       Type             X           Y           Z
 ---------------------------------------------------------------------
      1         11           0       -0.841031   -0.213790   -1.488653
      2         11           0       -3.267096   -1.750119    0.204326
      3         11           0       -2.239039    2.419067   -0.248295
      4         11           0       -0.645395   -0.069440    2.224230
      5         11           0        4.070869   -0.159118    0.483386
      6         11           0        1.344960   -2.066665   -0.776458
      7         11           0        1.576731    1.840065   -0.398536
 ---------------------------------------------------------------------

 SCF Done:  E(UB3LYP) =  -1136.11938221     A.U. after   22 cycles

 The electronic state is 2-A.
 Alpha  occ. eigenvalues --  -38.44995 -38.44845 -38.44657 -38.43864 -38.43535
 Alpha  occ. eigenvalues --  -38.43457 -38.43007  -2.20787  -2.20655  -2.20431
 Alpha  occ. eigenvalues --   -2.19722  -2.19350  -2.19305  -2.19033  -1.14460
 Alpha  occ. eigenvalues --   -1.14442  -1.14418  -1.14322  -1.14284  -1.14270
 Alpha  occ. eigenvalues --   -1.14117  -1.14083  -1.14074  -1.13501  -1.13371
 Alpha  occ. eigenvalues --   -1.13302  -1.13054  -1.13023  -1.13001  -1.12990
 Alpha  occ. eigenvalues --   -1.12977  -1.12903  -1.12736  -1.12659  -1.12615
 Alpha  occ. eigenvalues --   -0.18182  -0.13614  -0.11352  -0.10911
 Alpha virt. eigenvalues --   -0.07078  -0.05482  -0.03841  -0.03262  -0.02944
 Alpha virt. eigenvalues --   -0.02464  -0.02315  -0.01538  -0.00680  -0.00253
 Alpha virt. eigenvalues --    0.00044   0.00099   0.00364   0.00605   0.00689

  Beta  occ. eigenvalues --  -38.44985 -38.44760 -38.44665 -38.43831 -38.43531
  Beta  occ. eigenvalues --  -38.43448 -38.42940  -2.20768  -2.20497  -2.20448
  Beta  occ. eigenvalues --   -2.19666  -2.19344  -2.19293  -2.18914  -1.14447
  Beta  occ. eigenvalues --   -1.14424  -1.14407  -1.14213  -1.14175  -1.14158
  Beta  occ. eigenvalues --   -1.14124  -1.14089  -1.14080  -1.13444  -1.13321
  Beta  occ. eigenvalues --   -1.13267  -1.13042  -1.13008  -1.12989  -1.12975
  Beta  occ. eigenvalues --   -1.12964  -1.12897  -1.12655  -1.12569  -1.12529
  Beta  occ. eigenvalues --   -0.17470  -0.13436  -0.11094
  Beta virt. eigenvalues --   -0.07169  -0.06672  -0.05485  -0.03592  -0.02926
  Beta virt. eigenvalues --   -0.02376  -0.01827  -0.01693  -0.01436  -0.00495
  Beta virt. eigenvalues --   -0.00140   0.00059   0.00129   0.00573   0.00672

 Mulliken charges and spin densities:
               1          2
     1  Na   0.025309  -0.044452
     2  Na   0.120048   0.021618
     3  Na   0.236340   0.017278
     4  Na  -0.453680   0.728832
     5  Na   0.154880   0.107169
     6  Na   0.044063   0.113276
     7  Na  -0.126960   0.056279
 Sum of Mulliken charges =  -0.00000   1.00000

 Dipole moment (field-independent basis, Debye):
    X=              0.2135    Y=             -0.1561    Z=              0.6332  Tot=              0.6863
 Quadrupole moment (field-independent basis, Debye-Ang):
   XX=            -47.0394   YY=            -72.5331   ZZ=            -73.0538
   XY=             -0.8335   XZ=              1.9545   YZ=             -0.3560

 Normal termination of Gaussian 16 at Thu Dec  7 09:01:20 2023.
