 Gaussian 16, Revision B.01,
 Gaussian 16:  ES64L-G16RevB.01 20-Dec-2017

 -------------------------
 #P B3LYP/6-311+g(d) force
 -------------------------

 -----
 DPGEN
 -----
 Symbolic Z-matrix:
 Charge =  0 Multiplicity = 2

                         Standard orientation:
 ---------------------------------------------------------------------
 Center     Atomic      Atomic             Coordinates (Angstroms)
 Number     Number       Type             X           Y           Z
 ---------------------------------------------------------------------
      1         11           0       -3.793352    0.023895   -0.170496
      2         11           0        2.347909   -1.966805   -0.616548
      3         11           0        0.012879   -1.312811    2.258853
      4         11           0       -1.272800   -1.608807   -1.039681
      5         11           0       -0.977390    2.256062    0.312251
      6         11           0        1.484083    1.192809   -1.945579
      7         11           0        2.198670    1.415658    1.201200
 ---------------------------------------------------------------------

 SCF Done:  E(UB3LYP) =  -1136.13179690     A.U. after   19 cycles

 The electronic state is 2-A.
 Alpha  occ. eigenvalues --  -38.44476 -38.44145 -38.44033 -38.43877 -38.43530
 Alpha  occ. eigenvalues --  -38.43467 -38.43210  -2.20296  -2.19955  -2.19904
 Alpha  occ. eigenvalues --   -2.19746  -2.19346  -2.19327  -2.19040  -1.13957
 Alpha  occ. eigenvalues --   -1.13933  -1.13911  -1.13653  -1.13604  -1.13593
 Alpha  occ. eigenvalues --   -1.13587  -1.13568  -1.13516  -1.13423  -1.13390
 Alpha  occ. eigenvalues --   -1.13364  -1.13025  -1.13007  -1.13003  -1.12999
 Alpha  occ. eigenvalues --   -1.12986  -1.12943  -1.12730  -1.12730  -1.12648
 Alpha  occ. eigenvalues --   -0.18095  -0.13135  -0.11718  -0.11701
 Alpha virt. eigenvalues --   -0.05897  -0.04961  -0.04453  -0.03461  -0.03310
 Alpha virt. eigenvalues --   -0.03023  -0.01642  -0.00897  -0.00455  -0.00094
 Alpha virt. eigenvalues --    0.00178   0.00288   0.00377   0.00720   0.00914

  Beta  occ. eigenvalues --  -38.44396 -38.44147 -38.43979 -38.43852 -38.43519
  Beta  occ. eigenvalues --  -38.43452 -38.43203  -2.20149  -2.19958  -2.19805
  Beta  occ. eigenvalues --   -2.19703  -2.19329  -2.19300  -2.19030  -1.13857
  Beta  occ. eigenvalues --   -1.13822  -1.13812  -1.13653  -1.13604  -1.13596
  Beta  occ. eigenvalues --   -1.13530  -1.13500  -1.13438  -1.13382  -1.13356
  Beta  occ. eigenvalues --   -1.13323  -1.13005  -1.12996  -1.12985  -1.12967
  Beta  occ. eigenvalues --   -1.12963  -1.12927  -1.12726  -1.12703  -1.12645
  Beta  occ. eigenvalues --   -0.17332  -0.12968  -0.11562
  Beta virt. eigenvalues --   -0.07718  -0.05748  -0.04918  -0.03705  -0.03334
  Beta virt. eigenvalues --   -0.02685  -0.02095  -0.01579  -0.00815  -0.00171
  Beta virt. eigenvalues --   -0.00011   0.00181   0.00358   0.00519   0.00823

 Mulliken charges and spin densities:
               1          2
     1  Na   0.353665  -0.154842
     2  Na   0.215483   0.031103
     3  Na  -0.236918   0.427227
     4  Na  -0.331373   0.128647
     5  Na  -0.243401   0.065609
     6  Na   0.031572   0.312422
     7  Na   0.210973   0.189835
 Sum of Mulliken charges =  -0.00000   1.00000

 Dipole moment (field-independent basis, Debye):
    X=             -0.0904    Y=             -0.0445    Z=              0.1909  Tot=              0.2159
 Quadrupole moment (field-independent basis, Debye-Ang):
   XX=            -56.9012   YY=            -73.9399   ZZ=            -65.3301
   XY=             -0.7424   XZ=             -0.8343   YZ=              0.1589

 Normal termination of Gaussian 16 at Sun Dec  3 23:45:46 2023.
