 Gaussian 16, Revision B.01,
 Gaussian 16:  ES64L-G16RevB.01 20-Dec-2017

 -------------------------
 #P B3LYP/6-311+g(d) force
 -------------------------

 -----
 DPGEN
 -----
 Symbolic Z-matrix:
 Charge =  0 Multiplicity = 2

                         Standard orientation:
 ---------------------------------------------------------------------
 Center     Atomic      Atomic             Coordinates (Angstroms)
 Number     Number       Type             X           Y           Z
 ---------------------------------------------------------------------
      1         11           0        3.089389    0.255319   -0.234668
      2         11           0       -2.707755    1.150247   -0.445720
      3         11           0       -0.003434   -0.141862   -1.691758
      4         11           0        1.246422   -2.648811   -0.216353
      5         11           0        0.421648    3.091527   -0.015223
      6         11           0       -2.271437   -1.885580    0.319601
      7         11           0        0.225168    0.179161    2.284121
 ---------------------------------------------------------------------

 SCF Done:  E(UB3LYP) =  -1136.13759701     A.U. after   19 cycles

 The electronic state is 2-A.
 Alpha  occ. eigenvalues --  -38.44126 -38.44001 -38.43609 -38.43536 -38.43457
 Alpha  occ. eigenvalues --  -38.43412 -38.43380  -2.19965  -2.19823  -2.19478
 Alpha  occ. eigenvalues --   -2.19357  -2.19333  -2.19321  -2.19274  -1.13616
 Alpha  occ. eigenvalues --   -1.13595  -1.13584  -1.13507  -1.13487  -1.13453
 Alpha  occ. eigenvalues --   -1.13209  -1.13161  -1.13110  -1.13086  -1.13019
 Alpha  occ. eigenvalues --   -1.13007  -1.12998  -1.12984  -1.12978  -1.12974
 Alpha  occ. eigenvalues --   -1.12956  -1.12951  -1.12926  -1.12911  -1.12893
 Alpha  occ. eigenvalues --   -0.18509  -0.12928  -0.12350  -0.11112
 Alpha virt. eigenvalues --   -0.05498  -0.04931  -0.04817  -0.03300  -0.03085
 Alpha virt. eigenvalues --   -0.02911  -0.01332  -0.01103  -0.00323  -0.00253
 Alpha virt. eigenvalues --   -0.00039   0.00370   0.00813   0.00879   0.00900

  Beta  occ. eigenvalues --  -38.44021 -38.43997 -38.43600 -38.43536 -38.43451
  Beta  occ. eigenvalues --  -38.43407 -38.43320  -2.19819  -2.19771  -2.19465
  Beta  occ. eigenvalues --   -2.19335  -2.19312  -2.19269  -2.19247  -1.13499
  Beta  occ. eigenvalues --   -1.13487  -1.13480  -1.13459  -1.13450  -1.13440
  Beta  occ. eigenvalues --   -1.13195  -1.13138  -1.13098  -1.13041  -1.13000
  Beta  occ. eigenvalues --   -1.12995  -1.12976  -1.12974  -1.12957  -1.12942
  Beta  occ. eigenvalues --   -1.12940  -1.12911  -1.12893  -1.12884  -1.12863
  Beta  occ. eigenvalues --   -0.17776  -0.12700  -0.12142
  Beta virt. eigenvalues --   -0.07144  -0.05509  -0.04857  -0.04749  -0.02513
  Beta virt. eigenvalues --   -0.02282  -0.01877  -0.01247  -0.01026  -0.00357
  Beta virt. eigenvalues --   -0.00299   0.00107   0.00397   0.00854   0.00900

 Mulliken charges and spin densities:
               1          2
     1  Na   0.119305  -0.065581
     2  Na   0.223324  -0.011403
     3  Na  -0.082571   0.287668
     4  Na   0.228753   0.017611
     5  Na   0.020888  -0.072415
     6  Na   0.111784   0.090447
     7  Na  -0.621483   0.753673
 Sum of Mulliken charges =  -0.00000   1.00000

 Dipole moment (field-independent basis, Debye):
    X=              0.2598    Y=              0.0752    Z=              0.2038  Tot=              0.3386
 Quadrupole moment (field-independent basis, Debye-Ang):
   XX=            -59.6884   YY=            -62.6818   ZZ=            -72.4396
   XY=              0.3329   XZ=             -0.3695   YZ=             -0.9289

 Normal termination of Gaussian 16 at Thu Dec  7 22:19:39 2023.
