 Gaussian 16, Revision B.01,
 Gaussian 16:  ES64L-G16RevB.01 20-Dec-2017

 -------------------------
 #P B3LYP/6-311+g(d) force
 -------------------------

 -----
 DPGEN
 -----
 Symbolic Z-matrix:
 Charge =  0 Multiplicity = 2

                         Standard orientation:
 ---------------------------------------------------------------------
 Center     Atomic      Atomic             Coordinates (Angstroms)
 Number     Number       Type             X           Y           Z
 ---------------------------------------------------------------------
      1         11           0       -4.634939   -0.645260    0.223691
      2         11           0        4.030508    1.642059    0.493652
      3         11           0        4.209318   -1.514592   -0.361246
      4         11           0       -2.577596   -2.968773   -0.087172
      5         11           0        1.350291   -2.778684    0.104790
      6         11           0        0.733659    3.214325   -0.249990
      7         11           0       -3.111240    3.050925   -0.123725
 ---------------------------------------------------------------------

 SCF Done:  E(UB3LYP) =  -1136.10370393     A.U. after   25 cycles

 The electronic state is 2-A.
 Alpha  occ. eigenvalues --  -38.45203 -38.45071 -38.44935 -38.44555 -38.44481
 Alpha  occ. eigenvalues --  -38.44363 -38.44256  -2.20913  -2.20861  -2.20755
 Alpha  occ. eigenvalues --   -2.20355  -2.20276  -2.20124  -2.20068  -1.14613
 Alpha  occ. eigenvalues --   -1.14608  -1.14545  -1.14538  -1.14522  -1.14495
 Alpha  occ. eigenvalues --   -1.14448  -1.14421  -1.14413  -1.14009  -1.14001
 Alpha  occ. eigenvalues --   -1.13981  -1.13936  -1.13935  -1.13917  -1.13784
 Alpha  occ. eigenvalues --   -1.13767  -1.13745  -1.13720  -1.13707  -1.13697
 Alpha  occ. eigenvalues --   -0.15647  -0.14286  -0.13066  -0.10859
 Alpha virt. eigenvalues --   -0.07985  -0.04922  -0.04591  -0.03666  -0.03449
 Alpha virt. eigenvalues --   -0.02734  -0.02315  -0.01975  -0.01119  -0.00851
 Alpha virt. eigenvalues --   -0.00565  -0.00276   0.00118   0.00216   0.00403

  Beta  occ. eigenvalues --  -38.45218 -38.45044 -38.44931 -38.44499 -38.44461
  Beta  occ. eigenvalues --  -38.44296 -38.44189  -2.20946  -2.20815  -2.20755
  Beta  occ. eigenvalues --   -2.20254  -2.20243  -2.19999  -2.19943  -1.14640
  Beta  occ. eigenvalues --   -1.14635  -1.14527  -1.14507  -1.14494  -1.14451
  Beta  occ. eigenvalues --   -1.14433  -1.14423  -1.14391  -1.13941  -1.13934
  Beta  occ. eigenvalues --   -1.13917  -1.13916  -1.13909  -1.13874  -1.13700
  Beta  occ. eigenvalues --   -1.13684  -1.13661  -1.13637  -1.13626  -1.13614
  Beta  occ. eigenvalues --   -0.15101  -0.13594  -0.12310
  Beta virt. eigenvalues --   -0.08142  -0.07762  -0.04315  -0.04254  -0.03464
  Beta virt. eigenvalues --   -0.03129  -0.02538  -0.02082  -0.01784  -0.00975
  Beta virt. eigenvalues --   -0.00490  -0.00281  -0.00056   0.00162   0.00285

 Mulliken charges and spin densities:
               1          2
     1  Na  -0.073505   0.133673
     2  Na  -0.068852   0.320862
     3  Na   0.158106  -0.037842
     4  Na   0.318187   0.075639
     5  Na  -0.393384   0.254794
     6  Na  -0.155661  -0.083900
     7  Na   0.215108   0.336775
 Sum of Mulliken charges =  -0.00000   1.00000

 Dipole moment (field-independent basis, Debye):
    X=              0.0875    Y=             -0.4553    Z=             -0.0198  Tot=              0.4640
 Quadrupole moment (field-independent basis, Debye-Ang):
   XX=            -53.9495   YY=            -72.4682   ZZ=            -74.1165
   XY=             -2.7325   XZ=             -1.3261   YZ=              0.5340

 Normal termination of Gaussian 16 at Mon Dec  4 04:43:01 2023.
