 Gaussian 16, Revision B.01,
 Gaussian 16:  ES64L-G16RevB.01 20-Dec-2017

 -------------------------
 #P B3LYP/6-311+g(d) force
 -------------------------

 -----
 DPGEN
 -----
 Symbolic Z-matrix:
 Charge =  0 Multiplicity = 2

                         Standard orientation:
 ---------------------------------------------------------------------
 Center     Atomic      Atomic             Coordinates (Angstroms)
 Number     Number       Type             X           Y           Z
 ---------------------------------------------------------------------
      1         11           0       -2.304999    2.134420    0.457102
      2         11           0        3.331551   -0.771486   -0.034093
      3         11           0        1.707787    2.198007   -0.676785
      4         11           0        0.012207   -2.607011    0.144527
      5         11           0       -3.129453   -1.186085   -0.530601
      6         11           0        0.049236    0.074118   -1.572410
      7         11           0        0.333672    0.158037    2.212259
 ---------------------------------------------------------------------

 SCF Done:  E(UB3LYP) =  -1136.12978966     A.U. after   19 cycles

 The electronic state is 2-A.
 Alpha  occ. eigenvalues --  -38.44702 -38.44164 -38.44078 -38.43742 -38.43598
 Alpha  occ. eigenvalues --  -38.43512 -38.42809  -2.20502  -2.19974  -2.19938
 Alpha  occ. eigenvalues --   -2.19604  -2.19535  -2.19404  -2.18680  -1.14177
 Alpha  occ. eigenvalues --   -1.14157  -1.14142  -1.13650  -1.13624  -1.13615
 Alpha  occ. eigenvalues --   -1.13602  -1.13571  -1.13546  -1.13464  -1.13280
 Alpha  occ. eigenvalues --   -1.13209  -1.13207  -1.13184  -1.13172  -1.13036
 Alpha  occ. eigenvalues --   -1.13017  -1.12988  -1.12387  -1.12356  -1.12282
 Alpha  occ. eigenvalues --   -0.18469  -0.13236  -0.11869  -0.11098
 Alpha virt. eigenvalues --   -0.06199  -0.05187  -0.04022  -0.03314  -0.02883
 Alpha virt. eigenvalues --   -0.02830  -0.02022  -0.01125  -0.00299  -0.00109
 Alpha virt. eigenvalues --   -0.00035   0.00295   0.00698   0.00779   0.00850

  Beta  occ. eigenvalues --  -38.44701 -38.44156 -38.43974 -38.43735 -38.43543
  Beta  occ. eigenvalues --  -38.43493 -38.42803  -2.20503  -2.19960  -2.19747
  Beta  occ. eigenvalues --   -2.19525  -2.19505  -2.19372  -2.18674  -1.14173
  Beta  occ. eigenvalues --   -1.14154  -1.14138  -1.13630  -1.13616  -1.13607
  Beta  occ. eigenvalues --   -1.13476  -1.13442  -1.13404  -1.13401  -1.13209
  Beta  occ. eigenvalues --   -1.13192  -1.13182  -1.13172  -1.13123  -1.13001
  Beta  occ. eigenvalues --   -1.12980  -1.12960  -1.12385  -1.12331  -1.12274
  Beta  occ. eigenvalues --   -0.17755  -0.13008  -0.11604
  Beta virt. eigenvalues --   -0.07171  -0.06132  -0.05115  -0.03953  -0.02676
  Beta virt. eigenvalues --   -0.02075  -0.01939  -0.01788  -0.01034  -0.00267
  Beta virt. eigenvalues --   -0.00121   0.00070   0.00328   0.00793   0.00850

 Mulliken charges and spin densities:
               1          2
     1  Na  -0.024154   0.047795
     2  Na   0.106048  -0.019647
     3  Na   0.367622   0.061860
     4  Na   0.041343   0.026145
     5  Na   0.125682  -0.025096
     6  Na  -0.176107   0.208301
     7  Na  -0.440435   0.700643
 Sum of Mulliken charges =  -0.00000   1.00000

 Dipole moment (field-independent basis, Debye):
    X=              0.2614    Y=             -0.0491    Z=              0.2613  Tot=              0.3728
 Quadrupole moment (field-independent basis, Debye-Ang):
   XX=            -51.3829   YY=            -68.8941   ZZ=            -72.9155
   XY=             -0.8819   XZ=              0.3839   YZ=              0.5806

 Normal termination of Gaussian 16 at Tue Dec  5 13:23:01 2023.
