 Gaussian 16, Revision B.01,
 Gaussian 16:  ES64L-G16RevB.01 20-Dec-2017

 -------------------------
 #P B3LYP/6-311+g(d) force
 -------------------------

 -----
 DPGEN
 -----
 Symbolic Z-matrix:
 Charge =  0 Multiplicity = 2

                         Standard orientation:
 ---------------------------------------------------------------------
 Center     Atomic      Atomic             Coordinates (Angstroms)
 Number     Number       Type             X           Y           Z
 ---------------------------------------------------------------------
      1         11           0       -1.785615    1.524283   -0.806215
      2         11           0        1.995189    1.210504    0.500397
      3         11           0        1.041654   -2.338917   -0.821499
      4         11           0       -1.666031   -1.678169    1.580976
      5         11           0       -3.899087   -1.210622   -0.442582
      6         11           0        4.147220   -1.303528   -0.168853
      7         11           0        0.166670    3.796450    0.157776
 ---------------------------------------------------------------------

 SCF Done:  E(UB3LYP) =  -1136.12168222     A.U. after   22 cycles

 The electronic state is 2-A.
 Alpha  occ. eigenvalues --  -38.44820 -38.44446 -38.44254 -38.43830 -38.43633
 Alpha  occ. eigenvalues --  -38.43612 -38.43330  -2.20616  -2.20287  -2.20098
 Alpha  occ. eigenvalues --   -2.19684  -2.19494  -2.19471  -2.19176  -1.14310
 Alpha  occ. eigenvalues --   -1.14281  -1.14234  -1.13984  -1.13973  -1.13914
 Alpha  occ. eigenvalues --   -1.13802  -1.13770  -1.13725  -1.13406  -1.13333
 Alpha  occ. eigenvalues --   -1.13320  -1.13164  -1.13135  -1.13132  -1.13120
 Alpha  occ. eigenvalues --   -1.13103  -1.13088  -1.12838  -1.12819  -1.12798
 Alpha  occ. eigenvalues --   -0.17085  -0.13863  -0.13249  -0.09668
 Alpha virt. eigenvalues --   -0.06693  -0.05354  -0.05005  -0.03290  -0.02858
 Alpha virt. eigenvalues --   -0.02440  -0.01707  -0.01423  -0.00976  -0.00791
 Alpha virt. eigenvalues --   -0.00174   0.00014   0.00331   0.00552   0.00667

  Beta  occ. eigenvalues --  -38.44806 -38.44436 -38.44227 -38.43791 -38.43631
  Beta  occ. eigenvalues --  -38.43573 -38.43282  -2.20592  -2.20273  -2.20052
  Beta  occ. eigenvalues --   -2.19614  -2.19491  -2.19400  -2.19086  -1.14298
  Beta  occ. eigenvalues --   -1.14264  -1.14193  -1.13977  -1.13958  -1.13890
  Beta  occ. eigenvalues --   -1.13775  -1.13739  -1.13669  -1.13358  -1.13286
  Beta  occ. eigenvalues --   -1.13258  -1.13159  -1.13132  -1.13128  -1.13072
  Beta  occ. eigenvalues --   -1.13048  -1.13031  -1.12774  -1.12756  -1.12744
  Beta  occ. eigenvalues --   -0.16643  -0.13362  -0.12971
  Beta virt. eigenvalues --   -0.06557  -0.06125  -0.05214  -0.04693  -0.02948
  Beta virt. eigenvalues --   -0.02510  -0.02178  -0.01579  -0.01164  -0.00840
  Beta virt. eigenvalues --   -0.00379   0.00205   0.00252   0.00482   0.00616

 Mulliken charges and spin densities:
               1          2
     1  Na  -0.841794   0.176407
     2  Na  -1.145723   0.091556
     3  Na  -0.372646   0.031650
     4  Na   0.139603   0.286493
     5  Na   0.320276   0.188737
     6  Na   0.788946   0.227482
     7  Na   1.111338  -0.002324
 Sum of Mulliken charges =  -0.00000   1.00000

 Dipole moment (field-independent basis, Debye):
    X=              0.2940    Y=              0.0302    Z=              0.1876  Tot=              0.3500
 Quadrupole moment (field-independent basis, Debye-Ang):
   XX=            -71.4388   YY=            -62.3631   ZZ=            -67.9208
   XY=              3.1821   XZ=              0.0682   YZ=              3.6327

 Normal termination of Gaussian 16 at Tue Nov 28 20:28:30 2023.
