 Gaussian 16, Revision B.01,
 Gaussian 16:  ES64L-G16RevB.01 20-Dec-2017

 -------------------------
 #P B3LYP/6-311+g(d) force
 -------------------------

 -----
 DPGEN
 -----
 Symbolic Z-matrix:
 Charge =  0 Multiplicity = 2

                         Standard orientation:
 ---------------------------------------------------------------------
 Center     Atomic      Atomic             Coordinates (Angstroms)
 Number     Number       Type             X           Y           Z
 ---------------------------------------------------------------------
      1         11           0        3.685053   -1.424761    0.231795
      2         11           0        0.066475   -0.862615    2.056107
      3         11           0       -4.071993   -0.961806   -0.159914
      4         11           0       -0.099201    1.287966   -0.929458
      5         11           0       -0.363972   -1.726209   -1.483889
      6         11           0       -2.939814    1.926875    0.500782
      7         11           0        3.723453    1.760550   -0.215423
 ---------------------------------------------------------------------

 SCF Done:  E(UB3LYP) =  -1136.09988323     A.U. after   30 cycles

 The electronic state is 2-A.
 Alpha  occ. eigenvalues --  -38.46494 -38.45292 -38.44706 -38.43896 -38.43667
 Alpha  occ. eigenvalues --  -38.43516 -38.43472  -2.22232  -2.21100  -2.20499
 Alpha  occ. eigenvalues --   -2.19744  -2.19451  -2.19437  -2.19315  -1.15925
 Alpha  occ. eigenvalues --   -1.15868  -1.15863  -1.14759  -1.14750  -1.14714
 Alpha  occ. eigenvalues --   -1.14172  -1.14158  -1.14116  -1.13487  -1.13380
 Alpha  occ. eigenvalues --   -1.13350  -1.13128  -1.13125  -1.13115  -1.13102
 Alpha  occ. eigenvalues --   -1.13068  -1.13060  -1.12986  -1.12972  -1.12944
 Alpha  occ. eigenvalues --   -0.17627  -0.14010  -0.10858  -0.10719
 Alpha virt. eigenvalues --   -0.08077  -0.05923  -0.03721  -0.03572  -0.03214
 Alpha virt. eigenvalues --   -0.02569  -0.02399  -0.01901  -0.00920  -0.00660
 Alpha virt. eigenvalues --   -0.00315   0.00032   0.00211   0.00484   0.00533

  Beta  occ. eigenvalues --  -38.46495 -38.45225 -38.44669 -38.43858 -38.43673
  Beta  occ. eigenvalues --  -38.43471 -38.43434  -2.22233  -2.20975  -2.20429
  Beta  occ. eigenvalues --   -2.19678  -2.19465  -2.19320  -2.19287  -1.15919
  Beta  occ. eigenvalues --   -1.15870  -1.15863  -1.14669  -1.14668  -1.14625
  Beta  occ. eigenvalues --   -1.14122  -1.14113  -1.14066  -1.13413  -1.13341
  Beta  occ. eigenvalues --   -1.13306  -1.13138  -1.13121  -1.13098  -1.13047
  Beta  occ. eigenvalues --   -1.12998  -1.12986  -1.12967  -1.12949  -1.12894
  Beta  occ. eigenvalues --   -0.17029  -0.13448  -0.10664
  Beta virt. eigenvalues --   -0.07751  -0.07312  -0.05677  -0.03376  -0.03104
  Beta virt. eigenvalues --   -0.03032  -0.02185  -0.01874  -0.01823  -0.00593
  Beta virt. eigenvalues --   -0.00470  -0.00173   0.00089   0.00383   0.00536

 Mulliken charges and spin densities:
               1          2
     1  Na  -0.110693   0.389924
     2  Na  -0.036999   0.028244
     3  Na  -0.069828   0.338730
     4  Na  -1.011750   0.404167
     5  Na   0.465689  -0.062119
     6  Na   0.486976   0.076091
     7  Na   0.276605  -0.175035
 Sum of Mulliken charges =  -0.00000   1.00000

 Dipole moment (field-independent basis, Debye):
    X=             -0.2692    Y=             -1.4171    Z=              0.5072  Tot=              1.5290
 Quadrupole moment (field-independent basis, Debye-Ang):
   XX=            -69.3281   YY=            -73.2560   ZZ=            -63.7166
   XY=              1.4516   XZ=              0.9627   YZ=              4.7662

 Normal termination of Gaussian 16 at Thu Dec  7 09:14:20 2023.
