 Gaussian 16, Revision B.01,
 Gaussian 16:  ES64L-G16RevB.01 20-Dec-2017

 -------------------------
 #P B3LYP/6-311+g(d) force
 -------------------------

 -----
 DPGEN
 -----
 Symbolic Z-matrix:
 Charge =  0 Multiplicity = 2

                         Standard orientation:
 ---------------------------------------------------------------------
 Center     Atomic      Atomic             Coordinates (Angstroms)
 Number     Number       Type             X           Y           Z
 ---------------------------------------------------------------------
      1         11           0       -3.343054   -1.699797    0.249773
      2         11           0        0.669999    2.503144   -0.696080
      3         11           0       -2.681121    1.743591   -0.125879
      4         11           0       -0.652132   -0.812319   -1.200859
      5         11           0        2.299450   -2.388640   -0.499111
      6         11           0        3.565255    0.638315    0.294043
      7         11           0        0.141603    0.015705    1.978114
 ---------------------------------------------------------------------

 SCF Done:  E(UB3LYP) =  -1136.12403223     A.U. after   24 cycles

 The electronic state is 2-A.
 Alpha  occ. eigenvalues --  -38.45320 -38.44659 -38.44374 -38.44016 -38.43746
 Alpha  occ. eigenvalues --  -38.43327 -38.42701  -2.21108  -2.20468  -2.20210
 Alpha  occ. eigenvalues --   -2.19863  -2.19559  -2.19275  -2.18544  -1.14781
 Alpha  occ. eigenvalues --   -1.14762  -1.14751  -1.14154  -1.14123  -1.14108
 Alpha  occ. eigenvalues --   -1.13889  -1.13874  -1.13837  -1.13562  -1.13489
 Alpha  occ. eigenvalues --   -1.13463  -1.13234  -1.13214  -1.13202  -1.12980
 Alpha  occ. eigenvalues --   -1.12921  -1.12893  -1.12227  -1.12201  -1.12183
 Alpha  occ. eigenvalues --   -0.18159  -0.13845  -0.11674  -0.10129
 Alpha virt. eigenvalues --   -0.07018  -0.05940  -0.04086  -0.03360  -0.02569
 Alpha virt. eigenvalues --   -0.02350  -0.02007  -0.01639  -0.00897  -0.00281
 Alpha virt. eigenvalues --   -0.00077   0.00162   0.00487   0.00630   0.00649

  Beta  occ. eigenvalues --  -38.45319 -38.44659 -38.44367 -38.43928 -38.43731
  Beta  occ. eigenvalues --  -38.43285 -38.42687  -2.21107  -2.20469  -2.20199
  Beta  occ. eigenvalues --   -2.19700  -2.19532  -2.19201  -2.18521  -1.14774
  Beta  occ. eigenvalues --   -1.14760  -1.14748  -1.14152  -1.14125  -1.14099
  Beta  occ. eigenvalues --   -1.13875  -1.13860  -1.13827  -1.13449  -1.13379
  Beta  occ. eigenvalues --   -1.13343  -1.13211  -1.13194  -1.13177  -1.12922
  Beta  occ. eigenvalues --   -1.12861  -1.12837  -1.12213  -1.12181  -1.12155
  Beta  occ. eigenvalues --   -0.17502  -0.13695  -0.11395
  Beta virt. eigenvalues --   -0.06897  -0.06353  -0.05903  -0.03891  -0.02792
  Beta virt. eigenvalues --   -0.02422  -0.01775  -0.01521  -0.01045  -0.00913
  Beta virt. eigenvalues --   -0.00164   0.00052   0.00199   0.00592   0.00674

 Mulliken charges and spin densities:
               1          2
     1  Na   0.301979   0.035507
     2  Na  -0.209519  -0.019659
     3  Na   0.354517   0.053200
     4  Na  -0.361399   0.211600
     5  Na   0.059652   0.029175
     6  Na   0.231196   0.091637
     7  Na  -0.376426   0.598541
 Sum of Mulliken charges =  -0.00000   1.00000

 Dipole moment (field-independent basis, Debye):
    X=             -0.1601    Y=              0.0309    Z=              0.3181  Tot=              0.3575
 Quadrupole moment (field-independent basis, Debye-Ang):
   XX=            -44.8735   YY=            -69.3616   ZZ=            -77.3175
   XY=              1.6223   XZ=             -0.9180   YZ=             -0.8277

 Normal termination of Gaussian 16 at Fri Dec  8 06:53:08 2023.
