 Gaussian 16, Revision B.01,
 Gaussian 16:  ES64L-G16RevB.01 20-Dec-2017

 -------------------------
 #P B3LYP/6-311+g(d) force
 -------------------------

 -----
 DPGEN
 -----
 Symbolic Z-matrix:
 Charge =  0 Multiplicity = 2

                         Standard orientation:
 ---------------------------------------------------------------------
 Center     Atomic      Atomic             Coordinates (Angstroms)
 Number     Number       Type             X           Y           Z
 ---------------------------------------------------------------------
      1         11           0        0.205733   -0.040917    1.973950
      2         11           0        1.672057   -2.616836   -0.555606
      3         11           0        2.830591    0.038566    0.365026
      4         11           0        0.880367    2.960757   -0.217303
      5         11           0       -0.067752    0.262009   -1.723643
      6         11           0       -2.754721    1.409201    0.007282
      7         11           0       -2.766275   -2.012781    0.150294
 ---------------------------------------------------------------------

 SCF Done:  E(UB3LYP) =  -1136.13269788     A.U. after   19 cycles

 The electronic state is 2-A.
 Alpha  occ. eigenvalues --  -38.44189 -38.44161 -38.43844 -38.43696 -38.43563
 Alpha  occ. eigenvalues --  -38.43391 -38.43213  -2.20011  -2.19934  -2.19744
 Alpha  occ. eigenvalues --   -2.19637  -2.19412  -2.19331  -2.19056  -1.13702
 Alpha  occ. eigenvalues --   -1.13683  -1.13645  -1.13606  -1.13585  -1.13566
 Alpha  occ. eigenvalues --   -1.13496  -1.13388  -1.13360  -1.13339  -1.13270
 Alpha  occ. eigenvalues --   -1.13261  -1.13071  -1.13046  -1.13042  -1.13017
 Alpha  occ. eigenvalues --   -1.12970  -1.12957  -1.12730  -1.12704  -1.12695
 Alpha  occ. eigenvalues --   -0.18496  -0.13268  -0.12127  -0.10818
 Alpha virt. eigenvalues --   -0.05596  -0.05425  -0.04663  -0.03383  -0.02792
 Alpha virt. eigenvalues --   -0.02568  -0.01481  -0.01297  -0.00487  -0.00326
 Alpha virt. eigenvalues --   -0.00006   0.00358   0.00785   0.00800   0.00890

  Beta  occ. eigenvalues --  -38.44186 -38.44162 -38.43756 -38.43683 -38.43549
  Beta  occ. eigenvalues --  -38.43322 -38.43209  -2.20008  -2.19938  -2.19618
  Beta  occ. eigenvalues --   -2.19581  -2.19389  -2.19205  -2.19052  -1.13696
  Beta  occ. eigenvalues --   -1.13671  -1.13646  -1.13599  -1.13588  -1.13569
  Beta  occ. eigenvalues --   -1.13421  -1.13327  -1.13277  -1.13250  -1.13233
  Beta  occ. eigenvalues --   -1.13192  -1.13043  -1.13034  -1.13018  -1.12936
  Beta  occ. eigenvalues --   -1.12883  -1.12865  -1.12716  -1.12697  -1.12681
  Beta  occ. eigenvalues --   -0.17760  -0.13046  -0.11893
  Beta virt. eigenvalues --   -0.06916  -0.05606  -0.05306  -0.04594  -0.02608
  Beta virt. eigenvalues --   -0.02102  -0.01564  -0.01383  -0.01217  -0.00499
  Beta virt. eigenvalues --   -0.00350   0.00126   0.00390   0.00797   0.00878

 Mulliken charges and spin densities:
               1          2
     1  Na  -0.232393   0.554789
     2  Na  -0.161656  -0.037254
     3  Na   0.515043   0.174530
     4  Na   0.020507  -0.096123
     5  Na  -0.015760   0.578936
     6  Na   0.007654  -0.104676
     7  Na  -0.133396  -0.070202
 Sum of Mulliken charges =  -0.00000   1.00000

 Dipole moment (field-independent basis, Debye):
    X=             -0.4876    Y=             -0.0369    Z=              0.0954  Tot=              0.4982
 Quadrupole moment (field-independent basis, Debye-Ang):
   XX=            -58.9144   YY=            -61.1662   ZZ=            -74.2479
   XY=              0.4585   XZ=             -0.4467   YZ=              0.9997

 Normal termination of Gaussian 16 at Thu Dec  7 06:35:45 2023.
