 Gaussian 16, Revision B.01,
 Gaussian 16:  ES64L-G16RevB.01 20-Dec-2017

 -------------------------
 #P B3LYP/6-311+g(d) force
 -------------------------

 -----
 DPGEN
 -----
 Symbolic Z-matrix:
 Charge =  0 Multiplicity = 2

                         Standard orientation:
 ---------------------------------------------------------------------
 Center     Atomic      Atomic             Coordinates (Angstroms)
 Number     Number       Type             X           Y           Z
 ---------------------------------------------------------------------
      1         11           0        0.039728   -0.008530    2.078923
      2         11           0       -1.677183    2.655425   -0.404058
      3         11           0       -2.976124   -0.899830   -0.043695
      4         11           0        1.792472    2.304042    0.410067
      5         11           0        3.051491   -0.940722   -0.547516
      6         11           0       -0.054598   -0.248551   -1.792110
      7         11           0       -0.175787   -2.861834    0.298390
 ---------------------------------------------------------------------

 SCF Done:  E(UB3LYP) =  -1136.13919859     A.U. after   19 cycles

 The electronic state is 2-A.
 Alpha  occ. eigenvalues --  -38.43881 -38.43830 -38.43711 -38.43567 -38.43547
 Alpha  occ. eigenvalues --  -38.43531 -38.43479  -2.19769  -2.19657  -2.19524
 Alpha  occ. eigenvalues --   -2.19459  -2.19384  -2.19368  -2.19346  -1.13435
 Alpha  occ. eigenvalues --   -1.13413  -1.13391  -1.13342  -1.13321  -1.13294
 Alpha  occ. eigenvalues --   -1.13217  -1.13175  -1.13170  -1.13142  -1.13112
 Alpha  occ. eigenvalues --   -1.13074  -1.13072  -1.13049  -1.13040  -1.13025
 Alpha  occ. eigenvalues --   -1.13024  -1.13016  -1.13002  -1.12988  -1.12960
 Alpha  occ. eigenvalues --   -0.18423  -0.12759  -0.12430  -0.11070
 Alpha virt. eigenvalues --   -0.05350  -0.05111  -0.04868  -0.03267  -0.03053
 Alpha virt. eigenvalues --   -0.02805  -0.01404  -0.01138  -0.00379  -0.00263
 Alpha virt. eigenvalues --   -0.00023   0.00366   0.00818   0.00876   0.00895

  Beta  occ. eigenvalues --  -38.43828 -38.43787 -38.43700 -38.43563 -38.43539
  Beta  occ. eigenvalues --  -38.43469 -38.43464  -2.19657  -2.19597  -2.19506
  Beta  occ. eigenvalues --   -2.19372  -2.19363  -2.19336  -2.19333  -1.13339
  Beta  occ. eigenvalues --   -1.13324  -1.13315  -1.13291  -1.13282  -1.13269
  Beta  occ. eigenvalues --   -1.13189  -1.13159  -1.13155  -1.13076  -1.13062
  Beta  occ. eigenvalues --   -1.13044  -1.13026  -1.13023  -1.13018  -1.13009
  Beta  occ. eigenvalues --   -1.12999  -1.12984  -1.12978  -1.12968  -1.12946
  Beta  occ. eigenvalues --   -0.17686  -0.12523  -0.12173
  Beta virt. eigenvalues --   -0.07180  -0.05339  -0.05052  -0.04757  -0.02482
  Beta virt. eigenvalues --   -0.02342  -0.01788  -0.01300  -0.01060  -0.00384
  Beta virt. eigenvalues --   -0.00309   0.00097   0.00391   0.00858   0.00890

 Mulliken charges and spin densities:
               1          2
     1  Na  -0.200054   0.592007
     2  Na  -0.063892  -0.075868
     3  Na   0.041155  -0.097170
     4  Na   0.074618  -0.000856
     5  Na   0.053655  -0.026589
     6  Na  -0.149829   0.616826
     7  Na   0.244347  -0.008350
 Sum of Mulliken charges =  -0.00000   1.00000

 Dipole moment (field-independent basis, Debye):
    X=             -0.0965    Y=             -0.1071    Z=              0.0671  Tot=              0.1590
 Quadrupole moment (field-independent basis, Debye-Ang):
   XX=            -58.9784   YY=            -62.6437   ZZ=            -72.6674
   XY=             -0.1282   XZ=             -0.2736   YZ=             -0.4967

 Normal termination of Gaussian 16 at Tue Dec  5 22:27:27 2023.
