 Gaussian 16, Revision B.01,
 Gaussian 16:  ES64L-G16RevB.01 20-Dec-2017

 -------------------------
 #P B3LYP/6-311+g(d) force
 -------------------------

 -----
 DPGEN
 -----
 Symbolic Z-matrix:
 Charge =  0 Multiplicity = 2

                         Standard orientation:
 ---------------------------------------------------------------------
 Center     Atomic      Atomic             Coordinates (Angstroms)
 Number     Number       Type             X           Y           Z
 ---------------------------------------------------------------------
      1         11           0       -2.983397   -0.015435   -0.152259
      2         11           0        0.254981   -0.004859   -1.254177
      3         11           0       -1.524305   -2.600068   -0.466533
      4         11           0        2.829275    1.715249   -0.526443
      5         11           0        2.465694   -2.328180    0.281181
      6         11           0       -1.016154    3.066552   -0.005876
      7         11           0       -0.026093    0.166741    2.124107
 ---------------------------------------------------------------------

 SCF Done:  E(UB3LYP) =  -1136.13077890     A.U. after   19 cycles

 The electronic state is 2-A.
 Alpha  occ. eigenvalues --  -38.44320 -38.44297 -38.43903 -38.43695 -38.43613
 Alpha  occ. eigenvalues --  -38.43532 -38.42899  -2.20118  -2.20063  -2.19699
 Alpha  occ. eigenvalues --   -2.19558  -2.19508  -2.19414  -2.18914  -1.13818
 Alpha  occ. eigenvalues --   -1.13767  -1.13738  -1.13733  -1.13716  -1.13706
 Alpha  occ. eigenvalues --   -1.13379  -1.13361  -1.13340  -1.13302  -1.13237
 Alpha  occ. eigenvalues --   -1.13188  -1.13170  -1.13157  -1.13139  -1.13087
 Alpha  occ. eigenvalues --   -1.13040  -1.12998  -1.12619  -1.12565  -1.12531
 Alpha  occ. eigenvalues --   -0.18318  -0.12938  -0.12386  -0.10444
 Alpha virt. eigenvalues --   -0.05955  -0.05318  -0.04814  -0.02954  -0.02748
 Alpha virt. eigenvalues --   -0.02316  -0.01660  -0.01569  -0.00621  -0.00488
 Alpha virt. eigenvalues --   -0.00023   0.00302   0.00730   0.00790   0.00856

  Beta  occ. eigenvalues --  -38.44299 -38.44293 -38.43903 -38.43607 -38.43593
  Beta  occ. eigenvalues --  -38.43521 -38.42862  -2.20081  -2.20056  -2.19702
  Beta  occ. eigenvalues --   -2.19500  -2.19396  -2.19369  -2.18848  -1.13785
  Beta  occ. eigenvalues --   -1.13737  -1.13724  -1.13712  -1.13708  -1.13701
  Beta  occ. eigenvalues --   -1.13376  -1.13356  -1.13337  -1.13295  -1.13161
  Beta  occ. eigenvalues --   -1.13127  -1.13106  -1.13071  -1.13057  -1.13021
  Beta  occ. eigenvalues --   -1.13015  -1.12982  -1.12556  -1.12513  -1.12489
  Beta  occ. eigenvalues --   -0.17655  -0.12613  -0.12193
  Beta virt. eigenvalues --   -0.06666  -0.05801  -0.05215  -0.04805  -0.02271
  Beta virt. eigenvalues --   -0.02102  -0.01535  -0.01431  -0.01304  -0.00648
  Beta virt. eigenvalues --   -0.00508   0.00138   0.00358   0.00751   0.00844

 Mulliken charges and spin densities:
               1          2
     1  Na   0.278324   0.063451
     2  Na  -0.589527  -0.012922
     3  Na   0.400504   0.099824
     4  Na   0.133473   0.046885
     5  Na   0.060476   0.061914
     6  Na   0.138949   0.009674
     7  Na  -0.422198   0.731175
 Sum of Mulliken charges =  -0.00000   1.00000

 Dipole moment (field-independent basis, Debye):
    X=              0.4385    Y=              0.1537    Z=              0.2640  Tot=              0.5344
 Quadrupole moment (field-independent basis, Debye-Ang):
   XX=            -57.6589   YY=            -58.3823   ZZ=            -76.0445
   XY=             -1.4169   XZ=              0.5309   YZ=             -0.4236

 Normal termination of Gaussian 16 at Thu Dec  7 04:27:32 2023.
