 Gaussian 16, Revision B.01,
 Gaussian 16:  ES64L-G16RevB.01 20-Dec-2017

 -------------------------
 #P B3LYP/6-311+g(d) force
 -------------------------

 -----
 DPGEN
 -----
 Symbolic Z-matrix:
 Charge =  0 Multiplicity = 2

                         Standard orientation:
 ---------------------------------------------------------------------
 Center     Atomic      Atomic             Coordinates (Angstroms)
 Number     Number       Type             X           Y           Z
 ---------------------------------------------------------------------
      1         11           0        0.340626   -2.065613   -0.426269
      2         11           0        3.550138   -2.957869   -0.084878
      3         11           0        3.328019    0.594069    0.392589
      4         11           0        1.616704    3.805501   -0.481103
      5         11           0       -0.127136    0.936498    1.111521
      6         11           0       -2.611658    0.369674   -0.878488
      7         11           0       -6.096693   -0.682260    0.366627
 ---------------------------------------------------------------------

 SCF Done:  E(UB3LYP) =  -1136.11948694     A.U. after   20 cycles

 The electronic state is 2-A.
 Alpha  occ. eigenvalues --  -38.44776 -38.44295 -38.44249 -38.44194 -38.44148
 Alpha  occ. eigenvalues --  -38.43820 -38.43722  -2.20558  -2.20125  -2.20097
 Alpha  occ. eigenvalues --   -2.19978  -2.19953  -2.19625  -2.19520  -1.14191
 Alpha  occ. eigenvalues --   -1.14190  -1.14158  -1.13842  -1.13812  -1.13804
 Alpha  occ. eigenvalues --   -1.13784  -1.13722  -1.13675  -1.13672  -1.13658
 Alpha  occ. eigenvalues --   -1.13628  -1.13616  -1.13573  -1.13570  -1.13287
 Alpha  occ. eigenvalues --   -1.13283  -1.13255  -1.13216  -1.13180  -1.13164
 Alpha  occ. eigenvalues --   -0.16832  -0.13472  -0.12320  -0.11107
 Alpha virt. eigenvalues --   -0.06226  -0.05470  -0.05079  -0.03533  -0.02632
 Alpha virt. eigenvalues --   -0.02327  -0.02075  -0.01366  -0.01277  -0.00960
 Alpha virt. eigenvalues --   -0.00542  -0.00133   0.00204   0.00355   0.00525

  Beta  occ. eigenvalues --  -38.44641 -38.44276 -38.44225 -38.44186 -38.44126
  Beta  occ. eigenvalues --  -38.43809 -38.43732  -2.20307  -2.20083  -2.20062
  Beta  occ. eigenvalues --   -2.19939  -2.19938  -2.19605  -2.19544  -1.14020
  Beta  occ. eigenvalues --   -1.14019  -1.13992  -1.13820  -1.13780  -1.13778
  Beta  occ. eigenvalues --   -1.13758  -1.13690  -1.13648  -1.13645  -1.13630
  Beta  occ. eigenvalues --   -1.13618  -1.13603  -1.13561  -1.13539  -1.13273
  Beta  occ. eigenvalues --   -1.13266  -1.13242  -1.13237  -1.13202  -1.13138
  Beta  occ. eigenvalues --   -0.16439  -0.12743  -0.12043
  Beta virt. eigenvalues --   -0.07466  -0.06121  -0.05029  -0.04836  -0.03227
  Beta virt. eigenvalues --   -0.02345  -0.02258  -0.01676  -0.01211  -0.00772
  Beta virt. eigenvalues --   -0.00506  -0.00365   0.00085   0.00369   0.00504

 Mulliken charges and spin densities:
               1          2
     1  Na  -0.346381   0.033747
     2  Na   0.430994   0.067117
     3  Na  -0.116404   0.202847
     4  Na   0.190115   0.036631
     5  Na  -0.343001   0.077622
     6  Na   0.223369  -0.113283
     7  Na  -0.038692   0.695319
 Sum of Mulliken charges =  -0.00000   1.00000

 Dipole moment (field-independent basis, Debye):
    X=              0.8016    Y=              0.0605    Z=             -0.1743  Tot=              0.8226
 Quadrupole moment (field-independent basis, Debye-Ang):
   XX=            -69.7558   YY=            -62.8058   ZZ=            -68.3946
   XY=             -2.7995   XZ=             -0.9123   YZ=             -2.5997

 Normal termination of Gaussian 16 at Tue Nov 28 19:28:34 2023.
