 Gaussian 16, Revision B.01,
 Gaussian 16:  ES64L-G16RevB.01 20-Dec-2017

 -------------------------
 #P B3LYP/6-311+g(d) force
 -------------------------

 -----
 DPGEN
 -----
 Symbolic Z-matrix:
 Charge =  0 Multiplicity = 2

                         Standard orientation:
 ---------------------------------------------------------------------
 Center     Atomic      Atomic             Coordinates (Angstroms)
 Number     Number       Type             X           Y           Z
 ---------------------------------------------------------------------
      1         11           0        0.610997   -0.641326    1.968169
      2         11           0       -0.885605    1.987930   -0.319717
      3         11           0        0.915024   -0.686670   -1.763746
      4         11           0       -2.312297   -1.337740   -0.840795
      5         11           0        3.871827   -1.286624    0.311246
      6         11           0        2.330129    1.977788   -0.014561
      7         11           0       -4.530074   -0.013359    0.659404
 ---------------------------------------------------------------------

 SCF Done:  E(UB3LYP) =  -1136.11547138     A.U. after   28 cycles

 The electronic state is 2-A.
 Alpha  occ. eigenvalues --  -38.46429 -38.44800 -38.43963 -38.43797 -38.43794
 Alpha  occ. eigenvalues --  -38.43542 -38.42430  -2.22202  -2.20615  -2.19840
 Alpha  occ. eigenvalues --   -2.19714  -2.19686  -2.19340  -2.18312  -1.15893
 Alpha  occ. eigenvalues --   -1.15854  -1.15809  -1.14320  -1.14254  -1.14242
 Alpha  occ. eigenvalues --   -1.13528  -1.13507  -1.13457  -1.13425  -1.13356
 Alpha  occ. eigenvalues --   -1.13346  -1.13334  -1.13324  -1.13304  -1.13020
 Alpha  occ. eigenvalues --   -1.13009  -1.12973  -1.12002  -1.11982  -1.11934
 Alpha  occ. eigenvalues --   -0.18285  -0.14140  -0.11161  -0.10877
 Alpha virt. eigenvalues --   -0.07817  -0.04977  -0.04443  -0.03267  -0.03110
 Alpha virt. eigenvalues --   -0.02406  -0.02266  -0.01434  -0.01302  -0.00353
 Alpha virt. eigenvalues --   -0.00231   0.00189   0.00224   0.00591   0.00696

  Beta  occ. eigenvalues --  -38.46397 -38.44775 -38.43949 -38.43766 -38.43706
  Beta  occ. eigenvalues --  -38.43548 -38.42424  -2.22144  -2.20567  -2.19815
  Beta  occ. eigenvalues --   -2.19641  -2.19548  -2.19353  -2.18302  -1.15843
  Beta  occ. eigenvalues --   -1.15810  -1.15770  -1.14292  -1.14220  -1.14207
  Beta  occ. eigenvalues --   -1.13501  -1.13488  -1.13440  -1.13338  -1.13311
  Beta  occ. eigenvalues --   -1.13296  -1.13255  -1.13215  -1.13194  -1.13032
  Beta  occ. eigenvalues --   -1.13008  -1.12981  -1.11998  -1.11952  -1.11931
  Beta  occ. eigenvalues --   -0.17576  -0.13912  -0.10738
  Beta virt. eigenvalues --   -0.07529  -0.07280  -0.04808  -0.04055  -0.03026
  Beta virt. eigenvalues --   -0.02837  -0.01917  -0.01614  -0.01172  -0.00917
  Beta virt. eigenvalues --   -0.00281  -0.00175   0.00258   0.00348   0.00662

 Mulliken charges and spin densities:
               1          2
     1  Na  -0.336342   0.238112
     2  Na  -0.342715   0.070480
     3  Na  -0.116820   0.352915
     4  Na  -0.085170   0.000671
     5  Na   0.342688  -0.033485
     6  Na   0.263991   0.187525
     7  Na   0.274369   0.183784
 Sum of Mulliken charges =  -0.00000   1.00000

 Dipole moment (field-independent basis, Debye):
    X=             -0.1245    Y=              0.4409    Z=              0.5928  Tot=              0.7493
 Quadrupole moment (field-independent basis, Debye-Ang):
   XX=            -55.0367   YY=            -76.0374   ZZ=            -68.6153
   XY=              1.0537   XZ=             -4.1119   YZ=              0.8599

 Normal termination of Gaussian 16 at Thu Dec  7 10:09:24 2023.
