 Gaussian 16, Revision B.01,
 Gaussian 16:  ES64L-G16RevB.01 20-Dec-2017

 -------------------------
 #P B3LYP/6-311+g(d) force
 -------------------------

 -----
 DPGEN
 -----
 Symbolic Z-matrix:
 Charge =  0 Multiplicity = 2

                         Standard orientation:
 ---------------------------------------------------------------------
 Center     Atomic      Atomic             Coordinates (Angstroms)
 Number     Number       Type             X           Y           Z
 ---------------------------------------------------------------------
      1         11           0       -0.983772    2.505238    0.481521
      2         11           0        0.780936    0.578204    2.259708
      3         11           0       -3.069327   -0.144250   -1.374597
      4         11           0       -1.470984   -1.795642    1.352384
      5         11           0       -0.273451   -0.169910   -1.273776
      6         11           0        2.141781   -2.293891   -0.389821
      7         11           0        2.874818    1.320252   -1.055419
 ---------------------------------------------------------------------

 SCF Done:  E(UB3LYP) =  -1136.12451626     A.U. after   22 cycles

 The electronic state is 2-A.
 Alpha  occ. eigenvalues --  -38.44541 -38.44159 -38.44113 -38.44024 -38.43428
 Alpha  occ. eigenvalues --  -38.43061 -38.42941  -2.20328  -2.20048  -2.20001
 Alpha  occ. eigenvalues --   -2.19884  -2.19225  -2.19142  -2.18799  -1.14018
 Alpha  occ. eigenvalues --   -1.13966  -1.13944  -1.13815  -1.13745  -1.13683
 Alpha  occ. eigenvalues --   -1.13661  -1.13616  -1.13591  -1.13569  -1.13520
 Alpha  occ. eigenvalues --   -1.13494  -1.12932  -1.12890  -1.12856  -1.12820
 Alpha  occ. eigenvalues --   -1.12779  -1.12757  -1.12494  -1.12468  -1.12406
 Alpha  occ. eigenvalues --   -0.18524  -0.12985  -0.12059  -0.11497
 Alpha virt. eigenvalues --   -0.05478  -0.04925  -0.04368  -0.03273  -0.03208
 Alpha virt. eigenvalues --   -0.03027  -0.01522  -0.00923  -0.00627   0.00129
 Alpha virt. eigenvalues --    0.00318   0.00401   0.00631   0.00674   0.00858

  Beta  occ. eigenvalues --  -38.44511 -38.44081 -38.44081 -38.43977 -38.43432
  Beta  occ. eigenvalues --  -38.43024 -38.42937  -2.20274  -2.19943  -2.19908
  Beta  occ. eigenvalues --   -2.19801  -2.19236  -2.19077  -2.18795  -1.13973
  Beta  occ. eigenvalues --   -1.13934  -1.13907  -1.13765  -1.13647  -1.13580
  Beta  occ. eigenvalues --   -1.13577  -1.13560  -1.13552  -1.13509  -1.13450
  Beta  occ. eigenvalues --   -1.13434  -1.12933  -1.12894  -1.12854  -1.12766
  Beta  occ. eigenvalues --   -1.12731  -1.12712  -1.12489  -1.12444  -1.12407
  Beta  occ. eigenvalues --   -0.17755  -0.12657  -0.11333
  Beta virt. eigenvalues --   -0.08063  -0.05300  -0.04715  -0.03945  -0.03097
  Beta virt. eigenvalues --   -0.02417  -0.02210  -0.01386  -0.00813  -0.00379
  Beta virt. eigenvalues --    0.00226   0.00364   0.00421   0.00728   0.00828

 Mulliken charges and spin densities:
               1          2
     1  Na  -0.265760  -0.046987
     2  Na   0.318234   0.417844
     3  Na   0.573887   0.053662
     4  Na  -0.144514   0.197193
     5  Na  -0.582218   0.352597
     6  Na  -0.006571   0.024391
     7  Na   0.106942   0.001301
 Sum of Mulliken charges =  -0.00000   1.00000

 Dipole moment (field-independent basis, Debye):
    X=              0.2139    Y=              0.0747    Z=              0.1592  Tot=              0.2770
 Quadrupole moment (field-independent basis, Debye-Ang):
   XX=            -56.7976   YY=            -70.0206   ZZ=            -66.4428
   XY=              1.1237   XZ=             -0.0896   YZ=             -3.8561

 Normal termination of Gaussian 16 at Thu Dec  7 16:59:01 2023.
