 Gaussian 16, Revision B.01,
 Gaussian 16:  ES64L-G16RevB.01 20-Dec-2017

 -------------------------
 #P B3LYP/6-311+g(d) force
 -------------------------

 -----
 DPGEN
 -----
 Symbolic Z-matrix:
 Charge =  0 Multiplicity = 2

                         Standard orientation:
 ---------------------------------------------------------------------
 Center     Atomic      Atomic             Coordinates (Angstroms)
 Number     Number       Type             X           Y           Z
 ---------------------------------------------------------------------
      1         11           0       -2.544479    2.105094   -0.596704
      2         11           0        1.102521    2.308960    0.916144
      3         11           0       -5.147892    0.325652   -0.362106
      4         11           0       -3.627278   -2.457393   -0.015108
      5         11           0       -0.720047   -1.410887    0.770903
      6         11           0        4.151568   -0.178705   -0.359466
      7         11           0        6.785607   -0.692721   -0.353663
 ---------------------------------------------------------------------

 SCF Done:  E(UB3LYP) =  -1136.10554625     A.U. after   21 cycles

 The electronic state is 2-A.
 Alpha  occ. eigenvalues --  -38.45740 -38.45360 -38.44692 -38.44603 -38.44124
 Alpha  occ. eigenvalues --  -38.43533 -38.43509  -2.21544  -2.21167  -2.20553
 Alpha  occ. eigenvalues --   -2.20459  -2.19866  -2.19417  -2.19346  -1.15217
 Alpha  occ. eigenvalues --   -1.15205  -1.15141  -1.14850  -1.14831  -1.14777
 Alpha  occ. eigenvalues --   -1.14232  -1.14215  -1.14197  -1.14130  -1.14107
 Alpha  occ. eigenvalues --   -1.14054  -1.13548  -1.13527  -1.13498  -1.13455
 Alpha  occ. eigenvalues --   -1.13046  -1.13044  -1.12960  -1.12958  -1.12800
 Alpha  occ. eigenvalues --   -0.16956  -0.13710  -0.12656  -0.11716
 Alpha virt. eigenvalues --   -0.06555  -0.05412  -0.04576  -0.03757  -0.03091
 Alpha virt. eigenvalues --   -0.02670  -0.02231  -0.01600  -0.01173  -0.01048
 Alpha virt. eigenvalues --   -0.00604  -0.00066   0.00053   0.00142   0.00652

  Beta  occ. eigenvalues --  -38.45657 -38.45294 -38.44649 -38.44566 -38.44125
  Beta  occ. eigenvalues --  -38.43528 -38.43509  -2.21393  -2.21048  -2.20475
  Beta  occ. eigenvalues --   -2.20395  -2.19867  -2.19412  -2.19343  -1.15118
  Beta  occ. eigenvalues --   -1.15106  -1.15014  -1.14769  -1.14756  -1.14674
  Beta  occ. eigenvalues --   -1.14183  -1.14150  -1.14144  -1.14069  -1.14066
  Beta  occ. eigenvalues --   -1.14004  -1.13549  -1.13525  -1.13500  -1.13450
  Beta  occ. eigenvalues --   -1.13044  -1.13042  -1.12957  -1.12955  -1.12796
  Beta  occ. eigenvalues --   -0.15989  -0.13620  -0.11725
  Beta virt. eigenvalues --   -0.08401  -0.06302  -0.04928  -0.04296  -0.03056
  Beta virt. eigenvalues --   -0.02892  -0.02477  -0.02059  -0.01485  -0.00983
  Beta virt. eigenvalues --   -0.00628  -0.00337   0.00085   0.00168   0.00296

 Mulliken charges and spin densities:
               1          2
     1  Na  -0.092339   0.399388
     2  Na   0.267957  -0.035489
     3  Na   0.215464   0.072797
     4  Na   0.229365   0.063468
     5  Na  -0.385759   0.514378
     6  Na  -0.980103  -0.033455
     7  Na   0.745415   0.018913
 Sum of Mulliken charges =  -0.00000   1.00000

 Dipole moment (field-independent basis, Debye):
    X=             -2.3856    Y=             -0.1408    Z=              0.1730  Tot=              2.3960
 Quadrupole moment (field-independent basis, Debye-Ang):
   XX=            -62.9798   YY=            -65.8928   ZZ=            -72.9242
   XY=              1.0852   XZ=              2.6144   YZ=             -0.2201

 Normal termination of Gaussian 16 at Sat Dec  9 07:16:03 2023.
