 Gaussian 16, Revision B.01,
 Gaussian 16:  ES64L-G16RevB.01 20-Dec-2017

 -------------------------
 #P B3LYP/6-311+g(d) force
 -------------------------

 -----
 DPGEN
 -----
 Symbolic Z-matrix:
 Charge =  0 Multiplicity = 2

                         Standard orientation:
 ---------------------------------------------------------------------
 Center     Atomic      Atomic             Coordinates (Angstroms)
 Number     Number       Type             X           Y           Z
 ---------------------------------------------------------------------
      1         11           0        0.255607   -0.182024    0.052134
      2         11           0       -1.647272    3.353356    0.439172
      3         11           0        2.745953    2.145831   -0.204302
      4         11           0        3.978961   -0.628130    0.183672
      5         11           0        0.350586   -3.113563   -0.554796
      6         11           0       -2.363481   -2.050609    1.059807
      7         11           0       -3.320355    0.475140   -0.975687
 ---------------------------------------------------------------------

 SCF Done:  E(UB3LYP) =  -1136.11925385     A.U. after   22 cycles

 The electronic state is 2-A.
 Alpha  occ. eigenvalues --  -38.44314 -38.44219 -38.44108 -38.43875 -38.43590
 Alpha  occ. eigenvalues --  -38.43569 -38.43561  -2.20154  -2.20056  -2.19976
 Alpha  occ. eigenvalues --   -2.19699  -2.19511  -2.19448  -2.19366  -1.13888
 Alpha  occ. eigenvalues --   -1.13819  -1.13809  -1.13710  -1.13677  -1.13665
 Alpha  occ. eigenvalues --   -1.13649  -1.13641  -1.13604  -1.13376  -1.13353
 Alpha  occ. eigenvalues --   -1.13317  -1.13300  -1.13223  -1.13129  -1.13084
 Alpha  occ. eigenvalues --   -1.13057  -1.13036  -1.13020  -1.13011  -1.12991
 Alpha  occ. eigenvalues --   -0.17257  -0.14010  -0.12614  -0.09552
 Alpha virt. eigenvalues --   -0.06295  -0.05614  -0.05052  -0.02809  -0.02707
 Alpha virt. eigenvalues --   -0.02170  -0.01909  -0.01853  -0.01185  -0.00385
 Alpha virt. eigenvalues --   -0.00013   0.00307   0.00394   0.00427   0.00680

  Beta  occ. eigenvalues --  -38.44300 -38.44183 -38.44079 -38.43837 -38.43553
  Beta  occ. eigenvalues --  -38.43552 -38.43531  -2.20132  -2.19991  -2.19927
  Beta  occ. eigenvalues --   -2.19632  -2.19494  -2.19379  -2.19295  -1.13864
  Beta  occ. eigenvalues --   -1.13808  -1.13770  -1.13668  -1.13637  -1.13623
  Beta  occ. eigenvalues --   -1.13609  -1.13602  -1.13539  -1.13333  -1.13309
  Beta  occ. eigenvalues --   -1.13267  -1.13250  -1.13211  -1.13131  -1.13038
  Beta  occ. eigenvalues --   -1.13015  -1.12988  -1.12984  -1.12961  -1.12946
  Beta  occ. eigenvalues --   -0.16926  -0.13337  -0.12194
  Beta virt. eigenvalues --   -0.06218  -0.06204  -0.05299  -0.04912  -0.02507
  Beta virt. eigenvalues --   -0.02334  -0.01890  -0.01622  -0.01491  -0.00980
  Beta virt. eigenvalues --   -0.00231   0.00268   0.00419   0.00502   0.00572

 Mulliken charges and spin densities:
               1          2
     1  Na  -4.109368  -0.229969
     2  Na   0.238137   0.145956
     3  Na  -0.005459   0.169250
     4  Na   0.101664   0.202134
     5  Na   1.655540   0.100468
     6  Na   1.357005   0.294702
     7  Na   0.762481   0.317457
 Sum of Mulliken charges =  -0.00000   1.00000

 Dipole moment (field-independent basis, Debye):
    X=              0.5624    Y=             -0.7187    Z=             -0.0092  Tot=              0.9126
 Quadrupole moment (field-independent basis, Debye-Ang):
   XX=            -70.3030   YY=            -61.7627   ZZ=            -67.2230
   XY=             -3.1669   XZ=             -0.2368   YZ=             -0.6338

 Normal termination of Gaussian 16 at Fri Dec  8 19:03:14 2023.
