 Gaussian 16, Revision B.01,
 Gaussian 16:  ES64L-G16RevB.01 20-Dec-2017

 -------------------------
 #P B3LYP/6-311+g(d) force
 -------------------------

 -----
 DPGEN
 -----
 Symbolic Z-matrix:
 Charge =  0 Multiplicity = 2

                         Standard orientation:
 ---------------------------------------------------------------------
 Center     Atomic      Atomic             Coordinates (Angstroms)
 Number     Number       Type             X           Y           Z
 ---------------------------------------------------------------------
      1         11           0        3.907319   -2.129185    0.665464
      2         11           0       -3.858977   -1.651624   -1.749362
      3         11           0       -2.189784    2.459596    0.913338
      4         11           0        0.904455    2.612619   -0.964244
      5         11           0       -2.436885   -0.847383    2.188246
      6         11           0       -0.030254   -1.218023   -0.737950
      7         11           0        3.704126    0.773999   -0.315491
 ---------------------------------------------------------------------

 SCF Done:  E(UB3LYP) =  -1136.10948283     A.U. after   25 cycles

 The electronic state is 2-A.
 Alpha  occ. eigenvalues --  -38.45800 -38.44987 -38.44794 -38.44475 -38.44469
 Alpha  occ. eigenvalues --  -38.44066 -38.42762  -2.21524  -2.20742  -2.20575
 Alpha  occ. eigenvalues --   -2.20307  -2.20235  -2.19884  -2.18576  -1.15243
 Alpha  occ. eigenvalues --   -1.15207  -1.15118  -1.14400  -1.14393  -1.14342
 Alpha  occ. eigenvalues --   -1.14250  -1.14225  -1.14191  -1.14006  -1.13979
 Alpha  occ. eigenvalues --   -1.13960  -1.13920  -1.13894  -1.13865  -1.13538
 Alpha  occ. eigenvalues --   -1.13526  -1.13504  -1.12247  -1.12241  -1.12208
 Alpha  occ. eigenvalues --   -0.16403  -0.14029  -0.11768  -0.10835
 Alpha virt. eigenvalues --   -0.06965  -0.06335  -0.04052  -0.03416  -0.03115
 Alpha virt. eigenvalues --   -0.02721  -0.02251  -0.01465  -0.01295  -0.00933
 Alpha virt. eigenvalues --   -0.00308  -0.00140   0.00064   0.00164   0.00500

  Beta  occ. eigenvalues --  -38.45801 -38.44910 -38.44746 -38.44472 -38.44460
  Beta  occ. eigenvalues --  -38.44027 -38.42739  -2.21526  -2.20598  -2.20487
  Beta  occ. eigenvalues --   -2.20306  -2.20220  -2.19810  -2.18533  -1.15234
  Beta  occ. eigenvalues --   -1.15209  -1.15122  -1.14302  -1.14289  -1.14248
  Beta  occ. eigenvalues --   -1.14192  -1.14160  -1.14125  -1.13989  -1.13981
  Beta  occ. eigenvalues --   -1.13946  -1.13910  -1.13887  -1.13844  -1.13490
  Beta  occ. eigenvalues --   -1.13475  -1.13457  -1.12218  -1.12210  -1.12182
  Beta  occ. eigenvalues --   -0.16032  -0.13405  -0.11434
  Beta virt. eigenvalues --   -0.07475  -0.06596  -0.06064  -0.03801  -0.03178
  Beta virt. eigenvalues --   -0.02828  -0.02497  -0.01662  -0.01279  -0.01067
  Beta virt. eigenvalues --   -0.00618  -0.00198   0.00082   0.00220   0.00321

 Mulliken charges and spin densities:
               1          2
     1  Na   0.593696   0.171386
     2  Na   0.245205   0.263915
     3  Na  -0.128571   0.133373
     4  Na   0.216098  -0.062338
     5  Na   0.193097   0.120774
     6  Na  -1.290048   0.299883
     7  Na   0.170522   0.073007
 Sum of Mulliken charges =  -0.00000   1.00000

 Dipole moment (field-independent basis, Debye):
    X=             -0.6607    Y=             -0.5186    Z=              0.3747  Tot=              0.9197
 Quadrupole moment (field-independent basis, Debye-Ang):
   XX=            -57.2092   YY=            -71.3383   ZZ=            -70.9331
   XY=             -0.9497   XZ=              0.7199   YZ=             -2.8872

 Normal termination of Gaussian 16 at Mon Dec  4 00:56:04 2023.
