 Gaussian 16, Revision B.01,
 Gaussian 16:  ES64L-G16RevB.01 20-Dec-2017

 -------------------------
 #P B3LYP/6-311+g(d) force
 -------------------------

 -----
 DPGEN
 -----
 Symbolic Z-matrix:
 Charge =  0 Multiplicity = 2

                         Standard orientation:
 ---------------------------------------------------------------------
 Center     Atomic      Atomic             Coordinates (Angstroms)
 Number     Number       Type             X           Y           Z
 ---------------------------------------------------------------------
      1         11           0       -2.629552   -2.737030   -1.069400
      2         11           0       -3.766800   -1.926274    1.453542
      3         11           0        3.791985    0.393898   -1.069378
      4         11           0        0.712250   -0.866458   -1.309366
      5         11           0        5.216537   -1.023453    1.597408
      6         11           0       -1.582725    4.635852    0.060859
      7         11           0       -1.741696    1.523466    0.336335
 ---------------------------------------------------------------------

 SCF Done:  E(UB3LYP) =  -1136.10783082     A.U. after   20 cycles

 The electronic state is 2-A.
 Alpha  occ. eigenvalues --  -38.44975 -38.44944 -38.44796 -38.44389 -38.44379
 Alpha  occ. eigenvalues --  -38.43386 -38.43278  -2.20785  -2.20763  -2.20626
 Alpha  occ. eigenvalues --   -2.20210  -2.20170  -2.19175  -2.19082  -1.14602
 Alpha  occ. eigenvalues --   -1.14417  -1.14406  -1.14406  -1.14404  -1.14382
 Alpha  occ. eigenvalues --   -1.14275  -1.14254  -1.14214  -1.13889  -1.13863
 Alpha  occ. eigenvalues --   -1.13854  -1.13839  -1.13822  -1.13786  -1.12882
 Alpha  occ. eigenvalues --   -1.12829  -1.12827  -1.12763  -1.12757  -1.12670
 Alpha  occ. eigenvalues --   -0.16145  -0.14065  -0.12113  -0.11096
 Alpha virt. eigenvalues --   -0.06650  -0.05932  -0.04209  -0.03397  -0.03048
 Alpha virt. eigenvalues --   -0.02464  -0.02011  -0.01904  -0.01203  -0.00905
 Alpha virt. eigenvalues --   -0.00592  -0.00124   0.00098   0.00302   0.00470

  Beta  occ. eigenvalues --  -38.44905 -38.44890 -38.44798 -38.44393 -38.44300
  Beta  occ. eigenvalues --  -38.43374 -38.43278  -2.20712  -2.20633  -2.20605
  Beta  occ. eigenvalues --   -2.20202  -2.20044  -2.19154  -2.19085  -1.14567
  Beta  occ. eigenvalues --   -1.14368  -1.14357  -1.14297  -1.14294  -1.14281
  Beta  occ. eigenvalues --   -1.14280  -1.14249  -1.14190  -1.13876  -1.13868
  Beta  occ. eigenvalues --   -1.13819  -1.13748  -1.13740  -1.13704  -1.12871
  Beta  occ. eigenvalues --   -1.12815  -1.12812  -1.12765  -1.12747  -1.12666
  Beta  occ. eigenvalues --   -0.15537  -0.13497  -0.11857
  Beta virt. eigenvalues --   -0.07797  -0.06028  -0.05677  -0.04012  -0.03104
  Beta virt. eigenvalues --   -0.02627  -0.02232  -0.01908  -0.01584  -0.01025
  Beta virt. eigenvalues --   -0.00591  -0.00360   0.00048   0.00318   0.00432

 Mulliken charges and spin densities:
               1          2
     1  Na   0.111696  -0.003978
     2  Na   0.661117   0.172673
     3  Na   0.253622   0.006313
     4  Na  -0.756658   0.310170
     5  Na   0.316141   0.416948
     6  Na   0.226005   0.079396
     7  Na  -0.811923   0.018479
 Sum of Mulliken charges =  -0.00000   1.00000

 Dipole moment (field-independent basis, Debye):
    X=              0.3308    Y=             -1.3650    Z=              0.3811  Tot=              1.4553
 Quadrupole moment (field-independent basis, Debye-Ang):
   XX=            -65.8264   YY=            -65.5754   ZZ=            -64.3251
   XY=              4.4608   XZ=              0.2261   YZ=             -2.7868

 Normal termination of Gaussian 16 at Sun Dec  3 21:05:49 2023.
