 Gaussian 16, Revision B.01,
 Gaussian 16:  ES64L-G16RevB.01 20-Dec-2017

 -------------------------
 #P B3LYP/6-311+g(d) force
 -------------------------

 -----
 DPGEN
 -----
 Symbolic Z-matrix:
 Charge =  0 Multiplicity = 2

                         Standard orientation:
 ---------------------------------------------------------------------
 Center     Atomic      Atomic             Coordinates (Angstroms)
 Number     Number       Type             X           Y           Z
 ---------------------------------------------------------------------
      1         11           0       -0.165878    2.749437   -0.559325
      2         11           0        3.611396   -1.686852    0.003049
      3         11           0       -2.994303    1.234326   -0.201431
      4         11           0        2.813914    1.330030    0.218708
      5         11           0       -3.377397   -1.905514    0.502476
      6         11           0        0.166334   -0.124472    1.709031
      7         11           0       -0.054067   -1.596954   -1.672508
 ---------------------------------------------------------------------

 SCF Done:  E(UB3LYP) =  -1136.11895067     A.U. after   25 cycles

 The electronic state is 2-A.
 Alpha  occ. eigenvalues --  -38.45139 -38.44867 -38.44779 -38.44297 -38.44047
 Alpha  occ. eigenvalues --  -38.44013 -38.42453  -2.20961  -2.20655  -2.20620
 Alpha  occ. eigenvalues --   -2.20173  -2.19849  -2.19808  -2.18312  -1.14664
 Alpha  occ. eigenvalues --   -1.14607  -1.14579  -1.14370  -1.14311  -1.14294
 Alpha  occ. eigenvalues --   -1.14290  -1.14287  -1.14270  -1.13846  -1.13830
 Alpha  occ. eigenvalues --   -1.13804  -1.13529  -1.13499  -1.13485  -1.13478
 Alpha  occ. eigenvalues --   -1.13453  -1.13404  -1.11996  -1.11969  -1.11953
 Alpha  occ. eigenvalues --   -0.17804  -0.14009  -0.11868  -0.10093
 Alpha virt. eigenvalues --   -0.07181  -0.06108  -0.04040  -0.03493  -0.02859
 Alpha virt. eigenvalues --   -0.02666  -0.01944  -0.01634  -0.01036  -0.00272
 Alpha virt. eigenvalues --   -0.00125   0.00117   0.00428   0.00456   0.00653

  Beta  occ. eigenvalues --  -38.45096 -38.44880 -38.44768 -38.44288 -38.44032
  Beta  occ. eigenvalues --  -38.43925 -38.42441  -2.20881  -2.20681  -2.20603
  Beta  occ. eigenvalues --   -2.20158  -2.19822  -2.19644  -2.18292  -1.14598
  Beta  occ. eigenvalues --   -1.14556  -1.14517  -1.14389  -1.14320  -1.14298
  Beta  occ. eigenvalues --   -1.14281  -1.14266  -1.14248  -1.13833  -1.13810
  Beta  occ. eigenvalues --   -1.13800  -1.13512  -1.13470  -1.13461  -1.13372
  Beta  occ. eigenvalues --   -1.13337  -1.13291  -1.11982  -1.11957  -1.11926
  Beta  occ. eigenvalues --   -0.17226  -0.13810  -0.11566
  Beta virt. eigenvalues --   -0.06973  -0.06516  -0.06007  -0.03851  -0.02947
  Beta virt. eigenvalues --   -0.02535  -0.02084  -0.01743  -0.01059  -0.01027
  Beta virt. eigenvalues --   -0.00128   0.00012   0.00208   0.00566   0.00617

 Mulliken charges and spin densities:
               1          2
     1  Na   0.036826   0.040769
     2  Na   0.293961  -0.052014
     3  Na  -0.112302   0.101789
     4  Na   0.233418   0.152623
     5  Na   0.404562   0.073347
     6  Na  -0.334184   0.161527
     7  Na  -0.522282   0.521957
 Sum of Mulliken charges =  -0.00000   1.00000

 Dipole moment (field-independent basis, Debye):
    X=              0.3730    Y=             -0.4408    Z=              0.1854  Tot=              0.6065
 Quadrupole moment (field-independent basis, Debye-Ang):
   XX=            -51.0755   YY=            -69.3550   ZZ=            -75.7593
   XY=             -1.3726   XZ=              0.1958   YZ=             -2.3401

 Normal termination of Gaussian 16 at Thu Dec  7 14:14:59 2023.
