 Gaussian 16, Revision B.01,
 Gaussian 16:  ES64L-G16RevB.01 20-Dec-2017

 -------------------------
 #P B3LYP/6-311+g(d) force
 -------------------------

 -----
 DPGEN
 -----
 Symbolic Z-matrix:
 Charge =  0 Multiplicity = 2

                         Standard orientation:
 ---------------------------------------------------------------------
 Center     Atomic      Atomic             Coordinates (Angstroms)
 Number     Number       Type             X           Y           Z
 ---------------------------------------------------------------------
      1         11           0       -3.343707   -0.200908   -0.453466
      2         11           0       -0.997898   -2.829362    0.042288
      3         11           0       -1.221930    2.697096    0.479041
      4         11           0        0.308942   -0.334405   -1.261823
      5         11           0        0.159815   -0.124001    1.611493
      6         11           0        2.053959    2.516523   -0.520063
      7         11           0        3.040820   -1.724942    0.102530
 ---------------------------------------------------------------------

 SCF Done:  E(UB3LYP) =  -1136.12832937     A.U. after   22 cycles

 The electronic state is 2-A.
 Alpha  occ. eigenvalues --  -38.44536 -38.44054 -38.44024 -38.43900 -38.43468
 Alpha  occ. eigenvalues --  -38.43066 -38.42963  -2.20322  -2.19921  -2.19821
 Alpha  occ. eigenvalues --   -2.19717  -2.19314  -2.19110  -2.18959  -1.14001
 Alpha  occ. eigenvalues --   -1.13978  -1.13958  -1.13646  -1.13597  -1.13525
 Alpha  occ. eigenvalues --   -1.13495  -1.13472  -1.13454  -1.13393  -1.13366
 Alpha  occ. eigenvalues --   -1.13357  -1.13012  -1.12989  -1.12968  -1.12946
 Alpha  occ. eigenvalues --   -1.12732  -1.12694  -1.12603  -1.12561  -1.12533
 Alpha  occ. eigenvalues --   -0.18522  -0.12894  -0.12704  -0.09838
 Alpha virt. eigenvalues --   -0.06091  -0.05373  -0.04916  -0.02773  -0.02684
 Alpha virt. eigenvalues --   -0.01985  -0.01599  -0.01559  -0.00638  -0.00502
 Alpha virt. eigenvalues --    0.00032   0.00295   0.00694   0.00774   0.00830

  Beta  occ. eigenvalues --  -38.44535 -38.44046 -38.44014 -38.43881 -38.43454
  Beta  occ. eigenvalues --  -38.43025 -38.42883  -2.20323  -2.19911  -2.19804
  Beta  occ. eigenvalues --   -2.19684  -2.19293  -2.19036  -2.18814  -1.13992
  Beta  occ. eigenvalues --   -1.13981  -1.13953  -1.13641  -1.13570  -1.13511
  Beta  occ. eigenvalues --   -1.13479  -1.13451  -1.13443  -1.13364  -1.13341
  Beta  occ. eigenvalues --   -1.13331  -1.12982  -1.12945  -1.12932  -1.12914
  Beta  occ. eigenvalues --   -1.12680  -1.12642  -1.12509  -1.12461  -1.12424
  Beta  occ. eigenvalues --   -0.17874  -0.12597  -0.12449
  Beta virt. eigenvalues --   -0.06156  -0.06071  -0.05216  -0.04823  -0.02091
  Beta virt. eigenvalues --   -0.02042  -0.01907  -0.01439  -0.00780  -0.00623
  Beta virt. eigenvalues --   -0.00479   0.00172   0.00360   0.00719   0.00829

 Mulliken charges and spin densities:
               1          2
     1  Na  -0.086245   0.077560
     2  Na   0.408197   0.082340
     3  Na   0.144067   0.089244
     4  Na  -0.639856   0.265633
     5  Na   0.102996   0.448984
     6  Na  -0.037462   0.066427
     7  Na   0.108304  -0.030188
 Sum of Mulliken charges =  -0.00000   1.00000

 Dipole moment (field-independent basis, Debye):
    X=              0.3320    Y=             -0.3616    Z=              0.1288  Tot=              0.5075
 Quadrupole moment (field-independent basis, Debye-Ang):
   XX=            -53.3248   YY=            -57.7698   ZZ=            -78.2913
   XY=             -1.6278   XZ=              0.4616   YZ=             -0.6807

 Normal termination of Gaussian 16 at Fri Dec  8 04:13:10 2023.
