 Gaussian 16, Revision B.01,
 Gaussian 16:  ES64L-G16RevB.01 20-Dec-2017

 -------------------------
 #P B3LYP/6-311+g(d) force
 -------------------------

 -----
 DPGEN
 -----
 Symbolic Z-matrix:
 Charge =  0 Multiplicity = 2

                         Standard orientation:
 ---------------------------------------------------------------------
 Center     Atomic      Atomic             Coordinates (Angstroms)
 Number     Number       Type             X           Y           Z
 ---------------------------------------------------------------------
      1         11           0       -1.330377    2.617949   -0.132886
      2         11           0       -3.323665   -0.382241    0.117789
      3         11           0       -0.718457   -2.669055   -0.511339
      4         11           0        0.046999    0.208988   -1.441722
      5         11           0        0.050048   -0.058551    2.057555
      6         11           0        2.494794    1.744716   -0.212314
      7         11           0        2.780658   -1.461807    0.122916
 ---------------------------------------------------------------------

 SCF Done:  E(UB3LYP) =  -1136.13445440     A.U. after   19 cycles

 The electronic state is 2-A.
 Alpha  occ. eigenvalues --  -38.44590 -38.43955 -38.43866 -38.43597 -38.43343
 Alpha  occ. eigenvalues --  -38.43079 -38.42929  -2.20389  -2.19804  -2.19737
 Alpha  occ. eigenvalues --   -2.19480  -2.19197  -2.18986  -2.18944  -1.14063
 Alpha  occ. eigenvalues --   -1.14040  -1.14036  -1.13517  -1.13468  -1.13449
 Alpha  occ. eigenvalues --   -1.13432  -1.13380  -1.13344  -1.13158  -1.13104
 Alpha  occ. eigenvalues --   -1.13091  -1.12952  -1.12852  -1.12812  -1.12742
 Alpha  occ. eigenvalues --   -1.12654  -1.12595  -1.12590  -1.12557  -1.12553
 Alpha  occ. eigenvalues --   -0.18755  -0.13313  -0.12196  -0.10610
 Alpha virt. eigenvalues --   -0.06062  -0.05235  -0.04309  -0.03236  -0.02645
 Alpha virt. eigenvalues --   -0.02425  -0.01880  -0.01134  -0.00374  -0.00278
 Alpha virt. eigenvalues --   -0.00001   0.00332   0.00750   0.00859   0.00897

  Beta  occ. eigenvalues --  -38.44590 -38.43951 -38.43859 -38.43500 -38.43338
  Beta  occ. eigenvalues --  -38.43066 -38.42870  -2.20391  -2.19800  -2.19727
  Beta  occ. eigenvalues --   -2.19301  -2.19193  -2.18923  -2.18879  -1.14051
  Beta  occ. eigenvalues --   -1.14042  -1.14038  -1.13517  -1.13450  -1.13438
  Beta  occ. eigenvalues --   -1.13418  -1.13359  -1.13340  -1.13039  -1.12980
  Beta  occ. eigenvalues --   -1.12962  -1.12936  -1.12831  -1.12810  -1.12698
  Beta  occ. eigenvalues --   -1.12580  -1.12559  -1.12549  -1.12516  -1.12498
  Beta  occ. eigenvalues --   -0.18037  -0.13104  -0.11927
  Beta virt. eigenvalues --   -0.06685  -0.06005  -0.05239  -0.04282  -0.02469
  Beta virt. eigenvalues --   -0.01900  -0.01777  -0.01337  -0.01080  -0.00422
  Beta virt. eigenvalues --   -0.00298   0.00142   0.00363   0.00801   0.00857

 Mulliken charges and spin densities:
               1          2
     1  Na   0.161011  -0.051271
     2  Na   0.089592  -0.003213
     3  Na   0.183701   0.012586
     4  Na  -0.403665   0.242403
     5  Na  -0.553144   0.769361
     6  Na   0.281165  -0.022378
     7  Na   0.241339   0.052512
 Sum of Mulliken charges =  -0.00000   1.00000

 Dipole moment (field-independent basis, Debye):
    X=             -0.1578    Y=              0.0188    Z=              0.3077  Tot=              0.3464
 Quadrupole moment (field-independent basis, Debye-Ang):
   XX=            -51.7334   YY=            -64.8149   ZZ=            -75.5089
   XY=             -0.2478   XZ=             -0.3357   YZ=              0.3519

 Normal termination of Gaussian 16 at Thu Dec  7 16:53:04 2023.
