 Gaussian 16, Revision B.01,
 Gaussian 16:  ES64L-G16RevB.01 20-Dec-2017

 -------------------------
 #P B3LYP/6-311+g(d) force
 -------------------------

 -----
 DPGEN
 -----
 Symbolic Z-matrix:
 Charge =  0 Multiplicity = 2

                         Standard orientation:
 ---------------------------------------------------------------------
 Center     Atomic      Atomic             Coordinates (Angstroms)
 Number     Number       Type             X           Y           Z
 ---------------------------------------------------------------------
      1         11           0       -2.044415    2.122212   -0.177113
      2         11           0        0.151451   -2.335501    0.251972
      3         11           0        1.761782    2.317271    0.433096
      4         11           0       -0.138342   -0.104576    1.892074
      5         11           0       -3.402145   -1.211474   -0.252647
      6         11           0        3.346805   -1.082164   -0.351912
      7         11           0        0.324863    0.294232   -1.795471
 ---------------------------------------------------------------------

 SCF Done:  E(UB3LYP) =  -1136.12813052     A.U. after   19 cycles

 The electronic state is 2-A.
 Alpha  occ. eigenvalues --  -38.44568 -38.44547 -38.43742 -38.43674 -38.43640
 Alpha  occ. eigenvalues --  -38.43444 -38.43076  -2.20343  -2.20335  -2.19666
 Alpha  occ. eigenvalues --   -2.19648  -2.19470  -2.19288  -2.19013  -1.14012
 Alpha  occ. eigenvalues --   -1.14012  -1.13998  -1.13995  -1.13981  -1.13969
 Alpha  occ. eigenvalues --   -1.13476  -1.13365  -1.13317  -1.13286  -1.13267
 Alpha  occ. eigenvalues --   -1.13228  -1.13152  -1.13137  -1.13085  -1.12964
 Alpha  occ. eigenvalues --   -1.12955  -1.12905  -1.12710  -1.12668  -1.12565
 Alpha  occ. eigenvalues --   -0.18598  -0.13128  -0.11998  -0.10817
 Alpha virt. eigenvalues --   -0.06319  -0.05378  -0.03843  -0.03255  -0.02827
 Alpha virt. eigenvalues --   -0.02502  -0.02170  -0.01363  -0.00293  -0.00107
 Alpha virt. eigenvalues --    0.00023   0.00259   0.00679   0.00799   0.00818

  Beta  occ. eigenvalues --  -38.44567 -38.44540 -38.43681 -38.43635 -38.43578
  Beta  occ. eigenvalues --  -38.43432 -38.43059  -2.20336  -2.20331  -2.19554
  Beta  occ. eigenvalues --   -2.19474  -2.19463  -2.19269  -2.18988  -1.14010
  Beta  occ. eigenvalues --   -1.13994  -1.13988  -1.13986  -1.13976  -1.13970
  Beta  occ. eigenvalues --   -1.13363  -1.13288  -1.13241  -1.13207  -1.13157
  Beta  occ. eigenvalues --   -1.13127  -1.13125  -1.13099  -1.13078  -1.12946
  Beta  occ. eigenvalues --   -1.12921  -1.12895  -1.12681  -1.12614  -1.12555
  Beta  occ. eigenvalues --   -0.17871  -0.12890  -0.11733
  Beta virt. eigenvalues --   -0.06972  -0.06163  -0.05375  -0.03818  -0.02612
  Beta virt. eigenvalues --   -0.02022  -0.02018  -0.01486  -0.01308  -0.00317
  Beta virt. eigenvalues --   -0.00024   0.00064   0.00290   0.00744   0.00808

 Mulliken charges and spin densities:
               1          2
     1  Na   0.119828  -0.044504
     2  Na   0.304633  -0.040443
     3  Na   0.065667  -0.064825
     4  Na  -0.115070   0.515507
     5  Na  -0.109759  -0.065335
     6  Na   0.104932  -0.021150
     7  Na  -0.370231   0.720749
 Sum of Mulliken charges =  -0.00000   1.00000

 Dipole moment (field-independent basis, Debye):
    X=              0.0588    Y=              0.0669    Z=             -0.1771  Tot=              0.1982
 Quadrupole moment (field-independent basis, Debye-Ang):
   XX=            -49.4947   YY=            -68.6920   ZZ=            -73.8394
   XY=              0.4077   XZ=              0.7924   YZ=              1.5593

 Normal termination of Gaussian 16 at Thu Dec  7 20:07:18 2023.
