 Gaussian 16, Revision B.01,
 Gaussian 16:  ES64L-G16RevB.01 20-Dec-2017

 -------------------------
 #P B3LYP/6-311+g(d) force
 -------------------------

 -----
 DPGEN
 -----
 Symbolic Z-matrix:
 Charge =  0 Multiplicity = 2

                         Standard orientation:
 ---------------------------------------------------------------------
 Center     Atomic      Atomic             Coordinates (Angstroms)
 Number     Number       Type             X           Y           Z
 ---------------------------------------------------------------------
      1         11           0        2.682246   -1.397431   -0.506944
      2         11           0        0.113082   -0.718319    2.198082
      3         11           0        2.172677    1.876771    0.156104
      4         11           0        0.024302    0.083079   -1.599396
      5         11           0       -3.067912    0.101814   -0.269116
      6         11           0       -0.983271   -2.683614   -0.125353
      7         11           0       -0.941124    2.737702    0.146623
 ---------------------------------------------------------------------

 SCF Done:  E(UB3LYP) =  -1136.13766958     A.U. after   19 cycles

 The electronic state is 2-A.
 Alpha  occ. eigenvalues --  -38.43899 -38.43791 -38.43751 -38.43498 -38.43466
 Alpha  occ. eigenvalues --  -38.43227 -38.43144  -2.19768  -2.19636  -2.19606
 Alpha  occ. eigenvalues --   -2.19375  -2.19350  -2.19166  -2.19100  -1.13435
 Alpha  occ. eigenvalues --   -1.13402  -1.13385  -1.13322  -1.13307  -1.13298
 Alpha  occ. eigenvalues --   -1.13276  -1.13263  -1.13234  -1.13070  -1.13056
 Alpha  occ. eigenvalues --   -1.13049  -1.13011  -1.12990  -1.12988  -1.12852
 Alpha  occ. eigenvalues --   -1.12820  -1.12788  -1.12752  -1.12743  -1.12732
 Alpha  occ. eigenvalues --   -0.18809  -0.12975  -0.12660  -0.11011
 Alpha virt. eigenvalues --   -0.05437  -0.05014  -0.04698  -0.03251  -0.03106
 Alpha virt. eigenvalues --   -0.02707  -0.01373  -0.01014  -0.00268  -0.00135
 Alpha virt. eigenvalues --   -0.00035   0.00360   0.00835   0.00899   0.00932

  Beta  occ. eigenvalues --  -38.43800 -38.43787 -38.43738 -38.43491 -38.43461
  Beta  occ. eigenvalues --  -38.43225 -38.43084  -2.19630  -2.19588  -2.19582
  Beta  occ. eigenvalues --   -2.19367  -2.19345  -2.19097  -2.19059  -1.13320
  Beta  occ. eigenvalues --   -1.13310  -1.13287  -1.13285  -1.13272  -1.13270
  Beta  occ. eigenvalues --   -1.13258  -1.13240  -1.13215  -1.13061  -1.13053
  Beta  occ. eigenvalues --   -1.13008  -1.12992  -1.12988  -1.12980  -1.12804
  Beta  occ. eigenvalues --   -1.12761  -1.12741  -1.12731  -1.12711  -1.12690
  Beta  occ. eigenvalues --   -0.18095  -0.12733  -0.12417
  Beta virt. eigenvalues --   -0.07065  -0.05419  -0.04989  -0.04609  -0.02425
  Beta virt. eigenvalues --   -0.02362  -0.01656  -0.01285  -0.00944  -0.00310
  Beta virt. eigenvalues --   -0.00172   0.00128   0.00398   0.00889   0.00904

 Mulliken charges and spin densities:
               1          2
     1  Na   0.349314   0.010284
     2  Na  -0.702133   0.672431
     3  Na   0.118370   0.073400
     4  Na  -0.334278   0.244908
     5  Na   0.181152  -0.003835
     6  Na   0.370301  -0.025625
     7  Na   0.017274   0.028436
 Sum of Mulliken charges =  -0.00000   1.00000

 Dipole moment (field-independent basis, Debye):
    X=             -0.0065    Y=             -0.2279    Z=              0.2119  Tot=              0.3113
 Quadrupole moment (field-independent basis, Debye-Ang):
   XX=            -58.5653   YY=            -63.3266   ZZ=            -72.7419
   XY=             -0.3619   XZ=             -0.0388   YZ=              1.7779

 Normal termination of Gaussian 16 at Thu Dec  7 11:37:17 2023.
