 Gaussian 16, Revision B.01,
 Gaussian 16:  ES64L-G16RevB.01 20-Dec-2017

 -------------------------
 #P B3LYP/6-311+g(d) force
 -------------------------

 -----
 DPGEN
 -----
 Symbolic Z-matrix:
 Charge =  0 Multiplicity = 2

                         Standard orientation:
 ---------------------------------------------------------------------
 Center     Atomic      Atomic             Coordinates (Angstroms)
 Number     Number       Type             X           Y           Z
 ---------------------------------------------------------------------
      1         11           0       -2.390430    2.517251   -0.248559
      2         11           0        1.808699    2.134902   -0.055242
      3         11           0        0.126306   -2.668353   -0.006019
      4         11           0        3.589833   -0.475092   -0.151474
      5         11           0        0.146749   -0.174778   -1.410321
      6         11           0       -0.211019    0.045030    2.099725
      7         11           0       -3.070137   -1.378960   -0.228110
 ---------------------------------------------------------------------

 SCF Done:  E(UB3LYP) =  -1136.12569160     A.U. after   21 cycles

 The electronic state is 2-A.
 Alpha  occ. eigenvalues --  -38.44767 -38.44740 -38.43775 -38.43716 -38.43595
 Alpha  occ. eigenvalues --  -38.43382 -38.43142  -2.20574  -2.20534  -2.19601
 Alpha  occ. eigenvalues --   -2.19591  -2.19529  -2.19265  -2.19052  -1.14258
 Alpha  occ. eigenvalues --   -1.14233  -1.14212  -1.14204  -1.14185  -1.14170
 Alpha  occ. eigenvalues --   -1.13408  -1.13359  -1.13253  -1.13230  -1.13208
 Alpha  occ. eigenvalues --   -1.13205  -1.13186  -1.13173  -1.13161  -1.12937
 Alpha  occ. eigenvalues --   -1.12885  -1.12873  -1.12748  -1.12691  -1.12638
 Alpha  occ. eigenvalues --   -0.18422  -0.13346  -0.11907  -0.10418
 Alpha virt. eigenvalues --   -0.06390  -0.05569  -0.04210  -0.03143  -0.02580
 Alpha virt. eigenvalues --   -0.02289  -0.02262  -0.01422  -0.00538  -0.00279
 Alpha virt. eigenvalues --   -0.00077   0.00230   0.00640   0.00770   0.00841

  Beta  occ. eigenvalues --  -38.44765 -38.44733 -38.43774 -38.43709 -38.43553
  Beta  occ. eigenvalues --  -38.43273 -38.43132  -2.20573  -2.20524  -2.19583
  Beta  occ. eigenvalues --   -2.19530  -2.19522  -2.19063  -2.19038  -1.14260
  Beta  occ. eigenvalues --   -1.14217  -1.14205  -1.14189  -1.14179  -1.14165
  Beta  occ. eigenvalues --   -1.13368  -1.13321  -1.13226  -1.13201  -1.13198
  Beta  occ. eigenvalues --   -1.13187  -1.13179  -1.13170  -1.13110  -1.12805
  Beta  occ. eigenvalues --   -1.12748  -1.12735  -1.12725  -1.12644  -1.12634
  Beta  occ. eigenvalues --   -0.17709  -0.13123  -0.11701
  Beta virt. eigenvalues --   -0.06539  -0.06255  -0.05553  -0.04190  -0.02442
  Beta virt. eigenvalues --   -0.02178  -0.01812  -0.01430  -0.01221  -0.00550
  Beta virt. eigenvalues --   -0.00291   0.00096   0.00283   0.00704   0.00777

 Mulliken charges and spin densities:
               1          2
     1  Na  -0.063215  -0.031493
     2  Na   0.237190   0.006831
     3  Na   0.373097   0.028938
     4  Na   0.266550   0.011975
     5  Na  -0.532877   0.334121
     6  Na  -0.440056   0.653211
     7  Na   0.159311  -0.003583
 Sum of Mulliken charges =  -0.00000   1.00000

 Dipole moment (field-independent basis, Debye):
    X=              0.1114    Y=             -0.2650    Z=              0.1885  Tot=              0.3438
 Quadrupole moment (field-independent basis, Debye-Ang):
   XX=            -49.3861   YY=            -66.0113   ZZ=            -76.3201
   XY=              0.0755   XZ=              0.4971   YZ=             -0.4719

 Normal termination of Gaussian 16 at Sun Dec  3 23:17:10 2023.
