 Gaussian 16, Revision B.01,
 Gaussian 16:  ES64L-G16RevB.01 20-Dec-2017

 -------------------------
 #P B3LYP/6-311+g(d) force
 -------------------------

 -----
 DPGEN
 -----
 Symbolic Z-matrix:
 Charge =  0 Multiplicity = 2

                         Standard orientation:
 ---------------------------------------------------------------------
 Center     Atomic      Atomic             Coordinates (Angstroms)
 Number     Number       Type             X           Y           Z
 ---------------------------------------------------------------------
      1         11           0        3.126427    0.298656   -0.037386
      2         11           0        0.350927    3.065961   -0.161128
      3         11           0       -2.112931   -2.104127   -0.215389
      4         11           0       -2.886296    1.084664    0.111771
      5         11           0        0.000161    0.222139    1.840474
      6         11           0        1.342760   -2.462159    0.271459
      7         11           0        0.178952   -0.105134   -1.809801
 ---------------------------------------------------------------------

 SCF Done:  E(UB3LYP) =  -1136.14034098     A.U. after   19 cycles

 The electronic state is 2-A.
 Alpha  occ. eigenvalues --  -38.44072 -38.43948 -38.43559 -38.43382 -38.43292
 Alpha  occ. eigenvalues --  -38.43268 -38.43261  -2.19912  -2.19783  -2.19371
 Alpha  occ. eigenvalues --   -2.19247  -2.19227  -2.19213  -2.19159  -1.13589
 Alpha  occ. eigenvalues --   -1.13580  -1.13549  -1.13465  -1.13450  -1.13419
 Alpha  occ. eigenvalues --   -1.13050  -1.13045  -1.13003  -1.12957  -1.12922
 Alpha  occ. eigenvalues --   -1.12900  -1.12899  -1.12886  -1.12871  -1.12855
 Alpha  occ. eigenvalues --   -1.12844  -1.12824  -1.12805  -1.12796  -1.12782
 Alpha  occ. eigenvalues --   -0.18762  -0.13063  -0.12462  -0.10694
 Alpha virt. eigenvalues --   -0.05704  -0.04970  -0.04822  -0.03174  -0.02893
 Alpha virt. eigenvalues --   -0.02468  -0.01517  -0.01129  -0.00416  -0.00267
 Alpha virt. eigenvalues --    0.00006   0.00374   0.00829   0.00864   0.00929

  Beta  occ. eigenvalues --  -38.44069 -38.43945 -38.43556 -38.43376 -38.43251
  Beta  occ. eigenvalues --  -38.43212 -38.43189  -2.19908  -2.19780  -2.19368
  Beta  occ. eigenvalues --   -2.19240  -2.19145  -2.19080  -2.19069  -1.13587
  Beta  occ. eigenvalues --   -1.13554  -1.13548  -1.13461  -1.13429  -1.13422
  Beta  occ. eigenvalues --   -1.13043  -1.13028  -1.13002  -1.12929  -1.12900
  Beta  occ. eigenvalues --   -1.12879  -1.12862  -1.12809  -1.12798  -1.12780
  Beta  occ. eigenvalues --   -1.12769  -1.12742  -1.12730  -1.12725  -1.12718
  Beta  occ. eigenvalues --   -0.18019  -0.12825  -0.12217
  Beta virt. eigenvalues --   -0.06786  -0.05692  -0.04961  -0.04778  -0.02372
  Beta virt. eigenvalues --   -0.02119  -0.01437  -0.01419  -0.01051  -0.00474
  Beta virt. eigenvalues --   -0.00316   0.00132   0.00389   0.00850   0.00874

 Mulliken charges and spin densities:
               1          2
     1  Na   0.140588  -0.112885
     2  Na  -0.052772  -0.165878
     3  Na   0.137685  -0.033633
     4  Na   0.077477  -0.096570
     5  Na  -0.249633   0.670637
     6  Na   0.229175   0.007125
     7  Na  -0.282520   0.731203
 Sum of Mulliken charges =  -0.00000   1.00000

 Dipole moment (field-independent basis, Debye):
    X=              0.1038    Y=              0.2425    Z=              0.0008  Tot=              0.2638
 Quadrupole moment (field-independent basis, Debye-Ang):
   XX=            -56.5275   YY=            -61.9341   ZZ=            -74.6470
   XY=              0.2071   XZ=              0.2861   YZ=             -0.6797

 Normal termination of Gaussian 16 at Thu Dec  7 06:18:51 2023.
