 Gaussian 16, Revision B.01,
 Gaussian 16:  ES64L-G16RevB.01 20-Dec-2017

 -------------------------
 #P B3LYP/6-311+g(d) force
 -------------------------

 -----
 DPGEN
 -----
 Symbolic Z-matrix:
 Charge =  0 Multiplicity = 2

                         Standard orientation:
 ---------------------------------------------------------------------
 Center     Atomic      Atomic             Coordinates (Angstroms)
 Number     Number       Type             X           Y           Z
 ---------------------------------------------------------------------
      1         11           0        1.208906    2.330219    0.246617
      2         11           0       -2.023768    2.430742   -0.612299
      3         11           0       -3.253594   -0.859121   -1.014431
      4         11           0       -1.137623   -0.136276    1.742184
      5         11           0        2.269519   -0.493301    1.230238
      6         11           0       -0.742543   -2.784150   -0.047568
      7         11           0        3.679101   -0.488113   -1.544741
 ---------------------------------------------------------------------

 SCF Done:  E(UB3LYP) =  -1136.12737138     A.U. after   20 cycles

 The electronic state is 2-A.
 Alpha  occ. eigenvalues --  -38.44368 -38.44143 -38.43975 -38.43865 -38.43771
 Alpha  occ. eigenvalues --  -38.43605 -38.43246  -2.20192  -2.19987  -2.19899
 Alpha  occ. eigenvalues --   -2.19708  -2.19602  -2.19514  -2.19075  -1.13860
 Alpha  occ. eigenvalues --   -1.13825  -1.13811  -1.13659  -1.13646  -1.13619
 Alpha  occ. eigenvalues --   -1.13601  -1.13540  -1.13527  -1.13425  -1.13389
 Alpha  occ. eigenvalues --   -1.13332  -1.13269  -1.13268  -1.13226  -1.13184
 Alpha  occ. eigenvalues --   -1.13176  -1.13143  -1.12749  -1.12733  -1.12716
 Alpha  occ. eigenvalues --   -0.17822  -0.13980  -0.12076  -0.10972
 Alpha virt. eigenvalues --   -0.05817  -0.05392  -0.04825  -0.03854  -0.02711
 Alpha virt. eigenvalues --   -0.02395  -0.01537  -0.00821  -0.00542  -0.00441
 Alpha virt. eigenvalues --   -0.00411   0.00333   0.00398   0.00494   0.00595

  Beta  occ. eigenvalues --  -38.44291 -38.44104 -38.43920 -38.43862 -38.43769
  Beta  occ. eigenvalues --  -38.43590 -38.43239  -2.20047  -2.19914  -2.19803
  Beta  occ. eigenvalues --   -2.19705  -2.19601  -2.19494  -2.19062  -1.13768
  Beta  occ. eigenvalues --   -1.13725  -1.13712  -1.13609  -1.13600  -1.13563
  Beta  occ. eigenvalues --   -1.13537  -1.13462  -1.13452  -1.13415  -1.13387
  Beta  occ. eigenvalues --   -1.13320  -1.13270  -1.13252  -1.13222  -1.13173
  Beta  occ. eigenvalues --   -1.13150  -1.13090  -1.12742  -1.12728  -1.12694
  Beta  occ. eigenvalues --   -0.17188  -0.13419  -0.11941
  Beta virt. eigenvalues --   -0.07392  -0.05590  -0.05133  -0.04262  -0.03762
  Beta virt. eigenvalues --   -0.02238  -0.01671  -0.01362  -0.00703  -0.00532
  Beta virt. eigenvalues --   -0.00301  -0.00079   0.00488   0.00541   0.00597

 Mulliken charges and spin densities:
               1          2
     1  Na  -0.704841   0.111833
     2  Na  -0.228011   0.106042
     3  Na   0.005087   0.276233
     4  Na   1.291078   0.074424
     5  Na   0.527495  -0.026088
     6  Na  -0.771015   0.069963
     7  Na  -0.119793   0.387593
 Sum of Mulliken charges =  -0.00000   1.00000

 Dipole moment (field-independent basis, Debye):
    X=             -0.1529    Y=             -0.3021    Z=             -0.4124  Tot=              0.5335
 Quadrupole moment (field-independent basis, Debye-Ang):
   XX=            -63.7704   YY=            -68.8103   ZZ=            -66.4184
   XY=              0.5972   XZ=             -0.1767   YZ=              0.9961

 Normal termination of Gaussian 16 at Wed Nov 29 03:28:58 2023.
