 Gaussian 16, Revision B.01,
 Gaussian 16:  ES64L-G16RevB.01 20-Dec-2017

 -------------------------
 #P B3LYP/6-311+g(d) force
 -------------------------

 -----
 DPGEN
 -----
 Symbolic Z-matrix:
 Charge =  0 Multiplicity = 2

                         Standard orientation:
 ---------------------------------------------------------------------
 Center     Atomic      Atomic             Coordinates (Angstroms)
 Number     Number       Type             X           Y           Z
 ---------------------------------------------------------------------
      1         11           0       -2.529654    2.225506   -0.341182
      2         11           0       -1.725655   -0.347264    1.600365
      3         11           0        1.223470   -1.768324    0.983905
      4         11           0        0.118615    0.320860   -1.716908
      5         11           0       -2.677671   -1.886482   -0.815866
      6         11           0        1.742121    1.660510    1.139762
      7         11           0        3.848773   -0.204806   -0.850075
 ---------------------------------------------------------------------

 SCF Done:  E(UB3LYP) =  -1136.12419047     A.U. after   24 cycles

 The electronic state is 2-A.
 Alpha  occ. eigenvalues --  -38.45083 -38.44267 -38.44219 -38.44081 -38.43498
 Alpha  occ. eigenvalues --  -38.43312 -38.43179  -2.20889  -2.20106  -2.20085
 Alpha  occ. eigenvalues --   -2.19917  -2.19445  -2.19184  -2.18987  -1.14555
 Alpha  occ. eigenvalues --   -1.14544  -1.14516  -1.13811  -1.13778  -1.13763
 Alpha  occ. eigenvalues --   -1.13728  -1.13718  -1.13698  -1.13647  -1.13567
 Alpha  occ. eigenvalues --   -1.13526  -1.13135  -1.13104  -1.13057  -1.12889
 Alpha  occ. eigenvalues --   -1.12856  -1.12778  -1.12673  -1.12641  -1.12623
 Alpha  occ. eigenvalues --   -0.18400  -0.14042  -0.11073  -0.10859
 Alpha virt. eigenvalues --   -0.06628  -0.05571  -0.04588  -0.03025  -0.02615
 Alpha virt. eigenvalues --   -0.02440  -0.02222  -0.01153  -0.00862  -0.00113
 Alpha virt. eigenvalues --    0.00137   0.00207   0.00363   0.00518   0.00637

  Beta  occ. eigenvalues --  -38.45064 -38.44233 -38.44171 -38.44063 -38.43462
  Beta  occ. eigenvalues --  -38.43286 -38.43182  -2.20852  -2.20046  -2.19998
  Beta  occ. eigenvalues --   -2.19884  -2.19382  -2.19140  -2.18995  -1.14526
  Beta  occ. eigenvalues --   -1.14515  -1.14493  -1.13765  -1.13719  -1.13705
  Beta  occ. eigenvalues --   -1.13677  -1.13662  -1.13635  -1.13625  -1.13537
  Beta  occ. eigenvalues --   -1.13502  -1.13084  -1.13050  -1.13013  -1.12859
  Beta  occ. eigenvalues --   -1.12792  -1.12755  -1.12673  -1.12643  -1.12625
  Beta  occ. eigenvalues --   -0.17657  -0.13845  -0.10714
  Beta virt. eigenvalues --   -0.07246  -0.06385  -0.05402  -0.04049  -0.02885
  Beta virt. eigenvalues --   -0.02258  -0.01901  -0.01598  -0.00981  -0.00524
  Beta virt. eigenvalues --    0.00010   0.00153   0.00240   0.00500   0.00580

 Mulliken charges and spin densities:
               1          2
     1  Na  -0.054462  -0.066079
     2  Na   0.323487   0.197905
     3  Na  -0.148566   0.107191
     4  Na  -0.449603   0.453148
     5  Na   0.031137   0.055748
     6  Na  -0.141983   0.138435
     7  Na   0.439991   0.113652
 Sum of Mulliken charges =  -0.00000   1.00000

 Dipole moment (field-independent basis, Debye):
    X=              1.1675    Y=             -0.0618    Z=             -0.3421  Tot=              1.2181
 Quadrupole moment (field-independent basis, Debye-Ang):
   XX=            -48.4872   YY=            -75.1130   ZZ=            -69.5004
   XY=              0.6954   XZ=             -0.5264   YZ=              3.7111

 Normal termination of Gaussian 16 at Thu Dec  7 20:58:57 2023.
