 Gaussian 16, Revision B.01,
 Gaussian 16:  ES64L-G16RevB.01 20-Dec-2017

 -------------------------
 #P B3LYP/6-311+g(d) force
 -------------------------

 -----
 DPGEN
 -----
 Symbolic Z-matrix:
 Charge =  0 Multiplicity = 2

                         Standard orientation:
 ---------------------------------------------------------------------
 Center     Atomic      Atomic             Coordinates (Angstroms)
 Number     Number       Type             X           Y           Z
 ---------------------------------------------------------------------
      1         11           0       -3.909558    0.926435    0.135449
      2         11           0       -3.415338   -2.263462   -0.912475
      3         11           0       -1.648814    3.005645    0.556340
      4         11           0        3.960796   -0.449050   -1.343352
      5         11           0        2.793780   -0.871395    1.732880
      6         11           0        0.153181   -3.021585    0.439829
      7         11           0        2.065953    2.673412   -0.608670
 ---------------------------------------------------------------------

 SCF Done:  E(UB3LYP) =  -1136.10701775     A.U. after   24 cycles

 The electronic state is 2-A.
 Alpha  occ. eigenvalues --  -38.45417 -38.45184 -38.44979 -38.44625 -38.44610
 Alpha  occ. eigenvalues --  -38.43692 -38.43329  -2.21151  -2.20979  -2.20779
 Alpha  occ. eigenvalues --   -2.20420  -2.20366  -2.19484  -2.19137  -1.14846
 Alpha  occ. eigenvalues --   -1.14826  -1.14765  -1.14657  -1.14630  -1.14602
 Alpha  occ. eigenvalues --   -1.14454  -1.14428  -1.14399  -1.14109  -1.14089
 Alpha  occ. eigenvalues --   -1.14067  -1.14053  -1.14044  -1.13979  -1.13142
 Alpha  occ. eigenvalues --   -1.13135  -1.13114  -1.12808  -1.12787  -1.12769
 Alpha  occ. eigenvalues --   -0.15976  -0.14124  -0.12537  -0.10391
 Alpha virt. eigenvalues --   -0.07432  -0.06031  -0.04044  -0.03494  -0.03339
 Alpha virt. eigenvalues --   -0.02320  -0.02198  -0.01772  -0.01220  -0.00824
 Alpha virt. eigenvalues --   -0.00592  -0.00273   0.00024   0.00409   0.00538

  Beta  occ. eigenvalues --  -38.45404 -38.45143 -38.44946 -38.44605 -38.44600
  Beta  occ. eigenvalues --  -38.43642 -38.43294  -2.21130  -2.20905  -2.20721
  Beta  occ. eigenvalues --   -2.20406  -2.20333  -2.19392  -2.19073  -1.14834
  Beta  occ. eigenvalues --   -1.14815  -1.14729  -1.14610  -1.14581  -1.14539
  Beta  occ. eigenvalues --   -1.14416  -1.14391  -1.14336  -1.14091  -1.14084
  Beta  occ. eigenvalues --   -1.14034  -1.14032  -1.14024  -1.13939  -1.13080
  Beta  occ. eigenvalues --   -1.13072  -1.13053  -1.12766  -1.12743  -1.12726
  Beta  occ. eigenvalues --   -0.15461  -0.13521  -0.11979
  Beta virt. eigenvalues --   -0.07573  -0.07168  -0.05604  -0.03617  -0.03250
  Beta virt. eigenvalues --   -0.03015  -0.02069  -0.01982  -0.01347  -0.01151
  Beta virt. eigenvalues --   -0.00751  -0.00376   0.00012   0.00256   0.00446

 Mulliken charges and spin densities:
               1          2
     1  Na  -0.018683   0.111625
     2  Na   0.109457   0.216915
     3  Na   0.039733   0.138194
     4  Na   0.333295   0.233404
     5  Na   0.066834   0.151697
     6  Na  -0.373369   0.062048
     7  Na  -0.157267   0.086117
 Sum of Mulliken charges =  -0.00000   1.00000

 Dipole moment (field-independent basis, Debye):
    X=              1.7578    Y=             -0.2050    Z=             -0.1907  Tot=              1.7799
 Quadrupole moment (field-independent basis, Debye-Ang):
   XX=            -61.8454   YY=            -70.8571   ZZ=            -69.0703
   XY=             -1.6957   XZ=             -0.1753   YZ=              3.4080

 Normal termination of Gaussian 16 at Sun Dec  3 13:00:25 2023.
