 Gaussian 16, Revision B.01,
 Gaussian 16:  ES64L-G16RevB.01 20-Dec-2017

 -------------------------
 #P B3LYP/6-311+g(d) force
 -------------------------

 -----
 DPGEN
 -----
 Symbolic Z-matrix:
 Charge =  0 Multiplicity = 2

                         Standard orientation:
 ---------------------------------------------------------------------
 Center     Atomic      Atomic             Coordinates (Angstroms)
 Number     Number       Type             X           Y           Z
 ---------------------------------------------------------------------
      1         11           0       -0.855303   -0.022477   -1.235136
      2         11           0        2.696267   -2.084698    0.134669
      3         11           0       -0.208517    0.524941    1.805029
      4         11           0        2.526743    0.999928   -0.540004
      5         11           0       -0.748566   -2.498182   -0.011242
      6         11           0        0.072131    3.387761   -0.062186
      7         11           0       -3.482755   -0.307274   -0.091129
 ---------------------------------------------------------------------

 SCF Done:  E(UB3LYP) =  -1136.12284888     A.U. after   23 cycles

 The electronic state is 2-A.
 Alpha  occ. eigenvalues --  -38.44699 -38.44116 -38.43802 -38.43710 -38.43689
 Alpha  occ. eigenvalues --  -38.43525 -38.43000  -2.20563  -2.20049  -2.19620
 Alpha  occ. eigenvalues --   -2.19610  -2.19587  -2.19515  -2.18939  -1.14321
 Alpha  occ. eigenvalues --   -1.14190  -1.14186  -1.13946  -1.13689  -1.13621
 Alpha  occ. eigenvalues --   -1.13315  -1.13296  -1.13287  -1.13280  -1.13270
 Alpha  occ. eigenvalues --   -1.13262  -1.13231  -1.13220  -1.13179  -1.13166
 Alpha  occ. eigenvalues --   -1.13155  -1.13128  -1.12637  -1.12554  -1.12536
 Alpha  occ. eigenvalues --   -0.18787  -0.13454  -0.12593  -0.10072
 Alpha virt. eigenvalues --   -0.06115  -0.05346  -0.04789  -0.03078  -0.02610
 Alpha virt. eigenvalues --   -0.01986  -0.01866  -0.01444  -0.00414  -0.00289
 Alpha virt. eigenvalues --    0.00009   0.00269   0.00746   0.00788   0.00873

  Beta  occ. eigenvalues --  -38.44690 -38.44104 -38.43800 -38.43692 -38.43691
  Beta  occ. eigenvalues --  -38.43482 -38.42909  -2.20551  -2.20032  -2.19620
  Beta  occ. eigenvalues --   -2.19555  -2.19535  -2.19520  -2.18771  -1.14308
  Beta  occ. eigenvalues --   -1.14183  -1.14158  -1.13928  -1.13643  -1.13614
  Beta  occ. eigenvalues --   -1.13305  -1.13283  -1.13279  -1.13265  -1.13232
  Beta  occ. eigenvalues --   -1.13206  -1.13200  -1.13178  -1.13167  -1.13147
  Beta  occ. eigenvalues --   -1.13127  -1.13122  -1.12525  -1.12437  -1.12412
  Beta  occ. eigenvalues --   -0.18095  -0.13165  -0.12405
  Beta virt. eigenvalues --   -0.06298  -0.05967  -0.05295  -0.04707  -0.02322
  Beta virt. eigenvalues --   -0.01980  -0.01906  -0.01397  -0.00962  -0.00409
  Beta virt. eigenvalues --   -0.00249   0.00181   0.00342   0.00758   0.00817

 Mulliken charges and spin densities:
               1          2
     1  Na  -0.413077   0.018567
     2  Na  -0.196743  -0.018761
     3  Na  -0.381319   0.556982
     4  Na   0.144617   0.163403
     5  Na   0.205722   0.149015
     6  Na   0.147925   0.047927
     7  Na   0.492877   0.082867
 Sum of Mulliken charges =  -0.00000   1.00000

 Dipole moment (field-independent basis, Debye):
    X=             -0.6539    Y=              0.1981    Z=              0.3350  Tot=              0.7609
 Quadrupole moment (field-independent basis, Debye-Ang):
   XX=            -54.9450   YY=            -59.1400   ZZ=            -77.4748
   XY=             -1.1476   XZ=             -1.0218   YZ=             -1.3008

 Normal termination of Gaussian 16 at Fri Dec  8 00:16:11 2023.
