 Gaussian 16, Revision B.01,
 Gaussian 16:  ES64L-G16RevB.01 20-Dec-2017

 -------------------------
 #P B3LYP/6-311+g(d) force
 -------------------------

 -----
 DPGEN
 -----
 Symbolic Z-matrix:
 Charge =  0 Multiplicity = 2

                         Standard orientation:
 ---------------------------------------------------------------------
 Center     Atomic      Atomic             Coordinates (Angstroms)
 Number     Number       Type             X           Y           Z
 ---------------------------------------------------------------------
      1         11           0        1.063930   -2.507094   -0.679648
      2         11           0        2.103077    2.917100   -0.153741
      3         11           0        0.414678   -0.919630    1.983472
      4         11           0       -2.969760   -1.612378   -0.375577
      5         11           0        3.270009   -0.295967   -0.171681
      6         11           0       -3.550330    1.896688    0.164645
      7         11           0       -0.331603    0.521281   -0.767471
 ---------------------------------------------------------------------

 SCF Done:  E(UB3LYP) =  -1136.11992207     A.U. after   26 cycles

 The electronic state is 2-A.
 Alpha  occ. eigenvalues --  -38.45253 -38.44965 -38.44403 -38.43668 -38.43620
 Alpha  occ. eigenvalues --  -38.43043 -38.42886  -2.21003  -2.20753  -2.20272
 Alpha  occ. eigenvalues --   -2.19624  -2.19412  -2.18964  -2.18818  -1.14677
 Alpha  occ. eigenvalues --   -1.14667  -1.14638  -1.14440  -1.14414  -1.14369
 Alpha  occ. eigenvalues --   -1.13955  -1.13933  -1.13906  -1.13368  -1.13301
 Alpha  occ. eigenvalues --   -1.13239  -1.13080  -1.13065  -1.13058  -1.12664
 Alpha  occ. eigenvalues --   -1.12628  -1.12603  -1.12482  -1.12424  -1.12407
 Alpha  occ. eigenvalues --   -0.18196  -0.13747  -0.11870  -0.09787
 Alpha virt. eigenvalues --   -0.06887  -0.06057  -0.04428  -0.03026  -0.02479
 Alpha virt. eigenvalues --   -0.02120  -0.01934  -0.01681  -0.01176  -0.00518
 Alpha virt. eigenvalues --   -0.00088   0.00169   0.00499   0.00555   0.00686

  Beta  occ. eigenvalues --  -38.45261 -38.44955 -38.44382 -38.43652 -38.43622
  Beta  occ. eigenvalues --  -38.43018 -38.42781  -2.21018  -2.20735  -2.20236
  Beta  occ. eigenvalues --   -2.19601  -2.19416  -2.18920  -2.18624  -1.14687
  Beta  occ. eigenvalues --   -1.14673  -1.14648  -1.14423  -1.14393  -1.14359
  Beta  occ. eigenvalues --   -1.13929  -1.13889  -1.13878  -1.13327  -1.13272
  Beta  occ. eigenvalues --   -1.13228  -1.13083  -1.13063  -1.13059  -1.12633
  Beta  occ. eigenvalues --   -1.12582  -1.12555  -1.12352  -1.12294  -1.12276
  Beta  occ. eigenvalues --   -0.17537  -0.13542  -0.11729
  Beta virt. eigenvalues --   -0.06755  -0.06091  -0.05743  -0.04322  -0.02544
  Beta virt. eigenvalues --   -0.02311  -0.01800  -0.01606  -0.01236  -0.00744
  Beta virt. eigenvalues --   -0.00478   0.00187   0.00284   0.00567   0.00639

 Mulliken charges and spin densities:
               1          2
     1  Na   0.302412   0.236505
     2  Na   0.194136  -0.113688
     3  Na  -0.504031   0.336416
     4  Na   0.605257   0.070700
     5  Na   0.640608   0.263202
     6  Na   0.052933  -0.134191
     7  Na  -1.291316   0.341055
 Sum of Mulliken charges =  -0.00000   1.00000

 Dipole moment (field-independent basis, Debye):
    X=             -1.3269    Y=              0.2571    Z=              0.4135  Tot=              1.4134
 Quadrupole moment (field-independent basis, Debye-Ang):
   XX=            -51.3390   YY=            -62.4133   ZZ=            -77.9409
   XY=             -1.2415   XZ=              0.1311   YZ=              1.6285

 Normal termination of Gaussian 16 at Tue Dec  5 20:57:17 2023.
