 Gaussian 16, Revision B.01,
 Gaussian 16:  ES64L-G16RevB.01 20-Dec-2017

 -------------------------
 #P B3LYP/6-311+g(d) force
 -------------------------

 -----
 DPGEN
 -----
 Symbolic Z-matrix:
 Charge =  0 Multiplicity = 2

                         Standard orientation:
 ---------------------------------------------------------------------
 Center     Atomic      Atomic             Coordinates (Angstroms)
 Number     Number       Type             X           Y           Z
 ---------------------------------------------------------------------
      1         11           0        1.868457    3.180889   -0.238028
      2         11           0       -1.597925    3.439385    0.920552
      3         11           0       -4.413251    0.479341   -0.349284
      4         11           0        3.611847    0.680885   -0.849962
      5         11           0       -2.960003   -2.804758    0.169161
      6         11           0        0.294054   -2.347136   -0.976241
      7         11           0        3.196821   -2.628607    1.323802
 ---------------------------------------------------------------------

 SCF Done:  E(UB3LYP) =  -1136.10454573     A.U. after   24 cycles

 The electronic state is 2-A.
 Alpha  occ. eigenvalues --  -38.45816 -38.45377 -38.44773 -38.44367 -38.44324
 Alpha  occ. eigenvalues --  -38.44137 -38.43623  -2.21523  -2.21118  -2.20582
 Alpha  occ. eigenvalues --   -2.20148  -2.20074  -2.19928  -2.19434  -1.15218
 Alpha  occ. eigenvalues --   -1.15190  -1.15159  -1.14815  -1.14806  -1.14730
 Alpha  occ. eigenvalues --   -1.14271  -1.14251  -1.14192  -1.13801  -1.13796
 Alpha  occ. eigenvalues --   -1.13756  -1.13745  -1.13731  -1.13694  -1.13589
 Alpha  occ. eigenvalues --   -1.13583  -1.13556  -1.13113  -1.13098  -1.13070
 Alpha  occ. eigenvalues --   -0.15532  -0.13680  -0.12983  -0.10509
 Alpha virt. eigenvalues --   -0.07589  -0.05766  -0.04134  -0.03519  -0.03017
 Alpha virt. eigenvalues --   -0.02657  -0.02449  -0.01808  -0.01250  -0.01042
 Alpha virt. eigenvalues --   -0.00397  -0.00255   0.00005   0.00296   0.00535

  Beta  occ. eigenvalues --  -38.45826 -38.45378 -38.44728 -38.44292 -38.44277
  Beta  occ. eigenvalues --  -38.44099 -38.43603  -2.21545  -2.21123  -2.20503
  Beta  occ. eigenvalues --   -2.20008  -2.19986  -2.19858  -2.19404  -1.15235
  Beta  occ. eigenvalues --   -1.15206  -1.15157  -1.14820  -1.14813  -1.14712
  Beta  occ. eigenvalues --   -1.14211  -1.14201  -1.14116  -1.13706  -1.13699
  Beta  occ. eigenvalues --   -1.13684  -1.13672  -1.13665  -1.13635  -1.13540
  Beta  occ. eigenvalues --   -1.13532  -1.13515  -1.13088  -1.13082  -1.13029
  Beta  occ. eigenvalues --   -0.15066  -0.13112  -0.12337
  Beta virt. eigenvalues --   -0.07610  -0.07305  -0.05386  -0.03735  -0.03344
  Beta virt. eigenvalues --   -0.02624  -0.02402  -0.02246  -0.01623  -0.01080
  Beta virt. eigenvalues --   -0.00729  -0.00233  -0.00030   0.00183   0.00374

 Mulliken charges and spin densities:
               1          2
     1  Na  -0.080116   0.043368
     2  Na  -0.081794   0.296550
     3  Na  -0.008979  -0.031759
     4  Na   0.149459   0.182556
     5  Na   0.117911   0.139658
     6  Na  -0.284913  -0.002933
     7  Na   0.188432   0.372560
 Sum of Mulliken charges =  -0.00000   1.00000

 Dipole moment (field-independent basis, Debye):
    X=             -0.4152    Y=             -0.9744    Z=             -0.0666  Tot=              1.0612
 Quadrupole moment (field-independent basis, Debye-Ang):
   XX=            -58.6424   YY=            -72.7721   ZZ=            -69.4197
   XY=             -0.3557   XZ=              1.2534   YZ=             -0.7267

 Normal termination of Gaussian 16 at Sun Dec  3 23:35:00 2023.
