 Gaussian 16, Revision B.01,
 Gaussian 16:  ES64L-G16RevB.01 20-Dec-2017

 -------------------------
 #P B3LYP/6-311+g(d) force
 -------------------------

 -----
 DPGEN
 -----
 Symbolic Z-matrix:
 Charge =  0 Multiplicity = 2

                         Standard orientation:
 ---------------------------------------------------------------------
 Center     Atomic      Atomic             Coordinates (Angstroms)
 Number     Number       Type             X           Y           Z
 ---------------------------------------------------------------------
      1         11           0        2.107956    1.401857   -1.435909
      2         11           0       -2.961880    0.188675   -0.808569
      3         11           0        2.571279   -2.157631   -0.307573
      4         11           0       -2.043632   -0.210793    1.948613
      5         11           0        1.852891    0.406170    2.169955
      6         11           0       -1.164077   -2.623743   -1.018595
      7         11           0       -0.362536    2.995465   -0.547922
 ---------------------------------------------------------------------

 SCF Done:  E(UB3LYP) =  -1136.12182502     A.U. after   19 cycles

 The electronic state is 2-A.
 Alpha  occ. eigenvalues --  -38.44816 -38.44805 -38.44204 -38.44197 -38.44042
 Alpha  occ. eigenvalues --  -38.43756 -38.43355  -2.20649  -2.20608  -2.20073
 Alpha  occ. eigenvalues --   -2.19984  -2.19874  -2.19528  -2.19171  -1.14383
 Alpha  occ. eigenvalues --   -1.14293  -1.14269  -1.14263  -1.14245  -1.14232
 Alpha  occ. eigenvalues --   -1.13758  -1.13744  -1.13686  -1.13659  -1.13636
 Alpha  occ. eigenvalues --   -1.13591  -1.13572  -1.13533  -1.13498  -1.13208
 Alpha  occ. eigenvalues --   -1.13187  -1.13172  -1.12858  -1.12820  -1.12803
 Alpha  occ. eigenvalues --   -0.17292  -0.13411  -0.12032  -0.11357
 Alpha virt. eigenvalues --   -0.05773  -0.05372  -0.05240  -0.03856  -0.03043
 Alpha virt. eigenvalues --   -0.03008  -0.01123  -0.00734  -0.00586  -0.00461
 Alpha virt. eigenvalues --   -0.00386   0.00215   0.00323   0.00451   0.00591

  Beta  occ. eigenvalues --  -38.44755 -38.44745 -38.44199 -38.44171 -38.44018
  Beta  occ. eigenvalues --  -38.43757 -38.43346  -2.20557  -2.20476  -2.20066
  Beta  occ. eigenvalues --   -2.19934  -2.19829  -2.19532  -2.19156  -1.14321
  Beta  occ. eigenvalues --   -1.14226  -1.14199  -1.14176  -1.14158  -1.14134
  Beta  occ. eigenvalues --   -1.13741  -1.13730  -1.13680  -1.13623  -1.13605
  Beta  occ. eigenvalues --   -1.13560  -1.13542  -1.13500  -1.13465  -1.13203
  Beta  occ. eigenvalues --   -1.13191  -1.13173  -1.12841  -1.12808  -1.12790
  Beta  occ. eigenvalues --   -0.16687  -0.13267  -0.11754
  Beta virt. eigenvalues --   -0.07644  -0.05535  -0.05172  -0.04608  -0.03667
  Beta virt. eigenvalues --   -0.02542  -0.02173  -0.01115  -0.00693  -0.00398
  Beta virt. eigenvalues --   -0.00334  -0.00074   0.00369   0.00532   0.00601

 Mulliken charges and spin densities:
               1          2
     1  Na   0.040129   0.092790
     2  Na   0.165520   0.256711
     3  Na  -0.013088   0.087528
     4  Na  -0.004724   0.129683
     5  Na  -0.056111   0.331040
     6  Na  -0.054721   0.058840
     7  Na  -0.077006   0.043408
 Sum of Mulliken charges =  -0.00000   1.00000

 Dipole moment (field-independent basis, Debye):
    X=             -0.2289    Y=             -0.1699    Z=              0.1561  Tot=              0.3250
 Quadrupole moment (field-independent basis, Debye-Ang):
   XX=            -62.1160   YY=            -70.9785   ZZ=            -67.0494
   XY=             -1.1980   XZ=              0.5922   YZ=              1.4459

 Normal termination of Gaussian 16 at Sun Dec  3 20:04:10 2023.
