 Gaussian 16, Revision B.01,
 Gaussian 16:  ES64L-G16RevB.01 20-Dec-2017

 -------------------------
 #P B3LYP/6-311+g(d) force
 -------------------------

 -----
 DPGEN
 -----
 Symbolic Z-matrix:
 Charge =  0 Multiplicity = 2

                         Standard orientation:
 ---------------------------------------------------------------------
 Center     Atomic      Atomic             Coordinates (Angstroms)
 Number     Number       Type             X           Y           Z
 ---------------------------------------------------------------------
      1         11           0        0.122227   -0.259768   -1.522194
      2         11           0       -1.566583   -2.312667    0.393279
      3         11           0        0.350799   -0.311272    1.676639
      4         11           0       -1.226372    2.146491    0.426258
      5         11           0        3.234119   -1.433692   -0.319710
      6         11           0        2.614088    1.863557   -0.087544
      7         11           0       -3.528279    0.307350   -0.566728
 ---------------------------------------------------------------------

 SCF Done:  E(UB3LYP) =  -1136.12426797     A.U. after   23 cycles

 The electronic state is 2-A.
 Alpha  occ. eigenvalues --  -38.44656 -38.44634 -38.44240 -38.44104 -38.43083
 Alpha  occ. eigenvalues --  -38.43059 -38.42706  -2.20509  -2.20451  -2.20190
 Alpha  occ. eigenvalues --   -2.19937  -2.19083  -2.18983  -2.18623  -1.14187
 Alpha  occ. eigenvalues --   -1.14159  -1.14134  -1.14124  -1.14106  -1.14088
 Alpha  occ. eigenvalues --   -1.13933  -1.13835  -1.13794  -1.13618  -1.13597
 Alpha  occ. eigenvalues --   -1.13568  -1.12838  -1.12753  -1.12698  -1.12641
 Alpha  occ. eigenvalues --   -1.12600  -1.12586  -1.12312  -1.12283  -1.12251
 Alpha  occ. eigenvalues --   -0.18933  -0.14091  -0.11539  -0.10603
 Alpha virt. eigenvalues --   -0.06742  -0.05542  -0.03817  -0.03281  -0.02655
 Alpha virt. eigenvalues --   -0.02342  -0.02061  -0.01329  -0.00568  -0.00109
 Alpha virt. eigenvalues --    0.00086   0.00184   0.00606   0.00677   0.00779

  Beta  occ. eigenvalues --  -38.44627 -38.44618 -38.44211 -38.44101 -38.43069
  Beta  occ. eigenvalues --  -38.42964 -38.42692  -2.20456  -2.20424  -2.20138
  Beta  occ. eigenvalues --   -2.19935  -2.18963  -2.18911  -2.18604  -1.14154
  Beta  occ. eigenvalues --   -1.14114  -1.14100  -1.14099  -1.14084  -1.14065
  Beta  occ. eigenvalues --   -1.13883  -1.13804  -1.13752  -1.13612  -1.13598
  Beta  occ. eigenvalues --   -1.13550  -1.12756  -1.12646  -1.12621  -1.12593
  Beta  occ. eigenvalues --   -1.12570  -1.12500  -1.12300  -1.12252  -1.12221
  Beta  occ. eigenvalues --   -0.18275  -0.13722  -0.11266
  Beta virt. eigenvalues --   -0.06949  -0.06436  -0.05523  -0.03520  -0.02879
  Beta virt. eigenvalues --   -0.02384  -0.01659  -0.01322  -0.01185  -0.00495
  Beta virt. eigenvalues --    0.00051   0.00091   0.00258   0.00698   0.00747

 Mulliken charges and spin densities:
               1          2
     1  Na  -0.520447   0.332157
     2  Na   0.307548   0.080268
     3  Na  -0.072483   0.303872
     4  Na  -0.028829   0.005911
     5  Na   0.216231   0.077811
     6  Na   0.014203   0.005613
     7  Na   0.083778   0.194369
 Sum of Mulliken charges =  -0.00000   1.00000

 Dipole moment (field-independent basis, Debye):
    X=              0.5764    Y=             -0.2021    Z=             -0.0892  Tot=              0.6173
 Quadrupole moment (field-independent basis, Debye-Ang):
   XX=            -49.0961   YY=            -70.5129   ZZ=            -73.2857
   XY=              0.7055   XZ=              0.5395   YZ=              0.0660

 Normal termination of Gaussian 16 at Fri Dec  8 07:29:51 2023.
