 Gaussian 16, Revision B.01,
 Gaussian 16:  ES64L-G16RevB.01 20-Dec-2017

 -------------------------
 #P B3LYP/6-311+g(d) force
 -------------------------

 -----
 DPGEN
 -----
 Symbolic Z-matrix:
 Charge =  0 Multiplicity = 2

                         Standard orientation:
 ---------------------------------------------------------------------
 Center     Atomic      Atomic             Coordinates (Angstroms)
 Number     Number       Type             X           Y           Z
 ---------------------------------------------------------------------
      1         11           0       -0.719457   -3.126173   -0.235664
      2         11           0       -2.385452    2.706196   -0.296690
      3         11           0        2.912024   -2.172414   -0.326280
      4         11           0       -2.989632   -0.863136   -1.234398
      5         11           0        1.384923    3.168171   -0.356763
      6         11           0        3.975762    0.680908    0.359543
      7         11           0       -2.178168   -0.393551    2.090252
 ---------------------------------------------------------------------

 SCF Done:  E(UB3LYP) =  -1136.10864327     A.U. after   27 cycles

 The electronic state is 2-A.
 Alpha  occ. eigenvalues --  -38.45261 -38.44893 -38.44784 -38.44426 -38.44425
 Alpha  occ. eigenvalues --  -38.44258 -38.43782  -2.21069  -2.20641  -2.20570
 Alpha  occ. eigenvalues --   -2.20227  -2.20175  -2.20080  -2.19588  -1.14746
 Alpha  occ. eigenvalues --   -1.14736  -1.14705  -1.14331  -1.14310  -1.14275
 Alpha  occ. eigenvalues --   -1.14265  -1.14237  -1.14215  -1.13889  -1.13884
 Alpha  occ. eigenvalues --   -1.13870  -1.13852  -1.13834  -1.13794  -1.13735
 Alpha  occ. eigenvalues --   -1.13707  -1.13701  -1.13256  -1.13246  -1.13226
 Alpha  occ. eigenvalues --   -0.16453  -0.13963  -0.12768  -0.09807
 Alpha virt. eigenvalues --   -0.07312  -0.07005  -0.03826  -0.03356  -0.02821
 Alpha virt. eigenvalues --   -0.02525  -0.02370  -0.02074  -0.01554  -0.01088
 Alpha virt. eigenvalues --   -0.00127   0.00079   0.00264   0.00406   0.00438

  Beta  occ. eigenvalues --  -38.45247 -38.44893 -38.44773 -38.44416 -38.44394
  Beta  occ. eigenvalues --  -38.44164 -38.43752  -2.21047  -2.20646  -2.20553
  Beta  occ. eigenvalues --   -2.20211  -2.20116  -2.19906  -2.19534  -1.14730
  Beta  occ. eigenvalues --   -1.14723  -1.14663  -1.14336  -1.14314  -1.14255
  Beta  occ. eigenvalues --   -1.14247  -1.14227  -1.14197  -1.13879  -1.13873
  Beta  occ. eigenvalues --   -1.13848  -1.13811  -1.13795  -1.13754  -1.13616
  Beta  occ. eigenvalues --   -1.13587  -1.13581  -1.13216  -1.13203  -1.13191
  Beta  occ. eigenvalues --   -0.15981  -0.13627  -0.12307
  Beta virt. eigenvalues --   -0.07252  -0.06884  -0.06209  -0.03698  -0.03033
  Beta virt. eigenvalues --   -0.02446  -0.02261  -0.02148  -0.01639  -0.01270
  Beta virt. eigenvalues --   -0.00986   0.00209   0.00294   0.00390   0.00484

 Mulliken charges and spin densities:
               1          2
     1  Na  -0.158442   0.254784
     2  Na   0.057518   0.071454
     3  Na   0.061044  -0.030451
     4  Na   0.314151   0.098022
     5  Na  -0.053252   0.102701
     6  Na  -0.062863   0.075947
     7  Na  -0.158157   0.427542
 Sum of Mulliken charges =  -0.00000   1.00000

 Dipole moment (field-independent basis, Debye):
    X=             -0.1837    Y=              0.0435    Z=             -0.2430  Tot=              0.3077
 Quadrupole moment (field-independent basis, Debye-Ang):
   XX=            -60.3317   YY=            -68.9027   ZZ=            -73.5973
   XY=             -1.9381   XZ=              5.4005   YZ=             -0.9995

 Normal termination of Gaussian 16 at Sun Dec  3 17:08:30 2023.
