 Gaussian 16, Revision B.01,
 Gaussian 16:  ES64L-G16RevB.01 20-Dec-2017

 -------------------------
 #P B3LYP/6-311+g(d) force
 -------------------------

 -----
 DPGEN
 -----
 Symbolic Z-matrix:
 Charge =  0 Multiplicity = 2

                         Standard orientation:
 ---------------------------------------------------------------------
 Center     Atomic      Atomic             Coordinates (Angstroms)
 Number     Number       Type             X           Y           Z
 ---------------------------------------------------------------------
      1         11           0       -3.689296    0.190151    0.036047
      2         11           0        2.131090   -2.401447   -0.072627
      3         11           0        2.872012    1.100626   -0.607107
      4         11           0       -1.455737   -2.337134    0.007367
      5         11           0        0.705783    0.160824    2.213099
      6         11           0       -0.260731    3.274410    0.051520
      7         11           0       -0.303121    0.012569   -1.628298
 ---------------------------------------------------------------------

 SCF Done:  E(UB3LYP) =  -1136.13153976     A.U. after   21 cycles

 The electronic state is 2-A.
 Alpha  occ. eigenvalues --  -38.44612 -38.44259 -38.43890 -38.43794 -38.43584
 Alpha  occ. eigenvalues --  -38.43560 -38.43462  -2.20380  -2.20074  -2.19653
 Alpha  occ. eigenvalues --   -2.19630  -2.19501  -2.19376  -2.19335  -1.14055
 Alpha  occ. eigenvalues --   -1.14035  -1.14022  -1.13757  -1.13738  -1.13696
 Alpha  occ. eigenvalues --   -1.13329  -1.13319  -1.13293  -1.13286  -1.13267
 Alpha  occ. eigenvalues --   -1.13251  -1.13238  -1.13160  -1.13112  -1.13041
 Alpha  occ. eigenvalues --   -1.13039  -1.13030  -1.13005  -1.12995  -1.12931
 Alpha  occ. eigenvalues --   -0.17965  -0.12946  -0.12109  -0.10594
 Alpha virt. eigenvalues --   -0.06211  -0.05245  -0.04735  -0.03198  -0.02796
 Alpha virt. eigenvalues --   -0.02591  -0.01863  -0.01292  -0.00770  -0.00372
 Alpha virt. eigenvalues --   -0.00077   0.00309   0.00690   0.00736   0.00808

  Beta  occ. eigenvalues --  -38.44616 -38.44242 -38.43891 -38.43693 -38.43557
  Beta  occ. eigenvalues --  -38.43531 -38.43456  -2.20388  -2.20045  -2.19656
  Beta  occ. eigenvalues --   -2.19444  -2.19405  -2.19374  -2.19327  -1.14056
  Beta  occ. eigenvalues --   -1.14040  -1.14027  -1.13728  -1.13706  -1.13678
  Beta  occ. eigenvalues --   -1.13323  -1.13313  -1.13296  -1.13199  -1.13159
  Beta  occ. eigenvalues --   -1.13140  -1.13105  -1.13096  -1.13048  -1.13037
  Beta  occ. eigenvalues --   -1.13026  -1.13012  -1.12983  -1.12967  -1.12928
  Beta  occ. eigenvalues --   -0.17257  -0.12762  -0.11940
  Beta virt. eigenvalues --   -0.06669  -0.06158  -0.05182  -0.04665  -0.02520
  Beta virt. eigenvalues --   -0.02094  -0.01773  -0.01552  -0.01216  -0.00783
  Beta virt. eigenvalues --   -0.00404   0.00107   0.00356   0.00740   0.00787

 Mulliken charges and spin densities:
               1          2
     1  Na   0.011079  -0.065779
     2  Na   0.188796   0.045016
     3  Na   0.253349   0.029793
     4  Na   0.084605  -0.022054
     5  Na  -0.536055   0.767597
     6  Na  -0.112112  -0.103033
     7  Na   0.110338   0.348459
 Sum of Mulliken charges =  -0.00000   1.00000

 Dipole moment (field-independent basis, Debye):
    X=             -0.2492    Y=              0.2654    Z=              0.0476  Tot=              0.3671
 Quadrupole moment (field-independent basis, Debye-Ang):
   XX=            -54.6286   YY=            -63.3714   ZZ=            -75.2180
   XY=             -2.0330   XZ=             -2.1255   YZ=             -0.1809

 Normal termination of Gaussian 16 at Fri Dec  8 06:51:22 2023.
