 Gaussian 16, Revision B.01,
 Gaussian 16:  ES64L-G16RevB.01 20-Dec-2017

 -------------------------
 #P B3LYP/6-311+g(d) force
 -------------------------

 -----
 DPGEN
 -----
 Symbolic Z-matrix:
 Charge =  0 Multiplicity = 2

                         Standard orientation:
 ---------------------------------------------------------------------
 Center     Atomic      Atomic             Coordinates (Angstroms)
 Number     Number       Type             X           Y           Z
 ---------------------------------------------------------------------
      1         11           0       -0.100609   -0.164533    1.824777
      2         11           0       -0.011513    0.152074   -1.675922
      3         11           0        2.656367   -0.840749   -0.091333
      4         11           0        1.595262    1.747539    0.069312
      5         11           0       -0.060965   -2.093553   -0.058256
      6         11           0       -1.343654    1.856521    0.075641
      7         11           0       -2.734888   -0.657299   -0.144218
 ---------------------------------------------------------------------

 SCF Done:  E(UB3LYP) =  -1136.09142718     A.U. after   19 cycles

 The electronic state is 2-A.
 Alpha  occ. eigenvalues --  -38.44063 -38.43993 -38.43992 -38.43972 -38.43345
 Alpha  occ. eigenvalues --  -38.43262 -38.43194  -2.20256  -2.20243  -2.20012
 Alpha  occ. eigenvalues --   -2.19988  -2.19467  -2.19402  -2.19348  -1.14126
 Alpha  occ. eigenvalues --   -1.14041  -1.14007  -1.13938  -1.13916  -1.13832
 Alpha  occ. eigenvalues --   -1.13788  -1.13715  -1.13675  -1.13648  -1.13619
 Alpha  occ. eigenvalues --   -1.13601  -1.13224  -1.13086  -1.13067  -1.13036
 Alpha  occ. eigenvalues --   -1.13020  -1.12992  -1.12970  -1.12916  -1.12884
 Alpha  occ. eigenvalues --   -0.21357  -0.14098  -0.12625  -0.11976
 Alpha virt. eigenvalues --   -0.05562  -0.04351  -0.03878  -0.03701  -0.02951
 Alpha virt. eigenvalues --   -0.02676  -0.01489  -0.00482  -0.00058   0.00328
 Alpha virt. eigenvalues --    0.00603   0.00667   0.01014   0.01107   0.01170

  Beta  occ. eigenvalues --  -38.43985 -38.43966 -38.43964 -38.43905 -38.43331
  Beta  occ. eigenvalues --  -38.43247 -38.43176  -2.20098  -2.20068  -2.20005
  Beta  occ. eigenvalues --   -2.19978  -2.19450  -2.19382  -2.19324  -1.14038
  Beta  occ. eigenvalues --   -1.13935  -1.13893  -1.13866  -1.13801  -1.13774
  Beta  occ. eigenvalues --   -1.13720  -1.13707  -1.13651  -1.13624  -1.13576
  Beta  occ. eigenvalues --   -1.13551  -1.13211  -1.13069  -1.13025  -1.13008
  Beta  occ. eigenvalues --   -1.12975  -1.12947  -1.12909  -1.12885  -1.12876
  Beta  occ. eigenvalues --   -0.20539  -0.13742  -0.12265
  Beta virt. eigenvalues --   -0.07807  -0.05580  -0.04341  -0.03843  -0.02750
  Beta virt. eigenvalues --   -0.02051  -0.01598  -0.01405  -0.00443   0.00084
  Beta virt. eigenvalues --    0.00354   0.00592   0.00644   0.01023   0.01123

 Mulliken charges and spin densities:
               1          2
     1  Na  -0.348839   0.514225
     2  Na  -0.345869   0.427704
     3  Na  -0.044670  -0.058443
     4  Na   0.202597   0.062029
     5  Na   0.251359   0.044853
     6  Na   0.235647   0.073574
     7  Na   0.049775  -0.063943
 Sum of Mulliken charges =  -0.00000   1.00000

 Dipole moment (field-independent basis, Debye):
    X=             -0.0444    Y=             -0.1603    Z=              0.1419  Tot=              0.2186
 Quadrupole moment (field-independent basis, Debye-Ang):
   XX=            -55.5766   YY=            -71.0913   ZZ=            -69.7077
   XY=              0.0520   XZ=              0.2206   YZ=              0.6804

 Normal termination of Gaussian 16 at Tue Dec  5 11:30:15 2023.
