 Gaussian 16, Revision B.01,
 Gaussian 16:  ES64L-G16RevB.01 20-Dec-2017

 -------------------------
 #P B3LYP/6-311+g(d) force
 -------------------------

 -----
 DPGEN
 -----
 Symbolic Z-matrix:
 Charge =  0 Multiplicity = 2

                         Standard orientation:
 ---------------------------------------------------------------------
 Center     Atomic      Atomic             Coordinates (Angstroms)
 Number     Number       Type             X           Y           Z
 ---------------------------------------------------------------------
      1         11           0       -3.921970   -1.743887    0.223780
      2         11           0       -0.352099   -0.982355   -0.866045
      3         11           0        2.646896   -2.195251   -1.257345
      4         11           0       -1.784371    2.470440   -1.325812
      5         11           0        3.303160    0.275105    1.057084
      6         11           0        0.949695    2.208455   -0.073936
      7         11           0       -0.841312   -0.032507    2.242275
 ---------------------------------------------------------------------

 SCF Done:  E(UB3LYP) =  -1136.11803104     A.U. after   22 cycles

 The electronic state is 2-A.
 Alpha  occ. eigenvalues --  -38.45200 -38.44717 -38.44582 -38.43778 -38.43710
 Alpha  occ. eigenvalues --  -38.43702 -38.42881  -2.21007  -2.20439  -2.20403
 Alpha  occ. eigenvalues --   -2.19607  -2.19605  -2.19547  -2.18804  -1.14710
 Alpha  occ. eigenvalues --   -1.14647  -1.14587  -1.14120  -1.14119  -1.14096
 Alpha  occ. eigenvalues --   -1.14067  -1.14052  -1.14028  -1.13336  -1.13321
 Alpha  occ. eigenvalues --   -1.13259  -1.13247  -1.13237  -1.13226  -1.13191
 Alpha  occ. eigenvalues --   -1.13183  -1.13162  -1.12476  -1.12463  -1.12452
 Alpha  occ. eigenvalues --   -0.17843  -0.13101  -0.11906  -0.11171
 Alpha virt. eigenvalues --   -0.06833  -0.05351  -0.04261  -0.03265  -0.02812
 Alpha virt. eigenvalues --   -0.02590  -0.02337  -0.01385  -0.00719  -0.00267
 Alpha virt. eigenvalues --   -0.00029   0.00118   0.00212   0.00567   0.00733

  Beta  occ. eigenvalues --  -38.45127 -38.44738 -38.44560 -38.43737 -38.43674
  Beta  occ. eigenvalues --  -38.43663 -38.42870  -2.20872  -2.20480  -2.20364
  Beta  occ. eigenvalues --   -2.19544  -2.19531  -2.19473  -2.18790  -1.14620
  Beta  occ. eigenvalues --   -1.14559  -1.14483  -1.14149  -1.14143  -1.14092
  Beta  occ. eigenvalues --   -1.14071  -1.14020  -1.13994  -1.13275  -1.13266
  Beta  occ. eigenvalues --   -1.13212  -1.13198  -1.13192  -1.13179  -1.13137
  Beta  occ. eigenvalues --   -1.13131  -1.13112  -1.12470  -1.12455  -1.12405
  Beta  occ. eigenvalues --   -0.17127  -0.12929  -0.11522
  Beta virt. eigenvalues --   -0.07541  -0.06594  -0.05007  -0.03880  -0.02943
  Beta virt. eigenvalues --   -0.02378  -0.02316  -0.01819  -0.01116  -0.00437
  Beta virt. eigenvalues --   -0.00195   0.00017   0.00169   0.00360   0.00682

 Mulliken charges and spin densities:
               1          2
     1  Na   0.247190  -0.099029
     2  Na  -0.473829   0.357878
     3  Na  -0.019054   0.064297
     4  Na   0.005702   0.092724
     5  Na   0.390208   0.096199
     6  Na  -0.018984   0.089477
     7  Na  -0.131233   0.398456
 Sum of Mulliken charges =  -0.00000   1.00000

 Dipole moment (field-independent basis, Debye):
    X=             -0.4669    Y=             -0.1038    Z=              0.5386  Tot=              0.7203
 Quadrupole moment (field-independent basis, Debye-Ang):
   XX=            -51.9283   YY=            -72.9116   ZZ=            -68.9177
   XY=             -0.2717   XZ=              2.9794   YZ=              1.3157

 Normal termination of Gaussian 16 at Mon Dec  4 01:03:25 2023.
