 Gaussian 16, Revision B.01,
 Gaussian 16:  ES64L-G16RevB.01 20-Dec-2017

 -------------------------
 #P B3LYP/6-311+g(d) force
 -------------------------

 -----
 DPGEN
 -----
 Symbolic Z-matrix:
 Charge =  0 Multiplicity = 2

                         Standard orientation:
 ---------------------------------------------------------------------
 Center     Atomic      Atomic             Coordinates (Angstroms)
 Number     Number       Type             X           Y           Z
 ---------------------------------------------------------------------
      1         11           0       -2.307073    1.336121   -1.060983
      2         11           0        3.677173    0.018095   -0.126649
      3         11           0       -1.008781   -2.081096    0.488016
      4         11           0        0.583674    3.430941   -0.469811
      5         11           0        2.554982   -2.614709   -0.899938
      6         11           0       -4.425867   -1.060836    0.155504
      7         11           0        0.925892    0.971484    1.913861
 ---------------------------------------------------------------------

 SCF Done:  E(UB3LYP) =  -1136.11757959     A.U. after   22 cycles

 The electronic state is 2-A.
 Alpha  occ. eigenvalues --  -38.44760 -38.44671 -38.44260 -38.44093 -38.44064
 Alpha  occ. eigenvalues --  -38.43963 -38.43781  -2.20542  -2.20509  -2.20055
 Alpha  occ. eigenvalues --   -2.19891  -2.19883  -2.19791  -2.19565  -1.14224
 Alpha  occ. eigenvalues --   -1.14211  -1.14206  -1.14177  -1.14165  -1.14133
 Alpha  occ. eigenvalues --   -1.13749  -1.13723  -1.13659  -1.13571  -1.13563
 Alpha  occ. eigenvalues --   -1.13554  -1.13540  -1.13505  -1.13486  -1.13465
 Alpha  occ. eigenvalues --   -1.13441  -1.13411  -1.13237  -1.13222  -1.13209
 Alpha  occ. eigenvalues --   -0.16785  -0.13840  -0.12424  -0.10212
 Alpha virt. eigenvalues --   -0.07144  -0.05488  -0.04465  -0.03441  -0.03206
 Alpha virt. eigenvalues --   -0.02646  -0.01651  -0.01497  -0.01046  -0.00776
 Alpha virt. eigenvalues --   -0.00280   0.00007   0.00258   0.00522   0.00680

  Beta  occ. eigenvalues --  -38.44755 -38.44638 -38.44226 -38.44051 -38.44001
  Beta  occ. eigenvalues --  -38.43942 -38.43779  -2.20535  -2.20453  -2.19993
  Beta  occ. eigenvalues --   -2.19809  -2.19773  -2.19756  -2.19564  -1.14207
  Beta  occ. eigenvalues --   -1.14189  -1.14182  -1.14173  -1.14124  -1.14081
  Beta  occ. eigenvalues --   -1.13708  -1.13674  -1.13614  -1.13519  -1.13497
  Beta  occ. eigenvalues --   -1.13479  -1.13464  -1.13439  -1.13434  -1.13420
  Beta  occ. eigenvalues --   -1.13419  -1.13374  -1.13234  -1.13221  -1.13200
  Beta  occ. eigenvalues --   -0.16214  -0.13389  -0.12195
  Beta virt. eigenvalues --   -0.06970  -0.06789  -0.05176  -0.04239  -0.02934
  Beta virt. eigenvalues --   -0.02808  -0.02462  -0.01400  -0.01139  -0.00855
  Beta virt. eigenvalues --   -0.00664   0.00007   0.00117   0.00416   0.00599

 Mulliken charges and spin densities:
               1          2
     1  Na  -0.469976   0.279087
     2  Na  -0.473476   0.226555
     3  Na  -0.716262   0.151311
     4  Na   0.276490  -0.106838
     5  Na   0.557069   0.053322
     6  Na   0.527370  -0.029340
     7  Na   0.298786   0.425904
 Sum of Mulliken charges =  -0.00000   1.00000

 Dipole moment (field-independent basis, Debye):
    X=             -0.6827    Y=             -0.0826    Z=              0.2142  Tot=              0.7203
 Quadrupole moment (field-independent basis, Debye-Ang):
   XX=            -60.0612   YY=            -65.9660   ZZ=            -72.0497
   XY=              7.8956   XZ=             -0.3117   YZ=              0.2753

 Normal termination of Gaussian 16 at Sun Dec  3 23:13:17 2023.
