 Gaussian 16, Revision B.01,
 Gaussian 16:  ES64L-G16RevB.01 20-Dec-2017

 -------------------------
 #P B3LYP/6-311+g(d) force
 -------------------------

 -----
 DPGEN
 -----
 Symbolic Z-matrix:
 Charge =  0 Multiplicity = 2

                         Standard orientation:
 ---------------------------------------------------------------------
 Center     Atomic      Atomic             Coordinates (Angstroms)
 Number     Number       Type             X           Y           Z
 ---------------------------------------------------------------------
      1         11           0       -0.168554    2.848837   -0.502351
      2         11           0       -1.713413   -2.355515   -0.355570
      3         11           0        2.605267    0.876285   -0.134397
      4         11           0        1.947294   -2.217710    0.203920
      5         11           0        0.307360    0.331231    2.028453
      6         11           0       -0.190925   -0.069906   -1.856783
      7         11           0       -2.787028    0.586778    0.616727
 ---------------------------------------------------------------------

 SCF Done:  E(UB3LYP) =  -1136.13812302     A.U. after   19 cycles

 The electronic state is 2-A.
 Alpha  occ. eigenvalues --  -38.43900 -38.43620 -38.43577 -38.43414 -38.43394
 Alpha  occ. eigenvalues --  -38.43352 -38.43235  -2.19827  -2.19558  -2.19488
 Alpha  occ. eigenvalues --   -2.19342  -2.19255  -2.19222  -2.19115  -1.13504
 Alpha  occ. eigenvalues --   -1.13477  -1.13442  -1.13247  -1.13235  -1.13189
 Alpha  occ. eigenvalues --   -1.13168  -1.13139  -1.13124  -1.13049  -1.13012
 Alpha  occ. eigenvalues --   -1.12991  -1.12923  -1.12905  -1.12899  -1.12873
 Alpha  occ. eigenvalues --   -1.12866  -1.12838  -1.12798  -1.12759  -1.12741
 Alpha  occ. eigenvalues --   -0.19056  -0.13017  -0.12523  -0.11437
 Alpha virt. eigenvalues --   -0.05010  -0.04921  -0.04668  -0.03473  -0.03176
 Alpha virt. eigenvalues --   -0.02983  -0.01102  -0.01002  -0.00183   0.00063
 Alpha virt. eigenvalues --    0.00119   0.00388   0.00913   0.00940   0.00960

  Beta  occ. eigenvalues --  -38.43815 -38.43605 -38.43499 -38.43406 -38.43392
  Beta  occ. eigenvalues --  -38.43347 -38.43222  -2.19670  -2.19462  -2.19416
  Beta  occ. eigenvalues --   -2.19333  -2.19253  -2.19215  -2.19096  -1.13402
  Beta  occ. eigenvalues --   -1.13366  -1.13330  -1.13168  -1.13142  -1.13133
  Beta  occ. eigenvalues --   -1.13114  -1.13110  -1.13083  -1.13040  -1.12999
  Beta  occ. eigenvalues --   -1.12959  -1.12913  -1.12893  -1.12879  -1.12868
  Beta  occ. eigenvalues --   -1.12851  -1.12837  -1.12774  -1.12742  -1.12721
  Beta  occ. eigenvalues --   -0.18294  -0.12760  -0.12257
  Beta virt. eigenvalues --   -0.07474  -0.04935  -0.04926  -0.04607  -0.02671
  Beta virt. eigenvalues --   -0.02400  -0.01923  -0.01014  -0.00923  -0.00109
  Beta virt. eigenvalues --    0.00056   0.00125   0.00408   0.00935   0.00951

 Mulliken charges and spin densities:
               1          2
     1  Na   0.243851  -0.006449
     2  Na   0.126249  -0.048660
     3  Na   0.319422  -0.015374
     4  Na  -0.021377  -0.059408
     5  Na  -0.412696   0.560591
     6  Na  -0.298830   0.506236
     7  Na   0.043382   0.063063
 Sum of Mulliken charges =  -0.00000   1.00000

 Dipole moment (field-independent basis, Debye):
    X=             -0.0351    Y=              0.0305    Z=              0.1699  Tot=              0.1762
 Quadrupole moment (field-independent basis, Debye-Ang):
   XX=            -61.9640   YY=            -62.9636   ZZ=            -70.5775
   XY=             -0.4635   XZ=             -1.0748   YZ=             -0.7160

 Normal termination of Gaussian 16 at Tue Dec  5 14:46:11 2023.
