 Gaussian 16, Revision B.01,
 Gaussian 16:  ES64L-G16RevB.01 20-Dec-2017

 -------------------------
 #P B3LYP/6-311+g(d) force
 -------------------------

 -----
 DPGEN
 -----
 Symbolic Z-matrix:
 Charge =  0 Multiplicity = 2

                         Standard orientation:
 ---------------------------------------------------------------------
 Center     Atomic      Atomic             Coordinates (Angstroms)
 Number     Number       Type             X           Y           Z
 ---------------------------------------------------------------------
      1         11           0        1.061384    0.048732    1.889179
      2         11           0       -3.279886    0.243471   -1.824800
      3         11           0        2.916868    1.806866   -0.275671
      4         11           0       -3.009078   -1.713762    1.343883
      5         11           0       -1.229174    2.397500    0.425638
      6         11           0       -0.119000   -0.912817   -0.815861
      7         11           0        3.658885   -1.869990   -0.742368
 ---------------------------------------------------------------------

 SCF Done:  E(UB3LYP) =  -1136.11737177     A.U. after   25 cycles

 The electronic state is 2-A.
 Alpha  occ. eigenvalues --  -38.45210 -38.44825 -38.44335 -38.44209 -38.44138
 Alpha  occ. eigenvalues --  -38.43512 -38.43213  -2.20989  -2.20598  -2.20199
 Alpha  occ. eigenvalues --   -2.20096  -2.19960  -2.19280  -2.19012  -1.14693
 Alpha  occ. eigenvalues --   -1.14651  -1.14592  -1.14264  -1.14247  -1.14221
 Alpha  occ. eigenvalues --   -1.14011  -1.13871  -1.13797  -1.13772  -1.13716
 Alpha  occ. eigenvalues --   -1.13683  -1.13628  -1.13597  -1.13573  -1.12956
 Alpha  occ. eigenvalues --   -1.12945  -1.12909  -1.12697  -1.12690  -1.12630
 Alpha  occ. eigenvalues --   -0.17670  -0.13893  -0.10935  -0.10709
 Alpha virt. eigenvalues --   -0.06687  -0.05671  -0.05131  -0.02939  -0.02643
 Alpha virt. eigenvalues --   -0.02551  -0.02098  -0.01517  -0.01008  -0.00480
 Alpha virt. eigenvalues --    0.00066   0.00135   0.00177   0.00266   0.00502

  Beta  occ. eigenvalues --  -38.45208 -38.44779 -38.44328 -38.44160 -38.44076
  Beta  occ. eigenvalues --  -38.43505 -38.43203  -2.20986  -2.20513  -2.20193
  Beta  occ. eigenvalues --   -2.20007  -2.19845  -2.19268  -2.18997  -1.14688
  Beta  occ. eigenvalues --   -1.14650  -1.14586  -1.14207  -1.14176  -1.14165
  Beta  occ. eigenvalues --   -1.13970  -1.13854  -1.13795  -1.13725  -1.13642
  Beta  occ. eigenvalues --   -1.13626  -1.13548  -1.13516  -1.13496  -1.12946
  Beta  occ. eigenvalues --   -1.12936  -1.12903  -1.12687  -1.12671  -1.12612
  Beta  occ. eigenvalues --   -0.17081  -0.13506  -0.10673
  Beta virt. eigenvalues --   -0.07226  -0.06426  -0.05517  -0.04536  -0.02838
  Beta virt. eigenvalues --   -0.02472  -0.01822  -0.01629  -0.01303  -0.00719
  Beta virt. eigenvalues --   -0.00330   0.00132   0.00214   0.00363   0.00382

 Mulliken charges and spin densities:
               1          2
     1  Na   0.354141   0.307091
     2  Na   0.569169   0.151246
     3  Na   0.239258   0.019719
     4  Na   0.121183   0.215156
     5  Na  -0.129932   0.040785
     6  Na  -1.152374   0.175540
     7  Na  -0.001445   0.090465
 Sum of Mulliken charges =  -0.00000   1.00000

 Dipole moment (field-independent basis, Debye):
    X=             -0.0877    Y=              0.5510    Z=              0.3933  Tot=              0.6826
 Quadrupole moment (field-independent basis, Debye-Ang):
   XX=            -53.4009   YY=            -72.9632   ZZ=            -68.8185
   XY=              3.8668   XZ=             -1.1402   YZ=             -3.7006

 Normal termination of Gaussian 16 at Fri Dec  8 06:36:57 2023.
