 Gaussian 16, Revision B.01,
 Gaussian 16:  ES64L-G16RevB.01 20-Dec-2017

 -------------------------
 #P B3LYP/6-311+g(d) force
 -------------------------

 -----
 DPGEN
 -----
 Symbolic Z-matrix:
 Charge =  0 Multiplicity = 2

                         Standard orientation:
 ---------------------------------------------------------------------
 Center     Atomic      Atomic             Coordinates (Angstroms)
 Number     Number       Type             X           Y           Z
 ---------------------------------------------------------------------
      1         11           0       -0.359545   -2.731278   -0.487076
      2         11           0        1.852050    2.137763   -0.426215
      3         11           0        0.384186   -0.403733    2.156614
      4         11           0       -0.015624    0.381864   -1.549281
      5         11           0       -1.697278    2.568472    0.382500
      6         11           0        2.807118   -1.077050    0.031725
      7         11           0       -2.970907   -0.876040   -0.108267
 ---------------------------------------------------------------------

 SCF Done:  E(UB3LYP) =  -1136.13442139     A.U. after   20 cycles

 The electronic state is 2-A.
 Alpha  occ. eigenvalues --  -38.43881 -38.43789 -38.43694 -38.43654 -38.43599
 Alpha  occ. eigenvalues --  -38.43282 -38.43253  -2.19759  -2.19625  -2.19611
 Alpha  occ. eigenvalues --   -2.19475  -2.19472  -2.19297  -2.19170  -1.13501
 Alpha  occ. eigenvalues --   -1.13426  -1.13390  -1.13382  -1.13310  -1.13289
 Alpha  occ. eigenvalues --   -1.13270  -1.13242  -1.13219  -1.13148  -1.13141
 Alpha  occ. eigenvalues --   -1.13135  -1.13132  -1.13107  -1.13100  -1.12959
 Alpha  occ. eigenvalues --   -1.12919  -1.12886  -1.12828  -1.12825  -1.12791
 Alpha  occ. eigenvalues --   -0.18836  -0.12986  -0.12615  -0.10994
 Alpha virt. eigenvalues --   -0.05288  -0.05201  -0.04663  -0.03225  -0.03127
 Alpha virt. eigenvalues --   -0.02680  -0.01327  -0.01075  -0.00242  -0.00180
 Alpha virt. eigenvalues --    0.00003   0.00357   0.00836   0.00900   0.00927

  Beta  occ. eigenvalues --  -38.43788 -38.43784 -38.43681 -38.43647 -38.43594
  Beta  occ. eigenvalues --  -38.43269 -38.43195  -2.19626  -2.19591  -2.19580
  Beta  occ. eigenvalues --   -2.19469  -2.19461  -2.19193  -2.19149  -1.13465
  Beta  occ. eigenvalues --   -1.13315  -1.13307  -1.13285  -1.13268  -1.13260
  Beta  occ. eigenvalues --   -1.13256  -1.13218  -1.13200  -1.13139  -1.13128
  Beta  occ. eigenvalues --   -1.13117  -1.13112  -1.13098  -1.13089  -1.12899
  Beta  occ. eigenvalues --   -1.12857  -1.12812  -1.12806  -1.12786  -1.12771
  Beta  occ. eigenvalues --   -0.18117  -0.12726  -0.12384
  Beta virt. eigenvalues --   -0.07066  -0.05271  -0.05119  -0.04609  -0.02457
  Beta virt. eigenvalues --   -0.02354  -0.01626  -0.01243  -0.01001  -0.00258
  Beta virt. eigenvalues --   -0.00207   0.00139   0.00390   0.00890   0.00916

 Mulliken charges and spin densities:
               1          2
     1  Na   0.219796  -0.008822
     2  Na   0.398608   0.018819
     3  Na  -0.698112   0.739725
     4  Na  -0.236142   0.210344
     5  Na  -0.049790   0.054577
     6  Na   0.392814   0.030549
     7  Na  -0.027175  -0.045192
 Sum of Mulliken charges =  -0.00000   1.00000

 Dipole moment (field-independent basis, Debye):
    X=             -0.0715    Y=              0.0226    Z=              0.3368  Tot=              0.3450
 Quadrupole moment (field-independent basis, Debye-Ang):
   XX=            -58.3637   YY=            -62.9995   ZZ=            -73.0015
   XY=             -0.7773   XZ=             -1.1614   YZ=              1.7186

 Normal termination of Gaussian 16 at Tue Dec  5 10:52:21 2023.
