 Gaussian 16, Revision B.01,
 Gaussian 16:  ES64L-G16RevB.01 20-Dec-2017

 -------------------------
 #P B3LYP/6-311+g(d) force
 -------------------------

 -----
 DPGEN
 -----
 Symbolic Z-matrix:
 Charge =  0 Multiplicity = 2

                         Standard orientation:
 ---------------------------------------------------------------------
 Center     Atomic      Atomic             Coordinates (Angstroms)
 Number     Number       Type             X           Y           Z
 ---------------------------------------------------------------------
      1         11           0       -0.085263    0.425120   -1.755130
      2         11           0       -0.937621   -2.548480   -0.553491
      3         11           0       -0.133969   -0.613448    2.052101
      4         11           0        2.081912   -1.693159   -0.150128
      5         11           0       -3.362067    0.433295    0.199702
      6         11           0       -0.349193    2.739432   -0.004362
      7         11           0        2.786201    1.257240    0.211308
 ---------------------------------------------------------------------

 SCF Done:  E(UB3LYP) =  -1136.13266039     A.U. after   20 cycles

 The electronic state is 2-A.
 Alpha  occ. eigenvalues --  -38.44452 -38.43822 -38.43689 -38.43484 -38.43425
 Alpha  occ. eigenvalues --  -38.43276 -38.43258  -2.20223  -2.19716  -2.19561
 Alpha  occ. eigenvalues --   -2.19420  -2.19358  -2.19216  -2.19178  -1.13900
 Alpha  occ. eigenvalues --   -1.13873  -1.13865  -1.13396  -1.13351  -1.13334
 Alpha  occ. eigenvalues --   -1.13293  -1.13284  -1.13211  -1.13197  -1.13094
 Alpha  occ. eigenvalues --   -1.13016  -1.13006  -1.12955  -1.12944  -1.12929
 Alpha  occ. eigenvalues --   -1.12870  -1.12857  -1.12835  -1.12822  -1.12766
 Alpha  occ. eigenvalues --   -0.18936  -0.12907  -0.12608  -0.11062
 Alpha virt. eigenvalues --   -0.05886  -0.04704  -0.04530  -0.03241  -0.03176
 Alpha virt. eigenvalues --   -0.02696  -0.01671  -0.00891  -0.00161  -0.00051
 Alpha virt. eigenvalues --   -0.00018   0.00354   0.00823   0.00877   0.00935

  Beta  occ. eigenvalues --  -38.44451 -38.43738 -38.43684 -38.43479 -38.43354
  Beta  occ. eigenvalues --  -38.43260 -38.43248  -2.20222  -2.19562  -2.19555
  Beta  occ. eigenvalues --   -2.19358  -2.19285  -2.19203  -2.19152  -1.13886
  Beta  occ. eigenvalues --   -1.13874  -1.13867  -1.13301  -1.13288  -1.13245
  Beta  occ. eigenvalues --   -1.13235  -1.13220  -1.13197  -1.13178  -1.13021
  Beta  occ. eigenvalues --   -1.12982  -1.12959  -1.12924  -1.12914  -1.12886
  Beta  occ. eigenvalues --   -1.12860  -1.12814  -1.12808  -1.12781  -1.12752
  Beta  occ. eigenvalues --   -0.18174  -0.12690  -0.12360
  Beta virt. eigenvalues --   -0.07114  -0.05840  -0.04691  -0.04454  -0.02497
  Beta virt. eigenvalues --   -0.02393  -0.01672  -0.01537  -0.00817  -0.00188
  Beta virt. eigenvalues --   -0.00081   0.00105   0.00373   0.00853   0.00926

 Mulliken charges and spin densities:
               1          2
     1  Na  -0.312528   0.338230
     2  Na   0.343427  -0.016021
     3  Na  -0.724566   0.684611
     4  Na   0.438115   0.106360
     5  Na  -0.015585  -0.074236
     6  Na   0.245601  -0.023963
     7  Na   0.025536  -0.014981
 Sum of Mulliken charges =  -0.00000   1.00000

 Dipole moment (field-independent basis, Debye):
    X=             -0.5054    Y=              0.1248    Z=              0.2652  Tot=              0.5843
 Quadrupole moment (field-independent basis, Debye-Ang):
   XX=            -56.4402   YY=            -65.7506   ZZ=            -72.2085
   XY=              0.6261   XZ=              0.0427   YZ=              2.1002

 Normal termination of Gaussian 16 at Thu Dec  7 01:56:16 2023.
