 Gaussian 16, Revision B.01,
 Gaussian 16:  ES64L-G16RevB.01 20-Dec-2017

 -------------------------
 #P B3LYP/6-311+g(d) force
 -------------------------

 -----
 DPGEN
 -----
 Symbolic Z-matrix:
 Charge =  0 Multiplicity = 2

                         Standard orientation:
 ---------------------------------------------------------------------
 Center     Atomic      Atomic             Coordinates (Angstroms)
 Number     Number       Type             X           Y           Z
 ---------------------------------------------------------------------
      1         11           0        0.052876   -1.978437    0.196689
      2         11           0        0.188866    0.274348    1.783766
      3         11           0        2.591864   -0.831093    0.055712
      4         11           0        0.036090   -0.096892   -1.762168
      5         11           0        1.307476    1.908751   -0.329202
      6         11           0       -2.521972   -1.052148   -0.108104
      7         11           0       -1.655200    1.775470    0.163308
 ---------------------------------------------------------------------

 SCF Done:  E(UB3LYP) =  -1136.08903014     A.U. after   19 cycles

 The electronic state is 2-A.
 Alpha  occ. eigenvalues --  -38.44139 -38.44134 -38.43808 -38.43746 -38.43556
 Alpha  occ. eigenvalues --  -38.43320 -38.43285  -2.20370  -2.20348  -2.19851
 Alpha  occ. eigenvalues --   -2.19811  -2.19760  -2.19442  -2.19360  -1.14265
 Alpha  occ. eigenvalues --   -1.14169  -1.14114  -1.14053  -1.13990  -1.13945
 Alpha  occ. eigenvalues --   -1.13807  -1.13584  -1.13524  -1.13462  -1.13449
 Alpha  occ. eigenvalues --   -1.13412  -1.13340  -1.13317  -1.13174  -1.13156
 Alpha  occ. eigenvalues --   -1.13083  -1.13052  -1.13016  -1.12979  -1.12894
 Alpha  occ. eigenvalues --   -0.21429  -0.13895  -0.12810  -0.12148
 Alpha virt. eigenvalues --   -0.05209  -0.04408  -0.03969  -0.03637  -0.03167
 Alpha virt. eigenvalues --   -0.02838  -0.01241  -0.00508  -0.00082   0.00345
 Alpha virt. eigenvalues --    0.00715   0.00763   0.00992   0.01115   0.01145

  Beta  occ. eigenvalues --  -38.44045 -38.44040 -38.43802 -38.43737 -38.43534
  Beta  occ. eigenvalues --  -38.43302 -38.43274  -2.20202  -2.20179  -2.19841
  Beta  occ. eigenvalues --   -2.19797  -2.19737  -2.19417  -2.19344  -1.14177
  Beta  occ. eigenvalues --   -1.14051  -1.13999  -1.13944  -1.13901  -1.13824
  Beta  occ. eigenvalues --   -1.13767  -1.13569  -1.13524  -1.13457  -1.13404
  Beta  occ. eigenvalues --   -1.13359  -1.13299  -1.13247  -1.13160  -1.13149
  Beta  occ. eigenvalues --   -1.13045  -1.13004  -1.12992  -1.12939  -1.12887
  Beta  occ. eigenvalues --   -0.20609  -0.13541  -0.12449
  Beta virt. eigenvalues --   -0.07958  -0.05235  -0.04395  -0.03935  -0.02693
  Beta virt. eigenvalues --   -0.02245  -0.01743  -0.01168  -0.00469   0.00064
  Beta virt. eigenvalues --    0.00369   0.00687   0.00747   0.01021   0.01124

 Mulliken charges and spin densities:
               1          2
     1  Na   0.172240   0.128585
     2  Na  -0.240806   0.480153
     3  Na   0.069845  -0.087603
     4  Na  -0.250944   0.496824
     5  Na   0.182998   0.028228
     6  Na  -0.111741  -0.074503
     7  Na   0.178408   0.028316
 Sum of Mulliken charges =  -0.00000   1.00000

 Dipole moment (field-independent basis, Debye):
    X=             -0.0236    Y=              0.1555    Z=              0.0041  Tot=              0.1573
 Quadrupole moment (field-independent basis, Debye-Ang):
   XX=            -57.8190   YY=            -70.2184   ZZ=            -68.9593
   XY=             -0.1726   XZ=             -0.0883   YZ=             -0.4197

 Normal termination of Gaussian 16 at Thu Dec  7 15:14:04 2023.
