 Gaussian 16, Revision B.01,
 Gaussian 16:  ES64L-G16RevB.01 20-Dec-2017

 -------------------------
 #P B3LYP/6-311+g(d) force
 -------------------------

 -----
 DPGEN
 -----
 Symbolic Z-matrix:
 Charge =  0 Multiplicity = 2

                         Standard orientation:
 ---------------------------------------------------------------------
 Center     Atomic      Atomic             Coordinates (Angstroms)
 Number     Number       Type             X           Y           Z
 ---------------------------------------------------------------------
      1         11           0       -2.204917    1.572336    0.233898
      2         11           0       -3.023806   -1.526632   -0.247580
      3         11           0        3.095694    0.083623   -0.614468
      4         11           0        1.589037   -2.813020    0.428714
      5         11           0        1.010549    2.959075    0.153189
      6         11           0       -0.450342   -0.154331   -1.921094
      7         11           0       -0.016215   -0.121051    1.967343
 ---------------------------------------------------------------------

 SCF Done:  E(UB3LYP) =  -1136.13430397     A.U. after   19 cycles

 The electronic state is 2-A.
 Alpha  occ. eigenvalues --  -38.44153 -38.44078 -38.44050 -38.43824 -38.43563
 Alpha  occ. eigenvalues --  -38.43546 -38.43067  -2.19962  -2.19935  -2.19909
 Alpha  occ. eigenvalues --   -2.19713  -2.19472  -2.19366  -2.18881  -1.13641
 Alpha  occ. eigenvalues --   -1.13638  -1.13620  -1.13598  -1.13594  -1.13581
 Alpha  occ. eigenvalues --   -1.13573  -1.13548  -1.13516  -1.13399  -1.13355
 Alpha  occ. eigenvalues --   -1.13330  -1.13153  -1.13146  -1.13073  -1.13037
 Alpha  occ. eigenvalues --   -1.13015  -1.13012  -1.12554  -1.12538  -1.12535
 Alpha  occ. eigenvalues --   -0.18314  -0.13229  -0.12018  -0.11023
 Alpha virt. eigenvalues --   -0.05762  -0.05112  -0.04747  -0.03422  -0.02874
 Alpha virt. eigenvalues --   -0.02788  -0.01639  -0.01096  -0.00503  -0.00191
 Alpha virt. eigenvalues --   -0.00055   0.00348   0.00742   0.00839   0.00845

  Beta  occ. eigenvalues --  -38.44140 -38.44076 -38.43979 -38.43736 -38.43556
  Beta  occ. eigenvalues --  -38.43534 -38.43068  -2.19940  -2.19906  -2.19803
  Beta  occ. eigenvalues --   -2.19553  -2.19455  -2.19355  -2.18887  -1.13614
  Beta  occ. eigenvalues --   -1.13606  -1.13597  -1.13584  -1.13577  -1.13538
  Beta  occ. eigenvalues --   -1.13526  -1.13484  -1.13435  -1.13297  -1.13242
  Beta  occ. eigenvalues --   -1.13217  -1.13139  -1.13102  -1.13058  -1.13017
  Beta  occ. eigenvalues --   -1.13010  -1.13002  -1.12556  -1.12544  -1.12523
  Beta  occ. eigenvalues --   -0.17572  -0.13001  -0.11791
  Beta virt. eigenvalues --   -0.07176  -0.05632  -0.05044  -0.04637  -0.02726
  Beta virt. eigenvalues --   -0.02175  -0.01819  -0.01513  -0.01016  -0.00514
  Beta virt. eigenvalues --   -0.00196   0.00079   0.00380   0.00822   0.00840

 Mulliken charges and spin densities:
               1          2
     1  Na   0.226456   0.060655
     2  Na   0.265742  -0.061167
     3  Na   0.007661   0.051917
     4  Na  -0.052120  -0.057884
     5  Na  -0.163369  -0.056633
     6  Na  -0.197983   0.508775
     7  Na  -0.086388   0.554337
 Sum of Mulliken charges =  -0.00000   1.00000

 Dipole moment (field-independent basis, Debye):
    X=             -0.1901    Y=             -0.3547    Z=             -0.1210  Tot=              0.4202
 Quadrupole moment (field-independent basis, Debye-Ang):
   XX=            -58.0661   YY=            -64.2364   ZZ=            -72.6894
   XY=              2.0028   XZ=             -1.4272   YZ=             -0.2131

 Normal termination of Gaussian 16 at Tue Dec  5 19:11:51 2023.
