 Gaussian 16, Revision B.01,
 Gaussian 16:  ES64L-G16RevB.01 20-Dec-2017

 -------------------------
 #P B3LYP/6-311+g(d) force
 -------------------------

 -----
 DPGEN
 -----
 Symbolic Z-matrix:
 Charge =  0 Multiplicity = 2

                         Standard orientation:
 ---------------------------------------------------------------------
 Center     Atomic      Atomic             Coordinates (Angstroms)
 Number     Number       Type             X           Y           Z
 ---------------------------------------------------------------------
      1         11           0        0.962860   -0.674038   -1.505061
      2         11           0       -2.772087    0.258363   -0.162938
      3         11           0        1.484828    1.909008   -0.767200
      4         11           0       -1.966597   -2.798819   -0.354954
      5         11           0        3.876721   -0.922007    0.694041
      6         11           0       -1.183279    3.205139    0.523082
      7         11           0       -0.402445   -0.977648    1.573031
 ---------------------------------------------------------------------

 SCF Done:  E(UB3LYP) =  -1136.11848689     A.U. after   22 cycles

 The electronic state is 2-A.
 Alpha  occ. eigenvalues --  -38.44494 -38.44386 -38.44357 -38.44122 -38.43955
 Alpha  occ. eigenvalues --  -38.43524 -38.43228  -2.20301  -2.20259  -2.20247
 Alpha  occ. eigenvalues --   -2.20009  -2.19874  -2.19482  -2.19052  -1.14054
 Alpha  occ. eigenvalues --   -1.13980  -1.13960  -1.13930  -1.13916  -1.13914
 Alpha  occ. eigenvalues --   -1.13889  -1.13873  -1.13865  -1.13801  -1.13664
 Alpha  occ. eigenvalues --   -1.13637  -1.13634  -1.13508  -1.13452  -1.13134
 Alpha  occ. eigenvalues --   -1.13099  -1.13031  -1.12727  -1.12705  -1.12696
 Alpha  occ. eigenvalues --   -0.18358  -0.13575  -0.12471  -0.10185
 Alpha virt. eigenvalues --   -0.06374  -0.05492  -0.04809  -0.03477  -0.02707
 Alpha virt. eigenvalues --   -0.02086  -0.01884  -0.01413  -0.00644  -0.00299
 Alpha virt. eigenvalues --    0.00034   0.00227   0.00646   0.00669   0.00728

  Beta  occ. eigenvalues --  -38.44456 -38.44351 -38.44346 -38.44113 -38.43929
  Beta  occ. eigenvalues --  -38.43466 -38.43227  -2.20241  -2.20225  -2.20187
  Beta  occ. eigenvalues --   -2.19995  -2.19830  -2.19379  -2.19052  -1.14022
  Beta  occ. eigenvalues --   -1.13932  -1.13915  -1.13885  -1.13883  -1.13881
  Beta  occ. eigenvalues --   -1.13858  -1.13831  -1.13827  -1.13750  -1.13650
  Beta  occ. eigenvalues --   -1.13627  -1.13609  -1.13469  -1.13421  -1.13072
  Beta  occ. eigenvalues --   -1.13014  -1.12955  -1.12728  -1.12703  -1.12689
  Beta  occ. eigenvalues --   -0.17781  -0.13305  -0.12240
  Beta virt. eigenvalues --   -0.06628  -0.06024  -0.05412  -0.04576  -0.02908
  Beta virt. eigenvalues --   -0.02272  -0.01791  -0.01356  -0.01142  -0.00592
  Beta virt. eigenvalues --   -0.00102   0.00145   0.00293   0.00714   0.00784

 Mulliken charges and spin densities:
               1          2
     1  Na   0.136095   0.044236
     2  Na  -0.009942   0.104733
     3  Na  -0.098603   0.252860
     4  Na   0.694978   0.075571
     5  Na  -0.084093   0.157673
     6  Na  -0.032496  -0.150573
     7  Na  -0.605940   0.515500
 Sum of Mulliken charges =  -0.00000   1.00000

 Dipole moment (field-independent basis, Debye):
    X=             -0.2991    Y=             -0.7367    Z=              0.0495  Tot=              0.7967
 Quadrupole moment (field-independent basis, Debye-Ang):
   XX=            -57.4786   YY=            -62.2524   ZZ=            -74.8638
   XY=              2.6130   XZ=              2.6106   YZ=              1.5394

 Normal termination of Gaussian 16 at Tue Dec  5 22:18:15 2023.
