 Gaussian 16, Revision B.01,
 Gaussian 16:  ES64L-G16RevB.01 20-Dec-2017

 -------------------------
 #P B3LYP/6-311+g(d) force
 -------------------------

 -----
 DPGEN
 -----
 Symbolic Z-matrix:
 Charge =  0 Multiplicity = 2

                         Standard orientation:
 ---------------------------------------------------------------------
 Center     Atomic      Atomic             Coordinates (Angstroms)
 Number     Number       Type             X           Y           Z
 ---------------------------------------------------------------------
      1         11           0        1.162868   -1.829290   -0.128283
      2         11           0        2.478095    1.322685    0.297895
      3         11           0       -0.928806    1.050586   -0.183439
      4         11           0       -2.327944   -2.560863    0.798427
      5         11           0       -4.288148   -0.693087   -0.642773
      6         11           0       -0.755588    4.013859    0.183963
      7         11           0        4.659524   -1.303890   -0.325790
 ---------------------------------------------------------------------

 SCF Done:  E(UB3LYP) =  -1136.12458841     A.U. after   22 cycles

 The electronic state is 2-A.
 Alpha  occ. eigenvalues --  -38.44872 -38.44172 -38.44061 -38.43872 -38.43691
 Alpha  occ. eigenvalues --  -38.43496 -38.43442  -2.20692  -2.19981  -2.19890
 Alpha  occ. eigenvalues --   -2.19692  -2.19537  -2.19368  -2.19355  -1.14405
 Alpha  occ. eigenvalues --   -1.14395  -1.14272  -1.13705  -1.13632  -1.13605
 Alpha  occ. eigenvalues --   -1.13604  -1.13562  -1.13529  -1.13350  -1.13345
 Alpha  occ. eigenvalues --   -1.13306  -1.13176  -1.13168  -1.13154  -1.13082
 Alpha  occ. eigenvalues --   -1.13049  -1.13044  -1.13033  -1.12956  -1.12944
 Alpha  occ. eigenvalues --   -0.17145  -0.14001  -0.12762  -0.10256
 Alpha virt. eigenvalues --   -0.06223  -0.05762  -0.04242  -0.03821  -0.02622
 Alpha virt. eigenvalues --   -0.02279  -0.01948  -0.01397  -0.01146  -0.00866
 Alpha virt. eigenvalues --   -0.00070   0.00014   0.00469   0.00546   0.00639

  Beta  occ. eigenvalues --  -38.44867 -38.44177 -38.44055 -38.43816 -38.43620
  Beta  occ. eigenvalues --  -38.43444 -38.43427  -2.20687  -2.19989  -2.19886
  Beta  occ. eigenvalues --   -2.19588  -2.19404  -2.19333  -2.19277  -1.14395
  Beta  occ. eigenvalues --   -1.14387  -1.14260  -1.13711  -1.13638  -1.13609
  Beta  occ. eigenvalues --   -1.13582  -1.13566  -1.13497  -1.13273  -1.13272
  Beta  occ. eigenvalues --   -1.13242  -1.13086  -1.13077  -1.13072  -1.13039
  Beta  occ. eigenvalues --   -1.13020  -1.12989  -1.12980  -1.12940  -1.12870
  Beta  occ. eigenvalues --   -0.16574  -0.13425  -0.12559
  Beta virt. eigenvalues --   -0.06775  -0.05907  -0.05596  -0.03994  -0.03285
  Beta virt. eigenvalues --   -0.02313  -0.02057  -0.01872  -0.01067  -0.00987
  Beta virt. eigenvalues --   -0.00440   0.00142   0.00327   0.00531   0.00688

 Mulliken charges and spin densities:
               1          2
     1  Na  -0.330277   0.130773
     2  Na   0.279955   0.255616
     3  Na  -2.570167  -0.152461
     4  Na   0.147337   0.038419
     5  Na   0.548810   0.298524
     6  Na   0.898943   0.138364
     7  Na   1.025399   0.290764
 Sum of Mulliken charges =  -0.00000   1.00000

 Dipole moment (field-independent basis, Debye):
    X=              0.6022    Y=              0.3161    Z=              0.2647  Tot=              0.7298
 Quadrupole moment (field-independent basis, Debye-Ang):
   XX=            -68.7137   YY=            -57.4359   ZZ=            -70.8519
   XY=             -2.0843   XZ=              0.0322   YZ=             -0.1219

 Normal termination of Gaussian 16 at Wed Nov 29 02:26:20 2023.
