 Gaussian 16, Revision B.01,
 Gaussian 16:  ES64L-G16RevB.01 20-Dec-2017

 -------------------------
 #P B3LYP/6-311+g(d) force
 -------------------------

 -----
 DPGEN
 -----
 Symbolic Z-matrix:
 Charge =  0 Multiplicity = 2

                         Standard orientation:
 ---------------------------------------------------------------------
 Center     Atomic      Atomic             Coordinates (Angstroms)
 Number     Number       Type             X           Y           Z
 ---------------------------------------------------------------------
      1         11           0       -2.365213   -1.981602    0.840726
      2         11           0        0.594148   -0.397809    2.027587
      3         11           0        2.182461    1.886878   -0.064201
      4         11           0       -0.883722    2.117370    0.498177
      5         11           0        3.994597   -1.286805   -0.604102
      6         11           0       -3.614053    0.411819   -1.086116
      7         11           0        0.091782   -0.749852   -1.612071
 ---------------------------------------------------------------------

 SCF Done:  E(UB3LYP) =  -1136.12294101     A.U. after   24 cycles

 The electronic state is 2-A.
 Alpha  occ. eigenvalues --  -38.45141 -38.44736 -38.44253 -38.44051 -38.43937
 Alpha  occ. eigenvalues --  -38.43714 -38.42265  -2.20942  -2.20557  -2.20146
 Alpha  occ. eigenvalues --   -2.19890  -2.19687  -2.19595  -2.18181  -1.14652
 Alpha  occ. eigenvalues --   -1.14624  -1.14530  -1.14224  -1.14203  -1.14186
 Alpha  occ. eigenvalues --   -1.13829  -1.13775  -1.13759  -1.13556  -1.13545
 Alpha  occ. eigenvalues --   -1.13523  -1.13365  -1.13363  -1.13318  -1.13293
 Alpha  occ. eigenvalues --   -1.13267  -1.13202  -1.11868  -1.11854  -1.11808
 Alpha  occ. eigenvalues --   -0.18303  -0.13725  -0.11509  -0.11031
 Alpha virt. eigenvalues --   -0.06867  -0.05360  -0.04462  -0.03152  -0.02928
 Alpha virt. eigenvalues --   -0.02506  -0.02415  -0.01234  -0.00855  -0.00274
 Alpha virt. eigenvalues --    0.00040   0.00180   0.00396   0.00582   0.00663

  Beta  occ. eigenvalues --  -38.45118 -38.44698 -38.44164 -38.44017 -38.43943
  Beta  occ. eigenvalues --  -38.43709 -38.42256  -2.20901  -2.20486  -2.19984
  Beta  occ. eigenvalues --   -2.19830  -2.19699  -2.19587  -2.18167  -1.14617
  Beta  occ. eigenvalues --   -1.14588  -1.14502  -1.14174  -1.14150  -1.14140
  Beta  occ. eigenvalues --   -1.13723  -1.13661  -1.13632  -1.13515  -1.13504
  Beta  occ. eigenvalues --   -1.13460  -1.13373  -1.13369  -1.13325  -1.13288
  Beta  occ. eigenvalues --   -1.13256  -1.13196  -1.11864  -1.11829  -1.11787
  Beta  occ. eigenvalues --   -0.17577  -0.13510  -0.10934
  Beta virt. eigenvalues --   -0.07541  -0.06633  -0.05143  -0.04004  -0.02932
  Beta virt. eigenvalues --   -0.02531  -0.01934  -0.01820  -0.01093  -0.00528
  Beta virt. eigenvalues --   -0.00229   0.00087   0.00235   0.00487   0.00673

 Mulliken charges and spin densities:
               1          2
     1  Na  -0.036369   0.022575
     2  Na   0.084373   0.423187
     3  Na   0.381812   0.054303
     4  Na  -0.470434   0.096642
     5  Na   0.031836  -0.061124
     6  Na   0.645071   0.167733
     7  Na  -0.636289   0.296685
 Sum of Mulliken charges =  -0.00000   1.00000

 Dipole moment (field-independent basis, Debye):
    X=             -0.5146    Y=             -0.0051    Z=             -0.0036  Tot=              0.5147
 Quadrupole moment (field-independent basis, Debye-Ang):
   XX=            -53.9825   YY=            -73.4285   ZZ=            -69.6085
   XY=              1.0293   XZ=              2.4051   YZ=             -3.6545

 Normal termination of Gaussian 16 at Tue Dec  5 11:01:11 2023.
