 Gaussian 16, Revision B.01,
 Gaussian 16:  ES64L-G16RevB.01 20-Dec-2017

 -------------------------
 #P B3LYP/6-311+g(d) force
 -------------------------

 -----
 DPGEN
 -----
 Symbolic Z-matrix:
 Charge =  0 Multiplicity = 2

                         Standard orientation:
 ---------------------------------------------------------------------
 Center     Atomic      Atomic             Coordinates (Angstroms)
 Number     Number       Type             X           Y           Z
 ---------------------------------------------------------------------
      1         11           0        3.304218    0.040143   -0.160289
      2         11           0        0.519024    2.844627    0.019554
      3         11           0       -2.568558    1.733335    0.053081
      4         11           0        0.673713   -2.633923    0.019405
      5         11           0        0.408579    0.026063   -1.715682
      6         11           0       -2.656651   -1.763780   -0.259872
      7         11           0        0.319674   -0.246466    2.043802
 ---------------------------------------------------------------------

 SCF Done:  E(UB3LYP) =  -1136.13653746     A.U. after   20 cycles

 The electronic state is 2-A.
 Alpha  occ. eigenvalues --  -38.44297 -38.43739 -38.43703 -38.43654 -38.43409
 Alpha  occ. eigenvalues --  -38.43409 -38.43375  -2.20115  -2.19556  -2.19548
 Alpha  occ. eigenvalues --   -2.19525  -2.19338  -2.19316  -2.19264  -1.13800
 Alpha  occ. eigenvalues --   -1.13767  -1.13754  -1.13260  -1.13228  -1.13219
 Alpha  occ. eigenvalues --   -1.13207  -1.13200  -1.13194  -1.13187  -1.13161
 Alpha  occ. eigenvalues --   -1.13159  -1.13083  -1.13029  -1.12983  -1.12950
 Alpha  occ. eigenvalues --   -1.12948  -1.12925  -1.12911  -1.12904  -1.12882
 Alpha  occ. eigenvalues --   -0.18611  -0.12891  -0.12588  -0.10788
 Alpha virt. eigenvalues --   -0.05807  -0.05079  -0.04716  -0.03082  -0.02995
 Alpha virt. eigenvalues --   -0.02622  -0.01701  -0.01011  -0.00389  -0.00285
 Alpha virt. eigenvalues --   -0.00032   0.00337   0.00810   0.00874   0.00886

  Beta  occ. eigenvalues --  -38.44291 -38.43737 -38.43703 -38.43557 -38.43405
  Beta  occ. eigenvalues --  -38.43397 -38.43308  -2.20109  -2.19548  -2.19528
  Beta  occ. eigenvalues --   -2.19376  -2.19301  -2.19259  -2.19215  -1.13782
  Beta  occ. eigenvalues --   -1.13756  -1.13748  -1.13230  -1.13210  -1.13202
  Beta  occ. eigenvalues --   -1.13200  -1.13180  -1.13163  -1.13151  -1.13067
  Beta  occ. eigenvalues --   -1.13036  -1.13033  -1.12977  -1.12933  -1.12906
  Beta  occ. eigenvalues --   -1.12903  -1.12900  -1.12886  -1.12855  -1.12847
  Beta  occ. eigenvalues --   -0.17876  -0.12679  -0.12347
  Beta virt. eigenvalues --   -0.06857  -0.05767  -0.05076  -0.04652  -0.02343
  Beta virt. eigenvalues --   -0.02191  -0.01622  -0.01553  -0.00952  -0.00431
  Beta virt. eigenvalues --   -0.00339   0.00115   0.00369   0.00852   0.00875

 Mulliken charges and spin densities:
               1          2
     1  Na   0.321398  -0.106713
     2  Na   0.063159  -0.102038
     3  Na  -0.058271  -0.055300
     4  Na   0.362539  -0.034444
     5  Na  -0.221459   0.629560
     6  Na  -0.058091  -0.061002
     7  Na  -0.409274   0.729939
 Sum of Mulliken charges =  -0.00000   1.00000

 Dipole moment (field-independent basis, Debye):
    X=              0.3225    Y=              0.0212    Z=              0.0858  Tot=              0.3344
 Quadrupole moment (field-independent basis, Debye-Ang):
   XX=            -55.3785   YY=            -64.2241   ZZ=            -74.2533
   XY=              0.6201   XZ=              0.2199   YZ=              0.7288

 Normal termination of Gaussian 16 at Tue Dec  5 15:54:08 2023.
