 Gaussian 16, Revision B.01,
 Gaussian 16:  ES64L-G16RevB.01 20-Dec-2017

 -------------------------
 #P B3LYP/6-311+g(d) force
 -------------------------

 -----
 DPGEN
 -----
 Symbolic Z-matrix:
 Charge =  0 Multiplicity = 2

                         Standard orientation:
 ---------------------------------------------------------------------
 Center     Atomic      Atomic             Coordinates (Angstroms)
 Number     Number       Type             X           Y           Z
 ---------------------------------------------------------------------
      1         11           0        2.117977   -2.173660   -0.017701
      2         11           0       -1.488056   -2.425100   -0.028215
      3         11           0       -3.038188    0.603910   -0.383131
      4         11           0        0.497914    0.058375   -1.549050
      5         11           0       -0.248546    2.814542    0.079618
      6         11           0       -0.528641   -0.150834    1.703783
      7         11           0        2.687540    1.272767    0.194697
 ---------------------------------------------------------------------

 SCF Done:  E(UB3LYP) =  -1136.13585855     A.U. after   21 cycles

 The electronic state is 2-A.
 Alpha  occ. eigenvalues --  -38.43932 -38.43831 -38.43654 -38.43586 -38.43285
 Alpha  occ. eigenvalues --  -38.42958 -38.42889  -2.19785  -2.19726  -2.19518
 Alpha  occ. eigenvalues --   -2.19488  -2.19178  -2.18964  -2.18935  -1.13458
 Alpha  occ. eigenvalues --   -1.13452  -1.13447  -1.13430  -1.13374  -1.13360
 Alpha  occ. eigenvalues --   -1.13237  -1.13220  -1.13172  -1.13152  -1.13141
 Alpha  occ. eigenvalues --   -1.13089  -1.12879  -1.12847  -1.12804  -1.12664
 Alpha  occ. eigenvalues --   -1.12602  -1.12587  -1.12563  -1.12559  -1.12547
 Alpha  occ. eigenvalues --   -0.19191  -0.13290  -0.12765  -0.10355
 Alpha virt. eigenvalues --   -0.05491  -0.05297  -0.04783  -0.03148  -0.02760
 Alpha virt. eigenvalues --   -0.01974  -0.01482  -0.01159  -0.00316  -0.00269
 Alpha virt. eigenvalues --    0.00044   0.00360   0.00859   0.00894   0.00909

  Beta  occ. eigenvalues --  -38.43922 -38.43825 -38.43650 -38.43578 -38.43277
  Beta  occ. eigenvalues --  -38.42881 -38.42825  -2.19769  -2.19718  -2.19514
  Beta  occ. eigenvalues --   -2.19477  -2.19169  -2.18823  -2.18820  -1.13448
  Beta  occ. eigenvalues --   -1.13443  -1.13426  -1.13411  -1.13361  -1.13344
  Beta  occ. eigenvalues --   -1.13225  -1.13206  -1.13157  -1.13144  -1.13109
  Beta  occ. eigenvalues --   -1.13087  -1.12873  -1.12812  -1.12797  -1.12576
  Beta  occ. eigenvalues --   -1.12511  -1.12486  -1.12478  -1.12465  -1.12461
  Beta  occ. eigenvalues --   -0.18480  -0.13043  -0.12493
  Beta virt. eigenvalues --   -0.06475  -0.05434  -0.05279  -0.04770  -0.02352
  Beta virt. eigenvalues --   -0.01984  -0.01392  -0.01096  -0.00988  -0.00366
  Beta virt. eigenvalues --   -0.00313   0.00181   0.00399   0.00896   0.00905

 Mulliken charges and spin densities:
               1          2
     1  Na   0.178754  -0.105916
     2  Na   0.269711  -0.058450
     3  Na   0.031746   0.005251
     4  Na  -0.436824   0.598458
     5  Na   0.150098  -0.038515
     6  Na  -0.378592   0.643550
     7  Na   0.185108  -0.044376
 Sum of Mulliken charges =  -0.00000   1.00000

 Dipole moment (field-independent basis, Debye):
    X=             -0.0218    Y=             -0.0429    Z=              0.0448  Tot=              0.0657
 Quadrupole moment (field-independent basis, Debye-Ang):
   XX=            -55.4211   YY=            -60.5602   ZZ=            -76.1171
   XY=             -0.5460   XZ=              2.3717   YZ=              0.4316

 Normal termination of Gaussian 16 at Wed Nov 29 04:02:53 2023.
