 Gaussian 16, Revision B.01,
 Gaussian 16:  ES64L-G16RevB.01 20-Dec-2017

 -------------------------
 #P B3LYP/6-311+g(d) force
 -------------------------

 -----
 DPGEN
 -----
 Symbolic Z-matrix:
 Charge =  0 Multiplicity = 2

                         Standard orientation:
 ---------------------------------------------------------------------
 Center     Atomic      Atomic             Coordinates (Angstroms)
 Number     Number       Type             X           Y           Z
 ---------------------------------------------------------------------
      1         11           0       -0.076048    0.161847   -1.477211
      2         11           0        3.199320   -0.710900   -0.191969
      3         11           0        1.914066    2.704605   -0.038025
      4         11           0        0.770956   -2.780234    0.110111
      5         11           0       -2.300286    2.237604   -0.011247
      6         11           0       -2.940350   -1.468749   -0.580285
      7         11           0       -0.567657   -0.144173    2.188625
 ---------------------------------------------------------------------

 SCF Done:  E(UB3LYP) =  -1136.13375370     A.U. after   19 cycles

 The electronic state is 2-A.
 Alpha  occ. eigenvalues --  -38.44318 -38.44262 -38.44049 -38.43855 -38.43669
 Alpha  occ. eigenvalues --  -38.43267 -38.43236  -2.20116  -2.20064  -2.19873
 Alpha  occ. eigenvalues --   -2.19630  -2.19519  -2.19183  -2.19123  -1.13800
 Alpha  occ. eigenvalues --   -1.13783  -1.13746  -1.13742  -1.13710  -1.13697
 Alpha  occ. eigenvalues --   -1.13553  -1.13540  -1.13513  -1.13309  -1.13292
 Alpha  occ. eigenvalues --   -1.13267  -1.13177  -1.13142  -1.13138  -1.12887
 Alpha  occ. eigenvalues --   -1.12846  -1.12806  -1.12789  -1.12780  -1.12756
 Alpha  occ. eigenvalues --   -0.18098  -0.13084  -0.12137  -0.10547
 Alpha virt. eigenvalues --   -0.05933  -0.05616  -0.04642  -0.03123  -0.02706
 Alpha virt. eigenvalues --   -0.02516  -0.01738  -0.01402  -0.00754  -0.00472
 Alpha virt. eigenvalues --   -0.00045   0.00307   0.00711   0.00759   0.00857

  Beta  occ. eigenvalues --  -38.44314 -38.44242 -38.44049 -38.43858 -38.43563
  Beta  occ. eigenvalues --  -38.43262 -38.43191  -2.20111  -2.20031  -2.19874
  Beta  occ. eigenvalues --   -2.19636  -2.19324  -2.19117  -2.19102  -1.13792
  Beta  occ. eigenvalues --   -1.13765  -1.13741  -1.13707  -1.13683  -1.13677
  Beta  occ. eigenvalues --   -1.13555  -1.13529  -1.13515  -1.13304  -1.13297
  Beta  occ. eigenvalues --   -1.13271  -1.13046  -1.13009  -1.12996  -1.12837
  Beta  occ. eigenvalues --   -1.12804  -1.12770  -1.12756  -1.12746  -1.12737
  Beta  occ. eigenvalues --   -0.17418  -0.12867  -0.11951
  Beta virt. eigenvalues --   -0.06620  -0.05912  -0.05518  -0.04595  -0.02430
  Beta virt. eigenvalues --   -0.02014  -0.01639  -0.01467  -0.01307  -0.00775
  Beta virt. eigenvalues --   -0.00508   0.00131   0.00365   0.00756   0.00807

 Mulliken charges and spin densities:
               1          2
     1  Na  -0.081949   0.280762
     2  Na  -0.000928  -0.043657
     3  Na   0.021011  -0.049669
     4  Na   0.218894   0.038231
     5  Na   0.075947  -0.021331
     6  Na   0.201710   0.053752
     7  Na  -0.434686   0.741912
 Sum of Mulliken charges =  -0.00000   1.00000

 Dipole moment (field-independent basis, Debye):
    X=             -0.3287    Y=              0.1977    Z=              0.0726  Tot=              0.3904
 Quadrupole moment (field-independent basis, Debye-Ang):
   XX=            -54.9079   YY=            -62.2511   ZZ=            -75.8710
   XY=             -0.0865   XZ=              0.9989   YZ=              0.9076

 Normal termination of Gaussian 16 at Fri Dec  8 04:25:51 2023.
