 Gaussian 16, Revision B.01,
 Gaussian 16:  ES64L-G16RevB.01 20-Dec-2017

 -------------------------
 #P B3LYP/6-311+g(d) force
 -------------------------

 -----
 DPGEN
 -----
 Symbolic Z-matrix:
 Charge =  0 Multiplicity = 2

                         Standard orientation:
 ---------------------------------------------------------------------
 Center     Atomic      Atomic             Coordinates (Angstroms)
 Number     Number       Type             X           Y           Z
 ---------------------------------------------------------------------
      1         11           0       -0.770714   -1.490425   -2.321892
      2         11           0       -3.476319    0.581790   -0.467507
      3         11           0        4.714512   -0.293403   -0.356338
      4         11           0        1.824252    0.514485   -0.164031
      5         11           0       -0.774603    3.144018   -0.529840
      6         11           0       -0.194865    0.448616    2.865920
      7         11           0       -1.322263   -2.905082    0.973688
 ---------------------------------------------------------------------

 SCF Done:  E(UB3LYP) =  -1136.10750774     A.U. after   23 cycles

 The electronic state is 2-A.
 Alpha  occ. eigenvalues --  -38.45561 -38.45502 -38.44834 -38.44336 -38.44154
 Alpha  occ. eigenvalues --  -38.43539 -38.42990  -2.21297  -2.21284  -2.20601
 Alpha  occ. eigenvalues --   -2.20126  -2.19911  -2.19301  -2.18850  -1.14986
 Alpha  occ. eigenvalues --   -1.14948  -1.14938  -1.14918  -1.14913  -1.14884
 Alpha  occ. eigenvalues --   -1.14273  -1.14247  -1.14222  -1.13821  -1.13771
 Alpha  occ. eigenvalues --   -1.13767  -1.13584  -1.13576  -1.13541  -1.12984
 Alpha  occ. eigenvalues --   -1.12956  -1.12943  -1.12538  -1.12515  -1.12487
 Alpha  occ. eigenvalues --   -0.16760  -0.12579  -0.11831  -0.11448
 Alpha virt. eigenvalues --   -0.07072  -0.05522  -0.04151  -0.03475  -0.03091
 Alpha virt. eigenvalues --   -0.02947  -0.02540  -0.00925  -0.00679  -0.00560
 Alpha virt. eigenvalues --   -0.00472  -0.00218   0.00201   0.00488   0.00601

  Beta  occ. eigenvalues --  -38.45546 -38.45385 -38.44799 -38.44333 -38.44139
  Beta  occ. eigenvalues --  -38.43540 -38.42984  -2.21269  -2.21069  -2.20535
  Beta  occ. eigenvalues --   -2.20121  -2.19884  -2.19303  -2.18843  -1.14956
  Beta  occ. eigenvalues --   -1.14931  -1.14900  -1.14792  -1.14766  -1.14730
  Beta  occ. eigenvalues --   -1.14228  -1.14196  -1.14180  -1.13818  -1.13766
  Beta  occ. eigenvalues --   -1.13763  -1.13568  -1.13552  -1.13513  -1.12984
  Beta  occ. eigenvalues --   -1.12953  -1.12944  -1.12522  -1.12506  -1.12482
  Beta  occ. eigenvalues --   -0.16025  -0.12404  -0.11340
  Beta virt. eigenvalues --   -0.07950  -0.06881  -0.04971  -0.03714  -0.03201
  Beta virt. eigenvalues --   -0.02671  -0.02438  -0.02245  -0.00853  -0.00562
  Beta virt. eigenvalues --   -0.00377  -0.00176  -0.00144   0.00230   0.00645

 Mulliken charges and spin densities:
               1          2
     1  Na   0.473799   0.279867
     2  Na  -0.154556   0.070949
     3  Na  -0.671030  -0.090095
     4  Na  -1.018093   0.109883
     5  Na   1.161730  -0.031344
     6  Na   0.306559   0.587916
     7  Na  -0.098411   0.072825
 Sum of Mulliken charges =  -0.00000   1.00000

 Dipole moment (field-independent basis, Debye):
    X=             -0.7611    Y=             -0.3762    Z=              0.1996  Tot=              0.8722
 Quadrupole moment (field-independent basis, Debye-Ang):
   XX=            -57.6932   YY=            -73.3133   ZZ=            -64.6009
   XY=             -1.0224   XZ=             -1.0773   YZ=             -1.0786

 Normal termination of Gaussian 16 at Sun Dec  3 12:01:34 2023.
