 Gaussian 16, Revision B.01,
 Gaussian 16:  ES64L-G16RevB.01 20-Dec-2017

 -------------------------
 #P B3LYP/6-311+g(d) force
 -------------------------

 -----
 DPGEN
 -----
 Symbolic Z-matrix:
 Charge =  0 Multiplicity = 2

                         Standard orientation:
 ---------------------------------------------------------------------
 Center     Atomic      Atomic             Coordinates (Angstroms)
 Number     Number       Type             X           Y           Z
 ---------------------------------------------------------------------
      1         11           0       -0.226018   -2.986792    0.162877
      2         11           0        2.988023   -0.943773   -0.309755
      3         11           0        2.164334    1.955097    0.284904
      4         11           0       -0.313900   -0.336898    1.517100
      5         11           0       -1.604724    2.967001    0.087822
      6         11           0       -0.116805    0.243838   -1.469236
      7         11           0       -2.890910   -0.898474   -0.273711
 ---------------------------------------------------------------------

 SCF Done:  E(UB3LYP) =  -1136.13049449     A.U. after   22 cycles

 The electronic state is 2-A.
 Alpha  occ. eigenvalues --  -38.44118 -38.43983 -38.43829 -38.43736 -38.43703
 Alpha  occ. eigenvalues --  -38.42880 -38.42766  -2.20003  -2.19770  -2.19708
 Alpha  occ. eigenvalues --   -2.19627  -2.19564  -2.18928  -2.18800  -1.13707
 Alpha  occ. eigenvalues --   -1.13677  -1.13615  -1.13448  -1.13446  -1.13421
 Alpha  occ. eigenvalues --   -1.13418  -1.13373  -1.13370  -1.13356  -1.13270
 Alpha  occ. eigenvalues --   -1.13244  -1.13219  -1.13197  -1.13188  -1.12712
 Alpha  occ. eigenvalues --   -1.12540  -1.12532  -1.12464  -1.12426  -1.12391
 Alpha  occ. eigenvalues --   -0.18964  -0.13333  -0.12605  -0.09975
 Alpha virt. eigenvalues --   -0.05717  -0.05351  -0.04987  -0.02985  -0.02577
 Alpha virt. eigenvalues --   -0.01694  -0.01594  -0.01524  -0.00510  -0.00407
 Alpha virt. eigenvalues --    0.00066   0.00338   0.00799   0.00828   0.00878

  Beta  occ. eigenvalues --  -38.44105 -38.43983 -38.43822 -38.43725 -38.43696
  Beta  occ. eigenvalues --  -38.42810 -38.42702  -2.19983  -2.19772  -2.19699
  Beta  occ. eigenvalues --   -2.19612  -2.19554  -2.18802  -2.18684  -1.13697
  Beta  occ. eigenvalues --   -1.13630  -1.13604  -1.13442  -1.13440  -1.13421
  Beta  occ. eigenvalues --   -1.13415  -1.13358  -1.13354  -1.13334  -1.13239
  Beta  occ. eigenvalues --   -1.13234  -1.13199  -1.13186  -1.13179  -1.12623
  Beta  occ. eigenvalues --   -1.12449  -1.12443  -1.12375  -1.12338  -1.12307
  Beta  occ. eigenvalues --   -0.18274  -0.13059  -0.12360
  Beta virt. eigenvalues --   -0.06140  -0.05687  -0.05308  -0.04949  -0.02195
  Beta virt. eigenvalues --   -0.01899  -0.01525  -0.01457  -0.00778  -0.00548
  Beta virt. eigenvalues --   -0.00401   0.00199   0.00384   0.00803   0.00852

 Mulliken charges and spin densities:
               1          2
     1  Na   0.411991   0.025587
     2  Na   0.109605   0.023852
     3  Na   0.060179  -0.001140
     4  Na  -0.369395   0.588542
     5  Na  -0.031926  -0.089444
     6  Na  -0.339650   0.525695
     7  Na   0.159195  -0.073092
 Sum of Mulliken charges =  -0.00000   1.00000

 Dipole moment (field-independent basis, Debye):
    X=             -0.2281    Y=              0.0655    Z=             -0.0233  Tot=              0.2385
 Quadrupole moment (field-independent basis, Debye-Ang):
   XX=            -55.5443   YY=            -56.4813   ZZ=            -78.3022
   XY=             -0.7592   XZ=              0.3014   YZ=              1.5754

 Normal termination of Gaussian 16 at Tue Nov 28 23:26:29 2023.
