 Gaussian 16, Revision B.01,
 Gaussian 16:  ES64L-G16RevB.01 20-Dec-2017

 -------------------------
 #P B3LYP/6-311+g(d) force
 -------------------------

 -----
 DPGEN
 -----
 Symbolic Z-matrix:
 Charge =  0 Multiplicity = 2

                         Standard orientation:
 ---------------------------------------------------------------------
 Center     Atomic      Atomic             Coordinates (Angstroms)
 Number     Number       Type             X           Y           Z
 ---------------------------------------------------------------------
      1         11           0        3.054539    0.473484    0.139818
      2         11           0        1.470796   -2.640566   -0.266229
      3         11           0        0.249195    0.195920   -1.509840
      4         11           0       -2.711423    1.387153   -0.011936
      5         11           0        0.567859    2.789153    0.077910
      6         11           0        0.039045   -0.487921    1.645144
      7         11           0       -2.670010   -1.717224   -0.074867
 ---------------------------------------------------------------------

 SCF Done:  E(UB3LYP) =  -1136.13403997     A.U. after   20 cycles

 The electronic state is 2-A.
 Alpha  occ. eigenvalues --  -38.44302 -38.44130 -38.43916 -38.43542 -38.43090
 Alpha  occ. eigenvalues --  -38.42865 -38.42785  -2.20179  -2.19975  -2.19785
 Alpha  occ. eigenvalues --   -2.19409  -2.18986  -2.18855  -2.18833  -1.13863
 Alpha  occ. eigenvalues --   -1.13844  -1.13809  -1.13696  -1.13636  -1.13614
 Alpha  occ. eigenvalues --   -1.13445  -1.13438  -1.13415  -1.13103  -1.13078
 Alpha  occ. eigenvalues --   -1.13033  -1.12750  -1.12639  -1.12613  -1.12599
 Alpha  occ. eigenvalues --   -1.12481  -1.12474  -1.12464  -1.12441  -1.12433
 Alpha  occ. eigenvalues --   -0.19067  -0.13547  -0.12471  -0.10146
 Alpha virt. eigenvalues --   -0.05942  -0.05355  -0.04602  -0.03118  -0.02584
 Alpha virt. eigenvalues --   -0.01846  -0.01765  -0.01204  -0.00519  -0.00309
 Alpha virt. eigenvalues --    0.00051   0.00353   0.00792   0.00845   0.00886

  Beta  occ. eigenvalues --  -38.44294 -38.44127 -38.43912 -38.43532 -38.43083
  Beta  occ. eigenvalues --  -38.42792 -38.42718  -2.20168  -2.19974  -2.19781
  Beta  occ. eigenvalues --   -2.19395  -2.18977  -2.18721  -2.18711  -1.13857
  Beta  occ. eigenvalues --   -1.13808  -1.13804  -1.13699  -1.13620  -1.13607
  Beta  occ. eigenvalues --   -1.13439  -1.13423  -1.13410  -1.13096  -1.13037
  Beta  occ. eigenvalues --   -1.13028  -1.12729  -1.12614  -1.12601  -1.12515
  Beta  occ. eigenvalues --   -1.12389  -1.12379  -1.12367  -1.12352  -1.12348
  Beta  occ. eigenvalues --   -0.18358  -0.13298  -0.12216
  Beta virt. eigenvalues --   -0.06261  -0.05905  -0.05347  -0.04586  -0.02325
  Beta virt. eigenvalues --   -0.01835  -0.01694  -0.01138  -0.00862  -0.00574
  Beta virt. eigenvalues --   -0.00348   0.00197   0.00388   0.00832   0.00842

 Mulliken charges and spin densities:
               1          2
     1  Na   0.358460   0.029050
     2  Na   0.124390  -0.105268
     3  Na  -0.508747   0.563348
     4  Na   0.095979  -0.020977
     5  Na   0.171824  -0.022092
     6  Na  -0.443563   0.631268
     7  Na   0.201656  -0.075329
 Sum of Mulliken charges =  -0.00000   1.00000

 Dipole moment (field-independent basis, Debye):
    X=              0.0173    Y=             -0.2021    Z=              0.0744  Tot=              0.2161
 Quadrupole moment (field-independent basis, Debye-Ang):
   XX=            -52.6009   YY=            -61.0726   ZZ=            -77.5501
   XY=              0.2223   XZ=              0.5607   YZ=              1.6166

 Normal termination of Gaussian 16 at Tue Nov 28 20:25:08 2023.
