 Gaussian 16, Revision B.01,
 Gaussian 16:  ES64L-G16RevB.01 20-Dec-2017

 -------------------------
 #P B3LYP/6-311+g(d) force
 -------------------------

 -----
 DPGEN
 -----
 Symbolic Z-matrix:
 Charge =  0 Multiplicity = 2

                         Standard orientation:
 ---------------------------------------------------------------------
 Center     Atomic      Atomic             Coordinates (Angstroms)
 Number     Number       Type             X           Y           Z
 ---------------------------------------------------------------------
      1         11           0       -2.102502   -1.860435    0.196534
      2         11           0       -0.220822    0.063915   -1.778772
      3         11           0       -2.783925    1.544808   -0.376278
      4         11           0        1.254043   -2.462824   -0.071826
      5         11           0        2.924983    0.154655   -0.348276
      6         11           0        1.134267    2.661134    0.426592
      7         11           0       -0.206044   -0.101252    1.952026
 ---------------------------------------------------------------------

 SCF Done:  E(UB3LYP) =  -1136.13654823     A.U. after   18 cycles

 The electronic state is 2-A.
 Alpha  occ. eigenvalues --  -38.43937 -38.43660 -38.43639 -38.43546 -38.43458
 Alpha  occ. eigenvalues --  -38.43368 -38.43014  -2.19763  -2.19589  -2.19564
 Alpha  occ. eigenvalues --   -2.19460  -2.19433  -2.19223  -2.18931  -1.13459
 Alpha  occ. eigenvalues --   -1.13416  -1.13400  -1.13313  -1.13261  -1.13250
 Alpha  occ. eigenvalues --   -1.13235  -1.13213  -1.13202  -1.13160  -1.13108
 Alpha  occ. eigenvalues --   -1.13092  -1.13068  -1.13056  -1.13041  -1.12894
 Alpha  occ. eigenvalues --   -1.12878  -1.12851  -1.12606  -1.12588  -1.12566
 Alpha  occ. eigenvalues --   -0.19095  -0.13266  -0.12395  -0.11163
 Alpha virt. eigenvalues --   -0.05467  -0.05092  -0.04388  -0.03383  -0.02992
 Alpha virt. eigenvalues --   -0.02748  -0.01427  -0.01011  -0.00181   0.00009
 Alpha virt. eigenvalues --    0.00019   0.00361   0.00832   0.00915   0.00952

  Beta  occ. eigenvalues --  -38.43928 -38.43654 -38.43549 -38.43536 -38.43386
  Beta  occ. eigenvalues --  -38.43359 -38.43008  -2.19751  -2.19556  -2.19447
  Beta  occ. eigenvalues --   -2.19423  -2.19302  -2.19209  -2.18924  -1.13437
  Beta  occ. eigenvalues --   -1.13404  -1.13389  -1.13253  -1.13242  -1.13234
  Beta  occ. eigenvalues --   -1.13186  -1.13132  -1.13118  -1.13091  -1.13060
  Beta  occ. eigenvalues --   -1.13037  -1.13014  -1.12968  -1.12951  -1.12878
  Beta  occ. eigenvalues --   -1.12856  -1.12841  -1.12605  -1.12577  -1.12539
  Beta  occ. eigenvalues --   -0.18351  -0.12990  -0.12118
  Beta virt. eigenvalues --   -0.07233  -0.05421  -0.05054  -0.04361  -0.02589
  Beta virt. eigenvalues --   -0.02210  -0.01697  -0.01318  -0.00940  -0.00176
  Beta virt. eigenvalues --   -0.00031   0.00110   0.00386   0.00882   0.00929

 Mulliken charges and spin densities:
               1          2
     1  Na   0.388791  -0.022445
     2  Na  -0.368931   0.542140
     3  Na   0.056714  -0.072408
     4  Na   0.178923  -0.023102
     5  Na   0.087873  -0.008732
     6  Na   0.081306  -0.021825
     7  Na  -0.424677   0.606373
 Sum of Mulliken charges =  -0.00000   1.00000

 Dipole moment (field-independent basis, Debye):
    X=             -0.3362    Y=              0.1784    Z=              0.0299  Tot=              0.3818
 Quadrupole moment (field-independent basis, Debye-Ang):
   XX=            -58.1777   YY=            -64.1877   ZZ=            -72.3416
   XY=             -0.6186   XZ=             -0.3118   YZ=              0.3058

 Normal termination of Gaussian 16 at Thu Dec  7 23:05:43 2023.
