 Gaussian 16, Revision B.01,
 Gaussian 16:  ES64L-G16RevB.01 20-Dec-2017

 -------------------------
 #P B3LYP/6-311+g(d) force
 -------------------------

 -----
 DPGEN
 -----
 Symbolic Z-matrix:
 Charge =  0 Multiplicity = 2

                         Standard orientation:
 ---------------------------------------------------------------------
 Center     Atomic      Atomic             Coordinates (Angstroms)
 Number     Number       Type             X           Y           Z
 ---------------------------------------------------------------------
      1         11           0       -1.049984    2.024227    0.902036
      2         11           0        1.940448    0.021238    1.604334
      3         11           0       -0.184889   -0.377106   -1.624430
      4         11           0       -1.156537   -2.097853    1.035488
      5         11           0        2.167676   -2.401882   -0.736671
      6         11           0        1.635600    2.864201   -0.727793
      7         11           0       -3.352314   -0.032826   -0.452965
 ---------------------------------------------------------------------

 SCF Done:  E(UB3LYP) =  -1136.13661111     A.U. after   19 cycles

 The electronic state is 2-A.
 Alpha  occ. eigenvalues --  -38.43986 -38.43720 -38.43632 -38.43618 -38.43588
 Alpha  occ. eigenvalues --  -38.43493 -38.43206  -2.19843  -2.19535  -2.19489
 Alpha  occ. eigenvalues --   -2.19463  -2.19444  -2.19373  -2.19163  -1.13543
 Alpha  occ. eigenvalues --   -1.13511  -1.13455  -1.13221  -1.13192  -1.13187
 Alpha  occ. eigenvalues --   -1.13176  -1.13172  -1.13155  -1.13123  -1.13114
 Alpha  occ. eigenvalues --   -1.13111  -1.13098  -1.13089  -1.13069  -1.13051
 Alpha  occ. eigenvalues --   -1.13037  -1.12972  -1.12844  -1.12791  -1.12785
 Alpha  occ. eigenvalues --   -0.18409  -0.12890  -0.12600  -0.10705
 Alpha virt. eigenvalues --   -0.05484  -0.05122  -0.04818  -0.03250  -0.03229
 Alpha virt. eigenvalues --   -0.02376  -0.01412  -0.01229  -0.00536  -0.00020
 Alpha virt. eigenvalues --    0.00213   0.00361   0.00667   0.00800   0.00836

  Beta  occ. eigenvalues --  -38.43960 -38.43712 -38.43606 -38.43586 -38.43584
  Beta  occ. eigenvalues --  -38.43480 -38.43139  -2.19798  -2.19523  -2.19444
  Beta  occ. eigenvalues --   -2.19441  -2.19403  -2.19351  -2.19042  -1.13515
  Beta  occ. eigenvalues --   -1.13456  -1.13427  -1.13214  -1.13178  -1.13168
  Beta  occ. eigenvalues --   -1.13145  -1.13123  -1.13118  -1.13109  -1.13099
  Beta  occ. eigenvalues --   -1.13083  -1.13080  -1.13058  -1.13041  -1.13023
  Beta  occ. eigenvalues --   -1.12997  -1.12962  -1.12758  -1.12704  -1.12698
  Beta  occ. eigenvalues --   -0.17700  -0.12694  -0.12405
  Beta virt. eigenvalues --   -0.06871  -0.05399  -0.04993  -0.04653  -0.02672
  Beta virt. eigenvalues --   -0.02584  -0.01470  -0.01346  -0.01140  -0.00223
  Beta virt. eigenvalues --   -0.00038   0.00274   0.00409   0.00772   0.00834

 Mulliken charges and spin densities:
               1          2
     1  Na  -0.302699   0.195159
     2  Na   0.035151   0.314465
     3  Na  -0.293425   0.490644
     4  Na  -0.317651   0.245398
     5  Na   0.113203  -0.079178
     6  Na   0.079583  -0.090194
     7  Na   0.685837  -0.076293
 Sum of Mulliken charges =  -0.00000   1.00000

 Dipole moment (field-independent basis, Debye):
    X=             -0.0279    Y=             -0.0976    Z=              0.0657  Tot=              0.1210
 Quadrupole moment (field-independent basis, Debye-Ang):
   XX=            -58.2671   YY=            -63.5095   ZZ=            -71.4920
   XY=             -0.0729   XZ=             -1.0957   YZ=             -1.4256

 Normal termination of Gaussian 16 at Tue Dec  5 16:32:19 2023.
