 Gaussian 16, Revision B.01,
 Gaussian 16:  ES64L-G16RevB.01 20-Dec-2017

 -------------------------
 #P B3LYP/6-311+g(d) force
 -------------------------

 -----
 DPGEN
 -----
 Symbolic Z-matrix:
 Charge =  0 Multiplicity = 2

                         Standard orientation:
 ---------------------------------------------------------------------
 Center     Atomic      Atomic             Coordinates (Angstroms)
 Number     Number       Type             X           Y           Z
 ---------------------------------------------------------------------
      1         11           0       -0.280400   -0.849484    1.802491
      2         11           0        2.394161   -2.069079    0.467934
      3         11           0       -3.534774   -1.079852   -0.403529
      4         11           0        0.456080    1.995017   -0.438406
      5         11           0       -2.431873    2.016730    0.611676
      6         11           0       -0.428073   -1.162491   -1.751625
      7         11           0        3.824879    1.149159   -0.288540
 ---------------------------------------------------------------------

 SCF Done:  E(UB3LYP) =  -1136.11957898     A.U. after   23 cycles

 The electronic state is 2-A.
 Alpha  occ. eigenvalues --  -38.45140 -38.45045 -38.44289 -38.43844 -38.43725
 Alpha  occ. eigenvalues --  -38.43715 -38.43114  -2.20945  -2.20815  -2.20141
 Alpha  occ. eigenvalues --   -2.19675  -2.19602  -2.19587  -2.18986  -1.14611
 Alpha  occ. eigenvalues --   -1.14602  -1.14585  -1.14481  -1.14472  -1.14451
 Alpha  occ. eigenvalues --   -1.13829  -1.13780  -1.13757  -1.13393  -1.13332
 Alpha  occ. eigenvalues --   -1.13309  -1.13300  -1.13272  -1.13235  -1.13232
 Alpha  occ. eigenvalues --   -1.13218  -1.13192  -1.12676  -1.12658  -1.12613
 Alpha  occ. eigenvalues --   -0.18167  -0.13792  -0.11652  -0.10741
 Alpha virt. eigenvalues --   -0.07404  -0.05624  -0.03831  -0.03308  -0.03060
 Alpha virt. eigenvalues --   -0.02509  -0.02279  -0.01613  -0.00547  -0.00391
 Alpha virt. eigenvalues --   -0.00094   0.00163   0.00401   0.00568   0.00649

  Beta  occ. eigenvalues --  -38.45121 -38.45031 -38.44236 -38.43830 -38.43710
  Beta  occ. eigenvalues --  -38.43640 -38.43109  -2.20913  -2.20790  -2.20044
  Beta  occ. eigenvalues --   -2.19653  -2.19561  -2.19463  -2.18981  -1.14584
  Beta  occ. eigenvalues --   -1.14570  -1.14562  -1.14462  -1.14454  -1.14434
  Beta  occ. eigenvalues --   -1.13764  -1.13713  -1.13680  -1.13353  -1.13317
  Beta  occ. eigenvalues --   -1.13290  -1.13285  -1.13206  -1.13199  -1.13184
  Beta  occ. eigenvalues --   -1.13138  -1.13095  -1.12676  -1.12639  -1.12600
  Beta  occ. eigenvalues --   -0.17552  -0.13523  -0.11300
  Beta virt. eigenvalues --   -0.07337  -0.06978  -0.05494  -0.03366  -0.03067
  Beta virt. eigenvalues --   -0.02755  -0.02011  -0.01583  -0.01370  -0.00500
  Beta virt. eigenvalues --   -0.00180   0.00002   0.00183   0.00556   0.00607

 Mulliken charges and spin densities:
               1          2
     1  Na  -0.357874   0.285759
     2  Na   0.453091   0.189876
     3  Na   0.098543   0.051862
     4  Na  -0.440663   0.068668
     5  Na   0.595173   0.095181
     6  Na  -0.147269   0.305477
     7  Na  -0.201001   0.003176
 Sum of Mulliken charges =  -0.00000   1.00000

 Dipole moment (field-independent basis, Debye):
    X=             -0.1124    Y=             -0.4992    Z=              0.1443  Tot=              0.5317
 Quadrupole moment (field-independent basis, Debye-Ang):
   XX=            -45.1735   YY=            -75.4203   ZZ=            -73.4040
   XY=             -1.0805   XZ=             -1.6356   YZ=              0.4573

 Normal termination of Gaussian 16 at Wed Nov 29 03:39:47 2023.
