 Gaussian 16, Revision B.01,
 Gaussian 16:  ES64L-G16RevB.01 20-Dec-2017

 -------------------------
 #P B3LYP/6-311+g(d) force
 -------------------------

 -----
 DPGEN
 -----
 Symbolic Z-matrix:
 Charge =  0 Multiplicity = 2

                         Standard orientation:
 ---------------------------------------------------------------------
 Center     Atomic      Atomic             Coordinates (Angstroms)
 Number     Number       Type             X           Y           Z
 ---------------------------------------------------------------------
      1         11           0       -3.247228    0.650197    1.487874
      2         11           0       -3.121012   -2.360711    0.058797
      3         11           0       -0.034947   -3.437570   -0.736218
      4         11           0        3.157551   -2.143470   -0.281579
      5         11           0        1.293400    3.299719   -0.488408
      6         11           0        4.101530    0.912406    1.027557
      7         11           0       -2.149294    3.079430   -1.068023
 ---------------------------------------------------------------------

 SCF Done:  E(UB3LYP) =  -1136.10939685     A.U. after   21 cycles

 The electronic state is 2-A.
 Alpha  occ. eigenvalues --  -38.45368 -38.44909 -38.44879 -38.44549 -38.44428
 Alpha  occ. eigenvalues --  -38.43885 -38.43727  -2.21109  -2.20699  -2.20645
 Alpha  occ. eigenvalues --   -2.20342  -2.20204  -2.19676  -2.19534  -1.14794
 Alpha  occ. eigenvalues --   -1.14778  -1.14727  -1.14361  -1.14358  -1.14330
 Alpha  occ. eigenvalues --   -1.14328  -1.14320  -1.14285  -1.14015  -1.14011
 Alpha  occ. eigenvalues --   -1.13990  -1.13874  -1.13856  -1.13840  -1.13329
 Alpha  occ. eigenvalues --   -1.13315  -1.13311  -1.13191  -1.13185  -1.13168
 Alpha  occ. eigenvalues --   -0.15563  -0.13733  -0.13419  -0.10707
 Alpha virt. eigenvalues --   -0.07591  -0.05177  -0.04364  -0.03584  -0.03402
 Alpha virt. eigenvalues --   -0.02123  -0.02074  -0.01745  -0.01285  -0.01257
 Alpha virt. eigenvalues --   -0.00685  -0.00203   0.00006   0.00393   0.00718

  Beta  occ. eigenvalues --  -38.45342 -38.44871 -38.44863 -38.44548 -38.44404
  Beta  occ. eigenvalues --  -38.43825 -38.43677  -2.21065  -2.20637  -2.20615
  Beta  occ. eigenvalues --   -2.20345  -2.20161  -2.19564  -2.19441  -1.14767
  Beta  occ. eigenvalues --   -1.14753  -1.14670  -1.14330  -1.14319  -1.14306
  Beta  occ. eigenvalues --   -1.14301  -1.14263  -1.14238  -1.14020  -1.14016
  Beta  occ. eigenvalues --   -1.13964  -1.13847  -1.13832  -1.13795  -1.13253
  Beta  occ. eigenvalues --   -1.13240  -1.13237  -1.13128  -1.13123  -1.13107
  Beta  occ. eigenvalues --   -0.15068  -0.13006  -0.12748
  Beta virt. eigenvalues --   -0.07775  -0.07541  -0.04712  -0.03858  -0.03400
  Beta virt. eigenvalues --   -0.03077  -0.01968  -0.01788  -0.01625  -0.01124
  Beta virt. eigenvalues --   -0.00958  -0.00473   0.00076   0.00252   0.00367

 Mulliken charges and spin densities:
               1          2
     1  Na  -0.180532   0.201472
     2  Na  -0.050160   0.050184
     3  Na   0.222967   0.236933
     4  Na  -0.040754   0.014462
     5  Na  -0.155692   0.125917
     6  Na   0.096718   0.275201
     7  Na   0.107453   0.095831
 Sum of Mulliken charges =  -0.00000   1.00000

 Dipole moment (field-independent basis, Debye):
    X=             -0.6054    Y=              0.6055    Z=              0.0784  Tot=              0.8598
 Quadrupole moment (field-independent basis, Debye-Ang):
   XX=            -63.6440   YY=            -67.6765   ZZ=            -69.8671
   XY=              0.4280   XZ=              0.9494   YZ=              1.5147

 Normal termination of Gaussian 16 at Sun Dec  3 18:53:05 2023.
