 Gaussian 16, Revision B.01,
 Gaussian 16:  ES64L-G16RevB.01 20-Dec-2017

 -------------------------
 #P B3LYP/6-311+g(d) force
 -------------------------

 -----
 DPGEN
 -----
 Symbolic Z-matrix:
 Charge =  0 Multiplicity = 2

                         Standard orientation:
 ---------------------------------------------------------------------
 Center     Atomic      Atomic             Coordinates (Angstroms)
 Number     Number       Type             X           Y           Z
 ---------------------------------------------------------------------
      1         11           0       -1.668808   -2.200560    0.482020
      2         11           0       -2.474384    1.068268   -0.255697
      3         11           0        1.460516    1.264989   -0.753574
      4         11           0       -0.873465    3.924404    0.230603
      5         11           0       -5.021293   -1.804202    0.068552
      6         11           0        4.812967   -0.025920    0.914921
      7         11           0        3.764467   -2.226979   -0.686825
 ---------------------------------------------------------------------

 SCF Done:  E(UB3LYP) =  -1136.11462300     A.U. after   20 cycles

 The electronic state is 2-A.
 Alpha  occ. eigenvalues --  -38.45343 -38.44683 -38.44417 -38.44075 -38.43764
 Alpha  occ. eigenvalues --  -38.43721 -38.43420  -2.21150  -2.20446  -2.20263
 Alpha  occ. eigenvalues --   -2.19900  -2.19558  -2.19533  -2.19229  -1.14882
 Alpha  occ. eigenvalues --   -1.14804  -1.14776  -1.14157  -1.14127  -1.14029
 Alpha  occ. eigenvalues --   -1.13928  -1.13898  -1.13882  -1.13615  -1.13607
 Alpha  occ. eigenvalues --   -1.13491  -1.13226  -1.13222  -1.13213  -1.13203
 Alpha  occ. eigenvalues --   -1.13190  -1.13114  -1.12900  -1.12888  -1.12848
 Alpha  occ. eigenvalues --   -0.16054  -0.14337  -0.12459  -0.09461
 Alpha virt. eigenvalues --   -0.06482  -0.05676  -0.05208  -0.03443  -0.02916
 Alpha virt. eigenvalues --   -0.02622  -0.01813  -0.01484  -0.01386  -0.00947
 Alpha virt. eigenvalues --   -0.00355   0.00039   0.00292   0.00449   0.00473

  Beta  occ. eigenvalues --  -38.45343 -38.44661 -38.44382 -38.44063 -38.43730
  Beta  occ. eigenvalues --  -38.43685 -38.43400  -2.21155  -2.20405  -2.20197
  Beta  occ. eigenvalues --   -2.19881  -2.19493  -2.19467  -2.19192  -1.14874
  Beta  occ. eigenvalues --   -1.14811  -1.14762  -1.14128  -1.14085  -1.14009
  Beta  occ. eigenvalues --   -1.13885  -1.13852  -1.13834  -1.13606  -1.13562
  Beta  occ. eigenvalues --   -1.13480  -1.13178  -1.13178  -1.13170  -1.13160
  Beta  occ. eigenvalues --   -1.13143  -1.13056  -1.12871  -1.12863  -1.12826
  Beta  occ. eigenvalues --   -0.15542  -0.14028  -0.12231
  Beta virt. eigenvalues --   -0.06336  -0.06262  -0.05130  -0.04835  -0.03150
  Beta virt. eigenvalues --   -0.02793  -0.02294  -0.01716  -0.01330  -0.01167
  Beta virt. eigenvalues --   -0.00467  -0.00023   0.00175   0.00420   0.00563

 Mulliken charges and spin densities:
               1          2
     1  Na  -0.130091   0.248742
     2  Na  -1.222238   0.067056
     3  Na  -0.577677   0.045696
     4  Na   1.100412   0.198882
     5  Na   0.499344   0.162320
     6  Na   0.306186   0.247557
     7  Na   0.024064   0.029747
 Sum of Mulliken charges =  -0.00000   1.00000

 Dipole moment (field-independent basis, Debye):
    X=              1.4102    Y=             -0.6144    Z=             -0.0346  Tot=              1.5386
 Quadrupole moment (field-independent basis, Debye-Ang):
   XX=            -66.2676   YY=            -60.9332   ZZ=            -70.5928
   XY=              1.9929   XZ=              0.1484   YZ=              3.4388

 Normal termination of Gaussian 16 at Sun Dec  3 17:20:06 2023.
