 Gaussian 16, Revision B.01,
 Gaussian 16:  ES64L-G16RevB.01 20-Dec-2017

 -------------------------
 #P B3LYP/6-311+g(d) force
 -------------------------

 -----
 DPGEN
 -----
 Symbolic Z-matrix:
 Charge =  0 Multiplicity = 2

                         Standard orientation:
 ---------------------------------------------------------------------
 Center     Atomic      Atomic             Coordinates (Angstroms)
 Number     Number       Type             X           Y           Z
 ---------------------------------------------------------------------
      1         11           0       -0.197087    0.250922    1.981266
      2         11           0        2.658598   -1.993105    0.027407
      3         11           0       -0.016277   -0.335842   -1.642660
      4         11           0       -0.309611    2.802612   -0.106698
      5         11           0        2.715896    1.393485   -0.157469
      6         11           0       -1.416432   -2.402464    0.166278
      7         11           0       -3.435086    0.284392   -0.268126
 ---------------------------------------------------------------------

 SCF Done:  E(UB3LYP) =  -1136.13503400     A.U. after   20 cycles

 The electronic state is 2-A.
 Alpha  occ. eigenvalues --  -38.44751 -38.43906 -38.43838 -38.43551 -38.43377
 Alpha  occ. eigenvalues --  -38.43372 -38.42949  -2.20544  -2.19759  -2.19640
 Alpha  occ. eigenvalues --   -2.19433  -2.19332  -2.19278  -2.18816  -1.14214
 Alpha  occ. eigenvalues --   -1.14201  -1.14184  -1.13437  -1.13431  -1.13408
 Alpha  occ. eigenvalues --   -1.13309  -1.13293  -1.13282  -1.13206  -1.13107
 Alpha  occ. eigenvalues --   -1.13038  -1.13011  -1.12959  -1.12946  -1.12927
 Alpha  occ. eigenvalues --   -1.12911  -1.12888  -1.12496  -1.12482  -1.12445
 Alpha  occ. eigenvalues --   -0.18570  -0.13277  -0.12160  -0.10553
 Alpha virt. eigenvalues --   -0.06173  -0.05230  -0.04387  -0.03232  -0.02724
 Alpha virt. eigenvalues --   -0.02382  -0.02005  -0.01134  -0.00417  -0.00293
 Alpha virt. eigenvalues --   -0.00038   0.00313   0.00732   0.00848   0.00874

  Beta  occ. eigenvalues --  -38.44745 -38.43902 -38.43839 -38.43540 -38.43317
  Beta  occ. eigenvalues --  -38.43277 -38.42943  -2.20536  -2.19755  -2.19644
  Beta  occ. eigenvalues --   -2.19418  -2.19224  -2.19103  -2.18809  -1.14200
  Beta  occ. eigenvalues --   -1.14188  -1.14181  -1.13433  -1.13420  -1.13398
  Beta  occ. eigenvalues --   -1.13300  -1.13296  -1.13283  -1.13182  -1.13066
  Beta  occ. eigenvalues --   -1.13030  -1.12939  -1.12888  -1.12847  -1.12833
  Beta  occ. eigenvalues --   -1.12785  -1.12767  -1.12492  -1.12449  -1.12442
  Beta  occ. eigenvalues --   -0.17841  -0.13058  -0.11937
  Beta virt. eigenvalues --   -0.06653  -0.06105  -0.05230  -0.04355  -0.02472
  Beta virt. eigenvalues --   -0.01972  -0.01902  -0.01343  -0.01070  -0.00466
  Beta virt. eigenvalues --   -0.00321   0.00114   0.00344   0.00788   0.00850

 Mulliken charges and spin densities:
               1          2
     1  Na  -0.378275   0.727466
     2  Na   0.103488  -0.066097
     3  Na  -0.277072   0.555199
     4  Na   0.094609  -0.086105
     5  Na   0.123209  -0.046348
     6  Na   0.206599  -0.041571
     7  Na   0.127442  -0.042544
 Sum of Mulliken charges =  -0.00000   1.00000

 Dipole moment (field-independent basis, Debye):
    X=             -0.3392    Y=             -0.0574    Z=              0.0412  Tot=              0.3465
 Quadrupole moment (field-independent basis, Debye-Ang):
   XX=            -52.0171   YY=            -65.1699   ZZ=            -75.3436
   XY=             -1.0145   XZ=              0.6932   YZ=             -1.4204

 Normal termination of Gaussian 16 at Fri Dec  8 06:59:16 2023.
