 Gaussian 16, Revision B.01,
 Gaussian 16:  ES64L-G16RevB.01 20-Dec-2017

 -------------------------
 #P B3LYP/6-311+g(d) force
 -------------------------

 -----
 DPGEN
 -----
 Symbolic Z-matrix:
 Charge =  0 Multiplicity = 2

                         Standard orientation:
 ---------------------------------------------------------------------
 Center     Atomic      Atomic             Coordinates (Angstroms)
 Number     Number       Type             X           Y           Z
 ---------------------------------------------------------------------
      1         11           0       -0.152257   -2.507487   -1.211797
      2         11           0       -2.321996    1.823583    0.560368
      3         11           0        0.030197   -0.252591    1.398847
      4         11           0        0.201622    2.733521   -0.998425
      5         11           0        3.385241   -0.412459    1.349091
      6         11           0       -3.119032   -1.460486    0.220048
      7         11           0        1.976225    0.075918   -1.318133
 ---------------------------------------------------------------------

 SCF Done:  E(UB3LYP) =  -1136.12658256     A.U. after   20 cycles

 The electronic state is 2-A.
 Alpha  occ. eigenvalues --  -38.44483 -38.44093 -38.43912 -38.43677 -38.43559
 Alpha  occ. eigenvalues --  -38.43505 -38.43286  -2.20345  -2.19914  -2.19867
 Alpha  occ. eigenvalues --   -2.19527  -2.19521  -2.19392  -2.19157  -1.14022
 Alpha  occ. eigenvalues --   -1.13993  -1.13961  -1.13590  -1.13586  -1.13575
 Alpha  occ. eigenvalues --   -1.13563  -1.13532  -1.13482  -1.13237  -1.13198
 Alpha  occ. eigenvalues --   -1.13178  -1.13167  -1.13160  -1.13120  -1.13091
 Alpha  occ. eigenvalues --   -1.13066  -1.13028  -1.12814  -1.12792  -1.12778
 Alpha  occ. eigenvalues --   -0.18427  -0.13714  -0.12279  -0.11139
 Alpha virt. eigenvalues --   -0.06112  -0.05048  -0.04799  -0.03381  -0.02816
 Alpha virt. eigenvalues --   -0.02411  -0.02069  -0.00753  -0.00385  -0.00101
 Alpha virt. eigenvalues --   -0.00013   0.00272   0.00498   0.00655   0.00863

  Beta  occ. eigenvalues --  -38.44425 -38.44096 -38.43876 -38.43631 -38.43524
  Beta  occ. eigenvalues --  -38.43502 -38.43259  -2.20237  -2.19923  -2.19803
  Beta  occ. eigenvalues --   -2.19461  -2.19443  -2.19388  -2.19109  -1.13957
  Beta  occ. eigenvalues --   -1.13909  -1.13888  -1.13597  -1.13580  -1.13562
  Beta  occ. eigenvalues --   -1.13524  -1.13491  -1.13433  -1.13181  -1.13152
  Beta  occ. eigenvalues --   -1.13115  -1.13110  -1.13101  -1.13088  -1.13066
  Beta  occ. eigenvalues --   -1.13051  -1.13025  -1.12775  -1.12763  -1.12743
  Beta  occ. eigenvalues --   -0.17815  -0.13356  -0.12055
  Beta virt. eigenvalues --   -0.07407  -0.05926  -0.04787  -0.04344  -0.03041
  Beta virt. eigenvalues --   -0.02404  -0.01948  -0.01489  -0.00717  -0.00096
  Beta virt. eigenvalues --    0.00011   0.00070   0.00326   0.00657   0.00788

 Mulliken charges and spin densities:
               1          2
     1  Na  -0.518625   0.186283
     2  Na   0.617392   0.036242
     3  Na  -0.688298   0.176583
     4  Na  -0.522376   0.083857
     5  Na  -0.013224   0.218486
     6  Na   0.461475  -0.009692
     7  Na   0.663656   0.308242
 Sum of Mulliken charges =  -0.00000   1.00000

 Dipole moment (field-independent basis, Debye):
    X=             -0.0443    Y=             -0.3395    Z=              0.0610  Tot=              0.3478
 Quadrupole moment (field-independent basis, Debye-Ang):
   XX=            -54.6378   YY=            -69.7212   ZZ=            -70.7012
   XY=              0.4450   XZ=              0.2095   YZ=              0.0998

 Normal termination of Gaussian 16 at Tue Nov 28 21:14:26 2023.
