 Gaussian 16, Revision B.01,
 Gaussian 16:  ES64L-G16RevB.01 20-Dec-2017

 -------------------------
 #P B3LYP/6-311+g(d) force
 -------------------------

 -----
 DPGEN
 -----
 Symbolic Z-matrix:
 Charge =  0 Multiplicity = 2

                         Standard orientation:
 ---------------------------------------------------------------------
 Center     Atomic      Atomic             Coordinates (Angstroms)
 Number     Number       Type             X           Y           Z
 ---------------------------------------------------------------------
      1         11           0       -2.982853   -1.695092   -0.387196
      2         11           0        1.818680    2.362867   -0.488855
      3         11           0       -0.283304    0.133294   -1.346167
      4         11           0        0.383436    0.103898    2.278344
      5         11           0        3.136261   -0.906318   -0.366153
      6         11           0       -2.271235    2.636739    0.175770
      7         11           0        0.199015   -2.635388    0.134258
 ---------------------------------------------------------------------

 SCF Done:  E(UB3LYP) =  -1136.13157480     A.U. after   20 cycles

 The electronic state is 2-A.
 Alpha  occ. eigenvalues --  -38.44337 -38.44062 -38.43955 -38.43919 -38.43873
 Alpha  occ. eigenvalues --  -38.43128 -38.43086  -2.20087  -2.19868  -2.19788
 Alpha  occ. eigenvalues --   -2.19743  -2.19722  -2.19076  -2.19032  -1.13763
 Alpha  occ. eigenvalues --   -1.13744  -1.13727  -1.13541  -1.13525  -1.13507
 Alpha  occ. eigenvalues --   -1.13503  -1.13451  -1.13418  -1.13413  -1.13397
 Alpha  occ. eigenvalues --   -1.13381  -1.13368  -1.13348  -1.13328  -1.12830
 Alpha  occ. eigenvalues --   -1.12751  -1.12703  -1.12697  -1.12664  -1.12641
 Alpha  occ. eigenvalues --   -0.18255  -0.12792  -0.12323  -0.10691
 Alpha virt. eigenvalues --   -0.05946  -0.05494  -0.04504  -0.02900  -0.02859
 Alpha virt. eigenvalues --   -0.02607  -0.01727  -0.01517  -0.00561  -0.00329
 Alpha virt. eigenvalues --   -0.00055   0.00288   0.00696   0.00779   0.00855

  Beta  occ. eigenvalues --  -38.44338 -38.44057 -38.43941 -38.43913 -38.43760
  Beta  occ. eigenvalues --  -38.43119 -38.43049  -2.20090  -2.19859  -2.19765
  Beta  occ. eigenvalues --   -2.19733  -2.19514  -2.19021  -2.19008  -1.13756
  Beta  occ. eigenvalues --   -1.13747  -1.13730  -1.13527  -1.13519  -1.13502
  Beta  occ. eigenvalues --   -1.13483  -1.13428  -1.13409  -1.13396  -1.13376
  Beta  occ. eigenvalues --   -1.13355  -1.13242  -1.13205  -1.13179  -1.12802
  Beta  occ. eigenvalues --   -1.12701  -1.12668  -1.12656  -1.12635  -1.12620
  Beta  occ. eigenvalues --   -0.17557  -0.12534  -0.12160
  Beta virt. eigenvalues --   -0.06755  -0.05883  -0.05384  -0.04464  -0.02273
  Beta virt. eigenvalues --   -0.02139  -0.01677  -0.01466  -0.01433  -0.00582
  Beta virt. eigenvalues --   -0.00339   0.00121   0.00342   0.00734   0.00825

 Mulliken charges and spin densities:
               1          2
     1  Na   0.179002   0.017518
     2  Na   0.261195   0.052275
     3  Na  -0.261983   0.059255
     4  Na  -0.551585   0.699150
     5  Na   0.107231   0.044013
     6  Na  -0.062092   0.003811
     7  Na   0.328230   0.123978
 Sum of Mulliken charges =  -0.00000   1.00000

 Dipole moment (field-independent basis, Debye):
    X=             -0.1914    Y=              0.2981    Z=              0.1951  Tot=              0.4045
 Quadrupole moment (field-independent basis, Debye-Ang):
   XX=            -54.6655   YY=            -62.6373   ZZ=            -75.0875
   XY=             -0.5715   XZ=             -1.2306   YZ=              0.5348

 Normal termination of Gaussian 16 at Fri Dec  8 02:00:03 2023.
