 Gaussian 16, Revision B.01,
 Gaussian 16:  ES64L-G16RevB.01 20-Dec-2017

 -------------------------
 #P B3LYP/6-311+g(d) force
 -------------------------

 -----
 DPGEN
 -----
 Symbolic Z-matrix:
 Charge =  0 Multiplicity = 2

                         Standard orientation:
 ---------------------------------------------------------------------
 Center     Atomic      Atomic             Coordinates (Angstroms)
 Number     Number       Type             X           Y           Z
 ---------------------------------------------------------------------
      1         11           0       -1.188814   -2.850359    0.100204
      2         11           0        0.065427    0.034057    2.193027
      3         11           0       -1.259080    2.903019    0.095651
      4         11           0       -3.406785   -0.213999   -0.476637
      5         11           0        0.261609    0.024753   -1.495432
      6         11           0        2.533710    1.690776   -0.242064
      7         11           0        2.993933   -1.588246   -0.174749
 ---------------------------------------------------------------------

 SCF Done:  E(UB3LYP) =  -1136.13254249     A.U. after   19 cycles

 The electronic state is 2-A.
 Alpha  occ. eigenvalues --  -38.44472 -38.44260 -38.44039 -38.43687 -38.43534
 Alpha  occ. eigenvalues --  -38.43475 -38.43373  -2.20255  -2.20072  -2.19906
 Alpha  occ. eigenvalues --   -2.19533  -2.19480  -2.19277  -2.19163  -1.13932
 Alpha  occ. eigenvalues --   -1.13902  -1.13893  -1.13751  -1.13744  -1.13714
 Alpha  occ. eigenvalues --   -1.13637  -1.13559  -1.13507  -1.13202  -1.13165
 Alpha  occ. eigenvalues --   -1.13161  -1.13144  -1.13129  -1.13092  -1.12950
 Alpha  occ. eigenvalues --   -1.12944  -1.12914  -1.12837  -1.12825  -1.12805
 Alpha  occ. eigenvalues --   -0.18086  -0.13227  -0.11939  -0.10575
 Alpha virt. eigenvalues --   -0.06006  -0.05463  -0.04688  -0.03192  -0.02656
 Alpha virt. eigenvalues --   -0.02561  -0.01881  -0.01285  -0.00672  -0.00551
 Alpha virt. eigenvalues --   -0.00057   0.00295   0.00684   0.00802   0.00825

  Beta  occ. eigenvalues --  -38.44460 -38.44257 -38.44030 -38.43576 -38.43493
  Beta  occ. eigenvalues --  -38.43474 -38.43372  -2.20233  -2.20070  -2.19894
  Beta  occ. eigenvalues --   -2.19405  -2.19329  -2.19276  -2.19164  -1.13906
  Beta  occ. eigenvalues --   -1.13889  -1.13880  -1.13751  -1.13736  -1.13703
  Beta  occ. eigenvalues --   -1.13622  -1.13538  -1.13496  -1.13122  -1.13077
  Beta  occ. eigenvalues --   -1.13050  -1.13036  -1.13021  -1.12996  -1.12946
  Beta  occ. eigenvalues --   -1.12934  -1.12909  -1.12828  -1.12824  -1.12804
  Beta  occ. eigenvalues --   -0.17400  -0.12975  -0.11764
  Beta virt. eigenvalues --   -0.06690  -0.05888  -0.05459  -0.04619  -0.02490
  Beta virt. eigenvalues --   -0.01945  -0.01767  -0.01514  -0.01239  -0.00683
  Beta virt. eigenvalues --   -0.00574   0.00113   0.00352   0.00770   0.00804

 Mulliken charges and spin densities:
               1          2
     1  Na   0.028917  -0.012052
     2  Na  -0.428125   0.777332
     3  Na   0.002340  -0.016926
     4  Na   0.037121   0.038676
     5  Na  -0.162676   0.180451
     6  Na   0.370699   0.040603
     7  Na   0.151723  -0.008083
 Sum of Mulliken charges =  -0.00000   1.00000

 Dipole moment (field-independent basis, Debye):
    X=              0.1957    Y=             -0.0930    Z=              0.0476  Tot=              0.2218
 Quadrupole moment (field-independent basis, Debye-Ang):
   XX=            -54.1720   YY=            -63.5613   ZZ=            -75.5356
   XY=             -1.2497   XZ=              0.7183   YZ=             -0.0230

 Normal termination of Gaussian 16 at Thu Dec  7 09:23:56 2023.
