 Gaussian 16, Revision B.01,
 Gaussian 16:  ES64L-G16RevB.01 20-Dec-2017

 -------------------------
 #P B3LYP/6-311+g(d) force
 -------------------------

 -----
 DPGEN
 -----
 Symbolic Z-matrix:
 Charge =  0 Multiplicity = 2

                         Standard orientation:
 ---------------------------------------------------------------------
 Center     Atomic      Atomic             Coordinates (Angstroms)
 Number     Number       Type             X           Y           Z
 ---------------------------------------------------------------------
      1         11           0       -1.331181   -2.328705    1.284044
      2         11           0        3.570217    0.029198   -0.323038
      3         11           0       -1.687356    2.596731    0.144490
      4         11           0        1.269884    2.749641    0.729952
      5         11           0        1.754902   -2.611896   -0.163063
      6         11           0       -3.295484   -0.712263   -0.662037
      7         11           0       -0.280983    0.277294   -1.010349
 ---------------------------------------------------------------------

 SCF Done:  E(UB3LYP) =  -1136.12251861     A.U. after   21 cycles

 The electronic state is 2-A.
 Alpha  occ. eigenvalues --  -38.44176 -38.44115 -38.43969 -38.43927 -38.43899
 Alpha  occ. eigenvalues --  -38.43569 -38.43329  -2.20092  -2.19956  -2.19914
 Alpha  occ. eigenvalues --   -2.19796  -2.19779  -2.19453  -2.19204  -1.13907
 Alpha  occ. eigenvalues --   -1.13756  -1.13726  -1.13643  -1.13636  -1.13617
 Alpha  occ. eigenvalues --   -1.13598  -1.13580  -1.13529  -1.13452  -1.13442
 Alpha  occ. eigenvalues --   -1.13437  -1.13423  -1.13418  -1.13395  -1.13115
 Alpha  occ. eigenvalues --   -1.13093  -1.13080  -1.12857  -1.12841  -1.12837
 Alpha  occ. eigenvalues --   -0.18012  -0.13674  -0.13484  -0.09712
 Alpha virt. eigenvalues --   -0.06444  -0.05724  -0.04456  -0.03416  -0.02943
 Alpha virt. eigenvalues --   -0.02154  -0.01489  -0.01039  -0.00995  -0.00642
 Alpha virt. eigenvalues --   -0.00058   0.00257   0.00534   0.00699   0.00812

  Beta  occ. eigenvalues --  -38.44164 -38.44104 -38.43938 -38.43913 -38.43867
  Beta  occ. eigenvalues --  -38.43535 -38.43270  -2.20077  -2.19943  -2.19891
  Beta  occ. eigenvalues --   -2.19739  -2.19723  -2.19392  -2.19097  -1.13903
  Beta  occ. eigenvalues --   -1.13728  -1.13689  -1.13635  -1.13634  -1.13577
  Beta  occ. eigenvalues --   -1.13564  -1.13553  -1.13513  -1.13412  -1.13398
  Beta  occ. eigenvalues --   -1.13396  -1.13389  -1.13383  -1.13349  -1.13075
  Beta  occ. eigenvalues --   -1.13053  -1.13027  -1.12782  -1.12770  -1.12760
  Beta  occ. eigenvalues --   -0.17612  -0.13233  -0.12870
  Beta virt. eigenvalues --   -0.06419  -0.06352  -0.05569  -0.04206  -0.02829
  Beta virt. eigenvalues --   -0.02308  -0.01996  -0.01435  -0.00896  -0.00632
  Beta virt. eigenvalues --   -0.00475   0.00218   0.00380   0.00632   0.00784

 Mulliken charges and spin densities:
               1          2
     1  Na  -0.406277   0.273412
     2  Na   0.252726   0.211617
     3  Na  -0.039354   0.067080
     4  Na  -0.068790   0.145039
     5  Na   0.092213   0.022235
     6  Na   0.540296   0.008218
     7  Na  -0.370815   0.272398
 Sum of Mulliken charges =  -0.00000   1.00000

 Dipole moment (field-independent basis, Debye):
    X=             -0.1273    Y=              0.3207    Z=              0.1872  Tot=              0.3925
 Quadrupole moment (field-independent basis, Debye-Ang):
   XX=            -56.6536   YY=            -67.6721   ZZ=            -73.2529
   XY=              0.2153   XZ=              0.0529   YZ=              2.1444

 Normal termination of Gaussian 16 at Wed Nov 29 16:00:46 2023.
