 Gaussian 16, Revision B.01,
 Gaussian 16:  ES64L-G16RevB.01 20-Dec-2017

 -------------------------
 #P B3LYP/6-311+g(d) force
 -------------------------

 -----
 DPGEN
 -----
 Symbolic Z-matrix:
 Charge =  0 Multiplicity = 2

                         Standard orientation:
 ---------------------------------------------------------------------
 Center     Atomic      Atomic             Coordinates (Angstroms)
 Number     Number       Type             X           Y           Z
 ---------------------------------------------------------------------
      1         11           0        3.306916   -0.971243   -1.093150
      2         11           0       -0.714729    1.989969    0.982757
      3         11           0       -0.610037   -1.124794   -1.228282
      4         11           0       -3.669343    0.867488   -1.095521
      5         11           0        1.323949   -0.895365    1.563720
      6         11           0        2.478241    1.872265   -0.148264
      7         11           0       -2.114997   -1.738320    1.018739
 ---------------------------------------------------------------------

 SCF Done:  E(UB3LYP) =  -1136.12181655     A.U. after   22 cycles

 The electronic state is 2-A.
 Alpha  occ. eigenvalues --  -38.44512 -38.44262 -38.44185 -38.44175 -38.43802
 Alpha  occ. eigenvalues --  -38.43618 -38.42697  -2.20316  -2.20197  -2.20085
 Alpha  occ. eigenvalues --   -2.20048  -2.19734  -2.19493  -2.18543  -1.14160
 Alpha  occ. eigenvalues --   -1.13986  -1.13951  -1.13938  -1.13862  -1.13781
 Alpha  occ. eigenvalues --   -1.13733  -1.13718  -1.13706  -1.13671  -1.13669
 Alpha  occ. eigenvalues --   -1.13643  -1.13427  -1.13382  -1.13346  -1.13161
 Alpha  occ. eigenvalues --   -1.13150  -1.13138  -1.12237  -1.12213  -1.12160
 Alpha  occ. eigenvalues --   -0.18511  -0.14399  -0.11232  -0.11148
 Alpha virt. eigenvalues --   -0.06291  -0.05467  -0.04715  -0.03181  -0.02793
 Alpha virt. eigenvalues --   -0.02304  -0.02157  -0.00982  -0.00730  -0.00243
 Alpha virt. eigenvalues --    0.00162   0.00284   0.00374   0.00557   0.00695

  Beta  occ. eigenvalues --  -38.44460 -38.44253 -38.44168 -38.44130 -38.43755
  Beta  occ. eigenvalues --  -38.43611 -38.42675  -2.20218  -2.20183  -2.20059
  Beta  occ. eigenvalues --   -2.19965  -2.19652  -2.19484  -2.18506  -1.14144
  Beta  occ. eigenvalues --   -1.13916  -1.13883  -1.13878  -1.13850  -1.13760
  Beta  occ. eigenvalues --   -1.13688  -1.13678  -1.13647  -1.13636  -1.13627
  Beta  occ. eigenvalues --   -1.13613  -1.13373  -1.13300  -1.13288  -1.13157
  Beta  occ. eigenvalues --   -1.13145  -1.13105  -1.12216  -1.12174  -1.12128
  Beta  occ. eigenvalues --   -0.17854  -0.13911  -0.10981
  Beta virt. eigenvalues --   -0.07525  -0.06000  -0.05368  -0.04112  -0.03083
  Beta virt. eigenvalues --   -0.02345  -0.01875  -0.01470  -0.00869  -0.00441
  Beta virt. eigenvalues --   -0.00124   0.00229   0.00315   0.00458   0.00689

 Mulliken charges and spin densities:
               1          2
     1  Na   0.346912   0.269006
     2  Na  -0.604839   0.013707
     3  Na  -0.561243   0.120345
     4  Na   0.178911   0.175454
     5  Na   0.180206   0.309288
     6  Na  -0.084876   0.013806
     7  Na   0.544928   0.098395
 Sum of Mulliken charges =  -0.00000   1.00000

 Dipole moment (field-independent basis, Debye):
    X=             -0.2621    Y=             -0.4797    Z=             -0.0602  Tot=              0.5500
 Quadrupole moment (field-independent basis, Debye-Ang):
   XX=            -53.3564   YY=            -76.4393   ZZ=            -66.3350
   XY=             -0.0114   XZ=             -1.2428   YZ=             -2.7337

 Normal termination of Gaussian 16 at Tue Dec  5 14:11:28 2023.
