 Gaussian 16, Revision B.01,
 Gaussian 16:  ES64L-G16RevB.01 20-Dec-2017

 -------------------------
 #P B3LYP/6-311+g(d) force
 -------------------------

 -----
 DPGEN
 -----
 Symbolic Z-matrix:
 Charge =  0 Multiplicity = 2

                         Standard orientation:
 ---------------------------------------------------------------------
 Center     Atomic      Atomic             Coordinates (Angstroms)
 Number     Number       Type             X           Y           Z
 ---------------------------------------------------------------------
      1         11           0       -4.217838    0.786513    0.731063
      2         11           0        3.050947    0.288045    1.520144
      3         11           0       -0.908244    3.299886   -0.295895
      4         11           0        3.396549   -2.807008   -0.440715
      5         11           0       -4.007276   -2.261160   -0.455688
      6         11           0        0.374248   -2.222141   -0.152534
      7         11           0        2.311614    2.915865   -0.906375
 ---------------------------------------------------------------------

 SCF Done:  E(UB3LYP) =  -1136.10789718     A.U. after   23 cycles

 The electronic state is 2-A.
 Alpha  occ. eigenvalues --  -38.45215 -38.45123 -38.44587 -38.44380 -38.44206
 Alpha  occ. eigenvalues --  -38.43964 -38.43297  -2.20966  -2.20918  -2.20409
 Alpha  occ. eigenvalues --   -2.20183  -2.19994  -2.19741  -2.19091  -1.14647
 Alpha  occ. eigenvalues --   -1.14627  -1.14612  -1.14596  -1.14576  -1.14558
 Alpha  occ. eigenvalues --   -1.14071  -1.14060  -1.14038  -1.13856  -1.13827
 Alpha  occ. eigenvalues --   -1.13785  -1.13649  -1.13645  -1.13628  -1.13422
 Alpha  occ. eigenvalues --   -1.13414  -1.13392  -1.12751  -1.12742  -1.12713
 Alpha  occ. eigenvalues --   -0.15848  -0.13763  -0.12866  -0.09966
 Alpha virt. eigenvalues --   -0.07224  -0.05838  -0.04487  -0.03498  -0.02934
 Alpha virt. eigenvalues --   -0.02498  -0.02371  -0.01936  -0.00989  -0.00933
 Alpha virt. eigenvalues --   -0.00447  -0.00053   0.00046   0.00162   0.00568

  Beta  occ. eigenvalues --  -38.45216 -38.45096 -38.44571 -38.44303 -38.44173
  Beta  occ. eigenvalues --  -38.43978 -38.43239  -2.20972  -2.20871  -2.20383
  Beta  occ. eigenvalues --   -2.20041  -2.19932  -2.19771  -2.18982  -1.14655
  Beta  occ. eigenvalues --   -1.14635  -1.14591  -1.14560  -1.14539  -1.14526
  Beta  occ. eigenvalues --   -1.14050  -1.14032  -1.14017  -1.13757  -1.13732
  Beta  occ. eigenvalues --   -1.13686  -1.13607  -1.13600  -1.13589  -1.13447
  Beta  occ. eigenvalues --   -1.13437  -1.13384  -1.12676  -1.12667  -1.12646
  Beta  occ. eigenvalues --   -0.15379  -0.13310  -0.12437
  Beta virt. eigenvalues --   -0.07063  -0.06645  -0.05622  -0.04046  -0.03353
  Beta virt. eigenvalues --   -0.02540  -0.02272  -0.02205  -0.01616  -0.00898
  Beta virt. eigenvalues --   -0.00566  -0.00146   0.00053   0.00126   0.00374

 Mulliken charges and spin densities:
               1          2
     1  Na   0.014605  -0.024627
     2  Na  -0.077723   0.480385
     3  Na  -0.240852   0.282601
     4  Na   1.380906  -0.081976
     5  Na   0.153133   0.193786
     6  Na  -1.478957   0.183086
     7  Na   0.248888  -0.033254
 Sum of Mulliken charges =  -0.00000   1.00000

 Dipole moment (field-independent basis, Debye):
    X=              0.4654    Y=             -1.4714    Z=             -0.0261  Tot=              1.5435
 Quadrupole moment (field-independent basis, Debye-Ang):
   XX=            -59.9183   YY=            -71.7815   ZZ=            -69.4394
   XY=             -5.1302   XZ=             -4.6375   YZ=              2.0924

 Normal termination of Gaussian 16 at Sun Dec  3 22:04:39 2023.
