 Gaussian 16, Revision B.01,
 Gaussian 16:  ES64L-G16RevB.01 20-Dec-2017

 -------------------------
 #P B3LYP/6-311+g(d) force
 -------------------------

 -----
 DPGEN
 -----
 Symbolic Z-matrix:
 Charge =  0 Multiplicity = 2

                         Standard orientation:
 ---------------------------------------------------------------------
 Center     Atomic      Atomic             Coordinates (Angstroms)
 Number     Number       Type             X           Y           Z
 ---------------------------------------------------------------------
      1         11           0        3.868284    0.398798    0.153181
      2         11           0       -3.089275    1.867358    0.115675
      3         11           0       -0.773414   -0.257453   -1.374020
      4         11           0        0.972447    2.974484   -0.280962
      5         11           0       -0.034117   -0.025972    1.429328
      6         11           0       -2.582152   -2.192843    0.214465
      7         11           0        1.638226   -2.764372   -0.257667
 ---------------------------------------------------------------------

 SCF Done:  E(UB3LYP) =  -1136.11771287     A.U. after   27 cycles

 The electronic state is 2-A.
 Alpha  occ. eigenvalues --  -38.44959 -38.44907 -38.44504 -38.44116 -38.43926
 Alpha  occ. eigenvalues --  -38.43791 -38.42708  -2.20725  -2.20645  -2.20331
 Alpha  occ. eigenvalues --   -2.19894  -2.19719  -2.19698  -2.18715  -1.14408
 Alpha  occ. eigenvalues --   -1.14373  -1.14364  -1.14323  -1.14298  -1.14278
 Alpha  occ. eigenvalues --   -1.14040  -1.13988  -1.13945  -1.13574  -1.13566
 Alpha  occ. eigenvalues --   -1.13526  -1.13519  -1.13388  -1.13372  -1.13328
 Alpha  occ. eigenvalues --   -1.13321  -1.13303  -1.12446  -1.12351  -1.12279
 Alpha  occ. eigenvalues --   -0.17955  -0.13039  -0.12237  -0.09193
 Alpha virt. eigenvalues --   -0.06615  -0.06213  -0.04931  -0.02698  -0.02393
 Alpha virt. eigenvalues --   -0.02295  -0.01938  -0.01337  -0.01250  -0.00778
 Alpha virt. eigenvalues --   -0.00051   0.00191   0.00596   0.00613   0.00730

  Beta  occ. eigenvalues --  -38.44953 -38.44898 -38.44492 -38.44108 -38.43918
  Beta  occ. eigenvalues --  -38.43748 -38.42645  -2.20718  -2.20629  -2.20311
  Beta  occ. eigenvalues --   -2.19881  -2.19686  -2.19643  -2.18600  -1.14395
  Beta  occ. eigenvalues --   -1.14370  -1.14348  -1.14305  -1.14290  -1.14268
  Beta  occ. eigenvalues --   -1.14022  -1.13965  -1.13920  -1.13560  -1.13549
  Beta  occ. eigenvalues --   -1.13508  -1.13458  -1.13374  -1.13355  -1.13310
  Beta  occ. eigenvalues --   -1.13281  -1.13242  -1.12361  -1.12267  -1.12191
  Beta  occ. eigenvalues --   -0.17335  -0.12813  -0.11985
  Beta virt. eigenvalues --   -0.06484  -0.06193  -0.05567  -0.04825  -0.02211
  Beta virt. eigenvalues --   -0.02124  -0.01901  -0.01712  -0.01257  -0.00771
  Beta virt. eigenvalues --   -0.00571   0.00152   0.00294   0.00630   0.00674

 Mulliken charges and spin densities:
               1          2
     1  Na  -0.011511   0.034210
     2  Na   0.058419   0.092144
     3  Na   0.120583   0.339770
     4  Na  -0.196558  -0.069820
     5  Na  -0.106968   0.554164
     6  Na   0.181682   0.135665
     7  Na  -0.045646  -0.086132
 Sum of Mulliken charges =  -0.00000   1.00000

 Dipole moment (field-independent basis, Debye):
    X=             -0.2215    Y=              0.0259    Z=             -0.1439  Tot=              0.2654
 Quadrupole moment (field-independent basis, Debye-Ang):
   XX=            -48.6880   YY=            -58.9110   ZZ=            -80.8007
   XY=             -0.9366   XZ=             -0.7605   YZ=             -0.2569

 Normal termination of Gaussian 16 at Thu Dec  7 06:07:23 2023.
