 Gaussian 16, Revision B.01,
 Gaussian 16:  ES64L-G16RevB.01 20-Dec-2017

 -------------------------
 #P B3LYP/6-311+g(d) force
 -------------------------

 -----
 DPGEN
 -----
 Symbolic Z-matrix:
 Charge =  0 Multiplicity = 2

                         Standard orientation:
 ---------------------------------------------------------------------
 Center     Atomic      Atomic             Coordinates (Angstroms)
 Number     Number       Type             X           Y           Z
 ---------------------------------------------------------------------
      1         11           0        4.004449    0.441006   -0.524120
      2         11           0        2.021656   -1.823351   -0.334132
      3         11           0       -1.415951    2.523751    0.002149
      4         11           0       -1.638121   -2.069081    1.340025
      5         11           0        0.957854    1.165855    1.920387
      6         11           0       -3.707629   -0.268164   -0.745589
      7         11           0       -0.222258    0.029984   -1.658720
 ---------------------------------------------------------------------

 SCF Done:  E(UB3LYP) =  -1136.11845485     A.U. after   24 cycles

 The electronic state is 2-A.
 Alpha  occ. eigenvalues --  -38.45575 -38.44922 -38.44825 -38.43799 -38.43479
 Alpha  occ. eigenvalues --  -38.43412 -38.42593  -2.21381  -2.20719  -2.20705
 Alpha  occ. eigenvalues --   -2.19683  -2.19284  -2.19250  -2.18446  -1.15073
 Alpha  occ. eigenvalues --   -1.15029  -1.15004  -1.14409  -1.14400  -1.14381
 Alpha  occ. eigenvalues --   -1.14366  -1.14353  -1.14307  -1.13389  -1.13330
 Alpha  occ. eigenvalues --   -1.13315  -1.12944  -1.12934  -1.12920  -1.12916
 Alpha  occ. eigenvalues --   -1.12885  -1.12880  -1.12143  -1.12110  -1.12076
 Alpha  occ. eigenvalues --   -0.17949  -0.13948  -0.11229  -0.10948
 Alpha virt. eigenvalues --   -0.07303  -0.04736  -0.04525  -0.03276  -0.03131
 Alpha virt. eigenvalues --   -0.02633  -0.02374  -0.01211  -0.00710  -0.00171
 Alpha virt. eigenvalues --    0.00013   0.00105   0.00339   0.00773   0.00810

  Beta  occ. eigenvalues --  -38.45559 -38.44912 -38.44792 -38.43789 -38.43433
  Beta  occ. eigenvalues --  -38.43343 -38.42597  -2.21352  -2.20702  -2.20644
  Beta  occ. eigenvalues --   -2.19669  -2.19199  -2.19123  -2.18455  -1.15057
  Beta  occ. eigenvalues --   -1.15000  -1.14984  -1.14385  -1.14362  -1.14352
  Beta  occ. eigenvalues --   -1.14340  -1.14330  -1.14268  -1.13381  -1.13325
  Beta  occ. eigenvalues --   -1.13270  -1.12887  -1.12874  -1.12856  -1.12832
  Beta  occ. eigenvalues --   -1.12798  -1.12788  -1.12153  -1.12112  -1.12063
  Beta  occ. eigenvalues --   -0.17297  -0.13662  -0.10979
  Beta virt. eigenvalues --   -0.07325  -0.07097  -0.04668  -0.03958  -0.02927
  Beta virt. eigenvalues --   -0.02827  -0.02233  -0.01592  -0.01018  -0.00514
  Beta virt. eigenvalues --   -0.00117   0.00069   0.00131   0.00440   0.00821

 Mulliken charges and spin densities:
               1          2
     1  Na   0.232731   0.051480
     2  Na   0.132649   0.203385
     3  Na  -0.053583  -0.010318
     4  Na  -0.263878   0.219198
     5  Na  -0.266444   0.402011
     6  Na   0.446275   0.060763
     7  Na  -0.227751   0.073480
 Sum of Mulliken charges =  -0.00000   1.00000

 Dipole moment (field-independent basis, Debye):
    X=              0.6486    Y=              0.2424    Z=             -0.3534  Tot=              0.7774
 Quadrupole moment (field-independent basis, Debye-Ang):
   XX=            -46.8711   YY=            -76.4124   ZZ=            -70.8158
   XY=              1.6028   XZ=              0.5111   YZ=             -1.8796

 Normal termination of Gaussian 16 at Tue Dec  5 10:02:07 2023.
