 Gaussian 16, Revision B.01,
 Gaussian 16:  ES64L-G16RevB.01 20-Dec-2017

 -------------------------
 #P B3LYP/6-311+g(d) force
 -------------------------

 -----
 DPGEN
 -----
 Symbolic Z-matrix:
 Charge =  0 Multiplicity = 2

                         Standard orientation:
 ---------------------------------------------------------------------
 Center     Atomic      Atomic             Coordinates (Angstroms)
 Number     Number       Type             X           Y           Z
 ---------------------------------------------------------------------
      1         11           0        0.902802    1.237341    1.524972
      2         11           0        0.571331    0.314173   -1.636074
      3         11           0       -2.112568   -1.674050   -1.584548
      4         11           0        0.638018   -2.473414    0.817183
      5         11           0        3.687501    0.134495   -0.359885
      6         11           0       -2.125015   -0.166944    1.864086
      7         11           0       -1.562069    2.628400   -0.625734
 ---------------------------------------------------------------------

 SCF Done:  E(UB3LYP) =  -1136.13252588     A.U. after   20 cycles

 The electronic state is 2-A.
 Alpha  occ. eigenvalues --  -38.44325 -38.43868 -38.43850 -38.43723 -38.43576
 Alpha  occ. eigenvalues --  -38.43505 -38.43156  -2.20164  -2.19670  -2.19668
 Alpha  occ. eigenvalues --   -2.19523  -2.19484  -2.19466  -2.18982  -1.13864
 Alpha  occ. eigenvalues --   -1.13799  -1.13769  -1.13370  -1.13355  -1.13326
 Alpha  occ. eigenvalues --   -1.13309  -1.13306  -1.13284  -1.13228  -1.13209
 Alpha  occ. eigenvalues --   -1.13191  -1.13157  -1.13133  -1.13121  -1.13097
 Alpha  occ. eigenvalues --   -1.13086  -1.13074  -1.12667  -1.12627  -1.12617
 Alpha  occ. eigenvalues --   -0.18334  -0.12663  -0.11977  -0.11658
 Alpha virt. eigenvalues --   -0.05659  -0.04780  -0.04420  -0.03294  -0.03222
 Alpha virt. eigenvalues --   -0.03057  -0.01620  -0.00851  -0.00753   0.00177
 Alpha virt. eigenvalues --    0.00328   0.00359   0.00417   0.00717   0.00891

  Beta  occ. eigenvalues --  -38.44270 -38.43869 -38.43812 -38.43710 -38.43539
  Beta  occ. eigenvalues --  -38.43446 -38.43148  -2.20066  -2.19671  -2.19600
  Beta  occ. eigenvalues --   -2.19501  -2.19418  -2.19360  -2.18968  -1.13780
  Beta  occ. eigenvalues --   -1.13733  -1.13703  -1.13350  -1.13327  -1.13307
  Beta  occ. eigenvalues --   -1.13305  -1.13267  -1.13237  -1.13200  -1.13171
  Beta  occ. eigenvalues --   -1.13162  -1.13123  -1.13088  -1.13058  -1.13035
  Beta  occ. eigenvalues --   -1.13021  -1.12995  -1.12647  -1.12618  -1.12602
  Beta  occ. eigenvalues --   -0.17520  -0.12480  -0.11484
  Beta virt. eigenvalues --   -0.07910  -0.05540  -0.04565  -0.04003  -0.03031
  Beta virt. eigenvalues --   -0.02599  -0.02187  -0.01498  -0.00774  -0.00372
  Beta virt. eigenvalues --    0.00232   0.00357   0.00410   0.00485   0.00786

 Mulliken charges and spin densities:
               1          2
     1  Na   0.067020   0.357831
     2  Na  -0.131568   0.563068
     3  Na   0.094176  -0.021900
     4  Na  -0.261397   0.028672
     5  Na   0.205130  -0.101188
     6  Na   0.028605   0.281104
     7  Na  -0.001967  -0.107588
 Sum of Mulliken charges =  -0.00000   1.00000

 Dipole moment (field-independent basis, Debye):
    X=              0.0045    Y=             -0.2005    Z=              0.2039  Tot=              0.2860
 Quadrupole moment (field-independent basis, Debye-Ang):
   XX=            -56.9202   YY=            -71.2151   ZZ=            -65.6241
   XY=             -0.8382   XZ=              0.5349   YZ=             -1.0961

 Normal termination of Gaussian 16 at Thu Dec  7 11:36:33 2023.
