 Gaussian 16, Revision B.01,
 Gaussian 16:  ES64L-G16RevB.01 20-Dec-2017

 -------------------------
 #P B3LYP/6-311+g(d) force
 -------------------------

 -----
 DPGEN
 -----
 Symbolic Z-matrix:
 Charge =  0 Multiplicity = 2

                         Standard orientation:
 ---------------------------------------------------------------------
 Center     Atomic      Atomic             Coordinates (Angstroms)
 Number     Number       Type             X           Y           Z
 ---------------------------------------------------------------------
      1         11           0        1.356233    3.101174    0.359409
      2         11           0       -2.500084    2.755180    0.105831
      3         11           0        0.437661   -3.173994    0.551024
      4         11           0        3.506153   -2.195531   -0.313064
      5         11           0       -2.440751   -2.087980   -0.055309
      6         11           0        4.583897    1.531194   -0.283821
      7         11           0       -4.943109    0.069958   -0.364071
 ---------------------------------------------------------------------

 SCF Done:  E(UB3LYP) =  -1136.10783667     A.U. after   24 cycles

 The electronic state is 2-A.
 Alpha  occ. eigenvalues --  -38.45588 -38.45501 -38.45146 -38.44485 -38.44466
 Alpha  occ. eigenvalues --  -38.43923 -38.43396  -2.21335  -2.21248  -2.20965
 Alpha  occ. eigenvalues --   -2.20231  -2.20224  -2.19746  -2.19235  -1.15023
 Alpha  occ. eigenvalues --   -1.15011  -1.14961  -1.14934  -1.14918  -1.14854
 Alpha  occ. eigenvalues --   -1.14651  -1.14636  -1.14602  -1.13919  -1.13911
 Alpha  occ. eigenvalues --   -1.13900  -1.13882  -1.13865  -1.13830  -1.13404
 Alpha  occ. eigenvalues --   -1.13393  -1.13368  -1.12913  -1.12877  -1.12875
 Alpha  occ. eigenvalues --   -0.15743  -0.13912  -0.13270  -0.10877
 Alpha virt. eigenvalues --   -0.07879  -0.04948  -0.04389  -0.03689  -0.03531
 Alpha virt. eigenvalues --   -0.02448  -0.02097  -0.01911  -0.01065  -0.00991
 Alpha virt. eigenvalues --   -0.00728  -0.00275   0.00122   0.00404   0.00592

  Beta  occ. eigenvalues --  -38.45587 -38.45459 -38.45112 -38.44466 -38.44443
  Beta  occ. eigenvalues --  -38.43867 -38.43367  -2.21335  -2.21175  -2.20910
  Beta  occ. eigenvalues --   -2.20198  -2.20182  -2.19642  -2.19182  -1.15025
  Beta  occ. eigenvalues --   -1.15012  -1.14948  -1.14889  -1.14872  -1.14774
  Beta  occ. eigenvalues --   -1.14607  -1.14598  -1.14535  -1.13900  -1.13891
  Beta  occ. eigenvalues --   -1.13871  -1.13858  -1.13829  -1.13794  -1.13328
  Beta  occ. eigenvalues --   -1.13322  -1.13304  -1.12869  -1.12844  -1.12841
  Beta  occ. eigenvalues --   -0.15155  -0.13477  -0.12647
  Beta virt. eigenvalues --   -0.07998  -0.07504  -0.04320  -0.03989  -0.03519
  Beta virt. eigenvalues --   -0.03130  -0.02312  -0.01986  -0.01762  -0.00933
  Beta virt. eigenvalues --   -0.00627  -0.00430   0.00110   0.00313   0.00376

 Mulliken charges and spin densities:
               1          2
     1  Na  -0.252187  -0.013579
     2  Na  -0.073468   0.124947
     3  Na  -0.667158  -0.057915
     4  Na   0.055774  -0.026715
     5  Na  -0.423704   0.451765
     6  Na   0.407898   0.254812
     7  Na   0.952844   0.266684
 Sum of Mulliken charges =  -0.00000   1.00000

 Dipole moment (field-independent basis, Debye):
    X=             -0.1229    Y=              0.0208    Z=             -0.1511  Tot=              0.1958
 Quadrupole moment (field-independent basis, Debye-Ang):
   XX=            -56.8387   YY=            -67.3328   ZZ=            -73.9308
   XY=             -3.5291   XZ=             -0.4500   YZ=              0.4530

 Normal termination of Gaussian 16 at Mon Dec  4 00:04:12 2023.
