 Gaussian 16, Revision B.01,
 Gaussian 16:  ES64L-G16RevB.01 20-Dec-2017

 -------------------------
 #P B3LYP/6-311+g(d) force
 -------------------------

 -----
 DPGEN
 -----
 Symbolic Z-matrix:
 Charge =  0 Multiplicity = 2

                         Standard orientation:
 ---------------------------------------------------------------------
 Center     Atomic      Atomic             Coordinates (Angstroms)
 Number     Number       Type             X           Y           Z
 ---------------------------------------------------------------------
      1         11           0        1.227992   -2.696641   -0.224069
      2         11           0       -3.821994    0.160359   -1.597647
      3         11           0        3.639148   -0.173595   -0.840383
      4         11           0        1.640214    2.801858    0.087867
      5         11           0       -3.096778   -0.050975    1.424065
      6         11           0        0.635115   -0.240563    2.038187
      7         11           0       -0.223697    0.199558   -0.888019
 ---------------------------------------------------------------------

 SCF Done:  E(UB3LYP) =  -1136.11954130     A.U. after   25 cycles

 The electronic state is 2-A.
 Alpha  occ. eigenvalues --  -38.45385 -38.44950 -38.44267 -38.44182 -38.44111
 Alpha  occ. eigenvalues --  -38.42349 -38.42167  -2.21177  -2.20768  -2.20126
 Alpha  occ. eigenvalues --   -2.20103  -2.20023  -2.18210  -2.17994  -1.14867
 Alpha  occ. eigenvalues --   -1.14812  -1.14785  -1.14451  -1.14429  -1.14418
 Alpha  occ. eigenvalues --   -1.13941  -1.13786  -1.13758  -1.13742  -1.13736
 Alpha  occ. eigenvalues --   -1.13714  -1.13690  -1.13634  -1.13614  -1.11900
 Alpha  occ. eigenvalues --   -1.11868  -1.11844  -1.11676  -1.11654  -1.11632
 Alpha  occ. eigenvalues --   -0.17975  -0.14029  -0.11189  -0.10972
 Alpha virt. eigenvalues --   -0.06836  -0.05277  -0.03914  -0.03433  -0.03119
 Alpha virt. eigenvalues --   -0.02492  -0.01983  -0.01092  -0.00675  -0.00267
 Alpha virt. eigenvalues --   -0.00243   0.00034   0.00319   0.00635   0.00780

  Beta  occ. eigenvalues --  -38.45344 -38.44942 -38.44218 -38.44172 -38.44030
  Beta  occ. eigenvalues --  -38.42349 -38.42166  -2.21101  -2.20759  -2.20112
  Beta  occ. eigenvalues --   -2.20011  -2.19876  -2.18211  -2.17993  -1.14812
  Beta  occ. eigenvalues --   -1.14763  -1.14728  -1.14433  -1.14427  -1.14389
  Beta  occ. eigenvalues --   -1.13885  -1.13779  -1.13726  -1.13696  -1.13673
  Beta  occ. eigenvalues --   -1.13664  -1.13604  -1.13523  -1.13508  -1.11904
  Beta  occ. eigenvalues --   -1.11868  -1.11829  -1.11677  -1.11647  -1.11627
  Beta  occ. eigenvalues --   -0.17316  -0.13605  -0.10856
  Beta virt. eigenvalues --   -0.07560  -0.06521  -0.04625  -0.03836  -0.03214
  Beta virt. eigenvalues --   -0.02686  -0.01997  -0.01575  -0.00679  -0.00619
  Beta virt. eigenvalues --   -0.00189   0.00016   0.00159   0.00408   0.00734

 Mulliken charges and spin densities:
               1          2
     1  Na  -0.255722   0.044247
     2  Na   0.848392   0.181310
     3  Na   0.492245   0.181061
     4  Na  -0.119325  -0.102907
     5  Na  -0.151734  -0.000597
     6  Na   0.572410   0.496640
     7  Na  -1.386265   0.200246
 Sum of Mulliken charges =  -0.00000   1.00000

 Dipole moment (field-independent basis, Debye):
    X=             -0.3247    Y=             -0.3287    Z=              0.2585  Tot=              0.5294
 Quadrupole moment (field-independent basis, Debye-Ang):
   XX=            -52.1583   YY=            -77.4918   ZZ=            -64.3383
   XY=             -0.9825   XZ=             -1.4896   YZ=              0.9367

 Normal termination of Gaussian 16 at Tue Dec  5 12:13:57 2023.
