 Gaussian 16, Revision B.01,
 Gaussian 16:  ES64L-G16RevB.01 20-Dec-2017

 -------------------------
 #P B3LYP/6-311+g(d) force
 -------------------------

 -----
 DPGEN
 -----
 Symbolic Z-matrix:
 Charge =  0 Multiplicity = 2

                         Standard orientation:
 ---------------------------------------------------------------------
 Center     Atomic      Atomic             Coordinates (Angstroms)
 Number     Number       Type             X           Y           Z
 ---------------------------------------------------------------------
      1         11           0        0.552873    1.165350   -0.623872
      2         11           0       -0.994710    3.997048   -0.039223
      3         11           0       -2.699686    0.968393    0.696344
      4         11           0       -4.907712   -2.453128    0.102673
      5         11           0       -1.105967   -1.865363   -0.292774
      6         11           0        3.160914   -0.955445   -0.503178
      7         11           0        5.994287   -0.856854    0.660030
 ---------------------------------------------------------------------

 SCF Done:  E(UB3LYP) =  -1136.12095011     A.U. after   21 cycles

 The electronic state is 2-A.
 Alpha  occ. eigenvalues --  -38.44923 -38.44761 -38.44436 -38.44169 -38.43841
 Alpha  occ. eigenvalues --  -38.43812 -38.43180  -2.20740  -2.20509  -2.20255
 Alpha  occ. eigenvalues --   -2.19994  -2.19714  -2.19663  -2.19019  -1.14465
 Alpha  occ. eigenvalues --   -1.14444  -1.14306  -1.14178  -1.14174  -1.14114
 Alpha  occ. eigenvalues --   -1.13963  -1.13945  -1.13829  -1.13656  -1.13620
 Alpha  occ. eigenvalues --   -1.13619  -1.13405  -1.13397  -1.13380  -1.13316
 Alpha  occ. eigenvalues --   -1.13309  -1.13258  -1.12709  -1.12690  -1.12670
 Alpha  occ. eigenvalues --   -0.16983  -0.13688  -0.12649  -0.11091
 Alpha virt. eigenvalues --   -0.06564  -0.05021  -0.04475  -0.03966  -0.02706
 Alpha virt. eigenvalues --   -0.02139  -0.01996  -0.01952  -0.01350  -0.00888
 Alpha virt. eigenvalues --   -0.00280  -0.00046   0.00032   0.00366   0.00641

  Beta  occ. eigenvalues --  -38.44914 -38.44728 -38.44402 -38.44087 -38.43819
  Beta  occ. eigenvalues --  -38.43782 -38.43181  -2.20723  -2.20447  -2.20197
  Beta  occ. eigenvalues --   -2.19841  -2.19665  -2.19623  -2.19030  -1.14443
  Beta  occ. eigenvalues --   -1.14434  -1.14293  -1.14135  -1.14130  -1.14075
  Beta  occ. eigenvalues --   -1.13927  -1.13909  -1.13761  -1.13558  -1.13516
  Beta  occ. eigenvalues --   -1.13515  -1.13372  -1.13368  -1.13343  -1.13289
  Beta  occ. eigenvalues --   -1.13272  -1.13217  -1.12719  -1.12704  -1.12617
  Beta  occ. eigenvalues --   -0.16397  -0.13000  -0.12309
  Beta virt. eigenvalues --   -0.07783  -0.06242  -0.04672  -0.04084  -0.03786
  Beta virt. eigenvalues --   -0.02523  -0.01936  -0.01792  -0.01410  -0.01135
  Beta virt. eigenvalues --   -0.00608  -0.00046   0.00126   0.00219   0.00442

 Mulliken charges and spin densities:
               1          2
     1  Na  -1.361495   0.044735
     2  Na   1.091614   0.158082
     3  Na  -0.108983   0.218787
     4  Na   0.699402   0.239548
     5  Na  -0.676966   0.164954
     6  Na  -0.279490  -0.233801
     7  Na   0.635919   0.407696
 Sum of Mulliken charges =  -0.00000   1.00000

 Dipole moment (field-independent basis, Debye):
    X=             -1.3817    Y=              0.2611    Z=              0.2032  Tot=              1.4207
 Quadrupole moment (field-independent basis, Debye-Ang):
   XX=            -59.0971   YY=            -61.7006   ZZ=            -71.9630
   XY=              4.5472   XZ=              1.3784   YZ=              0.2939

 Normal termination of Gaussian 16 at Wed Nov 29 02:22:40 2023.
