 Gaussian 16, Revision B.01,
 Gaussian 16:  ES64L-G16RevB.01 20-Dec-2017

 -------------------------
 #P B3LYP/6-311+g(d) force
 -------------------------

 -----
 DPGEN
 -----
 Symbolic Z-matrix:
 Charge =  0 Multiplicity = 2

                         Standard orientation:
 ---------------------------------------------------------------------
 Center     Atomic      Atomic             Coordinates (Angstroms)
 Number     Number       Type             X           Y           Z
 ---------------------------------------------------------------------
      1         11           0       -1.243928   -2.669047   -0.207858
      2         11           0       -1.842025    2.687530   -0.310725
      3         11           0        3.019818    1.557062    0.336394
      4         11           0        2.509780   -1.610642   -0.542467
      5         11           0        0.363705   -0.164312    2.088515
      6         11           0        0.397472    0.463465   -1.558959
      7         11           0       -3.204821   -0.264056    0.195100
 ---------------------------------------------------------------------

 SCF Done:  E(UB3LYP) =  -1136.12998434     A.U. after   21 cycles

 The electronic state is 2-A.
 Alpha  occ. eigenvalues --  -38.44633 -38.44342 -38.44143 -38.44070 -38.43458
 Alpha  occ. eigenvalues --  -38.43242 -38.43012  -2.20463  -2.20189  -2.20021
 Alpha  occ. eigenvalues --   -2.19921  -2.19402  -2.19061  -2.18852  -1.14126
 Alpha  occ. eigenvalues --   -1.14120  -1.14117  -1.13876  -1.13850  -1.13833
 Alpha  occ. eigenvalues --   -1.13736  -1.13671  -1.13635  -1.13588  -1.13555
 Alpha  occ. eigenvalues --   -1.13528  -1.13085  -1.13048  -1.13027  -1.12728
 Alpha  occ. eigenvalues --   -1.12720  -1.12706  -1.12540  -1.12507  -1.12494
 Alpha  occ. eigenvalues --   -0.18378  -0.13723  -0.11780  -0.10772
 Alpha virt. eigenvalues --   -0.06251  -0.05579  -0.04265  -0.03483  -0.02616
 Alpha virt. eigenvalues --   -0.02527  -0.01938  -0.01260  -0.00581  -0.00268
 Alpha virt. eigenvalues --   -0.00067   0.00311   0.00657   0.00750   0.00776

  Beta  occ. eigenvalues --  -38.44622 -38.44344 -38.44121 -38.43977 -38.43401
  Beta  occ. eigenvalues --  -38.43242 -38.43012  -2.20446  -2.20192  -2.19985
  Beta  occ. eigenvalues --   -2.19749  -2.19299  -2.19062  -2.18855  -1.14117
  Beta  occ. eigenvalues --   -1.14111  -1.14079  -1.13883  -1.13846  -1.13832
  Beta  occ. eigenvalues --   -1.13702  -1.13625  -1.13613  -1.13474  -1.13439
  Beta  occ. eigenvalues --   -1.13399  -1.13014  -1.12963  -1.12958  -1.12724
  Beta  occ. eigenvalues --   -1.12718  -1.12704  -1.12545  -1.12500  -1.12488
  Beta  occ. eigenvalues --   -0.17664  -0.13539  -0.11575
  Beta virt. eigenvalues --   -0.06854  -0.06123  -0.05523  -0.04175  -0.02805
  Beta virt. eigenvalues --   -0.01941  -0.01793  -0.01558  -0.01138  -0.00580
  Beta virt. eigenvalues --   -0.00298   0.00105   0.00355   0.00744   0.00783

 Mulliken charges and spin densities:
               1          2
     1  Na  -0.115012  -0.013752
     2  Na   0.119544  -0.025870
     3  Na   0.085299   0.097928
     4  Na   0.336650   0.099154
     5  Na  -0.337037   0.621211
     6  Na  -0.077739   0.240811
     7  Na  -0.011706  -0.019483
 Sum of Mulliken charges =  -0.00000   1.00000

 Dipole moment (field-independent basis, Debye):
    X=              0.6984    Y=              0.1488    Z=              0.2606  Tot=              0.7601
 Quadrupole moment (field-independent basis, Debye-Ang):
   XX=            -53.3196   YY=            -66.5619   ZZ=            -74.7041
   XY=              1.3086   XZ=             -0.5874   YZ=              1.6206

 Normal termination of Gaussian 16 at Thu Dec  7 02:57:06 2023.
