 Gaussian 16, Revision B.01,
 Gaussian 16:  ES64L-G16RevB.01 20-Dec-2017

 -------------------------
 #P B3LYP/6-311+g(d) force
 -------------------------

 -----
 DPGEN
 -----
 Symbolic Z-matrix:
 Charge =  0 Multiplicity = 2

                         Standard orientation:
 ---------------------------------------------------------------------
 Center     Atomic      Atomic             Coordinates (Angstroms)
 Number     Number       Type             X           Y           Z
 ---------------------------------------------------------------------
      1         11           0        0.078752   -0.019310   -1.792072
      2         11           0        2.896967   -1.240705   -0.435979
      3         11           0        2.044353    1.771224    0.623381
      4         11           0       -0.345100   -2.667200    0.128953
      5         11           0       -0.327776   -0.219369    1.958277
      6         11           0       -3.377292   -0.534317   -0.144586
      7         11           0       -0.969904    2.909676   -0.337975
 ---------------------------------------------------------------------

 SCF Done:  E(UB3LYP) =  -1136.13548423     A.U. after   19 cycles

 The electronic state is 2-A.
 Alpha  occ. eigenvalues --  -38.44484 -38.43704 -38.43622 -38.43469 -38.43434
 Alpha  occ. eigenvalues --  -38.43432 -38.43337  -2.20254  -2.19632  -2.19475
 Alpha  occ. eigenvalues --   -2.19415  -2.19331  -2.19254  -2.19230  -1.13935
 Alpha  occ. eigenvalues --   -1.13903  -1.13895  -1.13357  -1.13281  -1.13235
 Alpha  occ. eigenvalues --   -1.13175  -1.13146  -1.13123  -1.13098  -1.13076
 Alpha  occ. eigenvalues --   -1.13021  -1.13013  -1.12982  -1.12938  -1.12924
 Alpha  occ. eigenvalues --   -1.12913  -1.12904  -1.12894  -1.12878  -1.12834
 Alpha  occ. eigenvalues --   -0.18675  -0.12827  -0.12435  -0.11016
 Alpha virt. eigenvalues --   -0.05889  -0.04838  -0.04501  -0.03283  -0.03014
 Alpha virt. eigenvalues --   -0.02708  -0.01727  -0.01027  -0.00272  -0.00124
 Alpha virt. eigenvalues --    0.00023   0.00347   0.00783   0.00857   0.00902

  Beta  occ. eigenvalues --  -38.44485 -38.43616 -38.43615 -38.43429 -38.43423
  Beta  occ. eigenvalues --  -38.43396 -38.43321  -2.20257  -2.19472  -2.19464
  Beta  occ. eigenvalues --   -2.19317  -2.19283  -2.19250  -2.19204  -1.13927
  Beta  occ. eigenvalues --   -1.13904  -1.13898  -1.13260  -1.13170  -1.13158
  Beta  occ. eigenvalues --   -1.13125  -1.13121  -1.13104  -1.13041  -1.13000
  Beta  occ. eigenvalues --   -1.12972  -1.12945  -1.12931  -1.12921  -1.12907
  Beta  occ. eigenvalues --   -1.12898  -1.12886  -1.12878  -1.12841  -1.12823
  Beta  occ. eigenvalues --   -0.17923  -0.12612  -0.12173
  Beta virt. eigenvalues --   -0.07091  -0.05860  -0.04778  -0.04453  -0.02531
  Beta virt. eigenvalues --   -0.02257  -0.01701  -0.01607  -0.00955  -0.00240
  Beta virt. eigenvalues --   -0.00156   0.00110   0.00366   0.00809   0.00911

 Mulliken charges and spin densities:
               1          2
     1  Na  -0.258829   0.661187
     2  Na   0.139313  -0.001690
     3  Na   0.167787   0.093307
     4  Na   0.254719  -0.057587
     5  Na  -0.110659   0.525628
     6  Na  -0.103366  -0.132429
     7  Na  -0.088964  -0.088417
 Sum of Mulliken charges =  -0.00000   1.00000

 Dipole moment (field-independent basis, Debye):
    X=             -0.4842    Y=             -0.1155    Z=             -0.0396  Tot=              0.4993
 Quadrupole moment (field-independent basis, Debye-Ang):
   XX=            -55.7154   YY=            -64.8000   ZZ=            -72.9815
   XY=             -0.8972   XZ=              0.8308   YZ=              0.5198

 Normal termination of Gaussian 16 at Thu Dec  7 14:16:04 2023.
