 Gaussian 16, Revision B.01,
 Gaussian 16:  ES64L-G16RevB.01 20-Dec-2017

 -------------------------
 #P B3LYP/6-311+g(d) force
 -------------------------

 -----
 DPGEN
 -----
 Symbolic Z-matrix:
 Charge =  0 Multiplicity = 2

                         Standard orientation:
 ---------------------------------------------------------------------
 Center     Atomic      Atomic             Coordinates (Angstroms)
 Number     Number       Type             X           Y           Z
 ---------------------------------------------------------------------
      1         11           0        3.652495    1.717513   -0.335858
      2         11           0        1.994693   -1.710935   -0.690944
      3         11           0       -2.907304    1.954729   -0.975615
      4         11           0        1.138064   -0.735544    1.803516
      5         11           0       -2.734159   -0.891566    1.389930
      6         11           0       -0.914446   -1.671781   -1.814543
      7         11           0       -0.229344    1.337585    0.623514
 ---------------------------------------------------------------------

 SCF Done:  E(UB3LYP) =  -1136.10961839     A.U. after   25 cycles

 The electronic state is 2-A.
 Alpha  occ. eigenvalues --  -38.45216 -38.44728 -38.44538 -38.44068 -38.43669
 Alpha  occ. eigenvalues --  -38.43582 -38.43339  -2.21022  -2.20714  -2.20283
 Alpha  occ. eigenvalues --   -2.19891  -2.19636  -2.19512  -2.19185  -1.14697
 Alpha  occ. eigenvalues --   -1.14673  -1.14648  -1.14553  -1.14441  -1.14221
 Alpha  occ. eigenvalues --   -1.13962  -1.13951  -1.13899  -1.13592  -1.13534
 Alpha  occ. eigenvalues --   -1.13513  -1.13370  -1.13281  -1.13230  -1.13195
 Alpha  occ. eigenvalues --   -1.13189  -1.13086  -1.12861  -1.12815  -1.12800
 Alpha  occ. eigenvalues --   -0.18388  -0.13645  -0.11437  -0.11155
 Alpha virt. eigenvalues --   -0.06581  -0.05576  -0.04211  -0.03393  -0.02809
 Alpha virt. eigenvalues --   -0.02294  -0.02245  -0.01282  -0.00495  -0.00201
 Alpha virt. eigenvalues --    0.00146   0.00197   0.00311   0.00522   0.00661

  Beta  occ. eigenvalues --  -38.45188 -38.44668 -38.44530 -38.44035 -38.43647
  Beta  occ. eigenvalues --  -38.43573 -38.43298  -2.20973  -2.20607  -2.20269
  Beta  occ. eigenvalues --   -2.19828  -2.19604  -2.19496  -2.19108  -1.14651
  Beta  occ. eigenvalues --   -1.14642  -1.14605  -1.14475  -1.14368  -1.14139
  Beta  occ. eigenvalues --   -1.13949  -1.13942  -1.13891  -1.13549  -1.13486
  Beta  occ. eigenvalues --   -1.13472  -1.13307  -1.13250  -1.13206  -1.13177
  Beta  occ. eigenvalues --   -1.13174  -1.13075  -1.12808  -1.12764  -1.12747
  Beta  occ. eigenvalues --   -0.17674  -0.13442  -0.10999
  Beta virt. eigenvalues --   -0.07543  -0.06327  -0.05397  -0.03657  -0.03054
  Beta virt. eigenvalues --   -0.02449  -0.02072  -0.01591  -0.01048  -0.00236
  Beta virt. eigenvalues --   -0.00130   0.00223   0.00251   0.00402   0.00599

 Mulliken charges and spin densities:
               1          2
     1  Na   0.132673  -0.068397
     2  Na   0.147442   0.388038
     3  Na   0.343557   0.082558
     4  Na   0.903223   0.000195
     5  Na   0.324643   0.106826
     6  Na  -0.345411   0.104877
     7  Na  -1.506127   0.385902
 Sum of Mulliken charges =  -0.00000   1.00000

 Dipole moment (field-independent basis, Debye):
    X=             -0.5927    Y=             -0.1793    Z=              0.0817  Tot=              0.6246
 Quadrupole moment (field-independent basis, Debye-Ang):
   XX=            -51.7010   YY=            -73.7761   ZZ=            -68.3295
   XY=              2.0611   XZ=             -1.8604   YZ=             -5.4828

 Normal termination of Gaussian 16 at Tue Dec  5 15:58:36 2023.
