 Gaussian 16, Revision B.01,
 Gaussian 16:  ES64L-G16RevB.01 20-Dec-2017

 -------------------------
 #P B3LYP/6-311+g(d) force
 -------------------------

 -----
 DPGEN
 -----
 Symbolic Z-matrix:
 Charge =  0 Multiplicity = 2

                         Standard orientation:
 ---------------------------------------------------------------------
 Center     Atomic      Atomic             Coordinates (Angstroms)
 Number     Number       Type             X           Y           Z
 ---------------------------------------------------------------------
      1         11           0        0.499294   -0.031384    1.760523
      2         11           0        3.996955   -0.221248    0.286023
      3         11           0        0.684940   -1.653161   -1.616886
      4         11           0        1.101190    1.662510   -0.863580
      5         11           0       -1.843617   -2.376346    0.935816
      6         11           0       -2.767348   -0.181562   -0.841841
      7         11           0       -1.671415    2.801189    0.339944
 ---------------------------------------------------------------------

 SCF Done:  E(UB3LYP) =  -1136.12810434     A.U. after   21 cycles

 The electronic state is 2-A.
 Alpha  occ. eigenvalues --  -38.45156 -38.44380 -38.43963 -38.43819 -38.43431
 Alpha  occ. eigenvalues --  -38.43302 -38.42819  -2.20910  -2.20249  -2.19804
 Alpha  occ. eigenvalues --   -2.19717  -2.19345  -2.19186  -2.18663  -1.14587
 Alpha  occ. eigenvalues --   -1.14578  -1.14533  -1.13968  -1.13903  -1.13881
 Alpha  occ. eigenvalues --   -1.13506  -1.13461  -1.13428  -1.13394  -1.13365
 Alpha  occ. eigenvalues --   -1.13318  -1.13057  -1.13019  -1.12938  -1.12872
 Alpha  occ. eigenvalues --   -1.12835  -1.12801  -1.12329  -1.12321  -1.12310
 Alpha  occ. eigenvalues --   -0.18325  -0.13302  -0.12033  -0.10787
 Alpha virt. eigenvalues --   -0.06665  -0.04712  -0.04389  -0.03507  -0.02794
 Alpha virt. eigenvalues --   -0.02529  -0.02314  -0.00965  -0.00460  -0.00187
 Alpha virt. eigenvalues --    0.00139   0.00222   0.00442   0.00739   0.00792

  Beta  occ. eigenvalues --  -38.45159 -38.44370 -38.43900 -38.43744 -38.43411
  Beta  occ. eigenvalues --  -38.43285 -38.42819  -2.20918  -2.20233  -2.19691
  Beta  occ. eigenvalues --   -2.19581  -2.19313  -2.19157  -2.18666  -1.14593
  Beta  occ. eigenvalues --   -1.14573  -1.14539  -1.13954  -1.13881  -1.13869
  Beta  occ. eigenvalues --   -1.13428  -1.13370  -1.13335  -1.13316  -1.13266
  Beta  occ. eigenvalues --   -1.13222  -1.13035  -1.12963  -1.12922  -1.12856
  Beta  occ. eigenvalues --   -1.12807  -1.12768  -1.12332  -1.12321  -1.12302
  Beta  occ. eigenvalues --   -0.17584  -0.13158  -0.11852
  Beta virt. eigenvalues --   -0.06879  -0.06533  -0.04637  -0.04210  -0.02897
  Beta virt. eigenvalues --   -0.02306  -0.02178  -0.01503  -0.00934  -0.00223
  Beta virt. eigenvalues --   -0.00122   0.00201   0.00262   0.00607   0.00786

 Mulliken charges and spin densities:
               1          2
     1  Na  -0.387818   0.535996
     2  Na   0.278914  -0.060228
     3  Na  -0.339194   0.263638
     4  Na  -0.057125   0.240446
     5  Na   0.227183  -0.086285
     6  Na  -0.015103   0.245217
     7  Na   0.293143  -0.138784
 Sum of Mulliken charges =  -0.00000   1.00000

 Dipole moment (field-independent basis, Debye):
    X=              1.0238    Y=             -0.3436    Z=             -0.0512  Tot=              1.0811
 Quadrupole moment (field-independent basis, Debye-Ang):
   XX=            -50.6805   YY=            -69.7190   ZZ=            -72.2374
   XY=             -1.0080   XZ=              0.6482   YZ=             -0.0254

 Normal termination of Gaussian 16 at Wed Nov 29 16:50:48 2023.
