 Gaussian 16, Revision B.01,
 Gaussian 16:  ES64L-G16RevB.01 20-Dec-2017

 -------------------------
 #P B3LYP/6-311+g(d) force
 -------------------------

 -----
 DPGEN
 -----
 Symbolic Z-matrix:
 Charge =  0 Multiplicity = 2

                         Standard orientation:
 ---------------------------------------------------------------------
 Center     Atomic      Atomic             Coordinates (Angstroms)
 Number     Number       Type             X           Y           Z
 ---------------------------------------------------------------------
      1         11           0       -2.763718    1.448919    0.825127
      2         11           0       -1.465618    0.895553   -1.646202
      3         11           0        1.511466    2.194767   -0.219781
      4         11           0        3.924855   -0.436887    0.339211
      5         11           0        0.235919   -0.498954    2.089287
      6         11           0        0.996151   -1.442949   -1.458104
      7         11           0       -2.439055   -2.160449    0.070461
 ---------------------------------------------------------------------

 SCF Done:  E(UB3LYP) =  -1136.12354507     A.U. after   24 cycles

 The electronic state is 2-A.
 Alpha  occ. eigenvalues --  -38.45227 -38.44675 -38.44365 -38.43687 -38.43538
 Alpha  occ. eigenvalues --  -38.43380 -38.43373  -2.20997  -2.20492  -2.20229
 Alpha  occ. eigenvalues --   -2.19542  -2.19345  -2.19330  -2.19176  -1.14671
 Alpha  occ. eigenvalues --   -1.14657  -1.14628  -1.14169  -1.14133  -1.14103
 Alpha  occ. eigenvalues --   -1.14013  -1.13864  -1.13825  -1.13247  -1.13195
 Alpha  occ. eigenvalues --   -1.13144  -1.13043  -1.13033  -1.13017  -1.12979
 Alpha  occ. eigenvalues --   -1.12953  -1.12907  -1.12847  -1.12835  -1.12826
 Alpha  occ. eigenvalues --   -0.18262  -0.13655  -0.11412  -0.11018
 Alpha virt. eigenvalues --   -0.06791  -0.05242  -0.04360  -0.03169  -0.02896
 Alpha virt. eigenvalues --   -0.02702  -0.02320  -0.01053  -0.00688  -0.00183
 Alpha virt. eigenvalues --    0.00141   0.00224   0.00286   0.00631   0.00759

  Beta  occ. eigenvalues --  -38.45228 -38.44603 -38.44351 -38.43634 -38.43532
  Beta  occ. eigenvalues --  -38.43376 -38.43335  -2.21000  -2.20358  -2.20204
  Beta  occ. eigenvalues --   -2.19446  -2.19335  -2.19249  -2.19184  -1.14666
  Beta  occ. eigenvalues --   -1.14660  -1.14630  -1.14081  -1.14036  -1.14005
  Beta  occ. eigenvalues --   -1.13994  -1.13837  -1.13808  -1.13178  -1.13115
  Beta  occ. eigenvalues --   -1.13079  -1.13034  -1.13005  -1.12955  -1.12950
  Beta  occ. eigenvalues --   -1.12923  -1.12863  -1.12840  -1.12833  -1.12821
  Beta  occ. eigenvalues --   -0.17471  -0.13537  -0.10844
  Beta virt. eigenvalues --   -0.07435  -0.06586  -0.05223  -0.03713  -0.02991
  Beta virt. eigenvalues --   -0.02290  -0.02065  -0.01894  -0.00971  -0.00386
  Beta virt. eigenvalues --   -0.00150   0.00140   0.00263   0.00449   0.00705

 Mulliken charges and spin densities:
               1          2
     1  Na   0.159518   0.040773
     2  Na   0.448881   0.276672
     3  Na  -0.218221  -0.035273
     4  Na   0.279969   0.019424
     5  Na  -0.307748   0.572390
     6  Na  -0.281193   0.165258
     7  Na  -0.081206  -0.039246
 Sum of Mulliken charges =  -0.00000   1.00000

 Dipole moment (field-independent basis, Debye):
    X=              1.0261    Y=             -0.1970    Z=              0.6106  Tot=              1.2102
 Quadrupole moment (field-independent basis, Debye-Ang):
   XX=            -48.6388   YY=            -75.9798   ZZ=            -69.1837
   XY=             -0.5191   XZ=             -0.2936   YZ=              1.7926

 Normal termination of Gaussian 16 at Thu Dec  7 14:31:24 2023.
