 Gaussian 16, Revision B.01,
 Gaussian 16:  ES64L-G16RevB.01 20-Dec-2017

 -------------------------
 #P B3LYP/6-311+g(d) force
 -------------------------

 -----
 DPGEN
 -----
 Symbolic Z-matrix:
 Charge =  0 Multiplicity = 2

                         Standard orientation:
 ---------------------------------------------------------------------
 Center     Atomic      Atomic             Coordinates (Angstroms)
 Number     Number       Type             X           Y           Z
 ---------------------------------------------------------------------
      1         11           0       -0.182251   -0.328872    1.834149
      2         11           0        0.282952   -0.347791   -1.282377
      3         11           0        3.037864   -2.249355   -0.281834
      4         11           0        2.817978    1.525658    0.057527
      5         11           0       -2.712944   -2.240436    0.144105
      6         11           0       -0.215248    2.673159    0.125860
      7         11           0       -3.028352    0.967638   -0.597431
 ---------------------------------------------------------------------

 SCF Done:  E(UB3LYP) =  -1136.12775015     A.U. after   22 cycles

 The electronic state is 2-A.
 Alpha  occ. eigenvalues --  -38.44694 -38.44335 -38.44009 -38.44007 -38.43691
 Alpha  occ. eigenvalues --  -38.43424 -38.42586  -2.20528  -2.20143  -2.19871
 Alpha  occ. eigenvalues --   -2.19782  -2.19644  -2.19336  -2.18500  -1.14219
 Alpha  occ. eigenvalues --   -1.14191  -1.14152  -1.13816  -1.13805  -1.13790
 Alpha  occ. eigenvalues --   -1.13534  -1.13529  -1.13500  -1.13456  -1.13439
 Alpha  occ. eigenvalues --   -1.13423  -1.13406  -1.13289  -1.13237  -1.13028
 Alpha  occ. eigenvalues --   -1.12955  -1.12924  -1.12181  -1.12162  -1.12145
 Alpha  occ. eigenvalues --   -0.18494  -0.13640  -0.11958  -0.10162
 Alpha virt. eigenvalues --   -0.06329  -0.06058  -0.04188  -0.03153  -0.02496
 Alpha virt. eigenvalues --   -0.02217  -0.01975  -0.01578  -0.00892  -0.00212
 Alpha virt. eigenvalues --   -0.00058   0.00219   0.00606   0.00654   0.00782

  Beta  occ. eigenvalues --  -38.44692 -38.44330 -38.44000 -38.43978 -38.43662
  Beta  occ. eigenvalues --  -38.43328 -38.42578  -2.20527  -2.20136  -2.19815
  Beta  occ. eigenvalues --   -2.19770  -2.19592  -2.19160  -2.18490  -1.14219
  Beta  occ. eigenvalues --   -1.14178  -1.14149  -1.13814  -1.13793  -1.13772
  Beta  occ. eigenvalues --   -1.13494  -1.13483  -1.13460  -1.13444  -1.13426
  Beta  occ. eigenvalues --   -1.13414  -1.13351  -1.13256  -1.13198  -1.12912
  Beta  occ. eigenvalues --   -1.12836  -1.12793  -1.12179  -1.12161  -1.12100
  Beta  occ. eigenvalues --   -0.17834  -0.13368  -0.11689
  Beta virt. eigenvalues --   -0.06517  -0.06245  -0.05801  -0.04122  -0.02541
  Beta virt. eigenvalues --   -0.02103  -0.01778  -0.01625  -0.00968  -0.00892
  Beta virt. eigenvalues --   -0.00185   0.00112   0.00293   0.00655   0.00709

 Mulliken charges and spin densities:
               1          2
     1  Na  -0.208435   0.461488
     2  Na  -0.442390   0.175401
     3  Na   0.063660   0.039992
     4  Na   0.201952  -0.050292
     5  Na   0.087957   0.068795
     6  Na  -0.062793   0.088256
     7  Na   0.360049   0.216361
 Sum of Mulliken charges =  -0.00000   1.00000

 Dipole moment (field-independent basis, Debye):
    X=              0.2131    Y=             -0.3047    Z=              0.2615  Tot=              0.4546
 Quadrupole moment (field-independent basis, Debye-Ang):
   XX=            -52.3071   YY=            -63.6597   ZZ=            -76.3754
   XY=              2.8554   XZ=              1.3428   YZ=              0.1818

 Normal termination of Gaussian 16 at Tue Dec  5 23:01:36 2023.
