 Gaussian 16, Revision B.01,
 Gaussian 16:  ES64L-G16RevB.01 20-Dec-2017

 -------------------------
 #P B3LYP/6-311+g(d) force
 -------------------------

 -----
 DPGEN
 -----
 Symbolic Z-matrix:
 Charge =  0 Multiplicity = 2

                         Standard orientation:
 ---------------------------------------------------------------------
 Center     Atomic      Atomic             Coordinates (Angstroms)
 Number     Number       Type             X           Y           Z
 ---------------------------------------------------------------------
      1         11           0        0.472628   -0.445882    2.134700
      2         11           0       -2.822235    2.337836   -0.028947
      3         11           0        3.129981    1.726391    0.231082
      4         11           0       -0.035865    1.269460   -1.150665
      5         11           0       -3.167553   -1.267956    0.042009
      6         11           0        2.764260   -1.223919   -0.689483
      7         11           0       -0.341217   -2.395931   -0.538695
 ---------------------------------------------------------------------

 SCF Done:  E(UB3LYP) =  -1136.12324169     A.U. after   22 cycles

 The electronic state is 2-A.
 Alpha  occ. eigenvalues --  -38.45164 -38.44800 -38.44233 -38.43844 -38.43773
 Alpha  occ. eigenvalues --  -38.43668 -38.42677  -2.20969  -2.20629  -2.20120
 Alpha  occ. eigenvalues --   -2.19648  -2.19644  -2.19528  -2.18586  -1.14669
 Alpha  occ. eigenvalues --   -1.14628  -1.14592  -1.14329  -1.14284  -1.14266
 Alpha  occ. eigenvalues --   -1.13789  -1.13764  -1.13761  -1.13388  -1.13342
 Alpha  occ. eigenvalues --   -1.13312  -1.13298  -1.13286  -1.13223  -1.13191
 Alpha  occ. eigenvalues --   -1.13165  -1.13130  -1.12261  -1.12255  -1.12226
 Alpha  occ. eigenvalues --   -0.18295  -0.13855  -0.11919  -0.10373
 Alpha virt. eigenvalues --   -0.06830  -0.06077  -0.03939  -0.03392  -0.02550
 Alpha virt. eigenvalues --   -0.02396  -0.02261  -0.01583  -0.00901  -0.00117
 Alpha virt. eigenvalues --   -0.00094   0.00204   0.00531   0.00639   0.00690

  Beta  occ. eigenvalues --  -38.45168 -38.44793 -38.44205 -38.43851 -38.43752
  Beta  occ. eigenvalues --  -38.43562 -38.42661  -2.20977  -2.20620  -2.20071
  Beta  occ. eigenvalues --   -2.19658  -2.19609  -2.19332  -2.18560  -1.14676
  Beta  occ. eigenvalues --   -1.14624  -1.14600  -1.14324  -1.14278  -1.14238
  Beta  occ. eigenvalues --   -1.13751  -1.13731  -1.13709  -1.13382  -1.13317
  Beta  occ. eigenvalues --   -1.13303  -1.13295  -1.13273  -1.13207  -1.13060
  Beta  occ. eigenvalues --   -1.13029  -1.12989  -1.12247  -1.12241  -1.12178
  Beta  occ. eigenvalues --   -0.17603  -0.13711  -0.11747
  Beta virt. eigenvalues --   -0.06752  -0.06423  -0.05960  -0.03849  -0.02792
  Beta virt. eigenvalues --   -0.02281  -0.01991  -0.01514  -0.01212  -0.00809
  Beta virt. eigenvalues --   -0.00083   0.00121   0.00261   0.00605   0.00677

 Mulliken charges and spin densities:
               1          2
     1  Na  -0.534261   0.599180
     2  Na   0.438705  -0.088031
     3  Na   0.644124   0.090258
     4  Na  -0.984048   0.127894
     5  Na   0.062100   0.007521
     6  Na   0.330092   0.199075
     7  Na   0.043289   0.064103
 Sum of Mulliken charges =  -0.00000   1.00000

 Dipole moment (field-independent basis, Debye):
    X=             -0.0096    Y=              0.2987    Z=              0.2656  Tot=              0.3998
 Quadrupole moment (field-independent basis, Debye-Ang):
   XX=            -48.4795   YY=            -69.1061   ZZ=            -76.3483
   XY=              2.9537   XZ=             -1.3821   YZ=              2.0116

 Normal termination of Gaussian 16 at Thu Dec  7 19:41:45 2023.
