 Gaussian 16, Revision B.01,
 Gaussian 16:  ES64L-G16RevB.01 20-Dec-2017

 -------------------------
 #P B3LYP/6-311+g(d) force
 -------------------------

 -----
 DPGEN
 -----
 Symbolic Z-matrix:
 Charge =  0 Multiplicity = 2

                         Standard orientation:
 ---------------------------------------------------------------------
 Center     Atomic      Atomic             Coordinates (Angstroms)
 Number     Number       Type             X           Y           Z
 ---------------------------------------------------------------------
      1         11           0        2.119923   -2.290305   -0.840143
      2         11           0       -3.370789    1.412525   -0.749286
      3         11           0        3.249761    0.906901   -0.217145
      4         11           0       -2.935436   -1.856548    0.206147
      5         11           0        0.239995    0.457477   -1.325458
      6         11           0        0.189168   -1.303315    1.886406
      7         11           0        0.507379    2.673265    1.039479
 ---------------------------------------------------------------------

 SCF Done:  E(UB3LYP) =  -1136.12656045     A.U. after   22 cycles

 The electronic state is 2-A.
 Alpha  occ. eigenvalues --  -38.44708 -38.44488 -38.44211 -38.43868 -38.43526
 Alpha  occ. eigenvalues --  -38.43412 -38.43168  -2.20555  -2.20262  -2.19995
 Alpha  occ. eigenvalues --   -2.19799  -2.19374  -2.19263  -2.19004  -1.14251
 Alpha  occ. eigenvalues --   -1.14214  -1.14178  -1.13943  -1.13919  -1.13912
 Alpha  occ. eigenvalues --   -1.13662  -1.13634  -1.13631  -1.13511  -1.13453
 Alpha  occ. eigenvalues --   -1.13428  -1.13041  -1.13014  -1.12995  -1.12940
 Alpha  occ. eigenvalues --   -1.12912  -1.12890  -1.12680  -1.12650  -1.12634
 Alpha  occ. eigenvalues --   -0.17902  -0.13489  -0.11860  -0.10610
 Alpha virt. eigenvalues --   -0.06286  -0.05668  -0.04221  -0.03262  -0.03149
 Alpha virt. eigenvalues --   -0.02124  -0.02103  -0.01353  -0.00647  -0.00348
 Alpha virt. eigenvalues --   -0.00062   0.00210   0.00504   0.00690   0.00711

  Beta  occ. eigenvalues --  -38.44698 -38.44487 -38.44182 -38.43845 -38.43449
  Beta  occ. eigenvalues --  -38.43394 -38.43139  -2.20541  -2.20265  -2.19942
  Beta  occ. eigenvalues --   -2.19759  -2.19234  -2.19231  -2.18951  -1.14239
  Beta  occ. eigenvalues --   -1.14205  -1.14149  -1.13943  -1.13923  -1.13894
  Beta  occ. eigenvalues --   -1.13622  -1.13600  -1.13597  -1.13466  -1.13433
  Beta  occ. eigenvalues --   -1.13393  -1.12951  -1.12930  -1.12916  -1.12891
  Beta  occ. eigenvalues --   -1.12887  -1.12847  -1.12647  -1.12604  -1.12596
  Beta  occ. eigenvalues --   -0.17296  -0.13104  -0.11598
  Beta virt. eigenvalues --   -0.07032  -0.06209  -0.05410  -0.03980  -0.02700
  Beta virt. eigenvalues --   -0.02565  -0.02017  -0.01364  -0.01240  -0.00609
  Beta virt. eigenvalues --   -0.00205   0.00067   0.00299   0.00627   0.00729

 Mulliken charges and spin densities:
               1          2
     1  Na  -0.049764   0.076437
     2  Na   0.110426   0.138932
     3  Na   0.379270   0.060636
     4  Na  -0.160261   0.031760
     5  Na   0.191628  -0.027671
     6  Na  -0.009921   0.470645
     7  Na  -0.461377   0.249261
 Sum of Mulliken charges =  -0.00000   1.00000

 Dipole moment (field-independent basis, Debye):
    X=              0.1877    Y=             -0.0219    Z=              0.0876  Tot=              0.2083
 Quadrupole moment (field-independent basis, Debye-Ang):
   XX=            -53.9829   YY=            -67.4483   ZZ=            -72.8343
   XY=              0.7171   XZ=              0.3927   YZ=              1.9622

 Normal termination of Gaussian 16 at Wed Dec  6 00:40:11 2023.
