 Gaussian 16, Revision B.01,
 Gaussian 16:  ES64L-G16RevB.01 20-Dec-2017

 -------------------------
 #P B3LYP/6-311+g(d) force
 -------------------------

 -----
 DPGEN
 -----
 Symbolic Z-matrix:
 Charge =  0 Multiplicity = 2

                         Standard orientation:
 ---------------------------------------------------------------------
 Center     Atomic      Atomic             Coordinates (Angstroms)
 Number     Number       Type             X           Y           Z
 ---------------------------------------------------------------------
      1         11           0        1.504984   -1.096418    1.195093
      2         11           0        2.578630    1.996530    0.016672
      3         11           0       -1.263364   -1.524570   -1.813313
      4         11           0       -1.939737   -0.927378    1.828138
      5         11           0        4.246983   -0.773550   -0.671288
      6         11           0       -4.159287    0.528494   -0.541179
      7         11           0       -0.968208    1.796892   -0.014123
 ---------------------------------------------------------------------

 SCF Done:  E(UB3LYP) =  -1136.11299354     A.U. after   30 cycles

 The electronic state is 2-A.
 Alpha  occ. eigenvalues --  -38.45480 -38.44973 -38.44916 -38.44473 -38.43374
 Alpha  occ. eigenvalues --  -38.43203 -38.43062  -2.21253  -2.20798  -2.20737
 Alpha  occ. eigenvalues --   -2.20332  -2.19206  -2.19069  -2.18916  -1.14948
 Alpha  occ. eigenvalues --   -1.14882  -1.14871  -1.14453  -1.14437  -1.14435
 Alpha  occ. eigenvalues --   -1.14411  -1.14372  -1.14362  -1.14017  -1.13970
 Alpha  occ. eigenvalues --   -1.13959  -1.12895  -1.12886  -1.12845  -1.12758
 Alpha  occ. eigenvalues --   -1.12748  -1.12692  -1.12622  -1.12592  -1.12527
 Alpha  occ. eigenvalues --   -0.17880  -0.14679  -0.11100  -0.10488
 Alpha virt. eigenvalues --   -0.07744  -0.05235  -0.04914  -0.03200  -0.03057
 Alpha virt. eigenvalues --   -0.02320  -0.02095  -0.01598  -0.01321  -0.00298
 Alpha virt. eigenvalues --   -0.00282   0.00103   0.00205   0.00535   0.00622

  Beta  occ. eigenvalues --  -38.45440 -38.44929 -38.44876 -38.44433 -38.43378
  Beta  occ. eigenvalues --  -38.43183 -38.43046  -2.21178  -2.20715  -2.20661
  Beta  occ. eigenvalues --   -2.20264  -2.19216  -2.19038  -2.18888  -1.14898
  Beta  occ. eigenvalues --   -1.14834  -1.14806  -1.14399  -1.14382  -1.14379
  Beta  occ. eigenvalues --   -1.14359  -1.14321  -1.14306  -1.13956  -1.13914
  Beta  occ. eigenvalues --   -1.13912  -1.12899  -1.12894  -1.12836  -1.12742
  Beta  occ. eigenvalues --   -1.12706  -1.12657  -1.12603  -1.12561  -1.12501
  Beta  occ. eigenvalues --   -0.17222  -0.14254  -0.10305
  Beta virt. eigenvalues --   -0.07601  -0.07266  -0.05197  -0.04333  -0.02952
  Beta virt. eigenvalues --   -0.02806  -0.01893  -0.01632  -0.01194  -0.00997
  Beta virt. eigenvalues --   -0.00214  -0.00161   0.00170   0.00316   0.00601

 Mulliken charges and spin densities:
               1          2
     1  Na  -0.763272   0.214111
     2  Na  -0.255771  -0.189993
     3  Na  -0.256316   0.173807
     4  Na   0.196077  -0.033448
     5  Na   0.874365   0.315876
     6  Na   1.071020   0.381893
     7  Na  -0.866102   0.137755
 Sum of Mulliken charges =  -0.00000   1.00000

 Dipole moment (field-independent basis, Debye):
    X=             -0.4927    Y=             -0.8953    Z=             -0.4010  Tot=              1.0978
 Quadrupole moment (field-independent basis, Debye-Ang):
   XX=            -47.9720   YY=            -82.2362   ZZ=            -65.7323
   XY=             -0.2627   XZ=             -5.0734   YZ=              1.6402

 Normal termination of Gaussian 16 at Thu Dec  7 17:10:20 2023.
