 Gaussian 16, Revision B.01,
 Gaussian 16:  ES64L-G16RevB.01 20-Dec-2017

 -------------------------
 #P B3LYP/6-311+g(d) force
 -------------------------

 -----
 DPGEN
 -----
 Symbolic Z-matrix:
 Charge =  0 Multiplicity = 2

                         Standard orientation:
 ---------------------------------------------------------------------
 Center     Atomic      Atomic             Coordinates (Angstroms)
 Number     Number       Type             X           Y           Z
 ---------------------------------------------------------------------
      1         11           0        1.320427    2.243369    0.597278
      2         11           0        1.258921   -1.945055    0.910088
      3         11           0       -2.474291   -2.060000   -0.364813
      4         11           0       -1.176996    0.307936    1.926870
      5         11           0       -0.064102   -0.136971   -1.678319
      6         11           0       -2.462134    1.811889   -0.714274
      7         11           0        3.598175   -0.221168   -0.676829
 ---------------------------------------------------------------------

 SCF Done:  E(UB3LYP) =  -1136.13404976     A.U. after   19 cycles

 The electronic state is 2-A.
 Alpha  occ. eigenvalues --  -38.44318 -38.43868 -38.43700 -38.43634 -38.43508
 Alpha  occ. eigenvalues --  -38.43386 -38.43379  -2.20133  -2.19721  -2.19648
 Alpha  occ. eigenvalues --   -2.19457  -2.19440  -2.19250  -2.19208  -1.13804
 Alpha  occ. eigenvalues --   -1.13789  -1.13770  -1.13442  -1.13404  -1.13338
 Alpha  occ. eigenvalues --   -1.13329  -1.13285  -1.13263  -1.13138  -1.13131
 Alpha  occ. eigenvalues --   -1.13117  -1.13088  -1.13070  -1.13040  -1.12938
 Alpha  occ. eigenvalues --   -1.12917  -1.12895  -1.12884  -1.12857  -1.12817
 Alpha  occ. eigenvalues --   -0.18607  -0.13458  -0.11578  -0.11241
 Alpha virt. eigenvalues --   -0.05976  -0.05332  -0.04117  -0.03255  -0.02809
 Alpha virt. eigenvalues --   -0.02779  -0.01858  -0.01069  -0.00573   0.00024
 Alpha virt. eigenvalues --    0.00197   0.00298   0.00567   0.00744   0.00826

  Beta  occ. eigenvalues --  -38.44310 -38.43852 -38.43642 -38.43630 -38.43429
  Beta  occ. eigenvalues --  -38.43368 -38.43365  -2.20119  -2.19693  -2.19543
  Beta  occ. eigenvalues --   -2.19453  -2.19296  -2.19214  -2.19191  -1.13794
  Beta  occ. eigenvalues --   -1.13777  -1.13762  -1.13407  -1.13376  -1.13306
  Beta  occ. eigenvalues --   -1.13266  -1.13218  -1.13190  -1.13122  -1.13104
  Beta  occ. eigenvalues --   -1.13077  -1.13032  -1.12975  -1.12944  -1.12913
  Beta  occ. eigenvalues --   -1.12879  -1.12866  -1.12850  -1.12835  -1.12808
  Beta  occ. eigenvalues --   -0.17858  -0.13239  -0.11352
  Beta virt. eigenvalues --   -0.07281  -0.05822  -0.05316  -0.03772  -0.02938
  Beta virt. eigenvalues --   -0.02113  -0.01756  -0.01717  -0.01030  -0.00323
  Beta virt. eigenvalues --    0.00083   0.00181   0.00331   0.00731   0.00801

 Mulliken charges and spin densities:
               1          2
     1  Na  -0.217231  -0.035766
     2  Na  -0.163606   0.010324
     3  Na   0.093405  -0.075550
     4  Na   0.183950   0.580855
     5  Na  -0.315288   0.552972
     6  Na   0.157072  -0.054365
     7  Na   0.261698   0.021530
 Sum of Mulliken charges =  -0.00000   1.00000

 Dipole moment (field-independent basis, Debye):
    X=              0.1350    Y=              0.0465    Z=             -0.1898  Tot=              0.2375
 Quadrupole moment (field-independent basis, Debye-Ang):
   XX=            -51.9759   YY=            -70.6960   ZZ=            -70.3714
   XY=              0.2484   XZ=             -0.2844   YZ=             -0.6502

 Normal termination of Gaussian 16 at Tue Dec  5 13:26:33 2023.
