 Gaussian 16, Revision B.01,
 Gaussian 16:  ES64L-G16RevB.01 20-Dec-2017

 -------------------------
 #P B3LYP/6-311+g(d) force
 -------------------------

 -----
 DPGEN
 -----
 Symbolic Z-matrix:
 Charge =  0 Multiplicity = 2

                         Standard orientation:
 ---------------------------------------------------------------------
 Center     Atomic      Atomic             Coordinates (Angstroms)
 Number     Number       Type             X           Y           Z
 ---------------------------------------------------------------------
      1         11           0       -0.373715   -0.237948    1.887678
      2         11           0       -0.120907    0.427840   -1.749972
      3         11           0       -2.035323   -2.179312   -0.310380
      4         11           0        0.718694    2.923161   -0.272176
      5         11           0       -2.822023    1.374471    0.331927
      6         11           0        3.306881    0.185173    0.426502
      7         11           0        1.326394   -2.493385   -0.313579
 ---------------------------------------------------------------------

 SCF Done:  E(UB3LYP) =  -1136.13692809     A.U. after   19 cycles

 The electronic state is 2-A.
 Alpha  occ. eigenvalues --  -38.44049 -38.44024 -38.43662 -38.43616 -38.43543
 Alpha  occ. eigenvalues --  -38.43293 -38.43286  -2.19858  -2.19840  -2.19528
 Alpha  occ. eigenvalues --   -2.19500  -2.19411  -2.19250  -2.19151  -1.13549
 Alpha  occ. eigenvalues --   -1.13522  -1.13513  -1.13501  -1.13483  -1.13479
 Alpha  occ. eigenvalues --   -1.13270  -1.13213  -1.13172  -1.13148  -1.13146
 Alpha  occ. eigenvalues --   -1.13109  -1.13084  -1.13071  -1.13043  -1.12913
 Alpha  occ. eigenvalues --   -1.12875  -1.12864  -1.12817  -1.12816  -1.12782
 Alpha  occ. eigenvalues --   -0.18561  -0.12858  -0.12594  -0.10752
 Alpha virt. eigenvalues --   -0.05702  -0.05141  -0.04716  -0.03160  -0.03024
 Alpha virt. eigenvalues --   -0.02476  -0.01550  -0.01168  -0.00491  -0.00230
 Alpha virt. eigenvalues --   -0.00010   0.00346   0.00817   0.00843   0.00903

  Beta  occ. eigenvalues --  -38.44042 -38.44013 -38.43655 -38.43540 -38.43534
  Beta  occ. eigenvalues --  -38.43279 -38.43220  -2.19842  -2.19829  -2.19490
  Beta  occ. eigenvalues --   -2.19397  -2.19389  -2.19142  -2.19117  -1.13527
  Beta  occ. eigenvalues --   -1.13503  -1.13501  -1.13487  -1.13472  -1.13472
  Beta  occ. eigenvalues --   -1.13244  -1.13136  -1.13130  -1.13106  -1.13087
  Beta  occ. eigenvalues --   -1.13057  -1.13047  -1.13044  -1.13012  -1.12837
  Beta  occ. eigenvalues --   -1.12815  -1.12801  -1.12775  -1.12770  -1.12758
  Beta  occ. eigenvalues --   -0.17853  -0.12611  -0.12318
  Beta virt. eigenvalues --   -0.06921  -0.05611  -0.05118  -0.04648  -0.02447
  Beta virt. eigenvalues --   -0.02265  -0.01483  -0.01427  -0.01082  -0.00509
  Beta virt. eigenvalues --   -0.00274   0.00119   0.00381   0.00837   0.00886

 Mulliken charges and spin densities:
               1          2
     1  Na  -0.308030   0.719809
     2  Na  -0.035177   0.491470
     3  Na   0.208003  -0.059191
     4  Na   0.049175  -0.092043
     5  Na   0.170616  -0.074599
     6  Na  -0.090132   0.016378
     7  Na   0.005544  -0.001825
 Sum of Mulliken charges =  -0.00000   1.00000

 Dipole moment (field-independent basis, Debye):
    X=             -0.1665    Y=              0.1844    Z=              0.1476  Tot=              0.2890
 Quadrupole moment (field-independent basis, Debye-Ang):
   XX=            -56.6863   YY=            -62.7756   ZZ=            -74.1214
   XY=              0.2890   XZ=              0.9830   YZ=              1.7372

 Normal termination of Gaussian 16 at Thu Dec  7 20:54:56 2023.
