 Gaussian 16, Revision B.01,
 Gaussian 16:  ES64L-G16RevB.01 20-Dec-2017

 -------------------------
 #P B3LYP/6-311+g(d) force
 -------------------------

 -----
 DPGEN
 -----
 Symbolic Z-matrix:
 Charge =  0 Multiplicity = 2

                         Standard orientation:
 ---------------------------------------------------------------------
 Center     Atomic      Atomic             Coordinates (Angstroms)
 Number     Number       Type             X           Y           Z
 ---------------------------------------------------------------------
      1         11           0        0.212450    3.905454   -0.525508
      2         11           0        3.442650   -0.797585    1.248947
      3         11           0        3.142100    2.205668   -0.694584
      4         11           0       -3.130609    2.154248    0.685244
      5         11           0       -3.936873   -0.736766    0.290064
      6         11           0        1.870048   -3.440773   -0.093620
      7         11           0       -1.599767   -3.290245   -0.910543
 ---------------------------------------------------------------------

 SCF Done:  E(UB3LYP) =  -1136.10798197     A.U. after   23 cycles

 The electronic state is 2-A.
 Alpha  occ. eigenvalues --  -38.44998 -38.44892 -38.44610 -38.44577 -38.44515
 Alpha  occ. eigenvalues --  -38.44166 -38.44128  -2.20765  -2.20657  -2.20421
 Alpha  occ. eigenvalues --   -2.20350  -2.20327  -2.19974  -2.19918  -1.14445
 Alpha  occ. eigenvalues --   -1.14434  -1.14409  -1.14342  -1.14333  -1.14307
 Alpha  occ. eigenvalues --   -1.14190  -1.14082  -1.14065  -1.14014  -1.14002
 Alpha  occ. eigenvalues --   -1.13982  -1.13974  -1.13957  -1.13921  -1.13623
 Alpha  occ. eigenvalues --   -1.13616  -1.13607  -1.13573  -1.13560  -1.13543
 Alpha  occ. eigenvalues --   -0.15549  -0.13966  -0.13527  -0.10834
 Alpha virt. eigenvalues --   -0.07749  -0.04843  -0.04464  -0.03628  -0.03529
 Alpha virt. eigenvalues --   -0.02128  -0.02010  -0.01706  -0.01551  -0.01202
 Alpha virt. eigenvalues --   -0.00813  -0.00055   0.00040   0.00307   0.00810

  Beta  occ. eigenvalues --  -38.44992 -38.44895 -38.44597 -38.44537 -38.44476
  Beta  occ. eigenvalues --  -38.44106 -38.44055  -2.20759  -2.20668  -2.20403
  Beta  occ. eigenvalues --   -2.20278  -2.20257  -2.19862  -2.19783  -1.14444
  Beta  occ. eigenvalues --   -1.14434  -1.14374  -1.14354  -1.14346  -1.14272
  Beta  occ. eigenvalues --   -1.14148  -1.14074  -1.14045  -1.13966  -1.13955
  Beta  occ. eigenvalues --   -1.13929  -1.13925  -1.13913  -1.13866  -1.13547
  Beta  occ. eigenvalues --   -1.13542  -1.13533  -1.13481  -1.13471  -1.13453
  Beta  occ. eigenvalues --   -0.15008  -0.13277  -0.12737
  Beta virt. eigenvalues --   -0.07914  -0.07741  -0.04343  -0.03927  -0.03412
  Beta virt. eigenvalues --   -0.03274  -0.01924  -0.01879  -0.01592  -0.01379
  Beta virt. eigenvalues --   -0.00823  -0.00520   0.00188   0.00261   0.00287

 Mulliken charges and spin densities:
               1          2
     1  Na   0.165544   0.193052
     2  Na  -0.323403   0.259321
     3  Na  -0.101794   0.015904
     4  Na  -0.050237   0.157573
     5  Na   0.279730   0.026105
     6  Na   0.096688   0.002494
     7  Na  -0.066528   0.345551
 Sum of Mulliken charges =  -0.00000   1.00000

 Dipole moment (field-independent basis, Debye):
    X=              0.2021    Y=              0.3456    Z=              0.0021  Tot=              0.4004
 Quadrupole moment (field-independent basis, Debye-Ang):
   XX=            -64.2070   YY=            -65.3421   ZZ=            -71.6476
   XY=             -0.5779   XZ=             -0.6836   YZ=              0.7493

 Normal termination of Gaussian 16 at Mon Dec  4 05:41:20 2023.
