 Gaussian 16, Revision B.01,
 Gaussian 16:  ES64L-G16RevB.01 20-Dec-2017

 -------------------------
 #P B3LYP/6-311+g(d) force
 -------------------------

 -----
 DPGEN
 -----
 Symbolic Z-matrix:
 Charge =  0 Multiplicity = 2

                         Standard orientation:
 ---------------------------------------------------------------------
 Center     Atomic      Atomic             Coordinates (Angstroms)
 Number     Number       Type             X           Y           Z
 ---------------------------------------------------------------------
      1         11           0       -2.551181    1.647366    0.335394
      2         11           0        0.059701    0.190079    2.038944
      3         11           0       -0.276957   -0.091712   -1.770488
      4         11           0        1.040132   -2.406376   -0.038080
      5         11           0       -2.814463   -1.672114   -0.134878
      6         11           0        3.538150   -0.150266    0.132801
      7         11           0        1.004619    2.483022   -0.563693
 ---------------------------------------------------------------------

 SCF Done:  E(UB3LYP) =  -1136.13335704     A.U. after   20 cycles

 The electronic state is 2-A.
 Alpha  occ. eigenvalues --  -38.44883 -38.43957 -38.43942 -38.43855 -38.43427
 Alpha  occ. eigenvalues --  -38.43056 -38.42926  -2.20668  -2.19840  -2.19764
 Alpha  occ. eigenvalues --   -2.19707  -2.19405  -2.18932  -2.18792  -1.14339
 Alpha  occ. eigenvalues --   -1.14329  -1.14307  -1.13517  -1.13479  -1.13464
 Alpha  occ. eigenvalues --   -1.13454  -1.13434  -1.13405  -1.13374  -1.13358
 Alpha  occ. eigenvalues --   -1.13326  -1.13093  -1.13069  -1.13018  -1.12630
 Alpha  occ. eigenvalues --   -1.12606  -1.12535  -1.12497  -1.12444  -1.12400
 Alpha  occ. eigenvalues --   -0.18627  -0.13310  -0.11900  -0.10985
 Alpha virt. eigenvalues --   -0.06350  -0.05103  -0.03911  -0.03414  -0.02823
 Alpha virt. eigenvalues --   -0.02698  -0.02075  -0.01105  -0.00283  -0.00101
 Alpha virt. eigenvalues --   -0.00008   0.00307   0.00705   0.00761   0.00877

  Beta  occ. eigenvalues --  -38.44885 -38.43940 -38.43871 -38.43845 -38.43350
  Beta  occ. eigenvalues --  -38.43049 -38.42910  -2.20673  -2.19764  -2.19694
  Beta  occ. eigenvalues --   -2.19680  -2.19264  -2.18922  -2.18766  -1.14340
  Beta  occ. eigenvalues --   -1.14324  -1.14312  -1.13461  -1.13420  -1.13412
  Beta  occ. eigenvalues --   -1.13404  -1.13379  -1.13354  -1.13344  -1.13321
  Beta  occ. eigenvalues --   -1.13316  -1.13001  -1.12964  -1.12918  -1.12622
  Beta  occ. eigenvalues --   -1.12575  -1.12530  -1.12468  -1.12410  -1.12386
  Beta  occ. eigenvalues --   -0.17881  -0.13114  -0.11621
  Beta virt. eigenvalues --   -0.07061  -0.06262  -0.05108  -0.03884  -0.02678
  Beta virt. eigenvalues --   -0.02033  -0.01955  -0.01654  -0.01052  -0.00292
  Beta virt. eigenvalues --   -0.00081   0.00070   0.00326   0.00791   0.00868

 Mulliken charges and spin densities:
               1          2
     1  Na   0.218015   0.042484
     2  Na  -0.440960   0.690955
     3  Na  -0.125753   0.555377
     4  Na   0.107470  -0.090412
     5  Na   0.107442  -0.096254
     6  Na   0.012908  -0.064357
     7  Na   0.120878  -0.037792
 Sum of Mulliken charges =  -0.00000   1.00000

 Dipole moment (field-independent basis, Debye):
    X=              0.2179    Y=              0.0015    Z=              0.2792  Tot=              0.3541
 Quadrupole moment (field-independent basis, Debye-Ang):
   XX=            -50.4694   YY=            -69.2300   ZZ=            -73.2608
   XY=              0.6316   XZ=             -0.2930   YZ=             -0.2477

 Normal termination of Gaussian 16 at Tue Dec  5 14:01:13 2023.
