 Gaussian 16, Revision B.01,
 Gaussian 16:  ES64L-G16RevB.01 20-Dec-2017

 -------------------------
 #P B3LYP/6-311+g(d) force
 -------------------------

 -----
 DPGEN
 -----
 Symbolic Z-matrix:
 Charge =  0 Multiplicity = 2

                         Standard orientation:
 ---------------------------------------------------------------------
 Center     Atomic      Atomic             Coordinates (Angstroms)
 Number     Number       Type             X           Y           Z
 ---------------------------------------------------------------------
      1         11           0       -1.898105   -0.309305    1.653841
      2         11           0        3.051797    1.084395   -1.021091
      3         11           0        3.093175   -1.554999    0.763283
      4         11           0        0.530788   -0.170972   -0.199993
      5         11           0       -1.835380   -2.318996   -0.731465
      6         11           0       -2.386855    0.784028   -1.310429
      7         11           0       -0.555420    2.485850    0.845855
 ---------------------------------------------------------------------

 SCF Done:  E(UB3LYP) =  -1136.11382346     A.U. after   24 cycles

 The electronic state is 2-A.
 Alpha  occ. eigenvalues --  -38.44737 -38.44727 -38.43936 -38.43613 -38.42893
 Alpha  occ. eigenvalues --  -38.42835 -38.42445  -2.20600  -2.20582  -2.19905
 Alpha  occ. eigenvalues --   -2.19636  -2.19043  -2.18813  -2.18374  -1.14357
 Alpha  occ. eigenvalues --   -1.14285  -1.14258  -1.14231  -1.14213  -1.14145
 Alpha  occ. eigenvalues --   -1.13608  -1.13577  -1.13508  -1.13362  -1.13266
 Alpha  occ. eigenvalues --   -1.13241  -1.12753  -1.12716  -1.12704  -1.12480
 Alpha  occ. eigenvalues --   -1.12466  -1.12443  -1.12071  -1.12010  -1.12000
 Alpha  occ. eigenvalues --   -0.19031  -0.14348  -0.11655  -0.10541
 Alpha virt. eigenvalues --   -0.05995  -0.05664  -0.03918  -0.03293  -0.02429
 Alpha virt. eigenvalues --   -0.02175  -0.01804  -0.01013  -0.00486  -0.00082
 Alpha virt. eigenvalues --    0.00202   0.00326   0.00560   0.00733   0.00794

  Beta  occ. eigenvalues --  -38.44729 -38.44709 -38.43886 -38.43552 -38.42883
  Beta  occ. eigenvalues --  -38.42809 -38.42432  -2.20571  -2.20565  -2.19813
  Beta  occ. eigenvalues --   -2.19524  -2.19005  -2.18798  -2.18355  -1.14340
  Beta  occ. eigenvalues --   -1.14266  -1.14241  -1.14215  -1.14196  -1.14127
  Beta  occ. eigenvalues --   -1.13552  -1.13501  -1.13437  -1.13287  -1.13176
  Beta  occ. eigenvalues --   -1.13161  -1.12713  -1.12693  -1.12628  -1.12474
  Beta  occ. eigenvalues --   -1.12452  -1.12406  -1.12059  -1.11999  -1.11957
  Beta  occ. eigenvalues --   -0.18322  -0.14156  -0.11389
  Beta virt. eigenvalues --   -0.06771  -0.05754  -0.05233  -0.03855  -0.03029
  Beta virt. eigenvalues --   -0.01944  -0.01822  -0.01116  -0.00816  -0.00236
  Beta virt. eigenvalues --    0.00082   0.00281   0.00390   0.00686   0.00784

 Mulliken charges and spin densities:
               1          2
     1  Na   0.043468   0.179329
     2  Na   0.255002  -0.075514
     3  Na   0.385355  -0.313904
     4  Na  -2.074874   0.935673
     5  Na   0.663554   0.014147
     6  Na   0.398416   0.195446
     7  Na   0.329079   0.064823
 Sum of Mulliken charges =  -0.00000   1.00000

 Dipole moment (field-independent basis, Debye):
    X=              1.0975    Y=             -0.0294    Z=              0.0365  Tot=              1.0985
 Quadrupole moment (field-independent basis, Debye-Ang):
   XX=            -53.0694   YY=            -67.4511   ZZ=            -70.2280
   XY=             -0.6584   XZ=              0.2052   YZ=             -2.4810

 Normal termination of Gaussian 16 at Thu Dec  7 20:27:44 2023.
