 Gaussian 16, Revision B.01,
 Gaussian 16:  ES64L-G16RevB.01 20-Dec-2017

 -------------------------
 #P B3LYP/6-311+g(d) force
 -------------------------

 -----
 DPGEN
 -----
 Symbolic Z-matrix:
 Charge =  0 Multiplicity = 2

                         Standard orientation:
 ---------------------------------------------------------------------
 Center     Atomic      Atomic             Coordinates (Angstroms)
 Number     Number       Type             X           Y           Z
 ---------------------------------------------------------------------
      1         11           0        2.509272    3.020013    0.457345
      2         11           0        0.484972   -2.511491   -1.391702
      3         11           0        1.073151   -2.119095    1.422963
      4         11           0       -2.552919   -1.465430    0.677818
      5         11           0       -3.794346    1.828359   -0.441524
      6         11           0       -0.676615    1.260153   -0.054652
      7         11           0        2.956485   -0.012508   -0.670249
 ---------------------------------------------------------------------

 SCF Done:  E(UB3LYP) =  -1136.12430255     A.U. after   20 cycles

 The electronic state is 2-A.
 Alpha  occ. eigenvalues --  -38.44475 -38.44100 -38.43969 -38.43801 -38.43741
 Alpha  occ. eigenvalues --  -38.43710 -38.43532  -2.20360  -2.19935  -2.19861
 Alpha  occ. eigenvalues --   -2.19626  -2.19605  -2.19574  -2.19344  -1.14124
 Alpha  occ. eigenvalues --   -1.14013  -1.13978  -1.13627  -1.13620  -1.13527
 Alpha  occ. eigenvalues --   -1.13521  -1.13508  -1.13467  -1.13349  -1.13315
 Alpha  occ. eigenvalues --   -1.13280  -1.13271  -1.13268  -1.13256  -1.13248
 Alpha  occ. eigenvalues --   -1.13202  -1.13164  -1.13000  -1.12997  -1.12968
 Alpha  occ. eigenvalues --   -0.17756  -0.13640  -0.12811  -0.09743
 Alpha virt. eigenvalues --   -0.06312  -0.05706  -0.05028  -0.02969  -0.02726
 Alpha virt. eigenvalues --   -0.02094  -0.01710  -0.01437  -0.01252  -0.00600
 Alpha virt. eigenvalues --   -0.00074   0.00197   0.00360   0.00506   0.00739

  Beta  occ. eigenvalues --  -38.44458 -38.44066 -38.43935 -38.43764 -38.43737
  Beta  occ. eigenvalues --  -38.43685 -38.43511  -2.20334  -2.19875  -2.19803
  Beta  occ. eigenvalues --   -2.19601  -2.19557  -2.19533  -2.19306  -1.14106
  Beta  occ. eigenvalues --   -1.14001  -1.13922  -1.13589  -1.13578  -1.13488
  Beta  occ. eigenvalues --   -1.13473  -1.13467  -1.13391  -1.13323  -1.13296
  Beta  occ. eigenvalues --   -1.13269  -1.13243  -1.13227  -1.13223  -1.13212
  Beta  occ. eigenvalues --   -1.13149  -1.13142  -1.12973  -1.12969  -1.12942
  Beta  occ. eigenvalues --   -0.17244  -0.13241  -0.12451
  Beta virt. eigenvalues --   -0.06343  -0.06020  -0.05556  -0.04805  -0.02503
  Beta virt. eigenvalues --   -0.02336  -0.01952  -0.01569  -0.01130  -0.00863
  Beta virt. eigenvalues --   -0.00405   0.00156   0.00345   0.00514   0.00563

 Mulliken charges and spin densities:
               1          2
     1  Na   1.058231   0.097379
     2  Na   0.037105   0.176351
     3  Na   0.395434   0.260219
     4  Na   0.104173   0.196380
     5  Na   0.820378   0.152607
     6  Na  -2.733092  -0.039482
     7  Na   0.317771   0.156546
 Sum of Mulliken charges =  -0.00000   1.00000

 Dipole moment (field-independent basis, Debye):
    X=             -0.3708    Y=             -0.4205    Z=              0.2852  Tot=              0.6290
 Quadrupole moment (field-independent basis, Debye-Ang):
   XX=            -59.4837   YY=            -65.4302   ZZ=            -71.2199
   XY=              1.6860   XZ=              3.4678   YZ=              0.3948

 Normal termination of Gaussian 16 at Tue Dec  5 11:37:21 2023.
