 Gaussian 16, Revision B.01,
 Gaussian 16:  ES64L-G16RevB.01 20-Dec-2017

 -------------------------
 #P B3LYP/6-311+g(d) force
 -------------------------

 -----
 DPGEN
 -----
 Symbolic Z-matrix:
 Charge =  0 Multiplicity = 2

                         Standard orientation:
 ---------------------------------------------------------------------
 Center     Atomic      Atomic             Coordinates (Angstroms)
 Number     Number       Type             X           Y           Z
 ---------------------------------------------------------------------
      1         11           0        0.001822   -0.085411   -1.596260
      2         11           0       -2.821547    0.256208    0.308279
      3         11           0       -1.597098   -2.610812    0.064780
      4         11           0       -0.929253    2.896340   -0.345445
      5         11           0        2.503764    1.723620    0.254331
      6         11           0        2.388731   -2.109389   -0.298554
      7         11           0        0.453581   -0.070558    1.612871
 ---------------------------------------------------------------------

 SCF Done:  E(UB3LYP) =  -1136.13588409     A.U. after   22 cycles

 The electronic state is 2-A.
 Alpha  occ. eigenvalues --  -38.44014 -38.44003 -38.43731 -38.43461 -38.43415
 Alpha  occ. eigenvalues --  -38.42993 -38.42873  -2.19863  -2.19838  -2.19594
 Alpha  occ. eigenvalues --   -2.19326  -2.19317  -2.19000  -2.18883  -1.13593
 Alpha  occ. eigenvalues --   -1.13519  -1.13514  -1.13506  -1.13476  -1.13460
 Alpha  occ. eigenvalues --   -1.13306  -1.13256  -1.13231  -1.13040  -1.12993
 Alpha  occ. eigenvalues --   -1.12984  -1.12978  -1.12953  -1.12922  -1.12724
 Alpha  occ. eigenvalues --   -1.12630  -1.12605  -1.12561  -1.12504  -1.12492
 Alpha  occ. eigenvalues --   -0.18972  -0.13126  -0.12724  -0.10336
 Alpha virt. eigenvalues --   -0.05675  -0.05190  -0.04811  -0.03032  -0.02781
 Alpha virt. eigenvalues --   -0.01985  -0.01499  -0.01426  -0.00403  -0.00284
 Alpha virt. eigenvalues --    0.00055   0.00349   0.00807   0.00884   0.00911

  Beta  occ. eigenvalues --  -38.44004 -38.43990 -38.43726 -38.43452 -38.43406
  Beta  occ. eigenvalues --  -38.42924 -38.42802  -2.19845  -2.19824  -2.19589
  Beta  occ. eigenvalues --   -2.19314  -2.19304  -2.18874  -2.18755  -1.13571
  Beta  occ. eigenvalues --   -1.13501  -1.13486  -1.13482  -1.13468  -1.13451
  Beta  occ. eigenvalues --   -1.13305  -1.13234  -1.13223  -1.13034  -1.12981
  Beta  occ. eigenvalues --   -1.12968  -1.12949  -1.12936  -1.12910  -1.12637
  Beta  occ. eigenvalues --   -1.12535  -1.12520  -1.12469  -1.12418  -1.12393
  Beta  occ. eigenvalues --   -0.18289  -0.12836  -0.12450
  Beta virt. eigenvalues --   -0.06501  -0.05636  -0.05125  -0.04805  -0.02245
  Beta virt. eigenvalues --   -0.02063  -0.01392  -0.01335  -0.01016  -0.00439
  Beta virt. eigenvalues --   -0.00315   0.00175   0.00388   0.00818   0.00898

 Mulliken charges and spin densities:
               1          2
     1  Na  -0.343935   0.631329
     2  Na   0.117092   0.059494
     3  Na   0.112073  -0.071910
     4  Na   0.145650   0.021041
     5  Na   0.176518  -0.056705
     6  Na   0.005372  -0.096687
     7  Na  -0.212770   0.513438
 Sum of Mulliken charges =  -0.00000   1.00000

 Dipole moment (field-independent basis, Debye):
    X=              0.3828    Y=             -0.1618    Z=             -0.0268  Tot=              0.4165
 Quadrupole moment (field-independent basis, Debye-Ang):
   XX=            -57.7555   YY=            -57.4036   ZZ=            -76.4901
   XY=             -0.1740   XZ=             -1.0614   YZ=             -0.1125

 Normal termination of Gaussian 16 at Sun Dec  3 23:42:59 2023.
