 Gaussian 16, Revision B.01,
 Gaussian 16:  ES64L-G16RevB.01 20-Dec-2017

 -------------------------
 #P B3LYP/6-311+g(d) force
 -------------------------

 -----
 DPGEN
 -----
 Symbolic Z-matrix:
 Charge =  0 Multiplicity = 2

                         Standard orientation:
 ---------------------------------------------------------------------
 Center     Atomic      Atomic             Coordinates (Angstroms)
 Number     Number       Type             X           Y           Z
 ---------------------------------------------------------------------
      1         11           0       -0.353005    3.035552   -0.052739
      2         11           0       -3.205832   -2.365033   -0.445683
      3         11           0       -0.060709   -0.518641   -1.766078
      4         11           0        3.879339   -1.969459    0.196683
      5         11           0        2.846375    1.553961   -0.368628
      6         11           0        0.216611   -0.691877    1.928978
      7         11           0       -3.322780    0.955498    0.507467
 ---------------------------------------------------------------------

 SCF Done:  E(UB3LYP) =  -1136.11648847     A.U. after   24 cycles

 The electronic state is 2-A.
 Alpha  occ. eigenvalues --  -38.45210 -38.44899 -38.44759 -38.44691 -38.44560
 Alpha  occ. eigenvalues --  -38.44160 -38.42711  -2.20973  -2.20684  -2.20552
 Alpha  occ. eigenvalues --   -2.20420  -2.20351  -2.19935  -2.18511  -1.14662
 Alpha  occ. eigenvalues --   -1.14623  -1.14567  -1.14363  -1.14338  -1.14319
 Alpha  occ. eigenvalues --   -1.14249  -1.14195  -1.14151  -1.14101  -1.14092
 Alpha  occ. eigenvalues --   -1.14056  -1.14039  -1.14017  -1.13963  -1.13606
 Alpha  occ. eigenvalues --   -1.13594  -1.13572  -1.12190  -1.12174  -1.12162
 Alpha  occ. eigenvalues --   -0.17224  -0.13394  -0.11534  -0.10340
 Alpha virt. eigenvalues --   -0.07122  -0.06201  -0.04573  -0.03206  -0.02697
 Alpha virt. eigenvalues --   -0.02480  -0.02450  -0.01820  -0.01196  -0.00479
 Alpha virt. eigenvalues --   -0.00369   0.00093   0.00387   0.00448   0.00560

  Beta  occ. eigenvalues --  -38.45135 -38.44880 -38.44705 -38.44689 -38.44550
  Beta  occ. eigenvalues --  -38.44151 -38.42711  -2.20836  -2.20651  -2.20448
  Beta  occ. eigenvalues --   -2.20422  -2.20333  -2.19920  -2.18513  -1.14564
  Beta  occ. eigenvalues --   -1.14529  -1.14465  -1.14332  -1.14316  -1.14294
  Beta  occ. eigenvalues --   -1.14156  -1.14121  -1.14109  -1.14106  -1.14074
  Beta  occ. eigenvalues --   -1.14053  -1.14018  -1.14002  -1.13957  -1.13598
  Beta  occ. eigenvalues --   -1.13574  -1.13561  -1.12193  -1.12178  -1.12145
  Beta  occ. eigenvalues --   -0.16552  -0.13319  -0.11302
  Beta virt. eigenvalues --   -0.06955  -0.06675  -0.05928  -0.04388  -0.02788
  Beta virt. eigenvalues --   -0.02459  -0.01936  -0.01895  -0.01312  -0.01213
  Beta virt. eigenvalues --   -0.00386  -0.00224   0.00140   0.00519   0.00587

 Mulliken charges and spin densities:
               1          2
     1  Na  -0.127255  -0.071917
     2  Na   0.246150  -0.005379
     3  Na  -0.228780   0.481415
     4  Na   0.159965  -0.091685
     5  Na   0.146377   0.038169
     6  Na  -0.293588   0.518441
     7  Na   0.097130   0.130956
 Sum of Mulliken charges =  -0.00000   1.00000

 Dipole moment (field-independent basis, Debye):
    X=              0.0826    Y=             -0.4571    Z=              0.0417  Tot=              0.4664
 Quadrupole moment (field-independent basis, Debye-Ang):
   XX=            -51.8405   YY=            -67.7945   ZZ=            -76.0666
   XY=             -0.1307   XZ=             -1.6799   YZ=              0.5122

 Normal termination of Gaussian 16 at Fri Dec  8 00:03:47 2023.
