 Gaussian 16, Revision B.01,
 Gaussian 16:  ES64L-G16RevB.01 20-Dec-2017

 -------------------------
 #P B3LYP/6-311+g(d) force
 -------------------------

 -----
 DPGEN
 -----
 Symbolic Z-matrix:
 Charge =  0 Multiplicity = 2

                         Standard orientation:
 ---------------------------------------------------------------------
 Center     Atomic      Atomic             Coordinates (Angstroms)
 Number     Number       Type             X           Y           Z
 ---------------------------------------------------------------------
      1         11           0        2.093073   -1.589061    1.218267
      2         11           0        1.356326    0.580713   -1.003260
      3         11           0       -2.468060    1.693516   -0.489094
      4         11           0       -1.305183   -2.041074    0.505724
      5         11           0       -4.278454   -1.095263   -0.642978
      6         11           0       -0.017193    2.578368    1.377570
      7         11           0        4.619492   -0.127199   -0.966229
 ---------------------------------------------------------------------

 SCF Done:  E(UB3LYP) =  -1136.12565774     A.U. after   21 cycles

 The electronic state is 2-A.
 Alpha  occ. eigenvalues --  -38.44464 -38.44349 -38.44287 -38.43803 -38.43618
 Alpha  occ. eigenvalues --  -38.43345 -38.43240  -2.20349  -2.20179  -2.20143
 Alpha  occ. eigenvalues --   -2.19656  -2.19446  -2.19183  -2.19074  -1.14078
 Alpha  occ. eigenvalues --   -1.14044  -1.13967  -1.13828  -1.13819  -1.13818
 Alpha  occ. eigenvalues --   -1.13802  -1.13783  -1.13745  -1.13358  -1.13328
 Alpha  occ. eigenvalues --   -1.13283  -1.13138  -1.13116  -1.13077  -1.12839
 Alpha  occ. eigenvalues --   -1.12832  -1.12810  -1.12742  -1.12725  -1.12711
 Alpha  occ. eigenvalues --   -0.17463  -0.14231  -0.11874  -0.11147
 Alpha virt. eigenvalues --   -0.06134  -0.05262  -0.04745  -0.03373  -0.02765
 Alpha virt. eigenvalues --   -0.02601  -0.01833  -0.01376  -0.01066  -0.00315
 Alpha virt. eigenvalues --   -0.00130   0.00134   0.00327   0.00430   0.00798

  Beta  occ. eigenvalues --  -38.44455 -38.44269 -38.44250 -38.43789 -38.43587
  Beta  occ. eigenvalues --  -38.43316 -38.43236  -2.20337  -2.20080  -2.20029
  Beta  occ. eigenvalues --   -2.19631  -2.19393  -2.19128  -2.19066  -1.14065
  Beta  occ. eigenvalues --   -1.14025  -1.13942  -1.13775  -1.13763  -1.13724
  Beta  occ. eigenvalues --   -1.13716  -1.13699  -1.13663  -1.13342  -1.13312
  Beta  occ. eigenvalues --   -1.13253  -1.13107  -1.13082  -1.13010  -1.12796
  Beta  occ. eigenvalues --   -1.12792  -1.12779  -1.12739  -1.12715  -1.12706
  Beta  occ. eigenvalues --   -0.16861  -0.13671  -0.11603
  Beta virt. eigenvalues --   -0.07511  -0.05959  -0.05076  -0.04138  -0.03163
  Beta virt. eigenvalues --   -0.02576  -0.02111  -0.01456  -0.01133  -0.00700
  Beta virt. eigenvalues --   -0.00158   0.00009   0.00250   0.00488   0.00589

 Mulliken charges and spin densities:
               1          2
     1  Na   0.297830  -0.047355
     2  Na  -0.863978  -0.033800
     3  Na   0.138796   0.046266
     4  Na  -0.415867   0.175081
     5  Na   0.217010   0.323126
     6  Na   0.100940   0.190865
     7  Na   0.525271   0.345816
 Sum of Mulliken charges =  -0.00000   1.00000

 Dipole moment (field-independent basis, Debye):
    X=              0.9824    Y=              0.1117    Z=              0.4008  Tot=              1.0669
 Quadrupole moment (field-independent basis, Debye-Ang):
   XX=            -59.3882   YY=            -73.7949   ZZ=            -65.3284
   XY=             -1.5779   XZ=              3.1753   YZ=             -0.1535

 Normal termination of Gaussian 16 at Tue Nov 28 21:54:04 2023.
