 Gaussian 16, Revision B.01,
 Gaussian 16:  ES64L-G16RevB.01 20-Dec-2017

 -------------------------
 #P B3LYP/6-311+g(d) force
 -------------------------

 -----
 DPGEN
 -----
 Symbolic Z-matrix:
 Charge =  0 Multiplicity = 2

                         Standard orientation:
 ---------------------------------------------------------------------
 Center     Atomic      Atomic             Coordinates (Angstroms)
 Number     Number       Type             X           Y           Z
 ---------------------------------------------------------------------
      1         11           0        0.030786   -0.273631   -1.812288
      2         11           0        3.404815   -0.006628   -0.175301
      3         11           0        0.989161    2.718396    0.154868
      4         11           0       -2.644670    1.991952   -0.220909
      5         11           0       -2.913150   -1.842077    0.046940
      6         11           0        0.003226   -0.149020    1.966294
      7         11           0        1.129832   -2.438992    0.040396
 ---------------------------------------------------------------------

 SCF Done:  E(UB3LYP) =  -1136.13239772     A.U. after   20 cycles

 The electronic state is 2-A.
 Alpha  occ. eigenvalues --  -38.44508 -38.44394 -38.44196 -38.43679 -38.43560
 Alpha  occ. eigenvalues --  -38.43311 -38.43187  -2.20318  -2.20155  -2.19965
 Alpha  occ. eigenvalues --   -2.19591  -2.19457  -2.19227  -2.19006  -1.13986
 Alpha  occ. eigenvalues --   -1.13979  -1.13963  -1.13834  -1.13809  -1.13797
 Alpha  occ. eigenvalues --   -1.13647  -1.13620  -1.13604  -1.13325  -1.13238
 Alpha  occ. eigenvalues --   -1.13188  -1.13155  -1.13097  -1.13061  -1.12908
 Alpha  occ. eigenvalues --   -1.12888  -1.12821  -1.12687  -1.12679  -1.12632
 Alpha  occ. eigenvalues --   -0.18307  -0.12977  -0.12106  -0.10630
 Alpha virt. eigenvalues --   -0.06111  -0.05611  -0.04288  -0.03167  -0.02760
 Alpha virt. eigenvalues --   -0.02555  -0.01981  -0.01334  -0.00524  -0.00294
 Alpha virt. eigenvalues --   -0.00060   0.00306   0.00679   0.00798   0.00863

  Beta  occ. eigenvalues --  -38.44505 -38.44396 -38.44195 -38.43608 -38.43467
  Beta  occ. eigenvalues --  -38.43297 -38.43183  -2.20316  -2.20161  -2.19965
  Beta  occ. eigenvalues --   -2.19461  -2.19286  -2.19209  -2.19000  -1.13985
  Beta  occ. eigenvalues --   -1.13966  -1.13957  -1.13825  -1.13813  -1.13802
  Beta  occ. eigenvalues --   -1.13634  -1.13621  -1.13606  -1.13242  -1.13144
  Beta  occ. eigenvalues --   -1.13092  -1.13049  -1.12977  -1.12940  -1.12886
  Beta  occ. eigenvalues --   -1.12832  -1.12807  -1.12681  -1.12655  -1.12632
  Beta  occ. eigenvalues --   -0.17555  -0.12791  -0.11872
  Beta virt. eigenvalues --   -0.06726  -0.06038  -0.05619  -0.04245  -0.02444
  Beta virt. eigenvalues --   -0.01993  -0.01899  -0.01483  -0.01288  -0.00583
  Beta virt. eigenvalues --   -0.00319   0.00089   0.00331   0.00746   0.00793

 Mulliken charges and spin densities:
               1          2
     1  Na  -0.252476   0.679963
     2  Na   0.134437  -0.023153
     3  Na  -0.037938  -0.107907
     4  Na  -0.097862  -0.103754
     5  Na   0.056685  -0.138800
     6  Na  -0.251802   0.769281
     7  Na   0.448958  -0.075629
 Sum of Mulliken charges =  -0.00000   1.00000

 Dipole moment (field-independent basis, Debye):
    X=             -0.1492    Y=             -0.0855    Z=             -0.0309  Tot=              0.1747
 Quadrupole moment (field-independent basis, Debye-Ang):
   XX=            -51.4798   YY=            -65.9975   ZZ=            -75.0911
   XY=              0.6768   XZ=             -0.1361   YZ=             -0.4433

 Normal termination of Gaussian 16 at Fri Dec  8 02:21:31 2023.
