 Gaussian 16, Revision B.01,
 Gaussian 16:  ES64L-G16RevB.01 20-Dec-2017

 -------------------------
 #P B3LYP/6-311+g(d) force
 -------------------------

 -----
 DPGEN
 -----
 Symbolic Z-matrix:
 Charge =  0 Multiplicity = 2

                         Standard orientation:
 ---------------------------------------------------------------------
 Center     Atomic      Atomic             Coordinates (Angstroms)
 Number     Number       Type             X           Y           Z
 ---------------------------------------------------------------------
      1         11           0       -0.914403   -2.051718   -0.606724
      2         11           0        2.540829    1.610792    0.699282
      3         11           0       -0.998435    2.535198   -0.409029
      4         11           0       -3.487640   -0.140329    0.237030
      5         11           0        0.384096    0.175765   -1.722809
      6         11           0        2.840366   -1.488680   -0.185341
      7         11           0       -0.364813   -0.641027    1.987590
 ---------------------------------------------------------------------

 SCF Done:  E(UB3LYP) =  -1136.12423292     A.U. after   20 cycles

 The electronic state is 2-A.
 Alpha  occ. eigenvalues --  -38.44938 -38.44245 -38.44052 -38.43916 -38.43524
 Alpha  occ. eigenvalues --  -38.43196 -38.42770  -2.20745  -2.20138  -2.19898
 Alpha  occ. eigenvalues --   -2.19756  -2.19571  -2.19186  -2.18621  -1.14424
 Alpha  occ. eigenvalues --   -1.14397  -1.14382  -1.13863  -1.13772  -1.13730
 Alpha  occ. eigenvalues --   -1.13602  -1.13573  -1.13532  -1.13422  -1.13412
 Alpha  occ. eigenvalues --   -1.13400  -1.13378  -1.13222  -1.13160  -1.12854
 Alpha  occ. eigenvalues --   -1.12827  -1.12739  -1.12337  -1.12272  -1.12228
 Alpha  occ. eigenvalues --   -0.18904  -0.13562  -0.11733  -0.11208
 Alpha virt. eigenvalues --   -0.06403  -0.04965  -0.03783  -0.03566  -0.02800
 Alpha virt. eigenvalues --   -0.02730  -0.02155  -0.00916  -0.00242  -0.00023
 Alpha virt. eigenvalues --    0.00151   0.00309   0.00628   0.00779   0.00891

  Beta  occ. eigenvalues --  -38.44936 -38.44175 -38.44050 -38.43898 -38.43442
  Beta  occ. eigenvalues --  -38.43169 -38.42763  -2.20744  -2.20008  -2.19898
  Beta  occ. eigenvalues --   -2.19724  -2.19423  -2.19144  -2.18612  -1.14419
  Beta  occ. eigenvalues --   -1.14391  -1.14379  -1.13778  -1.13682  -1.13634
  Beta  occ. eigenvalues --   -1.13603  -1.13545  -1.13534  -1.13392  -1.13388
  Beta  occ. eigenvalues --   -1.13355  -1.13307  -1.13112  -1.13056  -1.12823
  Beta  occ. eigenvalues --   -1.12755  -1.12708  -1.12319  -1.12255  -1.12226
  Beta  occ. eigenvalues --   -0.18158  -0.13327  -0.11478
  Beta virt. eigenvalues --   -0.07285  -0.06274  -0.04912  -0.03649  -0.02961
  Beta virt. eigenvalues --   -0.02108  -0.01988  -0.01698  -0.00848  -0.00160
  Beta virt. eigenvalues --    0.00064   0.00139   0.00334   0.00791   0.00862

 Mulliken charges and spin densities:
               1          2
     1  Na   0.620375  -0.067732
     2  Na  -0.096875   0.179259
     3  Na   0.070660  -0.035308
     4  Na   0.084658   0.014503
     5  Na  -0.174013   0.348176
     6  Na   0.191292  -0.081458
     7  Na  -0.696097   0.642561
 Sum of Mulliken charges =  -0.00000   1.00000

 Dipole moment (field-independent basis, Debye):
    X=             -0.2430    Y=             -0.1698    Z=              0.5612  Tot=              0.6347
 Quadrupole moment (field-independent basis, Debye-Ang):
   XX=            -49.9365   YY=            -71.8209   ZZ=            -71.5867
   XY=             -0.9405   XZ=              0.6181   YZ=              2.0102

 Normal termination of Gaussian 16 at Tue Dec  5 16:19:47 2023.
