 Gaussian 16, Revision B.01,
 Gaussian 16:  ES64L-G16RevB.01 20-Dec-2017

 -------------------------
 #P B3LYP/6-311+g(d) force
 -------------------------

 -----
 DPGEN
 -----
 Symbolic Z-matrix:
 Charge =  0 Multiplicity = 2

                         Standard orientation:
 ---------------------------------------------------------------------
 Center     Atomic      Atomic             Coordinates (Angstroms)
 Number     Number       Type             X           Y           Z
 ---------------------------------------------------------------------
      1         11           0       -1.565884   -0.467657    1.991345
      2         11           0        3.789753   -1.424214   -0.764523
      3         11           0        2.105032    0.392484    1.534000
      4         11           0        0.460944    3.014496   -0.167025
      5         11           0       -2.744160    1.108705   -0.948720
      6         11           0        0.187968   -0.152301   -1.410018
      7         11           0       -2.233655   -2.471514   -0.235059
 ---------------------------------------------------------------------

 SCF Done:  E(UB3LYP) =  -1136.12624047     A.U. after   22 cycles

 The electronic state is 2-A.
 Alpha  occ. eigenvalues --  -38.44455 -38.44108 -38.44020 -38.43843 -38.43764
 Alpha  occ. eigenvalues --  -38.43752 -38.43184  -2.20306  -2.19998  -2.19800
 Alpha  occ. eigenvalues --   -2.19694  -2.19688  -2.19603  -2.18995  -1.14012
 Alpha  occ. eigenvalues --   -1.13979  -1.13894  -1.13688  -1.13642  -1.13628
 Alpha  occ. eigenvalues --   -1.13468  -1.13458  -1.13438  -1.13392  -1.13369
 Alpha  occ. eigenvalues --   -1.13351  -1.13328  -1.13316  -1.13310  -1.13282
 Alpha  occ. eigenvalues --   -1.13259  -1.13220  -1.12675  -1.12657  -1.12629
 Alpha  occ. eigenvalues --   -0.18161  -0.13491  -0.11561  -0.11141
 Alpha virt. eigenvalues --   -0.06234  -0.05203  -0.04765  -0.03227  -0.02824
 Alpha virt. eigenvalues --   -0.02620  -0.01953  -0.01173  -0.00595  -0.00195
 Alpha virt. eigenvalues --    0.00093   0.00271   0.00327   0.00616   0.00710

  Beta  occ. eigenvalues --  -38.44432 -38.44036 -38.44002 -38.43842 -38.43723
  Beta  occ. eigenvalues --  -38.43720 -38.43185  -2.20266  -2.19864  -2.19767
  Beta  occ. eigenvalues --   -2.19694  -2.19610  -2.19551  -2.18999  -1.13972
  Beta  occ. eigenvalues --   -1.13947  -1.13871  -1.13609  -1.13545  -1.13535
  Beta  occ. eigenvalues --   -1.13444  -1.13435  -1.13414  -1.13360  -1.13329
  Beta  occ. eigenvalues --   -1.13324  -1.13318  -1.13280  -1.13258  -1.13237
  Beta  occ. eigenvalues --   -1.13223  -1.13163  -1.12679  -1.12649  -1.12630
  Beta  occ. eigenvalues --   -0.17464  -0.13283  -0.11338
  Beta virt. eigenvalues --   -0.07365  -0.06051  -0.05023  -0.04179  -0.03046
  Beta virt. eigenvalues --   -0.02277  -0.01886  -0.01691  -0.01091  -0.00256
  Beta virt. eigenvalues --   -0.00186   0.00212   0.00305   0.00434   0.00736

 Mulliken charges and spin densities:
               1          2
     1  Na  -0.279672   0.412028
     2  Na   0.054919   0.155200
     3  Na   0.159420   0.079174
     4  Na  -0.214042   0.068816
     5  Na   0.806440   0.010609
     6  Na  -0.551693   0.188663
     7  Na   0.024628   0.085510
 Sum of Mulliken charges =  -0.00000   1.00000

 Dipole moment (field-independent basis, Debye):
    X=             -0.5646    Y=             -0.0478    Z=             -0.1466  Tot=              0.5853
 Quadrupole moment (field-independent basis, Debye-Ang):
   XX=            -57.3007   YY=            -67.3991   ZZ=            -70.0188
   XY=             -0.1614   XZ=              0.7683   YZ=              3.1683

 Normal termination of Gaussian 16 at Wed Nov 29 16:01:08 2023.
