 Gaussian 16, Revision B.01,
 Gaussian 16:  ES64L-G16RevB.01 20-Dec-2017

 -------------------------
 #P B3LYP/6-311+g(d) force
 -------------------------

 -----
 DPGEN
 -----
 Symbolic Z-matrix:
 Charge =  0 Multiplicity = 2

                         Standard orientation:
 ---------------------------------------------------------------------
 Center     Atomic      Atomic             Coordinates (Angstroms)
 Number     Number       Type             X           Y           Z
 ---------------------------------------------------------------------
      1         11           0        3.400072    1.915180   -0.315199
      2         11           0       -2.280838   -0.925033    1.441433
      3         11           0        3.069754   -1.442349   -0.082202
      4         11           0       -0.056389   -2.701541   -0.437046
      5         11           0       -2.295040    2.608443   -0.251143
      6         11           0       -2.603274   -0.362915   -1.271349
      7         11           0        0.765715    0.908214    0.915506
 ---------------------------------------------------------------------

 SCF Done:  E(UB3LYP) =  -1136.11730736     A.U. after   24 cycles

 The electronic state is 2-A.
 Alpha  occ. eigenvalues --  -38.44946 -38.44447 -38.44408 -38.44147 -38.44019
 Alpha  occ. eigenvalues --  -38.43210 -38.43119  -2.20771  -2.20346  -2.20283
 Alpha  occ. eigenvalues --   -2.19974  -2.19965  -2.19132  -2.18960  -1.14464
 Alpha  occ. eigenvalues --   -1.14422  -1.14408  -1.14207  -1.13979  -1.13962
 Alpha  occ. eigenvalues --   -1.13952  -1.13926  -1.13906  -1.13700  -1.13629
 Alpha  occ. eigenvalues --   -1.13614  -1.13608  -1.13571  -1.13514  -1.12816
 Alpha  occ. eigenvalues --   -1.12792  -1.12763  -1.12641  -1.12623  -1.12606
 Alpha  occ. eigenvalues --   -0.18102  -0.14521  -0.12138  -0.09867
 Alpha virt. eigenvalues --   -0.06899  -0.05913  -0.04431  -0.03531  -0.02483
 Alpha virt. eigenvalues --   -0.02121  -0.01637  -0.01437  -0.01300  -0.00478
 Alpha virt. eigenvalues --   -0.00114   0.00301   0.00445   0.00584   0.00656

  Beta  occ. eigenvalues --  -38.44947 -38.44433 -38.44360 -38.44126 -38.43972
  Beta  occ. eigenvalues --  -38.43167 -38.43114  -2.20773  -2.20262  -2.20258
  Beta  occ. eigenvalues --   -2.19935  -2.19886  -2.19057  -2.18954  -1.14463
  Beta  occ. eigenvalues --   -1.14423  -1.14406  -1.14143  -1.13942  -1.13930
  Beta  occ. eigenvalues --   -1.13903  -1.13889  -1.13871  -1.13662  -1.13606
  Beta  occ. eigenvalues --   -1.13562  -1.13558  -1.13510  -1.13454  -1.12760
  Beta  occ. eigenvalues --   -1.12737  -1.12706  -1.12639  -1.12614  -1.12588
  Beta  occ. eigenvalues --   -0.17519  -0.14240  -0.11896
  Beta virt. eigenvalues --   -0.06806  -0.06191  -0.05616  -0.04305  -0.03119
  Beta virt. eigenvalues --   -0.02035  -0.01901  -0.01305  -0.01292  -0.00772
  Beta virt. eigenvalues --   -0.00428   0.00199   0.00404   0.00562   0.00616

 Mulliken charges and spin densities:
               1          2
     1  Na   0.724827  -0.018508
     2  Na   0.691202   0.147783
     3  Na  -0.034386   0.097635
     4  Na  -0.041972   0.063116
     5  Na   0.206196   0.047371
     6  Na  -0.134431   0.433459
     7  Na  -1.411436   0.229144
 Sum of Mulliken charges =  -0.00000   1.00000

 Dipole moment (field-independent basis, Debye):
    X=              1.0716    Y=              0.6270    Z=              0.2058  Tot=              1.2585
 Quadrupole moment (field-independent basis, Debye-Ang):
   XX=            -56.1636   YY=            -64.3036   ZZ=            -74.9412
   XY=              3.2060   XZ=             -4.6089   YZ=             -1.7614

 Normal termination of Gaussian 16 at Tue Dec  5 16:59:03 2023.
