 Gaussian 16, Revision B.01,
 Gaussian 16:  ES64L-G16RevB.01 20-Dec-2017

 -------------------------
 #P B3LYP/6-311+g(d) force
 -------------------------

 -----
 DPGEN
 -----
 Symbolic Z-matrix:
 Charge =  0 Multiplicity = 2

                         Standard orientation:
 ---------------------------------------------------------------------
 Center     Atomic      Atomic             Coordinates (Angstroms)
 Number     Number       Type             X           Y           Z
 ---------------------------------------------------------------------
      1         11           0        1.699610    2.106597    0.647546
      2         11           0       -2.174159    2.550252   -0.798230
      3         11           0        3.391833   -0.369913   -1.008808
      4         11           0        1.475875   -2.083818    0.894610
      5         11           0       -1.054149    0.450487    2.045176
      6         11           0       -2.941661   -2.246137   -0.280565
      7         11           0       -0.397349   -0.407468   -1.499730
 ---------------------------------------------------------------------

 SCF Done:  E(UB3LYP) =  -1136.12855944     A.U. after   20 cycles

 The electronic state is 2-A.
 Alpha  occ. eigenvalues --  -38.44169 -38.44150 -38.44102 -38.43956 -38.43867
 Alpha  occ. eigenvalues --  -38.43679 -38.43433  -2.19987  -2.19930  -2.19881
 Alpha  occ. eigenvalues --   -2.19764  -2.19714  -2.19537  -2.19334  -1.13680
 Alpha  occ. eigenvalues --   -1.13655  -1.13621  -1.13613  -1.13586  -1.13570
 Alpha  occ. eigenvalues --   -1.13561  -1.13535  -1.13505  -1.13456  -1.13447
 Alpha  occ. eigenvalues --   -1.13399  -1.13368  -1.13355  -1.13335  -1.13221
 Alpha  occ. eigenvalues --   -1.13170  -1.13143  -1.13031  -1.12972  -1.12962
 Alpha  occ. eigenvalues --   -0.17943  -0.13116  -0.11663  -0.10912
 Alpha virt. eigenvalues --   -0.06150  -0.05521  -0.04418  -0.03260  -0.02869
 Alpha virt. eigenvalues --   -0.02600  -0.01827  -0.01372  -0.00762  -0.00042
 Alpha virt. eigenvalues --    0.00021   0.00293   0.00463   0.00582   0.00724

  Beta  occ. eigenvalues --  -38.44172 -38.44131 -38.44082 -38.43945 -38.43850
  Beta  occ. eigenvalues --  -38.43602 -38.43391  -2.19955  -2.19938  -2.19845
  Beta  occ. eigenvalues --   -2.19748  -2.19683  -2.19397  -2.19258  -1.13660
  Beta  occ. eigenvalues --   -1.13611  -1.13610  -1.13602  -1.13593  -1.13574
  Beta  occ. eigenvalues --   -1.13525  -1.13513  -1.13481  -1.13439  -1.13415
  Beta  occ. eigenvalues --   -1.13390  -1.13342  -1.13332  -1.13318  -1.13126
  Beta  occ. eigenvalues --   -1.13065  -1.13043  -1.12971  -1.12916  -1.12907
  Beta  occ. eigenvalues --   -0.17228  -0.12894  -0.11499
  Beta virt. eigenvalues --   -0.07075  -0.06063  -0.05347  -0.04061  -0.02931
  Beta virt. eigenvalues --   -0.02267  -0.01854  -0.01563  -0.01275  -0.00492
  Beta virt. eigenvalues --   -0.00020   0.00095   0.00326   0.00554   0.00724

 Mulliken charges and spin densities:
               1          2
     1  Na  -0.166811   0.081774
     2  Na   0.097730  -0.035263
     3  Na   0.314070   0.000845
     4  Na  -0.007220   0.113746
     5  Na   0.091934   0.481227
     6  Na   0.152308  -0.074030
     7  Na  -0.482011   0.431700
 Sum of Mulliken charges =  -0.00000   1.00000

 Dipole moment (field-independent basis, Debye):
    X=             -0.0814    Y=              0.0133    Z=              0.0562  Tot=              0.0998
 Quadrupole moment (field-independent basis, Debye-Ang):
   XX=            -55.0666   YY=            -66.9167   ZZ=            -71.1671
   XY=              0.0211   XZ=             -1.0720   YZ=             -2.1810

 Normal termination of Gaussian 16 at Tue Dec  5 18:55:56 2023.
