 Gaussian 16, Revision B.01,
 Gaussian 16:  ES64L-G16RevB.01 20-Dec-2017

 -------------------------
 #P B3LYP/6-311+g(d) force
 -------------------------

 -----
 DPGEN
 -----
 Symbolic Z-matrix:
 Charge =  0 Multiplicity = 2

                         Standard orientation:
 ---------------------------------------------------------------------
 Center     Atomic      Atomic             Coordinates (Angstroms)
 Number     Number       Type             X           Y           Z
 ---------------------------------------------------------------------
      1         11           0       -0.280720   -2.853573    0.051668
      2         11           0       -2.549756   -0.907294   -0.218040
      3         11           0        1.802869    2.458767    0.057966
      4         11           0       -1.876168    2.213221    0.087144
      5         11           0        0.101929    0.241133   -1.830019
      6         11           0        2.925504   -1.168178   -0.021971
      7         11           0       -0.123658    0.015924    1.873252
 ---------------------------------------------------------------------

 SCF Done:  E(UB3LYP) =  -1136.13783795     A.U. after   19 cycles

 The electronic state is 2-A.
 Alpha  occ. eigenvalues --  -38.43899 -38.43848 -38.43456 -38.43398 -38.43366
 Alpha  occ. eigenvalues --  -38.43307 -38.43239  -2.19700  -2.19674  -2.19353
 Alpha  occ. eigenvalues --   -2.19324  -2.19297  -2.19269  -2.19207  -1.13378
 Alpha  occ. eigenvalues --   -1.13365  -1.13359  -1.13348  -1.13337  -1.13298
 Alpha  occ. eigenvalues --   -1.13103  -1.13093  -1.13034  -1.13003  -1.12994
 Alpha  occ. eigenvalues --   -1.12965  -1.12951  -1.12941  -1.12927  -1.12912
 Alpha  occ. eigenvalues --   -1.12908  -1.12877  -1.12835  -1.12830  -1.12791
 Alpha  occ. eigenvalues --   -0.19092  -0.12895  -0.12742  -0.10915
 Alpha virt. eigenvalues --   -0.05537  -0.04989  -0.04678  -0.03156  -0.03018
 Alpha virt. eigenvalues --   -0.02591  -0.01268  -0.01196  -0.00262  -0.00100
 Alpha virt. eigenvalues --    0.00005   0.00374   0.00860   0.00905   0.00966

  Beta  occ. eigenvalues --  -38.43899 -38.43845 -38.43449 -38.43393 -38.43281
  Beta  occ. eigenvalues --  -38.43228 -38.43227  -2.19702  -2.19672  -2.19343
  Beta  occ. eigenvalues --   -2.19291  -2.19192  -2.19170  -2.19123  -1.13368
  Beta  occ. eigenvalues --   -1.13361  -1.13354  -1.13343  -1.13327  -1.13300
  Beta  occ. eigenvalues --   -1.13094  -1.13075  -1.12992  -1.12984  -1.12949
  Beta  occ. eigenvalues --   -1.12921  -1.12898  -1.12866  -1.12849  -1.12821
  Beta  occ. eigenvalues --   -1.12819  -1.12793  -1.12786  -1.12779  -1.12759
  Beta  occ. eigenvalues --   -0.18321  -0.12640  -0.12494
  Beta virt. eigenvalues --   -0.06957  -0.05555  -0.04922  -0.04689  -0.02326
  Beta virt. eigenvalues --   -0.02220  -0.01532  -0.01193  -0.01121  -0.00316
  Beta virt. eigenvalues --   -0.00152   0.00125   0.00387   0.00858   0.00929

 Mulliken charges and spin densities:
               1          2
     1  Na   0.089127  -0.069562
     2  Na   0.387877   0.073444
     3  Na   0.018319  -0.165598
     4  Na   0.334824  -0.050829
     5  Na  -0.357003   0.643434
     6  Na  -0.044488  -0.141875
     7  Na  -0.428656   0.710987
 Sum of Mulliken charges =  -0.00000   1.00000

 Dipole moment (field-independent basis, Debye):
    X=              0.4471    Y=              0.2331    Z=              0.0394  Tot=              0.5058
 Quadrupole moment (field-independent basis, Debye-Ang):
   XX=            -59.9297   YY=            -60.4405   ZZ=            -73.5171
   XY=             -0.4209   XZ=              0.4951   YZ=              0.4940

 Normal termination of Gaussian 16 at Thu Dec  7 13:25:53 2023.
