 Gaussian 16, Revision B.01,
 Gaussian 16:  ES64L-G16RevB.01 20-Dec-2017

 -------------------------
 #P B3LYP/6-311+g(d) force
 -------------------------

 -----
 DPGEN
 -----
 Symbolic Z-matrix:
 Charge =  0 Multiplicity = 2

                         Standard orientation:
 ---------------------------------------------------------------------
 Center     Atomic      Atomic             Coordinates (Angstroms)
 Number     Number       Type             X           Y           Z
 ---------------------------------------------------------------------
      1         11           0        0.113279   -0.009579   -1.736847
      2         11           0       -0.003814    0.054597    1.888939
      3         11           0       -2.629091   -0.729576    0.013410
      4         11           0       -1.535748    1.724574   -0.155091
      5         11           0       -0.021230   -2.106443   -0.029520
      6         11           0        1.458060    1.814351    0.042772
      7         11           0        2.618544   -0.747923   -0.023663
 ---------------------------------------------------------------------

 SCF Done:  E(UB3LYP) =  -1136.08996964     A.U. after   19 cycles

 The electronic state is 2-A.
 Alpha  occ. eigenvalues --  -38.44178 -38.44110 -38.44092 -38.43940 -38.43443
 Alpha  occ. eigenvalues --  -38.43271 -38.43083  -2.20429  -2.20245  -2.20159
 Alpha  occ. eigenvalues --   -2.19987  -2.19578  -2.19399  -2.19233  -1.14234
 Alpha  occ. eigenvalues --   -1.14174  -1.14097  -1.14016  -1.13971  -1.13930
 Alpha  occ. eigenvalues --   -1.13877  -1.13811  -1.13746  -1.13739  -1.13661
 Alpha  occ. eigenvalues --   -1.13596  -1.13273  -1.13185  -1.13153  -1.13044
 Alpha  occ. eigenvalues --   -1.13024  -1.12948  -1.12901  -1.12868  -1.12796
 Alpha  occ. eigenvalues --   -0.21442  -0.14101  -0.12601  -0.12196
 Alpha virt. eigenvalues --   -0.05499  -0.04311  -0.03842  -0.03840  -0.03019
 Alpha virt. eigenvalues --   -0.02852  -0.01340  -0.00444  -0.00092   0.00333
 Alpha virt. eigenvalues --    0.00651   0.00725   0.01036   0.01121   0.01200

  Beta  occ. eigenvalues --  -38.44103 -38.44086 -38.43994 -38.43932 -38.43428
  Beta  occ. eigenvalues --  -38.43257 -38.43066  -2.20263  -2.20151  -2.20067
  Beta  occ. eigenvalues --   -2.19977  -2.19558  -2.19381  -2.19211  -1.14145
  Beta  occ. eigenvalues --   -1.14068  -1.14036  -1.13946  -1.13878  -1.13828
  Beta  occ. eigenvalues --   -1.13789  -1.13766  -1.13716  -1.13680  -1.13647
  Beta  occ. eigenvalues --   -1.13544  -1.13260  -1.13150  -1.13109  -1.13035
  Beta  occ. eigenvalues --   -1.12952  -1.12943  -1.12887  -1.12790  -1.12789
  Beta  occ. eigenvalues --   -0.20608  -0.13732  -0.12240
  Beta virt. eigenvalues --   -0.08022  -0.05522  -0.04305  -0.03785  -0.02860
  Beta virt. eigenvalues --   -0.02106  -0.01797  -0.01255  -0.00409   0.00056
  Beta virt. eigenvalues --    0.00357   0.00641   0.00705   0.01051   0.01141

 Mulliken charges and spin densities:
               1          2
     1  Na  -0.218803   0.421774
     2  Na  -0.317650   0.530307
     3  Na  -0.057689  -0.050416
     4  Na   0.183593   0.052772
     5  Na   0.187257   0.042771
     6  Na   0.190257   0.048144
     7  Na   0.033035  -0.045353
 Sum of Mulliken charges =  -0.00000   1.00000

 Dipole moment (field-independent basis, Debye):
    X=              0.0300    Y=             -0.1009    Z=              0.2371  Tot=              0.2594
 Quadrupole moment (field-independent basis, Debye-Ang):
   XX=            -57.3723   YY=            -71.3825   ZZ=            -68.5587
   XY=              0.0593   XZ=              0.1242   YZ=             -0.1564

 Normal termination of Gaussian 16 at Thu Dec  7 20:12:46 2023.
