 Gaussian 16, Revision B.01,
 Gaussian 16:  ES64L-G16RevB.01 20-Dec-2017

 -------------------------
 #P B3LYP/6-311+g(d) force
 -------------------------

 -----
 DPGEN
 -----
 Symbolic Z-matrix:
 Charge =  0 Multiplicity = 2

                         Standard orientation:
 ---------------------------------------------------------------------
 Center     Atomic      Atomic             Coordinates (Angstroms)
 Number     Number       Type             X           Y           Z
 ---------------------------------------------------------------------
      1         11           0        2.361331   -2.842125   -0.313952
      2         11           0       -4.280455   -0.786669    0.217155
      3         11           0        4.089887    0.677907   -0.316559
      4         11           0       -1.210547   -1.722300   -0.494637
      5         11           0        0.808430    2.974361    0.407244
      6         11           0        0.115791   -0.358373    1.490417
      7         11           0       -1.884437    2.057198   -0.989668
 ---------------------------------------------------------------------

 SCF Done:  E(UB3LYP) =  -1136.11463536     A.U. after   23 cycles

 The electronic state is 2-A.
 Alpha  occ. eigenvalues --  -38.45043 -38.44829 -38.44636 -38.44029 -38.43883
 Alpha  occ. eigenvalues --  -38.43775 -38.43302  -2.20945  -2.20637  -2.20389
 Alpha  occ. eigenvalues --   -2.19814  -2.19807  -2.19595  -2.19128  -1.14787
 Alpha  occ. eigenvalues --   -1.14562  -1.14506  -1.14333  -1.14305  -1.14260
 Alpha  occ. eigenvalues --   -1.14084  -1.14044  -1.14026  -1.13557  -1.13470
 Alpha  occ. eigenvalues --   -1.13465  -1.13432  -1.13425  -1.13382  -1.13246
 Alpha  occ. eigenvalues --   -1.13239  -1.13200  -1.12807  -1.12793  -1.12768
 Alpha  occ. eigenvalues --   -0.17442  -0.13484  -0.12592  -0.10266
 Alpha virt. eigenvalues --   -0.06903  -0.05327  -0.04911  -0.03330  -0.02985
 Alpha virt. eigenvalues --   -0.02489  -0.01772  -0.01269  -0.01127  -0.00679
 Alpha virt. eigenvalues --   -0.00245  -0.00164   0.00368   0.00449   0.00692

  Beta  occ. eigenvalues --  -38.44999 -38.44825 -38.44644 -38.43928 -38.43872
  Beta  occ. eigenvalues --  -38.43715 -38.43302  -2.20864  -2.20633  -2.20407
  Beta  occ. eigenvalues --   -2.19800  -2.19620  -2.19482  -2.19131  -1.14730
  Beta  occ. eigenvalues --   -1.14513  -1.14447  -1.14332  -1.14292  -1.14255
  Beta  occ. eigenvalues --   -1.14100  -1.14056  -1.14017  -1.13533  -1.13463
  Beta  occ. eigenvalues --   -1.13354  -1.13337  -1.13304  -1.13300  -1.13169
  Beta  occ. eigenvalues --   -1.13162  -1.13132  -1.12811  -1.12788  -1.12764
  Beta  occ. eigenvalues --   -0.17047  -0.12718  -0.12369
  Beta virt. eigenvalues --   -0.06882  -0.06709  -0.05071  -0.04697  -0.02746
  Beta virt. eigenvalues --   -0.02702  -0.02247  -0.01481  -0.01033  -0.00964
  Beta virt. eigenvalues --   -0.00473   0.00018   0.00076   0.00531   0.00597

 Mulliken charges and spin densities:
               1          2
     1  Na   0.115548   0.196687
     2  Na   0.496662   0.242217
     3  Na  -0.159786   0.600153
     4  Na  -0.875667   0.153135
     5  Na  -0.115656   0.099214
     6  Na   0.580888  -0.261058
     7  Na  -0.041990  -0.030348
 Sum of Mulliken charges =  -0.00000   1.00000

 Dipole moment (field-independent basis, Debye):
    X=             -0.6357    Y=             -0.3065    Z=              0.1111  Tot=              0.7144
 Quadrupole moment (field-independent basis, Debye-Ang):
   XX=            -73.1240   YY=            -65.2618   ZZ=            -66.1769
   XY=             -4.8782   XZ=             -0.2314   YZ=              0.5777

 Normal termination of Gaussian 16 at Sun Dec  3 15:21:58 2023.
