 Gaussian 16, Revision B.01,
 Gaussian 16:  ES64L-G16RevB.01 20-Dec-2017

 -------------------------
 #P B3LYP/6-311+g(d) force
 -------------------------

 -----
 DPGEN
 -----
 Symbolic Z-matrix:
 Charge =  0 Multiplicity = 2

                         Standard orientation:
 ---------------------------------------------------------------------
 Center     Atomic      Atomic             Coordinates (Angstroms)
 Number     Number       Type             X           Y           Z
 ---------------------------------------------------------------------
      1         11           0       -1.663549   -0.597979    2.198083
      2         11           0       -3.338561   -0.862341   -1.290379
      3         11           0        1.239209    1.125541    1.733235
      4         11           0        2.598016    1.139629   -1.530857
      5         11           0       -1.220127    2.483981   -0.292943
      6         11           0        2.551225   -2.114187    0.251971
      7         11           0       -0.166213   -1.174645   -1.069110
 ---------------------------------------------------------------------

 SCF Done:  E(UB3LYP) =  -1136.12873203     A.U. after   21 cycles

 The electronic state is 2-A.
 Alpha  occ. eigenvalues --  -38.44768 -38.44745 -38.43773 -38.43768 -38.43681
 Alpha  occ. eigenvalues --  -38.43162 -38.42742  -2.20575  -2.20568  -2.19580
 Alpha  occ. eigenvalues --   -2.19566  -2.19510  -2.19038  -2.18672  -1.14258
 Alpha  occ. eigenvalues --   -1.14250  -1.14222  -1.14196  -1.14181  -1.14179
 Alpha  occ. eigenvalues --   -1.13268  -1.13248  -1.13227  -1.13224  -1.13210
 Alpha  occ. eigenvalues --   -1.13204  -1.13193  -1.13164  -1.13132  -1.12732
 Alpha  occ. eigenvalues --   -1.12693  -1.12663  -1.12381  -1.12339  -1.12294
 Alpha  occ. eigenvalues --   -0.18074  -0.13177  -0.11643  -0.11260
 Alpha virt. eigenvalues --   -0.05692  -0.05338  -0.04784  -0.03208  -0.02983
 Alpha virt. eigenvalues --   -0.02705  -0.01651  -0.01056  -0.00848  -0.00027
 Alpha virt. eigenvalues --    0.00278   0.00341   0.00366   0.00475   0.00692

  Beta  occ. eigenvalues --  -38.44728 -38.44678 -38.43757 -38.43753 -38.43669
  Beta  occ. eigenvalues --  -38.43139 -38.42728  -2.20500  -2.20445  -2.19552
  Beta  occ. eigenvalues --   -2.19537  -2.19489  -2.18999  -2.18650  -1.14201
  Beta  occ. eigenvalues --   -1.14175  -1.14160  -1.14125  -1.14115  -1.14088
  Beta  occ. eigenvalues --   -1.13245  -1.13226  -1.13205  -1.13196  -1.13194
  Beta  occ. eigenvalues --   -1.13190  -1.13173  -1.13143  -1.13116  -1.12705
  Beta  occ. eigenvalues --   -1.12642  -1.12634  -1.12338  -1.12319  -1.12284
  Beta  occ. eigenvalues --   -0.17331  -0.12958  -0.11080
  Beta virt. eigenvalues --   -0.07838  -0.05390  -0.04903  -0.04521  -0.02984
  Beta virt. eigenvalues --   -0.02401  -0.02013  -0.01571  -0.00771  -0.00551
  Beta virt. eigenvalues --    0.00074   0.00345   0.00468   0.00474   0.00541

 Mulliken charges and spin densities:
               1          2
     1  Na  -0.076180   0.182260
     2  Na   0.216052  -0.048166
     3  Na   0.385396   0.253813
     4  Na   0.187069   0.067796
     5  Na  -0.328258   0.168320
     6  Na   0.323876   0.144603
     7  Na  -0.707954   0.231373
 Sum of Mulliken charges =  -0.00000   1.00000

 Dipole moment (field-independent basis, Debye):
    X=              0.0456    Y=              0.2980    Z=              0.0810  Tot=              0.3121
 Quadrupole moment (field-independent basis, Debye-Ang):
   XX=            -54.9823   YY=            -72.7841   ZZ=            -65.9381
   XY=             -0.3439   XZ=             -0.9288   YZ=             -7.1127

 Normal termination of Gaussian 16 at Tue Dec  5 22:39:52 2023.
