 Gaussian 16, Revision B.01,
 Gaussian 16:  ES64L-G16RevB.01 20-Dec-2017

 -------------------------
 #P B3LYP/6-311+g(d) force
 -------------------------

 -----
 DPGEN
 -----
 Symbolic Z-matrix:
 Charge =  0 Multiplicity = 2

                         Standard orientation:
 ---------------------------------------------------------------------
 Center     Atomic      Atomic             Coordinates (Angstroms)
 Number     Number       Type             X           Y           Z
 ---------------------------------------------------------------------
      1         11           0       -1.250519    1.557122   -0.562432
      2         11           0        1.685989    0.747285    0.254275
      3         11           0        0.597887   -1.879179   -0.657437
      4         11           0       -1.768452   -1.919302    1.646852
      5         11           0       -3.573781   -0.978712   -0.791575
      6         11           0        3.808006   -1.910902   -0.214916
      7         11           0        0.500871    4.383688    0.325232
 ---------------------------------------------------------------------

 SCF Done:  E(UB3LYP) =  -1136.12122188     A.U. after   23 cycles

 The electronic state is 2-A.
 Alpha  occ. eigenvalues --  -38.44327 -38.44309 -38.44252 -38.44169 -38.43552
 Alpha  occ. eigenvalues --  -38.43548 -38.43319  -2.20257  -2.20165  -2.20085
 Alpha  occ. eigenvalues --   -2.19998  -2.19438  -2.19411  -2.19203  -1.14100
 Alpha  occ. eigenvalues --   -1.13931  -1.13888  -1.13866  -1.13829  -1.13760
 Alpha  occ. eigenvalues --   -1.13752  -1.13717  -1.13694  -1.13656  -1.13647
 Alpha  occ. eigenvalues --   -1.13607  -1.13168  -1.13119  -1.13092  -1.13078
 Alpha  occ. eigenvalues --   -1.13052  -1.12989  -1.12862  -1.12842  -1.12808
 Alpha  occ. eigenvalues --   -0.17858  -0.13620  -0.13047  -0.09641
 Alpha virt. eigenvalues --   -0.06791  -0.05520  -0.04602  -0.03285  -0.02509
 Alpha virt. eigenvalues --   -0.02414  -0.02109  -0.01281  -0.00924  -0.00482
 Alpha virt. eigenvalues --   -0.00214   0.00116   0.00444   0.00561   0.00614

  Beta  occ. eigenvalues --  -38.44315 -38.44305 -38.44249 -38.44151 -38.43521
  Beta  occ. eigenvalues --  -38.43505 -38.43252  -2.20241  -2.20160  -2.20078
  Beta  occ. eigenvalues --   -2.19964  -2.19392  -2.19326  -2.19080  -1.14096
  Beta  occ. eigenvalues --   -1.13898  -1.13885  -1.13846  -1.13810  -1.13755
  Beta  occ. eigenvalues --   -1.13746  -1.13713  -1.13689  -1.13635  -1.13621
  Beta  occ. eigenvalues --   -1.13587  -1.13138  -1.13083  -1.13034  -1.13005
  Beta  occ. eigenvalues --   -1.12993  -1.12937  -1.12770  -1.12757  -1.12725
  Beta  occ. eigenvalues --   -0.17423  -0.13198  -0.12837
  Beta virt. eigenvalues --   -0.06591  -0.05933  -0.05406  -0.04390  -0.02828
  Beta virt. eigenvalues --   -0.02277  -0.02145  -0.01962  -0.00849  -0.00817
  Beta virt. eigenvalues --   -0.00211   0.00091   0.00361   0.00600   0.00689

 Mulliken charges and spin densities:
               1          2
     1  Na  -1.135235   0.242375
     2  Na  -1.051200   0.049305
     3  Na  -0.721967   0.094754
     4  Na   0.287516   0.285671
     5  Na   0.743980   0.200635
     6  Na   1.000432   0.041110
     7  Na   0.876475   0.086151
 Sum of Mulliken charges =  -0.00000   1.00000

 Dipole moment (field-independent basis, Debye):
    X=              1.2183    Y=              0.2531    Z=              0.4306  Tot=              1.3167
 Quadrupole moment (field-independent basis, Debye-Ang):
   XX=            -61.4224   YY=            -58.3788   ZZ=            -73.2065
   XY=              0.7301   XZ=             -0.2169   YZ=              3.9242

 Normal termination of Gaussian 16 at Wed Nov 29 01:05:49 2023.
