 Gaussian 16, Revision B.01,
 Gaussian 16:  ES64L-G16RevB.01 20-Dec-2017

 -------------------------
 #P B3LYP/6-311+g(d) force
 -------------------------

 -----
 DPGEN
 -----
 Symbolic Z-matrix:
 Charge =  0 Multiplicity = 2

                         Standard orientation:
 ---------------------------------------------------------------------
 Center     Atomic      Atomic             Coordinates (Angstroms)
 Number     Number       Type             X           Y           Z
 ---------------------------------------------------------------------
      1         11           0        0.546820   -1.631795   -1.123218
      2         11           0       -3.371745   -1.728189    0.168647
      3         11           0       -1.957167    0.975944   -1.115166
      4         11           0       -0.448414   -0.508955    1.733109
      5         11           0        3.577677   -1.279115    0.661363
      6         11           0        1.950001    1.140655   -1.194936
      7         11           0       -0.297173    3.031456    0.870201
 ---------------------------------------------------------------------

 SCF Done:  E(UB3LYP) =  -1136.13052457     A.U. after   20 cycles

 The electronic state is 2-A.
 Alpha  occ. eigenvalues --  -38.44532 -38.44066 -38.43873 -38.43846 -38.43731
 Alpha  occ. eigenvalues --  -38.43537 -38.42679  -2.20324  -2.19873  -2.19790
 Alpha  occ. eigenvalues --   -2.19737  -2.19616  -2.19441  -2.18519  -1.13999
 Alpha  occ. eigenvalues --   -1.13979  -1.13954  -1.13565  -1.13559  -1.13537
 Alpha  occ. eigenvalues --   -1.13516  -1.13501  -1.13410  -1.13375  -1.13364
 Alpha  occ. eigenvalues --   -1.13333  -1.13294  -1.13271  -1.13200  -1.13128
 Alpha  occ. eigenvalues --   -1.13113  -1.13052  -1.12188  -1.12176  -1.12155
 Alpha  occ. eigenvalues --   -0.18384  -0.13405  -0.11862  -0.10679
 Alpha virt. eigenvalues --   -0.06415  -0.05160  -0.04092  -0.03425  -0.02799
 Alpha virt. eigenvalues --   -0.02325  -0.02174  -0.01289  -0.00472  -0.00148
 Alpha virt. eigenvalues --    0.00222   0.00284   0.00675   0.00692   0.00769

  Beta  occ. eigenvalues --  -38.44525 -38.44067 -38.43837 -38.43777 -38.43702
  Beta  occ. eigenvalues --  -38.43512 -38.42666  -2.20310  -2.19877  -2.19729
  Beta  occ. eigenvalues --   -2.19612  -2.19566  -2.19399  -2.18495  -1.13991
  Beta  occ. eigenvalues --   -1.13960  -1.13947  -1.13561  -1.13528  -1.13522
  Beta  occ. eigenvalues --   -1.13507  -1.13436  -1.13330  -1.13326  -1.13272
  Beta  occ. eigenvalues --   -1.13251  -1.13243  -1.13221  -1.13172  -1.13100
  Beta  occ. eigenvalues --   -1.13058  -1.13027  -1.12174  -1.12153  -1.12133
  Beta  occ. eigenvalues --   -0.17632  -0.13242  -0.11690
  Beta virt. eigenvalues --   -0.06822  -0.06236  -0.05006  -0.03981  -0.02899
  Beta virt. eigenvalues --   -0.02280  -0.02026  -0.01450  -0.01065  -0.00203
  Beta virt. eigenvalues --   -0.00159   0.00244   0.00354   0.00732   0.00775

 Mulliken charges and spin densities:
               1          2
     1  Na  -0.093568   0.202101
     2  Na   0.424061  -0.087798
     3  Na  -0.056713   0.219979
     4  Na  -0.449600   0.746193
     5  Na   0.038458  -0.078020
     6  Na   0.086868   0.188323
     7  Na   0.050494  -0.190780
 Sum of Mulliken charges =  -0.00000   1.00000

 Dipole moment (field-independent basis, Debye):
    X=              0.3327    Y=             -0.5352    Z=              0.1267  Tot=              0.6427
 Quadrupole moment (field-independent basis, Debye-Ang):
   XX=            -51.6392   YY=            -68.3684   ZZ=            -71.8756
   XY=              1.1090   XZ=              2.1479   YZ=             -0.4701

 Normal termination of Gaussian 16 at Thu Dec  7 23:58:47 2023.
