 Gaussian 16, Revision B.01,
 Gaussian 16:  ES64L-G16RevB.01 20-Dec-2017

 -------------------------
 #P B3LYP/6-311+g(d) force
 -------------------------

 -----
 DPGEN
 -----
 Symbolic Z-matrix:
 Charge =  0 Multiplicity = 2

                         Standard orientation:
 ---------------------------------------------------------------------
 Center     Atomic      Atomic             Coordinates (Angstroms)
 Number     Number       Type             X           Y           Z
 ---------------------------------------------------------------------
      1         11           0       -4.205020   -1.682682    0.337570
      2         11           0        4.550028   -1.384131   -0.194021
      3         11           0        1.235944   -0.156718   -0.739887
      4         11           0       -0.535671   -2.990495   -0.128712
      5         11           0       -0.508607    3.257222   -0.739859
      6         11           0       -3.393478    1.436171    0.226143
      7         11           0        2.856805    1.520634    1.238767
 ---------------------------------------------------------------------

 SCF Done:  E(UB3LYP) =  -1136.11377794     A.U. after   22 cycles

 The electronic state is 2-A.
 Alpha  occ. eigenvalues --  -38.45813 -38.45010 -38.44076 -38.43955 -38.43895
 Alpha  occ. eigenvalues --  -38.43733 -38.43352  -2.21614  -2.20797  -2.19875
 Alpha  occ. eigenvalues --   -2.19849  -2.19687  -2.19523  -2.19126  -1.15334
 Alpha  occ. eigenvalues --   -1.15283  -1.15201  -1.14462  -1.14443  -1.14409
 Alpha  occ. eigenvalues --   -1.13567  -1.13556  -1.13553  -1.13517  -1.13514
 Alpha  occ. eigenvalues --   -1.13452  -1.13351  -1.13338  -1.13308  -1.13186
 Alpha  occ. eigenvalues --   -1.13182  -1.13129  -1.12807  -1.12789  -1.12765
 Alpha  occ. eigenvalues --   -0.16611  -0.13917  -0.12042  -0.10743
 Alpha virt. eigenvalues --   -0.06980  -0.05142  -0.04854  -0.03144  -0.03060
 Alpha virt. eigenvalues --   -0.02410  -0.02054  -0.01309  -0.01103  -0.00777
 Alpha virt. eigenvalues --   -0.00283  -0.00144   0.00247   0.00460   0.00522

  Beta  occ. eigenvalues --  -38.45801 -38.44956 -38.44045 -38.43922 -38.43869
  Beta  occ. eigenvalues --  -38.43672 -38.43354  -2.21593  -2.20697  -2.19820
  Beta  occ. eigenvalues --   -2.19791  -2.19641  -2.19412  -2.19130  -1.15324
  Beta  occ. eigenvalues --   -1.15272  -1.15164  -1.14394  -1.14368  -1.14343
  Beta  occ. eigenvalues --   -1.13532  -1.13520  -1.13518  -1.13463  -1.13452
  Beta  occ. eigenvalues --   -1.13408  -1.13323  -1.13304  -1.13267  -1.13109
  Beta  occ. eigenvalues --   -1.13102  -1.13057  -1.12809  -1.12797  -1.12763
  Beta  occ. eigenvalues --   -0.16040  -0.13265  -0.11698
  Beta virt. eigenvalues --   -0.07297  -0.06874  -0.04792  -0.04626  -0.02811
  Beta virt. eigenvalues --   -0.02576  -0.02226  -0.01796  -0.01176  -0.00909
  Beta virt. eigenvalues --   -0.00532  -0.00045   0.00100   0.00355   0.00562

 Mulliken charges and spin densities:
               1          2
     1  Na   0.023141   0.118042
     2  Na   0.170982   0.235979
     3  Na  -1.306264   0.219380
     4  Na   0.376310   0.150786
     5  Na   0.366060   0.012538
     6  Na  -0.155156   0.147538
     7  Na   0.524927   0.115737
 Sum of Mulliken charges =  -0.00000   1.00000

 Dipole moment (field-independent basis, Debye):
    X=              1.9896    Y=             -0.0554    Z=              0.5464  Tot=              2.0640
 Quadrupole moment (field-independent basis, Debye-Ang):
   XX=            -63.0917   YY=            -64.2094   ZZ=            -69.2062
   XY=              0.0612   XZ=              0.8218   YZ=              1.8110

 Normal termination of Gaussian 16 at Sun Dec  3 13:02:31 2023.
