 Gaussian 16, Revision B.01,
 Gaussian 16:  ES64L-G16RevB.01 20-Dec-2017

 -------------------------
 #P B3LYP/6-311+g(d) force
 -------------------------

 -----
 DPGEN
 -----
 Symbolic Z-matrix:
 Charge =  0 Multiplicity = 2

                         Standard orientation:
 ---------------------------------------------------------------------
 Center     Atomic      Atomic             Coordinates (Angstroms)
 Number     Number       Type             X           Y           Z
 ---------------------------------------------------------------------
      1         11           0        1.030817    2.729223    0.420170
      2         11           0       -2.719609    1.618594   -0.403209
      3         11           0        3.078923   -0.064454   -0.357400
      4         11           0        1.132994   -2.474946    0.359536
      5         11           0        0.247739    0.019729   -1.774977
      6         11           0       -0.366362    0.093465    1.876768
      7         11           0       -2.404503   -1.921611   -0.120887
 ---------------------------------------------------------------------

 SCF Done:  E(UB3LYP) =  -1136.13828752     A.U. after   19 cycles

 The electronic state is 2-A.
 Alpha  occ. eigenvalues --  -38.44069 -38.43837 -38.43737 -38.43475 -38.43364
 Alpha  occ. eigenvalues --  -38.43341 -38.43092  -2.19878  -2.19722  -2.19570
 Alpha  occ. eigenvalues --   -2.19428  -2.19306  -2.19182  -2.18995  -1.13556
 Alpha  occ. eigenvalues --   -1.13538  -1.13512  -1.13436  -1.13388  -1.13350
 Alpha  occ. eigenvalues --   -1.13247  -1.13239  -1.13204  -1.13110  -1.13055
 Alpha  occ. eigenvalues --   -1.13049  -1.12987  -1.12957  -1.12930  -1.12846
 Alpha  occ. eigenvalues --   -1.12837  -1.12807  -1.12675  -1.12652  -1.12623
 Alpha  occ. eigenvalues --   -0.18785  -0.13170  -0.12317  -0.10896
 Alpha virt. eigenvalues --   -0.05579  -0.05261  -0.04429  -0.03318  -0.02940
 Alpha virt. eigenvalues --   -0.02551  -0.01530  -0.01122  -0.00345  -0.00130
 Alpha virt. eigenvalues --    0.00013   0.00362   0.00789   0.00874   0.00912

  Beta  occ. eigenvalues --  -38.44061 -38.43829 -38.43734 -38.43406 -38.43330
  Beta  occ. eigenvalues --  -38.43280 -38.43082  -2.19864  -2.19711  -2.19567
  Beta  occ. eigenvalues --   -2.19302  -2.19165  -2.19152  -2.18981  -1.13532
  Beta  occ. eigenvalues --   -1.13531  -1.13502  -1.13419  -1.13374  -1.13335
  Beta  occ. eigenvalues --   -1.13239  -1.13231  -1.13196  -1.13027  -1.12971
  Beta  occ. eigenvalues --   -1.12954  -1.12899  -1.12866  -1.12825  -1.12816
  Beta  occ. eigenvalues --   -1.12803  -1.12781  -1.12664  -1.12627  -1.12602
  Beta  occ. eigenvalues --   -0.18060  -0.12909  -0.12053
  Beta virt. eigenvalues --   -0.07009  -0.05526  -0.05232  -0.04383  -0.02565
  Beta virt. eigenvalues --   -0.02167  -0.01525  -0.01414  -0.01062  -0.00353
  Beta virt. eigenvalues --   -0.00165   0.00124   0.00392   0.00849   0.00887

 Mulliken charges and spin densities:
               1          2
     1  Na  -0.000487  -0.076453
     2  Na  -0.041831  -0.055719
     3  Na   0.304951   0.042563
     4  Na   0.121267  -0.023193
     5  Na  -0.237986   0.570047
     6  Na  -0.157450   0.613075
     7  Na   0.011535  -0.070320
 Sum of Mulliken charges =  -0.00000   1.00000

 Dipole moment (field-independent basis, Debye):
    X=             -0.2772    Y=              0.1398    Z=             -0.0819  Tot=              0.3211
 Quadrupole moment (field-independent basis, Debye-Ang):
   XX=            -56.1451   YY=            -63.9594   ZZ=            -73.4545
   XY=              0.1622   XZ=              1.0781   YZ=             -0.2846

 Normal termination of Gaussian 16 at Thu Dec  7 06:33:01 2023.
