 Gaussian 16, Revision B.01,
 Gaussian 16:  ES64L-G16RevB.01 20-Dec-2017

 -------------------------
 #P B3LYP/6-311+g(d) force
 -------------------------

 -----
 DPGEN
 -----
 Symbolic Z-matrix:
 Charge =  0 Multiplicity = 2

                         Standard orientation:
 ---------------------------------------------------------------------
 Center     Atomic      Atomic             Coordinates (Angstroms)
 Number     Number       Type             X           Y           Z
 ---------------------------------------------------------------------
      1         11           0        2.549980    1.679102    0.152236
      2         11           0       -0.481633    0.230997    1.963302
      3         11           0       -2.734101   -1.883553    0.239009
      4         11           0        0.780476   -2.330214    0.496412
      5         11           0        3.613353   -1.198996   -1.202210
      6         11           0       -3.089173    0.380085   -1.679018
      7         11           0       -0.638903    3.122579    0.030270
 ---------------------------------------------------------------------

 SCF Done:  E(UB3LYP) =  -1136.12529273     A.U. after   19 cycles

 The electronic state is 2-A.
 Alpha  occ. eigenvalues --  -38.44582 -38.44297 -38.44250 -38.43963 -38.43826
 Alpha  occ. eigenvalues --  -38.43809 -38.43461  -2.20419  -2.20185  -2.20055
 Alpha  occ. eigenvalues --   -2.19828  -2.19666  -2.19627  -2.19258  -1.14129
 Alpha  occ. eigenvalues --   -1.14054  -1.14020  -1.13886  -1.13833  -1.13785
 Alpha  occ. eigenvalues --   -1.13751  -1.13726  -1.13683  -1.13507  -1.13487
 Alpha  occ. eigenvalues --   -1.13461  -1.13369  -1.13339  -1.13293  -1.13279
 Alpha  occ. eigenvalues --   -1.13273  -1.13231  -1.12935  -1.12922  -1.12896
 Alpha  occ. eigenvalues --   -0.17456  -0.13821  -0.12319  -0.11209
 Alpha virt. eigenvalues --   -0.05971  -0.05253  -0.04776  -0.03827  -0.03271
 Alpha virt. eigenvalues --   -0.02295  -0.01548  -0.00868  -0.00799  -0.00624
 Alpha virt. eigenvalues --   -0.00261   0.00284   0.00376   0.00528   0.00642

  Beta  occ. eigenvalues --  -38.44502 -38.44244 -38.44223 -38.43957 -38.43809
  Beta  occ. eigenvalues --  -38.43767 -38.43461  -2.20271  -2.20053  -2.20045
  Beta  occ. eigenvalues --   -2.19824  -2.19641  -2.19548  -2.19261  -1.14033
  Beta  occ. eigenvalues --   -1.13954  -1.13917  -1.13795  -1.13750  -1.13744
  Beta  occ. eigenvalues --   -1.13725  -1.13679  -1.13659  -1.13496  -1.13492
  Beta  occ. eigenvalues --   -1.13418  -1.13339  -1.13323  -1.13259  -1.13224
  Beta  occ. eigenvalues --   -1.13218  -1.13190  -1.12935  -1.12925  -1.12892
  Beta  occ. eigenvalues --   -0.16820  -0.13126  -0.12134
  Beta virt. eigenvalues --   -0.07710  -0.05865  -0.04982  -0.04315  -0.03526
  Beta virt. eigenvalues --   -0.02605  -0.01790  -0.01422  -0.00848  -0.00721
  Beta virt. eigenvalues --   -0.00436   0.00024   0.00442   0.00559   0.00665

 Mulliken charges and spin densities:
               1          2
     1  Na  -0.390682  -0.024816
     2  Na   0.598042   0.184479
     3  Na   0.198105   0.198588
     4  Na  -0.646998  -0.097953
     5  Na   0.599694   0.326682
     6  Na  -0.250609   0.313634
     7  Na  -0.107551   0.099387
 Sum of Mulliken charges =  -0.00000   1.00000

 Dipole moment (field-independent basis, Debye):
    X=             -0.0999    Y=              0.0223    Z=             -0.1423  Tot=              0.1753
 Quadrupole moment (field-independent basis, Debye-Ang):
   XX=            -65.1853   YY=            -66.4488   ZZ=            -68.0801
   XY=              0.5045   XZ=             -1.4567   YZ=             -0.7590

 Normal termination of Gaussian 16 at Tue Nov 28 20:37:28 2023.
