 Gaussian 16, Revision B.01,
 Gaussian 16:  ES64L-G16RevB.01 20-Dec-2017

 -------------------------
 #P B3LYP/6-311+g(d) force
 -------------------------

 -----
 DPGEN
 -----
 Symbolic Z-matrix:
 Charge =  0 Multiplicity = 2

                         Standard orientation:
 ---------------------------------------------------------------------
 Center     Atomic      Atomic             Coordinates (Angstroms)
 Number     Number       Type             X           Y           Z
 ---------------------------------------------------------------------
      1         11           0        1.893642    1.981746    0.009178
      2         11           0       -1.485352    2.514823    0.075844
      3         11           0       -0.144691   -2.585880   -0.021731
      4         11           0       -3.210775   -0.764854   -0.476496
      5         11           0       -0.169438   -0.290068    2.147330
      6         11           0        0.254648    0.171525   -1.491593
      7         11           0        2.861965   -1.027292   -0.242532
 ---------------------------------------------------------------------

 SCF Done:  E(UB3LYP) =  -1136.13188520     A.U. after   19 cycles

 The electronic state is 2-A.
 Alpha  occ. eigenvalues --  -38.44263 -38.43730 -38.43712 -38.43402 -38.43374
 Alpha  occ. eigenvalues --  -38.43244 -38.43078  -2.20055  -2.19635  -2.19621
 Alpha  occ. eigenvalues --   -2.19362  -2.19323  -2.19223  -2.19002  -1.13729
 Alpha  occ. eigenvalues --   -1.13703  -1.13697  -1.13374  -1.13316  -1.13293
 Alpha  occ. eigenvalues --   -1.13266  -1.13253  -1.13238  -1.13237  -1.13021
 Alpha  occ. eigenvalues --   -1.12989  -1.12971  -1.12937  -1.12886  -1.12876
 Alpha  occ. eigenvalues --   -1.12869  -1.12844  -1.12690  -1.12673  -1.12598
 Alpha  occ. eigenvalues --   -0.19140  -0.13116  -0.12536  -0.10974
 Alpha virt. eigenvalues --   -0.05715  -0.04979  -0.04366  -0.03238  -0.02930
 Alpha virt. eigenvalues --   -0.02596  -0.01639  -0.00986  -0.00137  -0.00076
 Alpha virt. eigenvalues --    0.00002   0.00326   0.00795   0.00913   0.00949

  Beta  occ. eigenvalues --  -38.44253 -38.43706 -38.43626 -38.43395 -38.43371
  Beta  occ. eigenvalues --  -38.43190 -38.43068  -2.20038  -2.19613  -2.19442
  Beta  occ. eigenvalues --   -2.19346  -2.19234  -2.19221  -2.18989  -1.13704
  Beta  occ. eigenvalues --   -1.13694  -1.13688  -1.13358  -1.13282  -1.13231
  Beta  occ. eigenvalues --   -1.13213  -1.13187  -1.13127  -1.13106  -1.12977
  Beta  occ. eigenvalues --   -1.12967  -1.12933  -1.12915  -1.12868  -1.12847
  Beta  occ. eigenvalues --   -1.12833  -1.12817  -1.12680  -1.12624  -1.12594
  Beta  occ. eigenvalues --   -0.18406  -0.12848  -0.12286
  Beta virt. eigenvalues --   -0.07020  -0.05637  -0.04977  -0.04339  -0.02461
  Beta virt. eigenvalues --   -0.02120  -0.01545  -0.01526  -0.00936  -0.00159
  Beta virt. eigenvalues --   -0.00098   0.00128   0.00365   0.00852   0.00913

 Mulliken charges and spin densities:
               1          2
     1  Na   0.471179   0.096742
     2  Na   0.119332   0.000646
     3  Na   0.484387   0.057691
     4  Na  -0.000872  -0.010520
     5  Na  -0.689082   0.611764
     6  Na  -0.853244   0.203061
     7  Na   0.468300   0.040616
 Sum of Mulliken charges =  -0.00000   1.00000

 Dipole moment (field-independent basis, Debye):
    X=             -0.3125    Y=             -0.0511    Z=              0.2580  Tot=              0.4084
 Quadrupole moment (field-independent basis, Debye-Ang):
   XX=            -55.1230   YY=            -65.2873   ZZ=            -73.1205
   XY=             -0.6665   XZ=              0.9723   YZ=              1.2254

 Normal termination of Gaussian 16 at Thu Dec  7 02:07:48 2023.
