 Gaussian 16, Revision B.01,
 Gaussian 16:  ES64L-G16RevB.01 20-Dec-2017

 -------------------------
 #P B3LYP/6-311+g(d) force
 -------------------------

 -----
 DPGEN
 -----
 Symbolic Z-matrix:
 Charge =  0 Multiplicity = 2

                         Standard orientation:
 ---------------------------------------------------------------------
 Center     Atomic      Atomic             Coordinates (Angstroms)
 Number     Number       Type             X           Y           Z
 ---------------------------------------------------------------------
      1         11           0       -3.016729   -2.713733   -0.533001
      2         11           0        0.656898   -3.311324    0.613311
      3         11           0       -4.352560    0.172228   -0.154070
      4         11           0       -2.141519    3.528065    0.575473
      5         11           0        0.924019    2.848665   -0.243266
      6         11           0        3.497592   -2.122074    0.084214
      7         11           0        4.432298    1.598173   -0.342661
 ---------------------------------------------------------------------

 SCF Done:  E(UB3LYP) =  -1136.10834549     A.U. after   20 cycles

 The electronic state is 2-A.
 Alpha  occ. eigenvalues --  -38.45162 -38.44789 -38.44719 -38.44498 -38.44470
 Alpha  occ. eigenvalues --  -38.44356 -38.44053  -2.20934  -2.20574  -2.20483
 Alpha  occ. eigenvalues --   -2.20284  -2.20256  -2.20160  -2.19854  -1.14607
 Alpha  occ. eigenvalues --   -1.14601  -1.14569  -1.14278  -1.14245  -1.14211
 Alpha  occ. eigenvalues --   -1.14172  -1.14164  -1.14129  -1.13948  -1.13944
 Alpha  occ. eigenvalues --   -1.13924  -1.13906  -1.13888  -1.13880  -1.13813
 Alpha  occ. eigenvalues --   -1.13812  -1.13783  -1.13505  -1.13501  -1.13484
 Alpha  occ. eigenvalues --   -0.15425  -0.13893  -0.13525  -0.11222
 Alpha virt. eigenvalues --   -0.07456  -0.04805  -0.04443  -0.03588  -0.03567
 Alpha virt. eigenvalues --   -0.02456  -0.02235  -0.01935  -0.01451  -0.00778
 Alpha virt. eigenvalues --   -0.00713  -0.00245  -0.00094   0.00452   0.00601

  Beta  occ. eigenvalues --  -38.45138 -38.44778 -38.44714 -38.44480 -38.44384
  Beta  occ. eigenvalues --  -38.44310 -38.44002  -2.20893  -2.20561  -2.20481
  Beta  occ. eigenvalues --   -2.20254  -2.20098  -2.20078  -2.19760  -1.14578
  Beta  occ. eigenvalues --   -1.14575  -1.14527  -1.14254  -1.14242  -1.14181
  Beta  occ. eigenvalues --   -1.14175  -1.14168  -1.14085  -1.13930  -1.13925
  Beta  occ. eigenvalues --   -1.13890  -1.13798  -1.13781  -1.13776  -1.13759
  Beta  occ. eigenvalues --   -1.13758  -1.13722  -1.13441  -1.13437  -1.13422
  Beta  occ. eigenvalues --   -0.14879  -0.13062  -0.12741
  Beta virt. eigenvalues --   -0.08121  -0.07662  -0.04265  -0.04043  -0.03362
  Beta virt. eigenvalues --   -0.03276  -0.02217  -0.02054  -0.01696  -0.01263
  Beta virt. eigenvalues --   -0.00459  -0.00354  -0.00034   0.00081   0.00483

 Mulliken charges and spin densities:
               1          2
     1  Na   0.182466   0.029858
     2  Na  -0.312208   0.156634
     3  Na  -0.000787   0.124058
     4  Na   0.630685   0.157751
     5  Na  -0.884125   0.139277
     6  Na   0.011483   0.021848
     7  Na   0.372486   0.370574
 Sum of Mulliken charges =  -0.00000   1.00000

 Dipole moment (field-independent basis, Debye):
    X=             -0.3734    Y=             -0.1811    Z=             -0.0138  Tot=              0.4152
 Quadrupole moment (field-independent basis, Debye-Ang):
   XX=            -56.7301   YY=            -68.3080   ZZ=            -73.8780
   XY=             -2.9367   XZ=             -1.4497   YZ=              0.8699

 Normal termination of Gaussian 16 at Sun Dec  3 23:10:53 2023.
