 Gaussian 16, Revision B.01,
 Gaussian 16:  ES64L-G16RevB.01 20-Dec-2017

 -------------------------
 #P B3LYP/6-311+g(d) force
 -------------------------

 -----
 DPGEN
 -----
 Symbolic Z-matrix:
 Charge =  0 Multiplicity = 2

                         Standard orientation:
 ---------------------------------------------------------------------
 Center     Atomic      Atomic             Coordinates (Angstroms)
 Number     Number       Type             X           Y           Z
 ---------------------------------------------------------------------
      1         11           0       -2.019018    0.759981   -1.693591
      2         11           0       -2.591095    0.933516    1.207269
      3         11           0        0.347290   -0.530081    2.079914
      4         11           0       -1.602952   -2.423571   -0.073889
      5         11           0        1.096194   -1.024414   -1.543417
      6         11           0        3.782501   -0.314667    0.191907
      7         11           0        0.987080    2.599236   -0.168192
 ---------------------------------------------------------------------

 SCF Done:  E(UB3LYP) =  -1136.12759621     A.U. after   23 cycles

 The electronic state is 2-A.
 Alpha  occ. eigenvalues --  -38.44787 -38.44377 -38.44235 -38.43966 -38.43569
 Alpha  occ. eigenvalues --  -38.43565 -38.42776  -2.20569  -2.20244  -2.20112
 Alpha  occ. eigenvalues --   -2.19863  -2.19462  -2.19333  -2.18633  -1.14257
 Alpha  occ. eigenvalues --   -1.14222  -1.14198  -1.13927  -1.13894  -1.13876
 Alpha  occ. eigenvalues --   -1.13863  -1.13764  -1.13706  -1.13527  -1.13499
 Alpha  occ. eigenvalues --   -1.13447  -1.13145  -1.13116  -1.13086  -1.13023
 Alpha  occ. eigenvalues --   -1.13015  -1.12945  -1.12309  -1.12298  -1.12275
 Alpha  occ. eigenvalues --   -0.18399  -0.13324  -0.11802  -0.11274
 Alpha virt. eigenvalues --   -0.06385  -0.04689  -0.04531  -0.03334  -0.03168
 Alpha virt. eigenvalues --   -0.02869  -0.01993  -0.00716  -0.00627  -0.00060
 Alpha virt. eigenvalues --    0.00160   0.00243   0.00355   0.00745   0.00871

  Beta  occ. eigenvalues --  -38.44788 -38.44296 -38.44211 -38.43920 -38.43563
  Beta  occ. eigenvalues --  -38.43527 -38.42772  -2.20571  -2.20095  -2.20071
  Beta  occ. eigenvalues --   -2.19778  -2.19386  -2.19331  -2.18631  -1.14254
  Beta  occ. eigenvalues --   -1.14223  -1.14201  -1.13853  -1.13830  -1.13774
  Beta  occ. eigenvalues --   -1.13758  -1.13711  -1.13679  -1.13458  -1.13450
  Beta  occ. eigenvalues --   -1.13385  -1.13097  -1.13050  -1.13033  -1.13014
  Beta  occ. eigenvalues --   -1.13006  -1.12947  -1.12311  -1.12280  -1.12264
  Beta  occ. eigenvalues --   -0.17582  -0.13198  -0.11089
  Beta virt. eigenvalues --   -0.07743  -0.06292  -0.04591  -0.03860  -0.03186
  Beta virt. eigenvalues --   -0.02279  -0.02175  -0.01856  -0.00655  -0.00298
  Beta virt. eigenvalues --   -0.00038   0.00185   0.00329   0.00429   0.00824

 Mulliken charges and spin densities:
               1          2
     1  Na   0.179837   0.310263
     2  Na   0.239795   0.012475
     3  Na  -0.196641   0.585717
     4  Na   0.061179  -0.002023
     5  Na  -0.225362   0.252768
     6  Na   0.273523  -0.052322
     7  Na  -0.332330  -0.106878
 Sum of Mulliken charges =  -0.00000   1.00000

 Dipole moment (field-independent basis, Debye):
    X=              0.7170    Y=             -0.0014    Z=              0.3322  Tot=              0.7902
 Quadrupole moment (field-independent basis, Debye-Ang):
   XX=            -53.5146   YY=            -74.8671   ZZ=            -66.5216
   XY=              0.3233   XZ=              0.8267   YZ=              0.2535

 Normal termination of Gaussian 16 at Tue Dec  5 14:45:30 2023.
