 Gaussian 16, Revision B.01,
 Gaussian 16:  ES64L-G16RevB.01 20-Dec-2017

 -------------------------
 #P B3LYP/6-311+g(d) force
 -------------------------

 -----
 DPGEN
 -----
 Symbolic Z-matrix:
 Charge =  0 Multiplicity = 2

                         Standard orientation:
 ---------------------------------------------------------------------
 Center     Atomic      Atomic             Coordinates (Angstroms)
 Number     Number       Type             X           Y           Z
 ---------------------------------------------------------------------
      1         11           0        3.253497    0.159181    0.541327
      2         11           0        2.395234    3.494007    0.037199
      3         11           0       -4.279192    1.067333   -0.007570
      4         11           0        3.879624   -3.214689   -0.314236
      5         11           0       -5.804591   -1.644033    0.134963
      6         11           0       -0.132798    1.809704   -0.474275
      7         11           0        0.688224   -1.671503    0.082593
 ---------------------------------------------------------------------

 SCF Done:  E(UB3LYP) =  -1136.11655892     A.U. after   20 cycles

 The electronic state is 2-A.
 Alpha  occ. eigenvalues --  -38.44658 -38.44613 -38.44489 -38.43951 -38.43882
 Alpha  occ. eigenvalues --  -38.43716 -38.43639  -2.20461  -2.20442  -2.20353
 Alpha  occ. eigenvalues --   -2.19751  -2.19659  -2.19573  -2.19491  -1.14203
 Alpha  occ. eigenvalues --   -1.14133  -1.14114  -1.14110  -1.14080  -1.14053
 Alpha  occ. eigenvalues --   -1.14036  -1.14009  -1.13920  -1.13464  -1.13397
 Alpha  occ. eigenvalues --   -1.13395  -1.13329  -1.13310  -1.13297  -1.13266
 Alpha  occ. eigenvalues --   -1.13245  -1.13233  -1.13133  -1.13130  -1.13077
 Alpha  occ. eigenvalues --   -0.16894  -0.13419  -0.12789  -0.10574
 Alpha virt. eigenvalues --   -0.06655  -0.05523  -0.04297  -0.03758  -0.03031
 Alpha virt. eigenvalues --   -0.02455  -0.02064  -0.01546  -0.01138  -0.00979
 Alpha virt. eigenvalues --   -0.00212  -0.00058   0.00291   0.00411   0.00535

  Beta  occ. eigenvalues --  -38.44647 -38.44561 -38.44459 -38.43910 -38.43893
  Beta  occ. eigenvalues --  -38.43682 -38.43604  -2.20422  -2.20365  -2.20301
  Beta  occ. eigenvalues --   -2.19683  -2.19673  -2.19513  -2.19427  -1.14144
  Beta  occ. eigenvalues --   -1.14097  -1.14092  -1.14071  -1.14055  -1.14015
  Beta  occ. eigenvalues --   -1.13984  -1.13941  -1.13876  -1.13436  -1.13358
  Beta  occ. eigenvalues --   -1.13346  -1.13334  -1.13317  -1.13248  -1.13244
  Beta  occ. eigenvalues --   -1.13208  -1.13189  -1.13090  -1.13075  -1.13032
  Beta  occ. eigenvalues --   -0.16227  -0.13153  -0.12458
  Beta virt. eigenvalues --   -0.07122  -0.06329  -0.05197  -0.03976  -0.03378
  Beta virt. eigenvalues --   -0.02570  -0.02346  -0.01932  -0.01472  -0.00910
  Beta virt. eigenvalues --   -0.00559   0.00075   0.00180   0.00405   0.00514

 Mulliken charges and spin densities:
               1          2
     1  Na  -0.295496   0.380533
     2  Na   1.066228   0.237132
     3  Na  -0.244914  -0.041884
     4  Na   0.936804   0.124531
     5  Na   0.124260   0.185962
     6  Na  -0.825011   0.033577
     7  Na  -0.761871   0.080148
 Sum of Mulliken charges =  -0.00000   1.00000

 Dipole moment (field-independent basis, Debye):
    X=              1.3919    Y=             -1.2561    Z=             -0.1612  Tot=              1.8818
 Quadrupole moment (field-independent basis, Debye-Ang):
   XX=            -69.5129   YY=            -54.5264   ZZ=            -73.3655
   XY=             -2.4931   XZ=             -0.8984   YZ=              0.5473

 Normal termination of Gaussian 16 at Wed Nov 29 00:48:45 2023.
