 Gaussian 16, Revision B.01,
 Gaussian 16:  ES64L-G16RevB.01 20-Dec-2017

 -------------------------
 #P B3LYP/6-311+g(d) force
 -------------------------

 -----
 DPGEN
 -----
 Symbolic Z-matrix:
 Charge =  0 Multiplicity = 2

                         Standard orientation:
 ---------------------------------------------------------------------
 Center     Atomic      Atomic             Coordinates (Angstroms)
 Number     Number       Type             X           Y           Z
 ---------------------------------------------------------------------
      1         11           0       -0.302613    2.946863   -0.007037
      2         11           0        2.210353   -2.158920   -0.698255
      3         11           0       -2.051113   -2.456305    0.426210
      4         11           0        3.148207    0.928608    0.528475
      5         11           0       -3.127125    0.759985   -0.575878
      6         11           0        0.356548    0.125173   -1.646306
      7         11           0       -0.234257   -0.145404    1.972790
 ---------------------------------------------------------------------

 SCF Done:  E(UB3LYP) =  -1136.13363290     A.U. after   19 cycles

 The electronic state is 2-A.
 Alpha  occ. eigenvalues --  -38.44515 -38.44354 -38.43797 -38.43725 -38.43486
 Alpha  occ. eigenvalues --  -38.43441 -38.43036  -2.20317  -2.20161  -2.19673
 Alpha  occ. eigenvalues --   -2.19570  -2.19431  -2.19253  -2.18867  -1.13992
 Alpha  occ. eigenvalues --   -1.13971  -1.13956  -1.13843  -1.13813  -1.13791
 Alpha  occ. eigenvalues --   -1.13351  -1.13323  -1.13308  -1.13295  -1.13210
 Alpha  occ. eigenvalues --   -1.13189  -1.13108  -1.13066  -1.13035  -1.12931
 Alpha  occ. eigenvalues --   -1.12904  -1.12892  -1.12553  -1.12538  -1.12493
 Alpha  occ. eigenvalues --   -0.18201  -0.13235  -0.11971  -0.10816
 Alpha virt. eigenvalues --   -0.05992  -0.05212  -0.04515  -0.03382  -0.02813
 Alpha virt. eigenvalues --   -0.02563  -0.01832  -0.01145  -0.00513  -0.00352
 Alpha virt. eigenvalues --   -0.00027   0.00321   0.00716   0.00794   0.00830

  Beta  occ. eigenvalues --  -38.44504 -38.44341 -38.43714 -38.43704 -38.43435
  Beta  occ. eigenvalues --  -38.43427 -38.43036  -2.20299  -2.20139  -2.19535
  Beta  occ. eigenvalues --   -2.19520  -2.19324  -2.19245  -2.18871  -1.13971
  Beta  occ. eigenvalues --   -1.13961  -1.13936  -1.13819  -1.13800  -1.13775
  Beta  occ. eigenvalues --   -1.13281  -1.13249  -1.13204  -1.13182  -1.13178
  Beta  occ. eigenvalues --   -1.13165  -1.13032  -1.12995  -1.12958  -1.12912
  Beta  occ. eigenvalues --   -1.12898  -1.12887  -1.12553  -1.12535  -1.12484
  Beta  occ. eigenvalues --   -0.17513  -0.12994  -0.11692
  Beta virt. eigenvalues --   -0.07031  -0.05860  -0.05121  -0.04442  -0.02727
  Beta virt. eigenvalues --   -0.02124  -0.01706  -0.01608  -0.01014  -0.00481
  Beta virt. eigenvalues --   -0.00370   0.00091   0.00366   0.00804   0.00841

 Mulliken charges and spin densities:
               1          2
     1  Na  -0.079830  -0.029495
     2  Na   0.114009   0.012866
     3  Na   0.027660  -0.023730
     4  Na   0.033272   0.080211
     5  Na   0.037774   0.009388
     6  Na   0.067986   0.334545
     7  Na  -0.200871   0.616215
 Sum of Mulliken charges =  -0.00000   1.00000

 Dipole moment (field-independent basis, Debye):
    X=              0.1832    Y=              0.0750    Z=              0.1178  Tot=              0.2304
 Quadrupole moment (field-independent basis, Debye-Ang):
   XX=            -54.3849   YY=            -65.0961   ZZ=            -73.9470
   XY=              0.3200   XZ=              2.5441   YZ=              1.1602

 Normal termination of Gaussian 16 at Thu Dec  7 14:04:30 2023.
