 Gaussian 16, Revision B.01,
 Gaussian 16:  ES64L-G16RevB.01 20-Dec-2017

 -------------------------
 #P B3LYP/6-311+g(d) force
 -------------------------

 -----
 DPGEN
 -----
 Symbolic Z-matrix:
 Charge =  0 Multiplicity = 2

                         Standard orientation:
 ---------------------------------------------------------------------
 Center     Atomic      Atomic             Coordinates (Angstroms)
 Number     Number       Type             X           Y           Z
 ---------------------------------------------------------------------
      1         11           0       -0.607438   -1.625288    1.023013
      2         11           0       -3.056819   -3.113938   -0.491849
      3         11           0       -2.857745    0.113782   -0.169487
      4         11           0       -0.080658    1.487411   -0.999684
      5         11           0        3.065830   -0.267571    0.540878
      6         11           0       -2.164716    3.643123    0.465161
      7         11           0        5.701546   -0.237518   -0.368033
 ---------------------------------------------------------------------

 SCF Done:  E(UB3LYP) =  -1136.11717321     A.U. after   19 cycles

 The electronic state is 2-A.
 Alpha  occ. eigenvalues --  -38.44572 -38.44343 -38.44311 -38.44222 -38.44127
 Alpha  occ. eigenvalues --  -38.43477 -38.42833  -2.20432  -2.20251  -2.20146
 Alpha  occ. eigenvalues --   -2.20124  -2.19980  -2.19345  -2.18701  -1.14167
 Alpha  occ. eigenvalues --   -1.14105  -1.14035  -1.14018  -1.13952  -1.13854
 Alpha  occ. eigenvalues --   -1.13810  -1.13805  -1.13803  -1.13771  -1.13755
 Alpha  occ. eigenvalues --   -1.13724  -1.13629  -1.13622  -1.13582  -1.13138
 Alpha  occ. eigenvalues --   -1.12950  -1.12949  -1.12360  -1.12352  -1.12337
 Alpha  occ. eigenvalues --   -0.17618  -0.13609  -0.13052  -0.10472
 Alpha virt. eigenvalues --   -0.06269  -0.05766  -0.04112  -0.03711  -0.02586
 Alpha virt. eigenvalues --   -0.02418  -0.02054  -0.01434  -0.01281  -0.00503
 Alpha virt. eigenvalues --   -0.00450   0.00081   0.00464   0.00526   0.00603

  Beta  occ. eigenvalues --  -38.44552 -38.44322 -38.44294 -38.44183 -38.44101
  Beta  occ. eigenvalues --  -38.43403 -38.42828  -2.20398  -2.20224  -2.20106
  Beta  occ. eigenvalues --   -2.20054  -2.19932  -2.19209  -2.18702  -1.14148
  Beta  occ. eigenvalues --   -1.14083  -1.13991  -1.13982  -1.13933  -1.13823
  Beta  occ. eigenvalues --   -1.13781  -1.13775  -1.13762  -1.13736  -1.13723
  Beta  occ. eigenvalues --   -1.13662  -1.13595  -1.13582  -1.13547  -1.13053
  Beta  occ. eigenvalues --   -1.12856  -1.12856  -1.12365  -1.12361  -1.12268
  Beta  occ. eigenvalues --   -0.17046  -0.13033  -0.12661
  Beta virt. eigenvalues --   -0.07126  -0.05957  -0.05549  -0.03576  -0.03459
  Beta virt. eigenvalues --   -0.02424  -0.02244  -0.01888  -0.01142  -0.00898
  Beta virt. eigenvalues --   -0.00227  -0.00149   0.00260   0.00551   0.00580

 Mulliken charges and spin densities:
               1          2
     1  Na  -0.343267  -0.180017
     2  Na   1.001504   0.161024
     3  Na  -0.568401   0.490857
     4  Na  -0.465408  -0.216556
     5  Na  -0.034071   0.249130
     6  Na   0.554783   0.141110
     7  Na  -0.145140   0.354453
 Sum of Mulliken charges =  -0.00000   1.00000

 Dipole moment (field-independent basis, Debye):
    X=             -2.0999    Y=              0.1595    Z=             -0.1235  Tot=              2.1096
 Quadrupole moment (field-independent basis, Debye-Ang):
   XX=            -74.0085   YY=            -59.7037   ZZ=            -66.9280
   XY=              1.7204   XZ=             -2.5171   YZ=              2.2634

 Normal termination of Gaussian 16 at Tue Nov 28 19:20:42 2023.
