 Gaussian 16, Revision B.01,
 Gaussian 16:  ES64L-G16RevB.01 20-Dec-2017

 -------------------------
 #P B3LYP/6-311+g(d) force
 -------------------------

 -----
 DPGEN
 -----
 Symbolic Z-matrix:
 Charge =  0 Multiplicity = 2

                         Standard orientation:
 ---------------------------------------------------------------------
 Center     Atomic      Atomic             Coordinates (Angstroms)
 Number     Number       Type             X           Y           Z
 ---------------------------------------------------------------------
      1         11           0        1.202884   -0.238918    2.016978
      2         11           0        1.031857   -1.560746   -1.420899
      3         11           0       -1.464527    1.506703   -0.082419
      4         11           0        3.926426   -0.661747    0.113201
      5         11           0        2.597232    2.066500   -0.644252
      6         11           0       -4.859180    0.565597   -0.078538
      7         11           0       -2.434693   -1.677388    0.095930
 ---------------------------------------------------------------------

 SCF Done:  E(UB3LYP) =  -1136.11126217     A.U. after   26 cycles

 The electronic state is 2-A.
 Alpha  occ. eigenvalues --  -38.45779 -38.44314 -38.44053 -38.43847 -38.43814
 Alpha  occ. eigenvalues --  -38.43813 -38.43635  -2.21604  -2.20222  -2.19882
 Alpha  occ. eigenvalues --   -2.19688  -2.19644  -2.19637  -2.19464  -1.15292
 Alpha  occ. eigenvalues --   -1.15254  -1.15210  -1.13898  -1.13877  -1.13834
 Alpha  occ. eigenvalues --   -1.13589  -1.13566  -1.13500  -1.13382  -1.13368
 Alpha  occ. eigenvalues --   -1.13347  -1.13329  -1.13293  -1.13290  -1.13276
 Alpha  occ. eigenvalues --   -1.13259  -1.13234  -1.13148  -1.13125  -1.13102
 Alpha  occ. eigenvalues --   -0.17961  -0.14723  -0.10877  -0.10544
 Alpha virt. eigenvalues --   -0.07753  -0.05536  -0.04317  -0.03518  -0.02975
 Alpha virt. eigenvalues --   -0.02111  -0.02039  -0.01693  -0.01108  -0.00766
 Alpha virt. eigenvalues --   -0.00509   0.00103   0.00180   0.00590   0.00628

  Beta  occ. eigenvalues --  -38.45739 -38.44258 -38.44029 -38.43842 -38.43800
  Beta  occ. eigenvalues --  -38.43766 -38.43627  -2.21533  -2.20119  -2.19842
  Beta  occ. eigenvalues --   -2.19681  -2.19615  -2.19553  -2.19454  -1.15227
  Beta  occ. eigenvalues --   -1.15201  -1.15160  -1.13821  -1.13815  -1.13758
  Beta  occ. eigenvalues --   -1.13566  -1.13541  -1.13445  -1.13379  -1.13360
  Beta  occ. eigenvalues --   -1.13312  -1.13302  -1.13279  -1.13232  -1.13229
  Beta  occ. eigenvalues --   -1.13218  -1.13190  -1.13145  -1.13118  -1.13066
  Beta  occ. eigenvalues --   -0.17287  -0.14240  -0.10353
  Beta virt. eigenvalues --   -0.07532  -0.07224  -0.05385  -0.03709  -0.03241
  Beta virt. eigenvalues --   -0.02851  -0.01805  -0.01662  -0.01379  -0.00651
  Beta virt. eigenvalues --   -0.00428  -0.00367   0.00146   0.00265   0.00636

 Mulliken charges and spin densities:
               1          2
     1  Na  -0.066584   0.170262
     2  Na  -0.370007   0.048074
     3  Na  -0.635085   0.018455
     4  Na   0.748759   0.455018
     5  Na  -0.313546  -0.124670
     6  Na   0.548576   0.367605
     7  Na   0.087887   0.065257
 Sum of Mulliken charges =  -0.00000   1.00000

 Dipole moment (field-independent basis, Debye):
    X=              0.2325    Y=             -0.5339    Z=              0.9533  Tot=              1.1171
 Quadrupole moment (field-independent basis, Debye-Ang):
   XX=            -63.7459   YY=            -78.2744   ZZ=            -61.6115
   XY=             -1.6135   XZ=              2.6256   YZ=             -3.9181

 Normal termination of Gaussian 16 at Thu Dec  7 02:33:42 2023.
