 Gaussian 16, Revision B.01,
 Gaussian 16:  ES64L-G16RevB.01 20-Dec-2017

 -------------------------
 #P B3LYP/6-311+g(d) force
 -------------------------

 -----
 DPGEN
 -----
 Symbolic Z-matrix:
 Charge =  0 Multiplicity = 2

                         Standard orientation:
 ---------------------------------------------------------------------
 Center     Atomic      Atomic             Coordinates (Angstroms)
 Number     Number       Type             X           Y           Z
 ---------------------------------------------------------------------
      1         11           0       -0.395077   -1.821675    1.705901
      2         11           0       -0.027230   -0.302797   -1.723371
      3         11           0        2.370880    1.065684    0.792235
      4         11           0       -3.329539   -1.074038   -0.898667
      5         11           0       -1.879436    1.595501    1.362215
      6         11           0        0.768857    3.001551   -0.813902
      7         11           0        2.491544   -2.464226   -0.424410
 ---------------------------------------------------------------------

 SCF Done:  E(UB3LYP) =  -1136.13167666     A.U. after   19 cycles

 The electronic state is 2-A.
 Alpha  occ. eigenvalues --  -38.44234 -38.44157 -38.44088 -38.44067 -38.43601
 Alpha  occ. eigenvalues --  -38.43596 -38.43264  -2.20029  -2.20008  -2.19878
 Alpha  occ. eigenvalues --   -2.19872  -2.19489  -2.19392  -2.19133  -1.13726
 Alpha  occ. eigenvalues --   -1.13710  -1.13687  -1.13673  -1.13645  -1.13636
 Alpha  occ. eigenvalues --   -1.13562  -1.13547  -1.13538  -1.13531  -1.13499
 Alpha  occ. eigenvalues --   -1.13480  -1.13168  -1.13140  -1.13117  -1.13060
 Alpha  occ. eigenvalues --   -1.13051  -1.13028  -1.12812  -1.12783  -1.12757
 Alpha  occ. eigenvalues --   -0.17855  -0.12712  -0.12338  -0.10948
 Alpha virt. eigenvalues --   -0.05695  -0.05380  -0.04651  -0.03478  -0.03129
 Alpha virt. eigenvalues --   -0.02650  -0.01531  -0.01262  -0.00628  -0.00128
 Alpha virt. eigenvalues --    0.00151   0.00338   0.00453   0.00664   0.00703

  Beta  occ. eigenvalues --  -38.44198 -38.44151 -38.44070 -38.44018 -38.43597
  Beta  occ. eigenvalues --  -38.43534 -38.43259  -2.20000  -2.19963  -2.19841
  Beta  occ. eigenvalues --   -2.19789  -2.19397  -2.19365  -2.19125  -1.13718
  Beta  occ. eigenvalues --   -1.13659  -1.13654  -1.13635  -1.13630  -1.13603
  Beta  occ. eigenvalues --   -1.13514  -1.13510  -1.13501  -1.13479  -1.13464
  Beta  occ. eigenvalues --   -1.13419  -1.13082  -1.13074  -1.13056  -1.13043
  Beta  occ. eigenvalues --   -1.13034  -1.13009  -1.12810  -1.12769  -1.12745
  Beta  occ. eigenvalues --   -0.17160  -0.12479  -0.12189
  Beta virt. eigenvalues --   -0.07165  -0.05511  -0.05182  -0.04513  -0.02865
  Beta virt. eigenvalues --   -0.02637  -0.01790  -0.01411  -0.01145  -0.00347
  Beta virt. eigenvalues --   -0.00117   0.00226   0.00402   0.00594   0.00741

 Mulliken charges and spin densities:
               1          2
     1  Na  -0.183538   0.348352
     2  Na  -0.316893   0.543380
     3  Na  -0.174961   0.093793
     4  Na   0.101906  -0.070039
     5  Na  -0.191948   0.245772
     6  Na   0.458573  -0.087514
     7  Na   0.306860  -0.073745
 Sum of Mulliken charges =  -0.00000   1.00000

 Dipole moment (field-independent basis, Debye):
    X=             -0.1794    Y=             -0.1435    Z=              0.2109  Tot=              0.3118
 Quadrupole moment (field-independent basis, Debye-Ang):
   XX=            -59.9939   YY=            -64.3465   ZZ=            -70.2347
   XY=             -0.8921   XZ=              0.5292   YZ=              0.3575

 Normal termination of Gaussian 16 at Sun Dec  3 23:18:09 2023.
