 Gaussian 16, Revision B.01,
 Gaussian 16:  ES64L-G16RevB.01 20-Dec-2017

 -------------------------
 #P B3LYP/6-311+g(d) force
 -------------------------

 -----
 DPGEN
 -----
 Symbolic Z-matrix:
 Charge =  0 Multiplicity = 2

                         Standard orientation:
 ---------------------------------------------------------------------
 Center     Atomic      Atomic             Coordinates (Angstroms)
 Number     Number       Type             X           Y           Z
 ---------------------------------------------------------------------
      1         11           0        1.203258   -2.465267   -0.378853
      2         11           0       -3.234941    1.330421    0.238327
      3         11           0       -2.462364   -1.941427   -0.345285
      4         11           0        0.283580   -0.506415    1.880754
      5         11           0        0.994630    3.050230   -0.037214
      6         11           0        3.228018   -0.121620   -0.042050
      7         11           0       -0.012181    0.654078   -1.315679
 ---------------------------------------------------------------------

 SCF Done:  E(UB3LYP) =  -1136.12747757     A.U. after   21 cycles

 The electronic state is 2-A.
 Alpha  occ. eigenvalues --  -38.44906 -38.44673 -38.43931 -38.43699 -38.43214
 Alpha  occ. eigenvalues --  -38.43156 -38.42909  -2.20678  -2.20528  -2.19749
 Alpha  occ. eigenvalues --   -2.19535  -2.19140  -2.19081  -2.18911  -1.14351
 Alpha  occ. eigenvalues --   -1.14332  -1.14322  -1.14221  -1.14187  -1.14156
 Alpha  occ. eigenvalues --   -1.13420  -1.13409  -1.13393  -1.13316  -1.13172
 Alpha  occ. eigenvalues --   -1.13146  -1.12891  -1.12796  -1.12751  -1.12740
 Alpha  occ. eigenvalues --   -1.12714  -1.12689  -1.12597  -1.12556  -1.12510
 Alpha  occ. eigenvalues --   -0.18561  -0.13348  -0.12335  -0.10039
 Alpha virt. eigenvalues --   -0.06454  -0.05364  -0.04625  -0.03091  -0.02577
 Alpha virt. eigenvalues --   -0.02074  -0.01905  -0.01282  -0.00792  -0.00402
 Alpha virt. eigenvalues --    0.00008   0.00305   0.00710   0.00758   0.00861

  Beta  occ. eigenvalues --  -38.44906 -38.44666 -38.43923 -38.43698 -38.43140
  Beta  occ. eigenvalues --  -38.43125 -38.42864  -2.20679  -2.20519  -2.19737
  Beta  occ. eigenvalues --   -2.19535  -2.19058  -2.18975  -2.18832  -1.14341
  Beta  occ. eigenvalues --   -1.14334  -1.14323  -1.14217  -1.14160  -1.14145
  Beta  occ. eigenvalues --   -1.13405  -1.13393  -1.13383  -1.13310  -1.13158
  Beta  occ. eigenvalues --   -1.13149  -1.12825  -1.12720  -1.12692  -1.12688
  Beta  occ. eigenvalues --   -1.12625  -1.12604  -1.12532  -1.12497  -1.12451
  Beta  occ. eigenvalues --   -0.17855  -0.13158  -0.12105
  Beta virt. eigenvalues --   -0.06411  -0.06167  -0.05320  -0.04564  -0.02408
  Beta virt. eigenvalues --   -0.01977  -0.01875  -0.01218  -0.00990  -0.00737
  Beta virt. eigenvalues --   -0.00429   0.00183   0.00356   0.00739   0.00805

 Mulliken charges and spin densities:
               1          2
     1  Na   0.151810   0.106934
     2  Na  -0.004962  -0.032795
     3  Na   0.128607   0.012614
     4  Na  -0.461792   0.690164
     5  Na   0.077505  -0.107041
     6  Na   0.335300   0.023066
     7  Na  -0.226469   0.307058
 Sum of Mulliken charges =  -0.00000   1.00000

 Dipole moment (field-independent basis, Debye):
    X=             -0.2554    Y=              0.3000    Z=              0.1932  Tot=              0.4388
 Quadrupole moment (field-independent basis, Debye-Ang):
   XX=            -50.4790   YY=            -62.6573   ZZ=            -77.9761
   XY=             -0.6054   XZ=             -0.6496   YZ=              2.7600

 Normal termination of Gaussian 16 at Fri Dec  8 00:04:30 2023.
