 Gaussian 16, Revision B.01,
 Gaussian 16:  ES64L-G16RevB.01 20-Dec-2017

 -------------------------
 #P B3LYP/6-311+g(d) force
 -------------------------

 -----
 DPGEN
 -----
 Symbolic Z-matrix:
 Charge =  0 Multiplicity = 2

                         Standard orientation:
 ---------------------------------------------------------------------
 Center     Atomic      Atomic             Coordinates (Angstroms)
 Number     Number       Type             X           Y           Z
 ---------------------------------------------------------------------
      1         11           0       -0.000203    0.055865   -1.786770
      2         11           0        0.907995   -2.563927   -0.188980
      3         11           0        2.800995   -0.070199    0.156803
      4         11           0        0.845545    2.667963   -0.172401
      5         11           0       -0.031699   -0.039541    1.962513
      6         11           0       -2.211913    1.534555    0.067179
      7         11           0       -2.310721   -1.584716   -0.038345
 ---------------------------------------------------------------------

 SCF Done:  E(UB3LYP) =  -1136.13722990     A.U. after   17 cycles

 The electronic state is 2-A.
 Alpha  occ. eigenvalues --  -38.43585 -38.43410 -38.43336 -38.43286 -38.43285
 Alpha  occ. eigenvalues --  -38.43208 -38.43199  -2.19565  -2.19382  -2.19328
 Alpha  occ. eigenvalues --   -2.19242  -2.19212  -2.19142  -2.19112  -1.13251
 Alpha  occ. eigenvalues --   -1.13215  -1.13189  -1.13092  -1.13078  -1.13057
 Alpha  occ. eigenvalues --   -1.13008  -1.12985  -1.12975  -1.12955  -1.12908
 Alpha  occ. eigenvalues --   -1.12886  -1.12874  -1.12861  -1.12810  -1.12802
 Alpha  occ. eigenvalues --   -1.12787  -1.12774  -1.12757  -1.12749  -1.12726
 Alpha  occ. eigenvalues --   -0.19714  -0.13127  -0.12848  -0.11351
 Alpha virt. eigenvalues --   -0.04956  -0.04788  -0.04689  -0.03318  -0.03127
 Alpha virt. eigenvalues --   -0.02829  -0.01061  -0.00949  -0.00047   0.00170
 Alpha virt. eigenvalues --    0.00200   0.00380   0.00952   0.01001   0.01010

  Beta  occ. eigenvalues --  -38.43494 -38.43403 -38.43279 -38.43277 -38.43255
  Beta  occ. eigenvalues --  -38.43200 -38.43192  -2.19398  -2.19321  -2.19236
  Beta  occ. eigenvalues --   -2.19231  -2.19205  -2.19132  -2.19105  -1.13152
  Beta  occ. eigenvalues --   -1.13105  -1.13074  -1.13036  -1.13020  -1.12993
  Beta  occ. eigenvalues --   -1.12975  -1.12962  -1.12946  -1.12905  -1.12882
  Beta  occ. eigenvalues --   -1.12863  -1.12834  -1.12822  -1.12805  -1.12786
  Beta  occ. eigenvalues --   -1.12759  -1.12750  -1.12745  -1.12727  -1.12723
  Beta  occ. eigenvalues --   -0.18932  -0.12838  -0.12562
  Beta virt. eigenvalues --   -0.07346  -0.04948  -0.04798  -0.04681  -0.02434
  Beta virt. eigenvalues --   -0.02282  -0.01727  -0.00992  -0.00887   0.00064
  Beta virt. eigenvalues --    0.00128   0.00139   0.00386   0.00984   0.00986

 Mulliken charges and spin densities:
               1          2
     1  Na  -0.628723   0.562528
     2  Na   0.272403  -0.050784
     3  Na   0.221670  -0.032991
     4  Na   0.253595  -0.059788
     5  Na  -0.702372   0.660081
     6  Na   0.338114  -0.021350
     7  Na   0.245314  -0.057695
 Sum of Mulliken charges =  -0.00000   1.00000

 Dipole moment (field-independent basis, Debye):
    X=              0.0585    Y=             -0.0002    Z=              0.1372  Tot=              0.1491
 Quadrupole moment (field-independent basis, Debye-Ang):
   XX=            -61.1812   YY=            -62.7014   ZZ=            -71.3098
   XY=              0.4551   XZ=              0.1217   YZ=              0.2245

 Normal termination of Gaussian 16 at Sat Dec  9 07:00:04 2023.
