 Gaussian 16, Revision B.01,
 Gaussian 16:  ES64L-G16RevB.01 20-Dec-2017

 -------------------------
 #P B3LYP/6-311+g(d) force
 -------------------------

 -----
 DPGEN
 -----
 Symbolic Z-matrix:
 Charge =  0 Multiplicity = 2

                         Standard orientation:
 ---------------------------------------------------------------------
 Center     Atomic      Atomic             Coordinates (Angstroms)
 Number     Number       Type             X           Y           Z
 ---------------------------------------------------------------------
      1         11           0       -2.686479   -1.677709   -0.225395
      2         11           0       -2.479228    1.866579   -0.028828
      3         11           0       -0.047512   -0.338804    1.999282
      4         11           0        2.998512   -0.202663   -0.235601
      5         11           0        1.229348    2.824506    0.210340
      6         11           0        0.969949   -2.851718   -0.112754
      7         11           0        0.015410    0.379809   -1.607043
 ---------------------------------------------------------------------

 SCF Done:  E(UB3LYP) =  -1136.13975580     A.U. after   19 cycles

 The electronic state is 2-A.
 Alpha  occ. eigenvalues --  -38.43948 -38.43934 -38.43710 -38.43612 -38.43503
 Alpha  occ. eigenvalues --  -38.43376 -38.43081  -2.19760  -2.19754  -2.19573
 Alpha  occ. eigenvalues --   -2.19447  -2.19347  -2.19264  -2.19052  -1.13455
 Alpha  occ. eigenvalues --   -1.13432  -1.13427  -1.13412  -1.13403  -1.13369
 Alpha  occ. eigenvalues --   -1.13267  -1.13233  -1.13222  -1.13133  -1.13106
 Alpha  occ. eigenvalues --   -1.13078  -1.13029  -1.13011  -1.12982  -1.12932
 Alpha  occ. eigenvalues --   -1.12884  -1.12880  -1.12736  -1.12686  -1.12674
 Alpha  occ. eigenvalues --   -0.18538  -0.12955  -0.12544  -0.10500
 Alpha virt. eigenvalues --   -0.05516  -0.05311  -0.04950  -0.03046  -0.02931
 Alpha virt. eigenvalues --   -0.02358  -0.01429  -0.01279  -0.00515  -0.00475
 Alpha virt. eigenvalues --    0.00006   0.00363   0.00817   0.00836   0.00881

  Beta  occ. eigenvalues --  -38.43944 -38.43931 -38.43702 -38.43608 -38.43498
  Beta  occ. eigenvalues --  -38.43283 -38.43021  -2.19757  -2.19749  -2.19563
  Beta  occ. eigenvalues --   -2.19441  -2.19342  -2.19094  -2.18945  -1.13449
  Beta  occ. eigenvalues --   -1.13421  -1.13412  -1.13400  -1.13398  -1.13369
  Beta  occ. eigenvalues --   -1.13257  -1.13220  -1.13204  -1.13126  -1.13086
  Beta  occ. eigenvalues --   -1.13076  -1.13018  -1.12988  -1.12980  -1.12820
  Beta  occ. eigenvalues --   -1.12766  -1.12758  -1.12659  -1.12606  -1.12597
  Beta  occ. eigenvalues --   -0.17820  -0.12715  -0.12331
  Beta virt. eigenvalues --   -0.06613  -0.05530  -0.05280  -0.04872  -0.02279
  Beta virt. eigenvalues --   -0.02165  -0.01354  -0.01309  -0.01201  -0.00566
  Beta virt. eigenvalues --   -0.00528   0.00148   0.00391   0.00831   0.00870

 Mulliken charges and spin densities:
               1          2
     1  Na   0.045046  -0.094400
     2  Na   0.118540  -0.075916
     3  Na  -0.454451   0.805418
     4  Na   0.231751  -0.014822
     5  Na   0.093462  -0.034846
     6  Na   0.136747  -0.068964
     7  Na  -0.171095   0.483529
 Sum of Mulliken charges =  -0.00000   1.00000

 Dipole moment (field-independent basis, Debye):
    X=             -0.2005    Y=              0.0581    Z=              0.0848  Tot=              0.2253
 Quadrupole moment (field-independent basis, Debye-Ang):
   XX=            -57.5171   YY=            -59.6962   ZZ=            -75.5533
   XY=              0.3071   XZ=              0.1153   YZ=              1.7489

 Normal termination of Gaussian 16 at Thu Dec  7 14:38:02 2023.
