 Gaussian 16, Revision B.01,
 Gaussian 16:  ES64L-G16RevB.01 20-Dec-2017

 -------------------------
 #P B3LYP/6-311+g(d) force
 -------------------------

 -----
 DPGEN
 -----
 Symbolic Z-matrix:
 Charge =  0 Multiplicity = 2

                         Standard orientation:
 ---------------------------------------------------------------------
 Center     Atomic      Atomic             Coordinates (Angstroms)
 Number     Number       Type             X           Y           Z
 ---------------------------------------------------------------------
      1         11           0        2.582035   -2.801615    0.223919
      2         11           0        3.938141    0.047140   -0.470440
      3         11           0       -0.898923   -2.494282    0.274493
      4         11           0       -4.378158   -0.673279   -0.456857
      5         11           0        1.576535    3.322833   -0.393323
      6         11           0       -1.791981    0.927814   -1.290116
      7         11           0       -1.027649    1.671390    2.112324
 ---------------------------------------------------------------------

 SCF Done:  E(UB3LYP) =  -1136.11314756     A.U. after   21 cycles

 The electronic state is 2-A.
 Alpha  occ. eigenvalues --  -38.44969 -38.44966 -38.44495 -38.44446 -38.44369
 Alpha  occ. eigenvalues --  -38.44129 -38.43458  -2.20795  -2.20743  -2.20272
 Alpha  occ. eigenvalues --   -2.20267  -2.20094  -2.19912  -2.19257  -1.14495
 Alpha  occ. eigenvalues --   -1.14472  -1.14422  -1.14399  -1.14379  -1.14349
 Alpha  occ. eigenvalues --   -1.13961  -1.13944  -1.13927  -1.13913  -1.13883
 Alpha  occ. eigenvalues --   -1.13867  -1.13787  -1.13761  -1.13732  -1.13579
 Alpha  occ. eigenvalues --   -1.13573  -1.13539  -1.12927  -1.12925  -1.12909
 Alpha  occ. eigenvalues --   -0.16548  -0.13517  -0.12407  -0.10451
 Alpha virt. eigenvalues --   -0.06829  -0.06028  -0.05022  -0.02988  -0.02865
 Alpha virt. eigenvalues --   -0.02473  -0.02225  -0.01607  -0.01412  -0.00839
 Alpha virt. eigenvalues --   -0.00367  -0.00017   0.00282   0.00404   0.00611

  Beta  occ. eigenvalues --  -38.44959 -38.44889 -38.44458 -38.44396 -38.44383
  Beta  occ. eigenvalues --  -38.44087 -38.43463  -2.20779  -2.20598  -2.20205
  Beta  occ. eigenvalues --   -2.20175  -2.20122  -2.19832  -2.19270  -1.14484
  Beta  occ. eigenvalues --   -1.14457  -1.14392  -1.14300  -1.14283  -1.14254
  Beta  occ. eigenvalues --   -1.13918  -1.13895  -1.13860  -1.13846  -1.13829
  Beta  occ. eigenvalues --   -1.13813  -1.13807  -1.13780  -1.13740  -1.13525
  Beta  occ. eigenvalues --   -1.13522  -1.13486  -1.12939  -1.12936  -1.12895
  Beta  occ. eigenvalues --   -0.16054  -0.13025  -0.12113
  Beta virt. eigenvalues --   -0.07194  -0.06351  -0.05837  -0.04655  -0.02644
  Beta virt. eigenvalues --   -0.02481  -0.02252  -0.01796  -0.01544  -0.01086
  Beta virt. eigenvalues --   -0.00786  -0.00049   0.00116   0.00477   0.00540

 Mulliken charges and spin densities:
               1          2
     1  Na   0.431502  -0.230897
     2  Na  -0.498419   0.273172
     3  Na  -0.538193   0.301166
     4  Na   0.583783   0.216169
     5  Na   0.183816  -0.009833
     6  Na  -0.088585   0.097957
     7  Na  -0.073904   0.352266
 Sum of Mulliken charges =  -0.00000   1.00000

 Dipole moment (field-independent basis, Debye):
    X=             -1.4029    Y=              0.3895    Z=              0.4717  Tot=              1.5304
 Quadrupole moment (field-independent basis, Debye-Ang):
   XX=            -63.8267   YY=            -68.4647   ZZ=            -69.4142
   XY=              2.5820   XZ=             -3.1640   YZ=             -1.6728

 Normal termination of Gaussian 16 at Sun Dec  3 14:15:25 2023.
