 Gaussian 16, Revision B.01,
 Gaussian 16:  ES64L-G16RevB.01 20-Dec-2017

 -------------------------
 #P B3LYP/6-311+g(d) force
 -------------------------

 -----
 DPGEN
 -----
 Symbolic Z-matrix:
 Charge =  0 Multiplicity = 2

                         Standard orientation:
 ---------------------------------------------------------------------
 Center     Atomic      Atomic             Coordinates (Angstroms)
 Number     Number       Type             X           Y           Z
 ---------------------------------------------------------------------
      1         11           0       -0.548806    0.024373   -1.509838
      2         11           0       -0.531263   -0.551843    2.036564
      3         11           0        2.630371   -0.030299   -1.535170
      4         11           0        1.693345   -2.261154    0.611855
      5         11           0        1.799540    1.934097    0.908145
      6         11           0       -3.159716   -1.422037   -0.515246
      7         11           0       -1.883470    2.306862    0.003689
 ---------------------------------------------------------------------

 SCF Done:  E(UB3LYP) =  -1136.12638250     A.U. after   21 cycles

 The electronic state is 2-A.
 Alpha  occ. eigenvalues --  -38.44348 -38.43964 -38.43956 -38.43687 -38.43666
 Alpha  occ. eigenvalues --  -38.43499 -38.43369  -2.20158  -2.19873  -2.19868
 Alpha  occ. eigenvalues --   -2.19528  -2.19509  -2.19507  -2.19231  -1.13866
 Alpha  occ. eigenvalues --   -1.13798  -1.13784  -1.13573  -1.13569  -1.13518
 Alpha  occ. eigenvalues --   -1.13506  -1.13493  -1.13484  -1.13332  -1.13196
 Alpha  occ. eigenvalues --   -1.13185  -1.13168  -1.13157  -1.13149  -1.13127
 Alpha  occ. eigenvalues --   -1.13113  -1.13091  -1.12920  -1.12881  -1.12856
 Alpha  occ. eigenvalues --   -0.18702  -0.13435  -0.11758  -0.11504
 Alpha virt. eigenvalues --   -0.05793  -0.05061  -0.04405  -0.03323  -0.03072
 Alpha virt. eigenvalues --   -0.02882  -0.01709  -0.00949  -0.00491   0.00136
 Alpha virt. eigenvalues --    0.00316   0.00361   0.00595   0.00683   0.00789

  Beta  occ. eigenvalues --  -38.44338 -38.43913 -38.43881 -38.43688 -38.43648
  Beta  occ. eigenvalues --  -38.43448 -38.43358  -2.20142  -2.19788  -2.19723
  Beta  occ. eigenvalues --   -2.19528  -2.19478  -2.19420  -2.19214  -1.13845
  Beta  occ. eigenvalues --   -1.13787  -1.13773  -1.13506  -1.13474  -1.13464
  Beta  occ. eigenvalues --   -1.13442  -1.13397  -1.13371  -1.13310  -1.13182
  Beta  occ. eigenvalues --   -1.13154  -1.13136  -1.13131  -1.13105  -1.13097
  Beta  occ. eigenvalues --   -1.13067  -1.13047  -1.12893  -1.12856  -1.12849
  Beta  occ. eigenvalues --   -0.17948  -0.13185  -0.11261
  Beta virt. eigenvalues --   -0.07791  -0.05724  -0.04962  -0.03766  -0.03075
  Beta virt. eigenvalues --   -0.02360  -0.02001  -0.01590  -0.00895  -0.00235
  Beta virt. eigenvalues --    0.00181   0.00342   0.00360   0.00669   0.00800

 Mulliken charges and spin densities:
               1          2
     1  Na  -0.618568   0.230305
     2  Na   0.133188   0.615205
     3  Na   0.807396   0.232341
     4  Na  -0.337427  -0.020749
     5  Na  -0.349591  -0.035616
     6  Na   0.172874  -0.059554
     7  Na   0.192128   0.038068
 Sum of Mulliken charges =  -0.00000   1.00000

 Dipole moment (field-independent basis, Debye):
    X=             -0.4346    Y=             -0.0039    Z=              0.1063  Tot=              0.4474
 Quadrupole moment (field-independent basis, Debye-Ang):
   XX=            -55.7133   YY=            -70.4700   ZZ=            -68.2335
   XY=              0.7581   XZ=             -0.8000   YZ=              1.6809

 Normal termination of Gaussian 16 at Sun Dec  3 12:29:22 2023.
