 Gaussian 16, Revision B.01,
 Gaussian 16:  ES64L-G16RevB.01 20-Dec-2017

 -------------------------
 #P B3LYP/6-311+g(d) force
 -------------------------

 -----
 DPGEN
 -----
 Symbolic Z-matrix:
 Charge =  0 Multiplicity = 2

                         Standard orientation:
 ---------------------------------------------------------------------
 Center     Atomic      Atomic             Coordinates (Angstroms)
 Number     Number       Type             X           Y           Z
 ---------------------------------------------------------------------
      1         11           0       -0.297517   -0.012493   -0.186256
      2         11           0        2.628700   -2.290170   -0.680390
      3         11           0        3.374826    0.936545   -0.355825
      4         11           0        0.952215    3.350103    1.108795
      5         11           0       -2.659610    2.500809   -0.842810
      6         11           0       -3.724633   -1.474556    0.029363
      7         11           0       -0.273982   -3.010238    0.927123
 ---------------------------------------------------------------------

 SCF Done:  E(UB3LYP) =  -1136.12142190     A.U. after   24 cycles

 The electronic state is 2-A.
 Alpha  occ. eigenvalues --  -38.45545 -38.44725 -38.43892 -38.43858 -38.43803
 Alpha  occ. eigenvalues --  -38.43526 -38.43456  -2.21272  -2.20523  -2.19740
 Alpha  occ. eigenvalues --   -2.19682  -2.19649  -2.19320  -2.19309  -1.14967
 Alpha  occ. eigenvalues --   -1.14924  -1.14910  -1.14208  -1.14193  -1.14154
 Alpha  occ. eigenvalues --   -1.13496  -1.13435  -1.13371  -1.13345  -1.13319
 Alpha  occ. eigenvalues --   -1.13310  -1.13299  -1.13289  -1.13256  -1.12984
 Alpha  occ. eigenvalues --   -1.12970  -1.12962  -1.12957  -1.12946  -1.12942
 Alpha  occ. eigenvalues --   -0.16950  -0.13403  -0.13038  -0.09693
 Alpha virt. eigenvalues --   -0.07010  -0.05561  -0.04030  -0.03879  -0.02948
 Alpha virt. eigenvalues --   -0.02318  -0.01912  -0.01325  -0.00952  -0.00716
 Alpha virt. eigenvalues --   -0.00185   0.00021   0.00183   0.00508   0.00668

  Beta  occ. eigenvalues --  -38.45555 -38.44707 -38.43863 -38.43827 -38.43776
  Beta  occ. eigenvalues --  -38.43467 -38.43423  -2.21295  -2.20496  -2.19748
  Beta  occ. eigenvalues --   -2.19599  -2.19561  -2.19248  -2.19210  -1.14986
  Beta  occ. eigenvalues --   -1.14943  -1.14900  -1.14196  -1.14180  -1.14090
  Beta  occ. eigenvalues --   -1.13481  -1.13439  -1.13377  -1.13283  -1.13270
  Beta  occ. eigenvalues --   -1.13262  -1.13238  -1.13220  -1.13214  -1.12929
  Beta  occ. eigenvalues --   -1.12917  -1.12910  -1.12897  -1.12879  -1.12874
  Beta  occ. eigenvalues --   -0.16665  -0.12753  -0.12463
  Beta virt. eigenvalues --   -0.07074  -0.06498  -0.05310  -0.03822  -0.03335
  Beta virt. eigenvalues --   -0.02395  -0.02254  -0.01717  -0.01128  -0.00748
  Beta virt. eigenvalues --   -0.00421   0.00117   0.00192   0.00304   0.00535

 Mulliken charges and spin densities:
               1          2
     1  Na  -3.479972  -0.128576
     2  Na   0.461422   0.197126
     3  Na   0.807735   0.178013
     4  Na   0.479277   0.275368
     5  Na   0.235943   0.385801
     6  Na   0.456068  -0.028220
     7  Na   1.039528   0.120488
 Sum of Mulliken charges =  -0.00000   1.00000

 Dipole moment (field-independent basis, Debye):
    X=             -0.6315    Y=             -0.7403    Z=              0.1596  Tot=              0.9861
 Quadrupole moment (field-independent basis, Debye-Ang):
   XX=            -57.7274   YY=            -63.2857   ZZ=            -73.2488
   XY=              3.1927   XZ=             -1.3317   YZ=             -0.5434

 Normal termination of Gaussian 16 at Fri Dec  8 17:05:24 2023.
