 Gaussian 16, Revision B.01,
 Gaussian 16:  ES64L-G16RevB.01 20-Dec-2017

 -------------------------
 #P B3LYP/6-311+g(d) force
 -------------------------

 -----
 DPGEN
 -----
 Symbolic Z-matrix:
 Charge =  0 Multiplicity = 2

                         Standard orientation:
 ---------------------------------------------------------------------
 Center     Atomic      Atomic             Coordinates (Angstroms)
 Number     Number       Type             X           Y           Z
 ---------------------------------------------------------------------
      1         11           0        0.050540    3.120762   -0.253660
      2         11           0        0.137917    0.055544   -1.563612
      3         11           0       -2.454797   -2.379207   -0.486566
      4         11           0        2.169111   -2.365515   -0.096065
      5         11           0        3.177236    0.811712    0.077377
      6         11           0       -0.113998   -0.424051    2.063530
      7         11           0       -2.966009    1.180755    0.258996
 ---------------------------------------------------------------------

 SCF Done:  E(UB3LYP) =  -1136.13377011     A.U. after   19 cycles

 The electronic state is 2-A.
 Alpha  occ. eigenvalues --  -38.44447 -38.44352 -38.44031 -38.43992 -38.43671
 Alpha  occ. eigenvalues --  -38.43271 -38.43165  -2.20258  -2.20150  -2.19851
 Alpha  occ. eigenvalues --   -2.19767  -2.19514  -2.19196  -2.18978  -1.13934
 Alpha  occ. eigenvalues --   -1.13921  -1.13900  -1.13830  -1.13814  -1.13783
 Alpha  occ. eigenvalues --   -1.13524  -1.13510  -1.13491  -1.13438  -1.13418
 Alpha  occ. eigenvalues --   -1.13410  -1.13185  -1.13143  -1.13126  -1.12896
 Alpha  occ. eigenvalues --   -1.12847  -1.12817  -1.12655  -1.12635  -1.12615
 Alpha  occ. eigenvalues --   -0.17999  -0.13170  -0.12037  -0.10352
 Alpha virt. eigenvalues --   -0.05877  -0.05773  -0.04755  -0.03236  -0.02653
 Alpha virt. eigenvalues --   -0.02323  -0.01792  -0.01398  -0.00782  -0.00625
 Alpha virt. eigenvalues --   -0.00029   0.00327   0.00706   0.00758   0.00805

  Beta  occ. eigenvalues --  -38.44446 -38.44348 -38.44028 -38.43981 -38.43577
  Beta  occ. eigenvalues --  -38.43216 -38.43163  -2.20257  -2.20145  -2.19849
  Beta  occ. eigenvalues --   -2.19747  -2.19341  -2.19095  -2.18978  -1.13928
  Beta  occ. eigenvalues --   -1.13913  -1.13898  -1.13812  -1.13804  -1.13784
  Beta  occ. eigenvalues --   -1.13519  -1.13495  -1.13488  -1.13412  -1.13406
  Beta  occ. eigenvalues --   -1.13398  -1.13069  -1.13022  -1.13002  -1.12821
  Beta  occ. eigenvalues --   -1.12778  -1.12744  -1.12641  -1.12630  -1.12613
  Beta  occ. eigenvalues --   -0.17315  -0.12985  -0.11812
  Beta virt. eigenvalues --   -0.06534  -0.05806  -0.05699  -0.04696  -0.02507
  Beta virt. eigenvalues --   -0.01984  -0.01677  -0.01355  -0.01269  -0.00841
  Beta virt. eigenvalues --   -0.00636   0.00133   0.00365   0.00757   0.00783

 Mulliken charges and spin densities:
               1          2
     1  Na  -0.018436  -0.061222
     2  Na  -0.005036   0.479671
     3  Na  -0.028449  -0.026925
     4  Na   0.160818  -0.070004
     5  Na   0.087335  -0.008061
     6  Na  -0.316422   0.656334
     7  Na   0.120191   0.030208
 Sum of Mulliken charges =  -0.00000   1.00000

 Dipole moment (field-independent basis, Debye):
    X=              0.1782    Y=             -0.1866    Z=              0.1317  Tot=              0.2897
 Quadrupole moment (field-independent basis, Debye-Ang):
   XX=            -53.8853   YY=            -62.0317   ZZ=            -76.7065
   XY=             -0.1899   XZ=              0.3630   YZ=              1.4381

 Normal termination of Gaussian 16 at Thu Dec  7 08:39:56 2023.
