 Gaussian 16, Revision B.01,
 Gaussian 16:  ES64L-G16RevB.01 20-Dec-2017

 -------------------------
 #P B3LYP/6-311+g(d) force
 -------------------------

 -----
 DPGEN
 -----
 Symbolic Z-matrix:
 Charge =  0 Multiplicity = 2

                         Standard orientation:
 ---------------------------------------------------------------------
 Center     Atomic      Atomic             Coordinates (Angstroms)
 Number     Number       Type             X           Y           Z
 ---------------------------------------------------------------------
      1         11           0        3.134757    0.021570    0.120440
      2         11           0        0.262906    0.281188   -1.392097
      3         11           0        0.897339    2.773306   -0.061677
      4         11           0       -0.223025   -0.342727    1.719862
      5         11           0       -2.657636   -1.663549   -0.317874
      6         11           0       -2.481015    1.687455    0.097023
      7         11           0        1.066675   -2.757243   -0.165677
 ---------------------------------------------------------------------

 SCF Done:  E(UB3LYP) =  -1136.13508641     A.U. after   23 cycles

 The electronic state is 2-A.
 Alpha  occ. eigenvalues --  -38.44145 -38.43940 -38.43766 -38.43552 -38.43438
 Alpha  occ. eigenvalues --  -38.42808 -38.42757  -2.20000  -2.19777  -2.19635
 Alpha  occ. eigenvalues --   -2.19413  -2.19337  -2.18842  -2.18791  -1.13686
 Alpha  occ. eigenvalues --   -1.13659  -1.13636  -1.13452  -1.13444  -1.13420
 Alpha  occ. eigenvalues --   -1.13311  -1.13303  -1.13265  -1.13132  -1.13101
 Alpha  occ. eigenvalues --   -1.13085  -1.13036  -1.12975  -1.12944  -1.12586
 Alpha  occ. eigenvalues --   -1.12468  -1.12447  -1.12437  -1.12408  -1.12395
 Alpha  occ. eigenvalues --   -0.19053  -0.13281  -0.12678  -0.10099
 Alpha virt. eigenvalues --   -0.05715  -0.05327  -0.04814  -0.02985  -0.02653
 Alpha virt. eigenvalues --   -0.01800  -0.01666  -0.01237  -0.00475  -0.00398
 Alpha virt. eigenvalues --    0.00057   0.00352   0.00815   0.00862   0.00871

  Beta  occ. eigenvalues --  -38.44141 -38.43932 -38.43760 -38.43545 -38.43432
  Beta  occ. eigenvalues --  -38.42727 -38.42699  -2.19995  -2.19764  -2.19628
  Beta  occ. eigenvalues --   -2.19404  -2.19330  -2.18739  -2.18642  -1.13680
  Beta  occ. eigenvalues --   -1.13642  -1.13628  -1.13446  -1.13418  -1.13408
  Beta  occ. eigenvalues --   -1.13308  -1.13267  -1.13265  -1.13117  -1.13097
  Beta  occ. eigenvalues --   -1.13052  -1.13031  -1.12948  -1.12940  -1.12498
  Beta  occ. eigenvalues --   -1.12393  -1.12369  -1.12347  -1.12300  -1.12288
  Beta  occ. eigenvalues --   -0.18348  -0.13032  -0.12415
  Beta virt. eigenvalues --   -0.06232  -0.05681  -0.05319  -0.04781  -0.02208
  Beta virt. eigenvalues --   -0.01896  -0.01578  -0.01164  -0.00843  -0.00525
  Beta virt. eigenvalues --   -0.00437   0.00199   0.00396   0.00858   0.00862

 Mulliken charges and spin densities:
               1          2
     1  Na   0.232537  -0.037221
     2  Na  -0.658039   0.488298
     3  Na   0.396929  -0.036690
     4  Na  -0.361673   0.671202
     5  Na   0.033424  -0.016924
     6  Na   0.254076  -0.008995
     7  Na   0.102747  -0.059671
 Sum of Mulliken charges =  -0.00000   1.00000

 Dipole moment (field-independent basis, Debye):
    X=              0.0333    Y=             -0.1372    Z=              0.1417  Tot=              0.2000
 Quadrupole moment (field-independent basis, Debye-Ang):
   XX=            -53.3026   YY=            -59.7351   ZZ=            -77.6189
   XY=             -0.0095   XZ=              1.1672   YZ=              1.5357

 Normal termination of Gaussian 16 at Thu Dec  7 21:20:38 2023.
