 Gaussian 16, Revision B.01,
 Gaussian 16:  ES64L-G16RevB.01 20-Dec-2017

 -------------------------
 #P B3LYP/6-311+g(d) force
 -------------------------

 -----
 DPGEN
 -----
 Symbolic Z-matrix:
 Charge =  0 Multiplicity = 2

                         Standard orientation:
 ---------------------------------------------------------------------
 Center     Atomic      Atomic             Coordinates (Angstroms)
 Number     Number       Type             X           Y           Z
 ---------------------------------------------------------------------
      1         11           0       -1.344734   -2.628408   -0.118033
      2         11           0        2.765672    1.028979   -0.572218
      3         11           0       -0.508359   -0.059346   -1.729286
      4         11           0       -0.256716    3.097470   -0.000307
      5         11           0       -3.110149    0.262020    0.160511
      6         11           0        2.295152   -2.120659    0.320382
      7         11           0        0.159134    0.419944    1.938951
 ---------------------------------------------------------------------

 SCF Done:  E(UB3LYP) =  -1136.13805600     A.U. after   19 cycles

 The electronic state is 2-A.
 Alpha  occ. eigenvalues --  -38.44123 -38.43826 -38.43604 -38.43567 -38.43517
 Alpha  occ. eigenvalues --  -38.43453 -38.43332  -2.19967  -2.19667  -2.19463
 Alpha  occ. eigenvalues --   -2.19393  -2.19350  -2.19339  -2.19287  -1.13661
 Alpha  occ. eigenvalues --   -1.13635  -1.13592  -1.13346  -1.13333  -1.13304
 Alpha  occ. eigenvalues --   -1.13197  -1.13120  -1.13099  -1.13085  -1.13062
 Alpha  occ. eigenvalues --   -1.13028  -1.13020  -1.13005  -1.12997  -1.12982
 Alpha  occ. eigenvalues --   -1.12973  -1.12955  -1.12952  -1.12915  -1.12898
 Alpha  occ. eigenvalues --   -0.18520  -0.13043  -0.12455  -0.10673
 Alpha virt. eigenvalues --   -0.05614  -0.05036  -0.04962  -0.03282  -0.02933
 Alpha virt. eigenvalues --   -0.02481  -0.01429  -0.01197  -0.00419  -0.00365
 Alpha virt. eigenvalues --    0.00001   0.00371   0.00837   0.00858   0.00897

  Beta  occ. eigenvalues --  -38.44118 -38.43813 -38.43600 -38.43564 -38.43513
  Beta  occ. eigenvalues --  -38.43370 -38.43265  -2.19962  -2.19644  -2.19458
  Beta  occ. eigenvalues --   -2.19391  -2.19335  -2.19197  -2.19164  -1.13653
  Beta  occ. eigenvalues --   -1.13619  -1.13585  -1.13331  -1.13298  -1.13292
  Beta  occ. eigenvalues --   -1.13181  -1.13104  -1.13082  -1.13079  -1.13045
  Beta  occ. eigenvalues --   -1.13023  -1.12999  -1.12985  -1.12980  -1.12918
  Beta  occ. eigenvalues --   -1.12870  -1.12869  -1.12851  -1.12831  -1.12810
  Beta  occ. eigenvalues --   -0.17801  -0.12816  -0.12224
  Beta virt. eigenvalues --   -0.06811  -0.05597  -0.05010  -0.04856  -0.02513
  Beta virt. eigenvalues --   -0.02189  -0.01468  -0.01344  -0.01124  -0.00438
  Beta virt. eigenvalues --   -0.00402   0.00131   0.00398   0.00835   0.00880

 Mulliken charges and spin densities:
               1          2
     1  Na   0.091028  -0.041202
     2  Na   0.047152   0.033355
     3  Na  -0.049020   0.492116
     4  Na   0.100865  -0.108639
     5  Na   0.150327  -0.099405
     6  Na  -0.019085  -0.028508
     7  Na  -0.321268   0.752283
 Sum of Mulliken charges =  -0.00000   1.00000

 Dipole moment (field-independent basis, Debye):
    X=             -0.2749    Y=              0.1361    Z=              0.0669  Tot=              0.3139
 Quadrupole moment (field-independent basis, Debye-Ang):
   XX=            -58.2239   YY=            -61.0181   ZZ=            -74.4094
   XY=             -0.3325   XZ=             -1.4791   YZ=             -1.3140

 Normal termination of Gaussian 16 at Fri Dec  8 07:37:26 2023.
