 Gaussian 16, Revision B.01,
 Gaussian 16:  ES64L-G16RevB.01 20-Dec-2017

 -------------------------
 #P B3LYP/6-311+g(d) force
 -------------------------

 -----
 DPGEN
 -----
 Symbolic Z-matrix:
 Charge =  0 Multiplicity = 2

                         Standard orientation:
 ---------------------------------------------------------------------
 Center     Atomic      Atomic             Coordinates (Angstroms)
 Number     Number       Type             X           Y           Z
 ---------------------------------------------------------------------
      1         11           0       -0.262487    0.039227    2.164141
      2         11           0        2.609457    1.322181   -0.023370
      3         11           0        2.550902   -1.641750    0.022134
      4         11           0       -0.840115   -2.569630   -0.318918
      5         11           0       -3.180191   -0.151947    0.067949
      6         11           0       -0.650713    2.861668   -0.205291
      7         11           0       -0.226852    0.140250   -1.706645
 ---------------------------------------------------------------------

 SCF Done:  E(UB3LYP) =  -1136.13562439     A.U. after   19 cycles

 The electronic state is 2-A.
 Alpha  occ. eigenvalues --  -38.44328 -38.43957 -38.43771 -38.43552 -38.43312
 Alpha  occ. eigenvalues --  -38.43209 -38.43181  -2.20161  -2.19827  -2.19653
 Alpha  occ. eigenvalues --   -2.19423  -2.19312  -2.19076  -2.19061  -1.13834
 Alpha  occ. eigenvalues --   -1.13826  -1.13798  -1.13486  -1.13453  -1.13448
 Alpha  occ. eigenvalues --   -1.13424  -1.13309  -1.13289  -1.13070  -1.13064
 Alpha  occ. eigenvalues --   -1.13058  -1.13027  -1.12999  -1.12924  -1.12763
 Alpha  occ. eigenvalues --   -1.12729  -1.12725  -1.12713  -1.12689  -1.12681
 Alpha  occ. eigenvalues --   -0.18844  -0.13210  -0.12335  -0.11070
 Alpha virt. eigenvalues --   -0.05823  -0.04823  -0.04509  -0.03377  -0.02915
 Alpha virt. eigenvalues --   -0.02868  -0.01599  -0.00928  -0.00195  -0.00143
 Alpha virt. eigenvalues --   -0.00038   0.00370   0.00832   0.00912   0.00940

  Beta  occ. eigenvalues --  -38.44324 -38.43858 -38.43768 -38.43551 -38.43243
  Beta  occ. eigenvalues --  -38.43203 -38.43171  -2.20157  -2.19652  -2.19643
  Beta  occ. eigenvalues --   -2.19424  -2.19187  -2.19061  -2.19054  -1.13827
  Beta  occ. eigenvalues --   -1.13804  -1.13799  -1.13429  -1.13365  -1.13325
  Beta  occ. eigenvalues --   -1.13316  -1.13291  -1.13281  -1.13066  -1.13062
  Beta  occ. eigenvalues --   -1.13046  -1.12949  -1.12922  -1.12836  -1.12740
  Beta  occ. eigenvalues --   -1.12709  -1.12695  -1.12685  -1.12682  -1.12678
  Beta  occ. eigenvalues --   -0.18097  -0.12994  -0.12084
  Beta virt. eigenvalues --   -0.07107  -0.05771  -0.04838  -0.04472  -0.02565
  Beta virt. eigenvalues --   -0.02116  -0.01773  -0.01509  -0.00868  -0.00253
  Beta virt. eigenvalues --   -0.00188   0.00106   0.00390   0.00870   0.00905

 Mulliken charges and spin densities:
               1          2
     1  Na  -0.641792   0.754959
     2  Na   0.170276  -0.018112
     3  Na   0.019717  -0.023853
     4  Na   0.283563   0.012312
     5  Na   0.250415  -0.040719
     6  Na   0.185769  -0.081274
     7  Na  -0.267949   0.396688
 Sum of Mulliken charges =  -0.00000   1.00000

 Dipole moment (field-independent basis, Debye):
    X=             -0.4179    Y=              0.0763    Z=              0.2677  Tot=              0.5021
 Quadrupole moment (field-independent basis, Debye-Ang):
   XX=            -56.7364   YY=            -65.1535   ZZ=            -72.8259
   XY=             -0.3137   XZ=             -0.0182   YZ=              0.2524

 Normal termination of Gaussian 16 at Thu Dec  7 13:52:35 2023.
