 Gaussian 16, Revision B.01,
 Gaussian 16:  ES64L-G16RevB.01 20-Dec-2017

 -------------------------
 #P B3LYP/6-311+g(d) force
 -------------------------

 -----
 DPGEN
 -----
 Symbolic Z-matrix:
 Charge =  0 Multiplicity = 2

                         Standard orientation:
 ---------------------------------------------------------------------
 Center     Atomic      Atomic             Coordinates (Angstroms)
 Number     Number       Type             X           Y           Z
 ---------------------------------------------------------------------
      1         11           0        3.021734   -1.269569    0.846662
      2         11           0       -1.104183   -0.491884    2.224476
      3         11           0       -3.168047   -0.854657   -0.204796
      4         11           0       -0.084578   -2.087469   -1.226817
      5         11           0        1.648498    0.623060   -1.953877
      6         11           0       -1.838155    2.033904   -0.561106
      7         11           0        1.524731    2.046615    0.875458
 ---------------------------------------------------------------------

 SCF Done:  E(UB3LYP) =  -1136.12833147     A.U. after   21 cycles

 The electronic state is 2-A.
 Alpha  occ. eigenvalues --  -38.44871 -38.44644 -38.44199 -38.43975 -38.43512
 Alpha  occ. eigenvalues --  -38.43138 -38.43106  -2.20703  -2.20427  -2.20080
 Alpha  occ. eigenvalues --   -2.19849  -2.19341  -2.18978  -2.18960  -1.14362
 Alpha  occ. eigenvalues --   -1.14353  -1.14326  -1.14095  -1.14082  -1.14064
 Alpha  occ. eigenvalues --   -1.13763  -1.13747  -1.13679  -1.13531  -1.13518
 Alpha  occ. eigenvalues --   -1.13484  -1.13017  -1.12999  -1.12977  -1.12677
 Alpha  occ. eigenvalues --   -1.12649  -1.12634  -1.12628  -1.12595  -1.12580
 Alpha  occ. eigenvalues --   -0.18152  -0.13579  -0.11609  -0.11335
 Alpha virt. eigenvalues --   -0.06117  -0.05099  -0.04757  -0.03361  -0.03185
 Alpha virt. eigenvalues --   -0.03003  -0.01623  -0.00757  -0.00450  -0.00096
 Alpha virt. eigenvalues --    0.00118   0.00305   0.00414   0.00572   0.00772

  Beta  occ. eigenvalues --  -38.44803 -38.44628 -38.44148 -38.43975 -38.43501
  Beta  occ. eigenvalues --  -38.43111 -38.43096  -2.20576  -2.20398  -2.19988
  Beta  occ. eigenvalues --   -2.19851  -2.19322  -2.18943  -2.18931  -1.14278
  Beta  occ. eigenvalues --   -1.14258  -1.14237  -1.14067  -1.14062  -1.14043
  Beta  occ. eigenvalues --   -1.13697  -1.13678  -1.13614  -1.13531  -1.13507
  Beta  occ. eigenvalues --   -1.13485  -1.13001  -1.12979  -1.12963  -1.12639
  Beta  occ. eigenvalues --   -1.12636  -1.12605  -1.12589  -1.12567  -1.12561
  Beta  occ. eigenvalues --   -0.17415  -0.13410  -0.11170
  Beta virt. eigenvalues --   -0.07796  -0.05725  -0.05007  -0.04217  -0.03201
  Beta virt. eigenvalues --   -0.02496  -0.02170  -0.01493  -0.00691  -0.00137
  Beta virt. eigenvalues --   -0.00018   0.00158   0.00442   0.00562   0.00720

 Mulliken charges and spin densities:
               1          2
     1  Na   0.159124   0.065629
     2  Na  -0.334358   0.276294
     3  Na   0.491668   0.059046
     4  Na  -0.325369   0.202514
     5  Na   0.179819   0.161097
     6  Na  -0.124057   0.042484
     7  Na  -0.046827   0.192936
 Sum of Mulliken charges =  -0.00000   1.00000

 Dipole moment (field-independent basis, Debye):
    X=              0.0989    Y=             -0.2643    Z=              0.3801  Tot=              0.4734
 Quadrupole moment (field-independent basis, Debye-Ang):
   XX=            -56.2504   YY=            -75.3251   ZZ=            -65.1870
   XY=             -0.5421   XZ=              2.3134   YZ=             -2.1926

 Normal termination of Gaussian 16 at Sun Dec  3 17:26:34 2023.
