 Gaussian 16, Revision B.01,
 Gaussian 16:  ES64L-G16RevB.01 20-Dec-2017

 -------------------------
 #P B3LYP/6-311+g(d) force
 -------------------------

 -----
 DPGEN
 -----
 Symbolic Z-matrix:
 Charge =  0 Multiplicity = 2

                         Standard orientation:
 ---------------------------------------------------------------------
 Center     Atomic      Atomic             Coordinates (Angstroms)
 Number     Number       Type             X           Y           Z
 ---------------------------------------------------------------------
      1         11           0        2.811605    1.077671    1.026298
      2         11           0        1.417687    3.501402   -0.451904
      3         11           0       -3.906281    0.503252   -0.949595
      4         11           0        4.358670   -1.904654   -0.109337
      5         11           0       -5.736948   -1.248115    0.799434
      6         11           0       -0.459408    0.994889    0.209937
      7         11           0        1.514676   -2.924444   -0.524833
 ---------------------------------------------------------------------

 SCF Done:  E(UB3LYP) =  -1136.11382959     A.U. after   19 cycles

 The electronic state is 2-A.
 Alpha  occ. eigenvalues --  -38.44663 -38.44521 -38.44216 -38.44064 -38.43912
 Alpha  occ. eigenvalues --  -38.43854 -38.43574  -2.20505  -2.20325  -2.20094
 Alpha  occ. eigenvalues --   -2.19895  -2.19724  -2.19723  -2.19380  -1.14182
 Alpha  occ. eigenvalues --   -1.14170  -1.14154  -1.14014  -1.13981  -1.13963
 Alpha  occ. eigenvalues --   -1.13786  -1.13759  -1.13695  -1.13549  -1.13544
 Alpha  occ. eigenvalues --   -1.13535  -1.13409  -1.13404  -1.13378  -1.13362
 Alpha  occ. eigenvalues --   -1.13359  -1.13327  -1.13047  -1.13038  -1.13028
 Alpha  occ. eigenvalues --   -0.16697  -0.13695  -0.12893  -0.10248
 Alpha virt. eigenvalues --   -0.06374  -0.05956  -0.04243  -0.03888  -0.02798
 Alpha virt. eigenvalues --   -0.02469  -0.02074  -0.01463  -0.01111  -0.00644
 Alpha virt. eigenvalues --   -0.00179  -0.00133  -0.00025   0.00383   0.00605

  Beta  occ. eigenvalues --  -38.44660 -38.44493 -38.44172 -38.44055 -38.43854
  Beta  occ. eigenvalues --  -38.43804 -38.43582  -2.20502  -2.20271  -2.20015
  Beta  occ. eigenvalues --   -2.19880  -2.19630  -2.19615  -2.19401  -1.14178
  Beta  occ. eigenvalues --   -1.14155  -1.14151  -1.13980  -1.13944  -1.13924
  Beta  occ. eigenvalues --   -1.13720  -1.13704  -1.13642  -1.13541  -1.13526
  Beta  occ. eigenvalues --   -1.13516  -1.13343  -1.13340  -1.13315  -1.13288
  Beta  occ. eigenvalues --   -1.13284  -1.13263  -1.13065  -1.13054  -1.12999
  Beta  occ. eigenvalues --   -0.16152  -0.13315  -0.12598
  Beta virt. eigenvalues --   -0.07042  -0.05977  -0.05408  -0.03900  -0.03535
  Beta virt. eigenvalues --   -0.02492  -0.02375  -0.01962  -0.01092  -0.01046
  Beta virt. eigenvalues --   -0.00322   0.00021   0.00106   0.00200   0.00551

 Mulliken charges and spin densities:
               1          2
     1  Na   0.144769   0.460800
     2  Na   1.004155   0.170317
     3  Na  -0.184522  -0.049569
     4  Na   0.389002   0.085138
     5  Na   0.113680   0.231127
     6  Na  -1.394000  -0.038279
     7  Na  -0.073083   0.140465
 Sum of Mulliken charges =  -0.00000   1.00000

 Dipole moment (field-independent basis, Debye):
    X=              1.2543    Y=              0.4678    Z=             -0.2691  Tot=              1.3655
 Quadrupole moment (field-independent basis, Debye-Ang):
   XX=            -71.0920   YY=            -59.8815   ZZ=            -68.6773
   XY=              1.9065   XZ=             -2.8989   YZ=             -4.6882

 Normal termination of Gaussian 16 at Wed Nov 29 03:00:14 2023.
