 Gaussian 16, Revision B.01,
 Gaussian 16:  ES64L-G16RevB.01 20-Dec-2017

 -------------------------
 #P B3LYP/6-311+g(d) force
 -------------------------

 -----
 DPGEN
 -----
 Symbolic Z-matrix:
 Charge =  0 Multiplicity = 2

                         Standard orientation:
 ---------------------------------------------------------------------
 Center     Atomic      Atomic             Coordinates (Angstroms)
 Number     Number       Type             X           Y           Z
 ---------------------------------------------------------------------
      1         11           0        3.185864    1.223114    1.265148
      2         11           0       -1.718325   -1.388466    0.084095
      3         11           0       -3.524163    1.433833   -1.001651
      4         11           0        5.253855   -0.473748   -0.458713
      5         11           0        0.025893    2.105783   -0.220329
      6         11           0       -4.862881   -0.916731    0.852554
      7         11           0        1.639757   -1.983786   -0.521103
 ---------------------------------------------------------------------

 SCF Done:  E(UB3LYP) =  -1136.11588424     A.U. after   29 cycles

 The electronic state is 2-A.
 Alpha  occ. eigenvalues --  -38.45215 -38.45065 -38.44871 -38.44310 -38.43767
 Alpha  occ. eigenvalues --  -38.43482 -38.42066  -2.21041  -2.20872  -2.20691
 Alpha  occ. eigenvalues --   -2.20184  -2.19572  -2.19322  -2.17864  -1.14728
 Alpha  occ. eigenvalues --   -1.14699  -1.14647  -1.14552  -1.14515  -1.14475
 Alpha  occ. eigenvalues --   -1.14376  -1.14341  -1.14317  -1.13884  -1.13830
 Alpha  occ. eigenvalues --   -1.13814  -1.13246  -1.13230  -1.13204  -1.12993
 Alpha  occ. eigenvalues --   -1.12976  -1.12962  -1.11545  -1.11520  -1.11520
 Alpha  occ. eigenvalues --   -0.16865  -0.14659  -0.11892  -0.10788
 Alpha virt. eigenvalues --   -0.06996  -0.05058  -0.04388  -0.03872  -0.03181
 Alpha virt. eigenvalues --   -0.02229  -0.01892  -0.01538  -0.01378  -0.00536
 Alpha virt. eigenvalues --   -0.00164   0.00021   0.00358   0.00549   0.00661

  Beta  occ. eigenvalues --  -38.45186 -38.44979 -38.44840 -38.44260 -38.43755
  Beta  occ. eigenvalues --  -38.43479 -38.42061  -2.20987  -2.20717  -2.20635
  Beta  occ. eigenvalues --   -2.20096  -2.19552  -2.19317  -2.17854  -1.14690
  Beta  occ. eigenvalues --   -1.14666  -1.14604  -1.14450  -1.14414  -1.14341
  Beta  occ. eigenvalues --   -1.14335  -1.14307  -1.14273  -1.13830  -1.13773
  Beta  occ. eigenvalues --   -1.13714  -1.13221  -1.13216  -1.13195  -1.12988
  Beta  occ. eigenvalues --   -1.12971  -1.12958  -1.11539  -1.11512  -1.11510
  Beta  occ. eigenvalues --   -0.16162  -0.14360  -0.10670
  Beta virt. eigenvalues --   -0.07797  -0.06753  -0.04676  -0.04140  -0.03656
  Beta virt. eigenvalues --   -0.02648  -0.01808  -0.01632  -0.01362  -0.00968
  Beta virt. eigenvalues --   -0.00390  -0.00030   0.00153   0.00468   0.00611

 Mulliken charges and spin densities:
               1          2
     1  Na   0.194373   0.182593
     2  Na  -1.393567   0.523230
     3  Na   0.281774   0.102627
     4  Na   0.220955   0.086992
     5  Na  -0.576745   0.056658
     6  Na   2.341960   0.513489
     7  Na  -1.068749  -0.465589
 Sum of Mulliken charges =  -0.00000   1.00000

 Dipole moment (field-independent basis, Debye):
    X=             -0.3037    Y=             -0.0418    Z=             -0.1362  Tot=              0.3355
 Quadrupole moment (field-independent basis, Debye-Ang):
   XX=            -60.7724   YY=            -71.3186   ZZ=            -66.2344
   XY=             -3.3560   XZ=              0.2378   YZ=              0.2963

 Normal termination of Gaussian 16 at Sun Dec  3 20:16:45 2023.
