 Gaussian 16, Revision B.01,
 Gaussian 16:  ES64L-G16RevB.01 20-Dec-2017

 -------------------------
 #P B3LYP/6-311+g(d) force
 -------------------------

 -----
 DPGEN
 -----
 Symbolic Z-matrix:
 Charge =  0 Multiplicity = 2

                         Standard orientation:
 ---------------------------------------------------------------------
 Center     Atomic      Atomic             Coordinates (Angstroms)
 Number     Number       Type             X           Y           Z
 ---------------------------------------------------------------------
      1         11           0       -0.016420    0.041994   -1.813521
      2         11           0        1.748359   -2.329082   -0.004195
      3         11           0       -1.927311   -2.314795   -0.152225
      4         11           0        3.183084    0.727055   -0.116910
      5         11           0       -3.077207    0.704808    0.219803
      6         11           0       -0.212485    2.898718   -0.328244
      7         11           0        0.301981    0.271301    2.195292
 ---------------------------------------------------------------------

 SCF Done:  E(UB3LYP) =  -1136.13757109     A.U. after   18 cycles

 The electronic state is 2-A.
 Alpha  occ. eigenvalues --  -38.44371 -38.44128 -38.44054 -38.43506 -38.43428
 Alpha  occ. eigenvalues --  -38.43275 -38.43203  -2.20178  -2.19952  -2.19898
 Alpha  occ. eigenvalues --   -2.19440  -2.19273  -2.19116  -2.19041  -1.13851
 Alpha  occ. eigenvalues --   -1.13841  -1.13819  -1.13629  -1.13620  -1.13591
 Alpha  occ. eigenvalues --   -1.13555  -1.13529  -1.13516  -1.13124  -1.13101
 Alpha  occ. eigenvalues --   -1.13062  -1.12945  -1.12942  -1.12906  -1.12790
 Alpha  occ. eigenvalues --   -1.12778  -1.12755  -1.12730  -1.12698  -1.12664
 Alpha  occ. eigenvalues --   -0.18373  -0.13072  -0.12167  -0.10979
 Alpha virt. eigenvalues --   -0.05922  -0.05045  -0.04522  -0.03376  -0.02957
 Alpha virt. eigenvalues --   -0.02837  -0.01661  -0.00980  -0.00409  -0.00295
 Alpha virt. eigenvalues --   -0.00062   0.00375   0.00774   0.00832   0.00869

  Beta  occ. eigenvalues --  -38.44370 -38.44126 -38.43958 -38.43435 -38.43423
  Beta  occ. eigenvalues --  -38.43273 -38.43195  -2.20179  -2.19950  -2.19721
  Beta  occ. eigenvalues --   -2.19310  -2.19268  -2.19115  -2.19031  -1.13846
  Beta  occ. eigenvalues --   -1.13829  -1.13821  -1.13630  -1.13599  -1.13593
  Beta  occ. eigenvalues --   -1.13437  -1.13405  -1.13388  -1.13040  -1.13011
  Beta  occ. eigenvalues --   -1.12972  -1.12935  -1.12918  -1.12902  -1.12788
  Beta  occ. eigenvalues --   -1.12760  -1.12758  -1.12713  -1.12674  -1.12660
  Beta  occ. eigenvalues --   -0.17631  -0.12887  -0.11932
  Beta virt. eigenvalues --   -0.07058  -0.05847  -0.05060  -0.04446  -0.02595
  Beta virt. eigenvalues --   -0.02154  -0.01816  -0.01559  -0.00913  -0.00462
  Beta virt. eigenvalues --   -0.00346   0.00094   0.00396   0.00836   0.00869

 Mulliken charges and spin densities:
               1          2
     1  Na  -0.068026   0.536122
     2  Na   0.081142  -0.036948
     3  Na   0.050243  -0.054907
     4  Na   0.226554  -0.088113
     5  Na   0.089820   0.005086
     6  Na   0.124809  -0.093959
     7  Na  -0.504542   0.732719
 Sum of Mulliken charges =  -0.00000   1.00000

 Dipole moment (field-independent basis, Debye):
    X=              0.2503    Y=              0.1919    Z=              0.1786  Tot=              0.3625
 Quadrupole moment (field-independent basis, Debye-Ang):
   XX=            -56.0764   YY=            -65.5416   ZZ=            -72.9468
   XY=              0.1944   XZ=             -0.9094   YZ=             -0.2633

 Normal termination of Gaussian 16 at Thu Dec  7 04:59:06 2023.
