 Gaussian 16, Revision B.01,
 Gaussian 16:  ES64L-G16RevB.01 20-Dec-2017

 -------------------------
 #P B3LYP/6-311+g(d) force
 -------------------------

 -----
 DPGEN
 -----
 Symbolic Z-matrix:
 Charge =  0 Multiplicity = 2

                         Standard orientation:
 ---------------------------------------------------------------------
 Center     Atomic      Atomic             Coordinates (Angstroms)
 Number     Number       Type             X           Y           Z
 ---------------------------------------------------------------------
      1         11           0       -0.750038   -2.553143    0.460745
      2         11           0        0.595059    1.645160   -1.168572
      3         11           0        1.096571    2.210101    2.269137
      4         11           0       -3.098216    1.998894   -0.826079
      5         11           0        2.474993   -0.677349   -2.182966
      6         11           0        3.180669   -0.992306    0.967380
      7         11           0       -3.499039   -1.631357    0.480356
 ---------------------------------------------------------------------

 SCF Done:  E(UB3LYP) =  -1136.10963720     A.U. after   21 cycles

 The electronic state is 2-A.
 Alpha  occ. eigenvalues --  -38.45154 -38.45033 -38.44845 -38.44524 -38.43841
 Alpha  occ. eigenvalues --  -38.43704 -38.43622  -2.20936  -2.20816  -2.20577
 Alpha  occ. eigenvalues --   -2.20387  -2.19650  -2.19526  -2.19460  -1.14618
 Alpha  occ. eigenvalues --   -1.14594  -1.14580  -1.14464  -1.14452  -1.14428
 Alpha  occ. eigenvalues --   -1.14256  -1.14227  -1.14216  -1.14070  -1.14021
 Alpha  occ. eigenvalues --   -1.13996  -1.13472  -1.13313  -1.13295  -1.13174
 Alpha  occ. eigenvalues --   -1.13150  -1.13145  -1.13134  -1.13107  -1.13085
 Alpha  occ. eigenvalues --   -0.16929  -0.13313  -0.11997  -0.11408
 Alpha virt. eigenvalues --   -0.06933  -0.05617  -0.04392  -0.03463  -0.03236
 Alpha virt. eigenvalues --   -0.02660  -0.02076  -0.01400  -0.00789  -0.00498
 Alpha virt. eigenvalues --   -0.00219  -0.00025   0.00123   0.00303   0.00631

  Beta  occ. eigenvalues --  -38.45145 -38.44937 -38.44837 -38.44461 -38.43838
  Beta  occ. eigenvalues --  -38.43709 -38.43601  -2.20920  -2.20637  -2.20562
  Beta  occ. eigenvalues --   -2.20270  -2.19644  -2.19535  -2.19426  -1.14597
  Beta  occ. eigenvalues --   -1.14586  -1.14557  -1.14343  -1.14334  -1.14300
  Beta  occ. eigenvalues --   -1.14244  -1.14217  -1.14208  -1.13983  -1.13945
  Beta  occ. eigenvalues --   -1.13917  -1.13473  -1.13305  -1.13291  -1.13179
  Beta  occ. eigenvalues --   -1.13150  -1.13123  -1.13110  -1.13085  -1.13065
  Beta  occ. eigenvalues --   -0.16264  -0.13165  -0.11594
  Beta virt. eigenvalues --   -0.07792  -0.06610  -0.05368  -0.03780  -0.03341
  Beta virt. eigenvalues --   -0.02723  -0.02057  -0.02006  -0.01309  -0.00431
  Beta virt. eigenvalues --   -0.00378  -0.00104   0.00108   0.00361   0.00435

 Mulliken charges and spin densities:
               1          2
     1  Na  -0.419179   0.017305
     2  Na  -0.513701   0.114250
     3  Na   0.145042   0.495049
     4  Na  -0.026431   0.005124
     5  Na   0.704253   0.284639
     6  Na  -0.097864   0.117961
     7  Na   0.207879  -0.034327
 Sum of Mulliken charges =  -0.00000   1.00000

 Dipole moment (field-independent basis, Debye):
    X=              0.5702    Y=              0.2584    Z=              0.2594  Tot=              0.6776
 Quadrupole moment (field-independent basis, Debye-Ang):
   XX=            -56.4129   YY=            -74.5246   ZZ=            -67.2829
   XY=             -6.1970   XZ=              1.1642   YZ=              2.4974

 Normal termination of Gaussian 16 at Sun Dec  3 20:59:28 2023.
