 Gaussian 16, Revision B.01,
 Gaussian 16:  ES64L-G16RevB.01 20-Dec-2017

 -------------------------
 #P B3LYP/6-311+g(d) force
 -------------------------

 -----
 DPGEN
 -----
 Symbolic Z-matrix:
 Charge =  0 Multiplicity = 2

                         Standard orientation:
 ---------------------------------------------------------------------
 Center     Atomic      Atomic             Coordinates (Angstroms)
 Number     Number       Type             X           Y           Z
 ---------------------------------------------------------------------
      1         11           0       -4.775811    1.095106    0.356368
      2         11           0        2.419303    2.243124   -0.838397
      3         11           0        3.869378   -0.221159    1.176715
      4         11           0       -1.516859    0.891075   -0.406113
      5         11           0       -1.921251   -2.200613   -0.213897
      6         11           0        1.481806   -1.363480   -1.749589
      7         11           0        0.443434   -0.444053    1.674912
 ---------------------------------------------------------------------

 SCF Done:  E(UB3LYP) =  -1136.11362767     A.U. after   29 cycles

 The electronic state is 2-A.
 Alpha  occ. eigenvalues --  -38.44548 -38.44521 -38.44314 -38.44229 -38.44160
 Alpha  occ. eigenvalues --  -38.43964 -38.43837  -2.20434  -2.20336  -2.20137
 Alpha  occ. eigenvalues --   -2.20072  -2.19962  -2.19758  -2.19704  -1.14167
 Alpha  occ. eigenvalues --   -1.14084  -1.14043  -1.14003  -1.13981  -1.13963
 Alpha  occ. eigenvalues --   -1.13815  -1.13792  -1.13786  -1.13743  -1.13737
 Alpha  occ. eigenvalues --   -1.13669  -1.13628  -1.13614  -1.13586  -1.13477
 Alpha  occ. eigenvalues --   -1.13412  -1.13398  -1.13388  -1.13378  -1.13309
 Alpha  occ. eigenvalues --   -0.18089  -0.13858  -0.11067  -0.10942
 Alpha virt. eigenvalues --   -0.07375  -0.05716  -0.04349  -0.03344  -0.02918
 Alpha virt. eigenvalues --   -0.02381  -0.02284  -0.01506  -0.01202  -0.00520
 Alpha virt. eigenvalues --   -0.00305   0.00138   0.00276   0.00542   0.00573

  Beta  occ. eigenvalues --  -38.44503 -38.44489 -38.44245 -38.44225 -38.44114
  Beta  occ. eigenvalues --  -38.44024 -38.43812  -2.20354  -2.20279  -2.20065
  Beta  occ. eigenvalues --   -2.20010  -2.19878  -2.19817  -2.19712  -1.14094
  Beta  occ. eigenvalues --   -1.14026  -1.13989  -1.13960  -1.13931  -1.13924
  Beta  occ. eigenvalues --   -1.13784  -1.13730  -1.13712  -1.13703  -1.13667
  Beta  occ. eigenvalues --   -1.13643  -1.13569  -1.13544  -1.13530  -1.13477
  Beta  occ. eigenvalues --   -1.13465  -1.13453  -1.13432  -1.13365  -1.13297
  Beta  occ. eigenvalues --   -0.17368  -0.13861  -0.10972
  Beta virt. eigenvalues --   -0.07109  -0.06966  -0.05500  -0.04069  -0.02981
  Beta virt. eigenvalues --   -0.02649  -0.01701  -0.01609  -0.01354  -0.00940
  Beta virt. eigenvalues --   -0.00440  -0.00270   0.00214   0.00371   0.00576

 Mulliken charges and spin densities:
               1          2
     1  Na   0.658302  -0.162990
     2  Na   0.084064   0.081956
     3  Na   0.291459   0.103774
     4  Na  -1.480692   0.298723
     5  Na   0.313492   0.061870
     6  Na   0.111675   0.312777
     7  Na   0.021700   0.303889
 Sum of Mulliken charges =  -0.00000   1.00000

 Dipole moment (field-independent basis, Debye):
    X=              0.5933    Y=             -1.1550    Z=             -0.0512  Tot=              1.2995
 Quadrupole moment (field-independent basis, Debye-Ang):
   XX=            -56.6687   YY=            -69.5992   ZZ=            -72.3199
   XY=              3.5462   XZ=             -1.8255   YZ=              0.7353

 Normal termination of Gaussian 16 at Fri Dec  8 03:02:02 2023.
