 Gaussian 16, Revision B.01,
 Gaussian 16:  ES64L-G16RevB.01 20-Dec-2017

 -------------------------
 #P B3LYP/6-311+g(d) force
 -------------------------

 -----
 DPGEN
 -----
 Symbolic Z-matrix:
 Charge =  0 Multiplicity = 2

                         Standard orientation:
 ---------------------------------------------------------------------
 Center     Atomic      Atomic             Coordinates (Angstroms)
 Number     Number       Type             X           Y           Z
 ---------------------------------------------------------------------
      1         11           0       -0.712231    3.022633    0.163248
      2         11           0       -3.597988    0.558137    0.332691
      3         11           0       -0.490756   -0.255949   -1.404085
      4         11           0       -2.597971   -2.486030   -0.287193
      5         11           0        3.805411   -1.514260    0.105387
      6         11           0        0.637151   -0.578714    1.614867
      7         11           0        2.956384    1.254184   -0.524915
 ---------------------------------------------------------------------

 SCF Done:  E(UB3LYP) =  -1136.11711131     A.U. after   27 cycles

 The electronic state is 2-A.
 Alpha  occ. eigenvalues --  -38.45175 -38.44257 -38.44236 -38.44228 -38.43945
 Alpha  occ. eigenvalues --  -38.43510 -38.42713  -2.21066  -2.20130  -2.20108
 Alpha  occ. eigenvalues --   -2.20064  -2.19802  -2.19352  -2.18505  -1.14781
 Alpha  occ. eigenvalues --   -1.14713  -1.14688  -1.13863  -1.13814  -1.13789
 Alpha  occ. eigenvalues --   -1.13754  -1.13739  -1.13731  -1.13713  -1.13710
 Alpha  occ. eigenvalues --   -1.13684  -1.13449  -1.13442  -1.13411  -1.13037
 Alpha  occ. eigenvalues --   -1.13012  -1.12984  -1.12188  -1.12164  -1.12148
 Alpha  occ. eigenvalues --   -0.17923  -0.14367  -0.11514  -0.09880
 Alpha virt. eigenvalues --   -0.07257  -0.05556  -0.04446  -0.03352  -0.03040
 Alpha virt. eigenvalues --   -0.02128  -0.01969  -0.01483  -0.00943  -0.00491
 Alpha virt. eigenvalues --   -0.00312   0.00022   0.00425   0.00546   0.00659

  Beta  occ. eigenvalues --  -38.45166 -38.44226 -38.44172 -38.44165 -38.43908
  Beta  occ. eigenvalues --  -38.43508 -38.42714  -2.21054  -2.20076  -2.19977
  Beta  occ. eigenvalues --   -2.19960  -2.19738  -2.19351  -2.18509  -1.14752
  Beta  occ. eigenvalues --   -1.14708  -1.14682  -1.13827  -1.13781  -1.13697
  Beta  occ. eigenvalues --   -1.13679  -1.13665  -1.13650  -1.13643  -1.13622
  Beta  occ. eigenvalues --   -1.13606  -1.13408  -1.13394  -1.13352  -1.13041
  Beta  occ. eigenvalues --   -1.13012  -1.12956  -1.12191  -1.12168  -1.12143
  Beta  occ. eigenvalues --   -0.17375  -0.13745  -0.11377
  Beta virt. eigenvalues --   -0.07006  -0.06337  -0.05375  -0.04302  -0.03111
  Beta virt. eigenvalues --   -0.02431  -0.01981  -0.01618  -0.01184  -0.00755
  Beta virt. eigenvalues --   -0.00227  -0.00118   0.00269   0.00606   0.00674

 Mulliken charges and spin densities:
               1          2
     1  Na  -0.217582  -0.072550
     2  Na   0.051536   0.349771
     3  Na  -0.369359   0.129209
     4  Na   0.406472  -0.068717
     5  Na   0.246631   0.116167
     6  Na  -0.189653   0.179829
     7  Na   0.071955   0.366290
 Sum of Mulliken charges =  -0.00000   1.00000

 Dipole moment (field-independent basis, Debye):
    X=              0.0617    Y=             -0.6752    Z=              0.4662  Tot=              0.8228
 Quadrupole moment (field-independent basis, Debye-Ang):
   XX=            -74.7744   YY=            -67.8954   ZZ=            -63.8966
   XY=              0.0596   XZ=             -1.4680   YZ=              0.7539

 Normal termination of Gaussian 16 at Fri Dec  8 04:41:42 2023.
