 Gaussian 16, Revision B.01,
 Gaussian 16:  ES64L-G16RevB.01 20-Dec-2017

 -------------------------
 #P B3LYP/6-311+g(d) force
 -------------------------

 -----
 DPGEN
 -----
 Symbolic Z-matrix:
 Charge =  0 Multiplicity = 2

                         Standard orientation:
 ---------------------------------------------------------------------
 Center     Atomic      Atomic             Coordinates (Angstroms)
 Number     Number       Type             X           Y           Z
 ---------------------------------------------------------------------
      1         11           0       -3.481306   -2.115297   -0.789302
      2         11           0       -0.423292   -1.264063   -0.084498
      3         11           0        0.362170    0.698835    1.735223
      4         11           0       -2.741252    1.242972    0.732363
      5         11           0        2.465462    0.723629   -0.797082
      6         11           0        3.553418   -2.042800    0.234663
      7         11           0        0.264799    2.756724   -1.031368
 ---------------------------------------------------------------------

 SCF Done:  E(UB3LYP) =  -1136.11739734     A.U. after   22 cycles

 The electronic state is 2-A.
 Alpha  occ. eigenvalues --  -38.44914 -38.44563 -38.44103 -38.44054 -38.43444
 Alpha  occ. eigenvalues --  -38.43443 -38.43101  -2.20747  -2.20355  -2.20080
 Alpha  occ. eigenvalues --   -2.20032  -2.19421  -2.19263  -2.18996  -1.14442
 Alpha  occ. eigenvalues --   -1.14419  -1.14353  -1.14087  -1.14050  -1.14014
 Alpha  occ. eigenvalues --   -1.13979  -1.13729  -1.13675  -1.13626  -1.13603
 Alpha  occ. eigenvalues --   -1.13584  -1.13137  -1.13081  -1.13057  -1.12926
 Alpha  occ. eigenvalues --   -1.12910  -1.12881  -1.12663  -1.12639  -1.12600
 Alpha  occ. eigenvalues --   -0.18559  -0.13807  -0.12193  -0.10565
 Alpha virt. eigenvalues --   -0.06717  -0.05391  -0.04265  -0.03341  -0.02691
 Alpha virt. eigenvalues --   -0.02450  -0.01612  -0.01531  -0.00736  -0.00397
 Alpha virt. eigenvalues --    0.00026   0.00128   0.00425   0.00615   0.00702

  Beta  occ. eigenvalues --  -38.44899 -38.44568 -38.44088 -38.43982 -38.43410
  Beta  occ. eigenvalues --  -38.43403 -38.43061  -2.20724  -2.20364  -2.20036
  Beta  occ. eigenvalues --   -2.19924  -2.19364  -2.19186  -2.18924  -1.14411
  Beta  occ. eigenvalues --   -1.14400  -1.14336  -1.14056  -1.14019  -1.14012
  Beta  occ. eigenvalues --   -1.13982  -1.13703  -1.13618  -1.13563  -1.13537
  Beta  occ. eigenvalues --   -1.13505  -1.13099  -1.13041  -1.12994  -1.12873
  Beta  occ. eigenvalues --   -1.12855  -1.12834  -1.12611  -1.12592  -1.12539
  Beta  occ. eigenvalues --   -0.17965  -0.13505  -0.11777
  Beta virt. eigenvalues --   -0.06903  -0.06631  -0.05077  -0.04055  -0.02763
  Beta virt. eigenvalues --   -0.02426  -0.02179  -0.01380  -0.00961  -0.00567
  Beta virt. eigenvalues --   -0.00230   0.00167   0.00195   0.00579   0.00669

 Mulliken charges and spin densities:
               1          2
     1  Na   0.782977   0.255107
     2  Na  -2.156152   0.120971
     3  Na   0.171571   0.295972
     4  Na   0.682499   0.146783
     5  Na  -0.245716   0.119832
     6  Na   0.930093  -0.075173
     7  Na  -0.165272   0.136509
 Sum of Mulliken charges =  -0.00000   1.00000

 Dipole moment (field-independent basis, Debye):
    X=             -0.0655    Y=              0.2109    Z=              0.6125  Tot=              0.6511
 Quadrupole moment (field-independent basis, Debye-Ang):
   XX=            -54.3755   YY=            -66.9627   ZZ=            -72.7246
   XY=             -8.4747   XZ=              0.9183   YZ=              0.7418

 Normal termination of Gaussian 16 at Wed Nov 29 17:01:42 2023.
