 Gaussian 16, Revision B.01,
 Gaussian 16:  ES64L-G16RevB.01 20-Dec-2017

 -------------------------
 #P B3LYP/6-311+g(d) force
 -------------------------

 -----
 DPGEN
 -----
 Symbolic Z-matrix:
 Charge =  0 Multiplicity = 2

                         Standard orientation:
 ---------------------------------------------------------------------
 Center     Atomic      Atomic             Coordinates (Angstroms)
 Number     Number       Type             X           Y           Z
 ---------------------------------------------------------------------
      1         11           0       -0.919163   -2.359087    0.226972
      2         11           0        2.536027   -1.811700   -0.576401
      3         11           0       -3.315781    0.083107    0.176225
      4         11           0        2.687395    1.719928    0.508408
      5         11           0       -0.728298    2.671240   -0.449680
      6         11           0        0.022197   -0.199167    1.947796
      7         11           0       -0.282376   -0.104320   -1.833320
 ---------------------------------------------------------------------

 SCF Done:  E(UB3LYP) =  -1136.13296708     A.U. after   19 cycles

 The electronic state is 2-A.
 Alpha  occ. eigenvalues --  -38.44323 -38.43922 -38.43852 -38.43817 -38.43607
 Alpha  occ. eigenvalues --  -38.43166 -38.43093  -2.20140  -2.19856  -2.19649
 Alpha  occ. eigenvalues --   -2.19633  -2.19574  -2.19054  -2.19016  -1.13815
 Alpha  occ. eigenvalues --   -1.13796  -1.13783  -1.13601  -1.13489  -1.13449
 Alpha  occ. eigenvalues --   -1.13325  -1.13320  -1.13305  -1.13291  -1.13284
 Alpha  occ. eigenvalues --   -1.13267  -1.13261  -1.13250  -1.13166  -1.12760
 Alpha  occ. eigenvalues --   -1.12728  -1.12717  -1.12673  -1.12624  -1.12622
 Alpha  occ. eigenvalues --   -0.18740  -0.12964  -0.12269  -0.11146
 Alpha virt. eigenvalues --   -0.05839  -0.05056  -0.04220  -0.03316  -0.03012
 Alpha virt. eigenvalues --   -0.02775  -0.01788  -0.01006  -0.00234  -0.00046
 Alpha virt. eigenvalues --    0.00030   0.00333   0.00777   0.00875   0.00909

  Beta  occ. eigenvalues --  -38.44321 -38.43844 -38.43838 -38.43805 -38.43528
  Beta  occ. eigenvalues --  -38.43158 -38.43079  -2.20140  -2.19703  -2.19636
  Beta  occ. eigenvalues --   -2.19614  -2.19431  -2.19035  -2.19004  -1.13811
  Beta  occ. eigenvalues --   -1.13793  -1.13774  -1.13499  -1.13383  -1.13344
  Beta  occ. eigenvalues --   -1.13302  -1.13296  -1.13284  -1.13283  -1.13269
  Beta  occ. eigenvalues --   -1.13253  -1.13173  -1.13150  -1.13064  -1.12742
  Beta  occ. eigenvalues --   -1.12702  -1.12677  -1.12655  -1.12615  -1.12607
  Beta  occ. eigenvalues --   -0.17995  -0.12727  -0.11972
  Beta virt. eigenvalues --   -0.07246  -0.05777  -0.04995  -0.04184  -0.02603
  Beta virt. eigenvalues --   -0.02225  -0.01743  -0.01693  -0.00915  -0.00201
  Beta virt. eigenvalues --   -0.00066   0.00096   0.00357   0.00854   0.00888

 Mulliken charges and spin densities:
               1          2
     1  Na   0.498622   0.028106
     2  Na   0.039562   0.004979
     3  Na   0.022831  -0.100667
     4  Na  -0.084483  -0.010252
     5  Na   0.004134  -0.064457
     6  Na  -0.330799   0.589672
     7  Na  -0.149867   0.552619
 Sum of Mulliken charges =  -0.00000   1.00000

 Dipole moment (field-independent basis, Debye):
    X=             -0.1189    Y=              0.0246    Z=              0.0827  Tot=              0.1469
 Quadrupole moment (field-independent basis, Debye-Ang):
   XX=            -53.8740   YY=            -67.3999   ZZ=            -72.3452
   XY=             -0.7016   XZ=             -0.8682   YZ=              1.0261

 Normal termination of Gaussian 16 at Thu Dec  7 11:33:39 2023.
