 Gaussian 16, Revision B.01,
 Gaussian 16:  ES64L-G16RevB.01 20-Dec-2017

 -------------------------
 #P B3LYP/6-311+g(d) force
 -------------------------

 -----
 DPGEN
 -----
 Symbolic Z-matrix:
 Charge =  0 Multiplicity = 2

                         Standard orientation:
 ---------------------------------------------------------------------
 Center     Atomic      Atomic             Coordinates (Angstroms)
 Number     Number       Type             X           Y           Z
 ---------------------------------------------------------------------
      1         11           0        3.130528   -1.015323   -0.113148
      2         11           0       -3.190794   -1.000187    0.044177
      3         11           0       -1.531295    2.434143    0.217397
      4         11           0        1.946921    1.980164   -0.269269
      5         11           0        0.183262    0.083291    1.867453
      6         11           0       -0.574422    0.110004   -1.757742
      7         11           0        0.035800   -2.592093    0.011133
 ---------------------------------------------------------------------

 SCF Done:  E(UB3LYP) =  -1136.13684793     A.U. after   19 cycles

 The electronic state is 2-A.
 Alpha  occ. eigenvalues --  -38.44449 -38.44046 -38.43391 -38.43310 -38.43308
 Alpha  occ. eigenvalues --  -38.43296 -38.43098  -2.20259  -2.19880  -2.19283
 Alpha  occ. eigenvalues --   -2.19269  -2.19264  -2.19188  -2.18988  -1.13937
 Alpha  occ. eigenvalues --   -1.13908  -1.13903  -1.13564  -1.13538  -1.13524
 Alpha  occ. eigenvalues --   -1.13017  -1.12973  -1.12959  -1.12956  -1.12932
 Alpha  occ. eigenvalues --   -1.12924  -1.12909  -1.12872  -1.12869  -1.12832
 Alpha  occ. eigenvalues --   -1.12822  -1.12799  -1.12676  -1.12660  -1.12587
 Alpha  occ. eigenvalues --   -0.18919  -0.13236  -0.12370  -0.10714
 Alpha virt. eigenvalues --   -0.06012  -0.05134  -0.04251  -0.03243  -0.02826
 Alpha virt. eigenvalues --   -0.02436  -0.01844  -0.01086  -0.00202  -0.00126
 Alpha virt. eigenvalues --   -0.00024   0.00333   0.00784   0.00884   0.00926

  Beta  occ. eigenvalues --  -38.44448 -38.44045 -38.43382 -38.43300 -38.43225
  Beta  occ. eigenvalues --  -38.43222 -38.43089  -2.20260  -2.19881  -2.19270
  Beta  occ. eigenvalues --   -2.19177  -2.19138  -2.19105  -2.18975  -1.13924
  Beta  occ. eigenvalues --   -1.13907  -1.13904  -1.13567  -1.13528  -1.13519
  Beta  occ. eigenvalues --   -1.12982  -1.12935  -1.12916  -1.12903  -1.12875
  Beta  occ. eigenvalues --   -1.12848  -1.12831  -1.12800  -1.12779  -1.12775
  Beta  occ. eigenvalues --   -1.12770  -1.12748  -1.12661  -1.12615  -1.12584
  Beta  occ. eigenvalues --   -0.18180  -0.13021  -0.12100
  Beta virt. eigenvalues --   -0.06798  -0.05944  -0.05135  -0.04240  -0.02486
  Beta virt. eigenvalues --   -0.02010  -0.01765  -0.01381  -0.01035  -0.00250
  Beta virt. eigenvalues --   -0.00157   0.00115   0.00356   0.00835   0.00879

 Mulliken charges and spin densities:
               1          2
     1  Na  -0.046834  -0.053172
     2  Na   0.182529  -0.120032
     3  Na   0.223097  -0.103772
     4  Na   0.281527  -0.009554
     5  Na  -0.429767   0.725944
     6  Na  -0.367163   0.676881
     7  Na   0.156611  -0.116295
 Sum of Mulliken charges =  -0.00000   1.00000

 Dipole moment (field-independent basis, Debye):
    X=             -0.3052    Y=             -0.0991    Z=              0.0563  Tot=              0.3258
 Quadrupole moment (field-independent basis, Debye-Ang):
   XX=            -52.4248   YY=            -65.9640   ZZ=            -74.3508
   XY=             -0.2108   XZ=             -1.6090   YZ=              0.0530

 Normal termination of Gaussian 16 at Thu Dec  7 01:59:23 2023.
