 Gaussian 16, Revision B.01,
 Gaussian 16:  ES64L-G16RevB.01 20-Dec-2017

 -------------------------
 #P B3LYP/6-311+g(d) force
 -------------------------

 -----
 DPGEN
 -----
 Symbolic Z-matrix:
 Charge =  0 Multiplicity = 2

                         Standard orientation:
 ---------------------------------------------------------------------
 Center     Atomic      Atomic             Coordinates (Angstroms)
 Number     Number       Type             X           Y           Z
 ---------------------------------------------------------------------
      1         11           0       -1.460127   -2.363180   -0.018864
      2         11           0       -3.136095    0.475260   -0.261131
      3         11           0        2.842113    1.188721    0.019750
      4         11           0       -0.276246    2.768312   -0.199662
      5         11           0       -0.141693    0.037875   -1.402552
      6         11           0        2.261326   -2.023552   -0.421262
      7         11           0       -0.089278   -0.083437    2.283720
 ---------------------------------------------------------------------

 SCF Done:  E(UB3LYP) =  -1136.13462711     A.U. after   20 cycles

 The electronic state is 2-A.
 Alpha  occ. eigenvalues --  -38.44140 -38.43915 -38.43913 -38.43513 -38.43308
 Alpha  occ. eigenvalues --  -38.43091 -38.43014  -2.19997  -2.19777  -2.19759
 Alpha  occ. eigenvalues --   -2.19361  -2.19208  -2.19103  -2.18974  -1.13690
 Alpha  occ. eigenvalues --   -1.13650  -1.13634  -1.13440  -1.13432  -1.13424
 Alpha  occ. eigenvalues --   -1.13407  -1.13397  -1.13392  -1.13055  -1.13014
 Alpha  occ. eigenvalues --   -1.13000  -1.12976  -1.12879  -1.12858  -1.12820
 Alpha  occ. eigenvalues --   -1.12745  -1.12704  -1.12620  -1.12602  -1.12578
 Alpha  occ. eigenvalues --   -0.18891  -0.13253  -0.12304  -0.10963
 Alpha virt. eigenvalues --   -0.05718  -0.05100  -0.04369  -0.03214  -0.02840
 Alpha virt. eigenvalues --   -0.02726  -0.01653  -0.00992  -0.00226  -0.00211
 Alpha virt. eigenvalues --   -0.00026   0.00339   0.00790   0.00906   0.00918

  Beta  occ. eigenvalues --  -38.44134 -38.43911 -38.43801 -38.43505 -38.43301
  Beta  occ. eigenvalues --  -38.43086 -38.42965  -2.19989  -2.19759  -2.19567
  Beta  occ. eigenvalues --   -2.19350  -2.19199  -2.19016  -2.18966  -1.13680
  Beta  occ. eigenvalues --   -1.13632  -1.13628  -1.13437  -1.13414  -1.13400
  Beta  occ. eigenvalues --   -1.13292  -1.13250  -1.13245  -1.13039  -1.13001
  Beta  occ. eigenvalues --   -1.12987  -1.12959  -1.12843  -1.12821  -1.12817
  Beta  occ. eigenvalues --   -1.12689  -1.12643  -1.12597  -1.12581  -1.12564
  Beta  occ. eigenvalues --   -0.18172  -0.13030  -0.12064
  Beta virt. eigenvalues --   -0.06943  -0.05677  -0.05091  -0.04348  -0.02440
  Beta virt. eigenvalues --   -0.01985  -0.01650  -0.01565  -0.00935  -0.00258
  Beta virt. eigenvalues --   -0.00255   0.00136   0.00375   0.00861   0.00904

 Mulliken charges and spin densities:
               1          2
     1  Na   0.412407   0.097864
     2  Na   0.346892   0.034511
     3  Na   0.200314   0.044386
     4  Na   0.316393   0.048386
     5  Na  -0.810140   0.009593
     6  Na   0.240640   0.039875
     7  Na  -0.706506   0.725385
 Sum of Mulliken charges =  -0.00000   1.00000

 Dipole moment (field-independent basis, Debye):
    X=             -0.0939    Y=              0.0339    Z=              0.3366  Tot=              0.3511
 Quadrupole moment (field-independent basis, Debye-Ang):
   XX=            -54.8842   YY=            -64.9034   ZZ=            -73.7136
   XY=             -0.1537   XZ=              0.1537   YZ=              0.4803

 Normal termination of Gaussian 16 at Fri Dec  8 07:43:34 2023.
