 Gaussian 16, Revision B.01,
 Gaussian 16:  ES64L-G16RevB.01 20-Dec-2017

 -------------------------
 #P B3LYP/6-311+g(d) force
 -------------------------

 -----
 DPGEN
 -----
 Symbolic Z-matrix:
 Charge =  0 Multiplicity = 2

                         Standard orientation:
 ---------------------------------------------------------------------
 Center     Atomic      Atomic             Coordinates (Angstroms)
 Number     Number       Type             X           Y           Z
 ---------------------------------------------------------------------
      1         11           0       -1.068638   -2.653323   -0.572335
      2         11           0        0.450442    0.443719   -1.550336
      3         11           0        2.637099   -1.512198   -0.321215
      4         11           0        2.506313    1.821172    0.279135
      5         11           0       -1.669158    2.686468   -0.264974
      6         11           0       -3.033119   -0.315047    0.198836
      7         11           0        0.177061   -0.470791    2.230889
 ---------------------------------------------------------------------

 SCF Done:  E(UB3LYP) =  -1136.13309157     A.U. after   19 cycles

 The electronic state is 2-A.
 Alpha  occ. eigenvalues --  -38.44230 -38.44050 -38.44002 -38.43934 -38.43405
 Alpha  occ. eigenvalues --  -38.43276 -38.43253  -2.20082  -2.19912  -2.19846
 Alpha  occ. eigenvalues --   -2.19789  -2.19240  -2.19222  -2.19126  -1.13800
 Alpha  occ. eigenvalues --   -1.13735  -1.13712  -1.13613  -1.13567  -1.13530
 Alpha  occ. eigenvalues --   -1.13501  -1.13479  -1.13476  -1.13466  -1.13444
 Alpha  occ. eigenvalues --   -1.13437  -1.12938  -1.12918  -1.12887  -1.12879
 Alpha  occ. eigenvalues --   -1.12865  -1.12832  -1.12802  -1.12777  -1.12762
 Alpha  occ. eigenvalues --   -0.18495  -0.13375  -0.12100  -0.10921
 Alpha virt. eigenvalues --   -0.05692  -0.05526  -0.04420  -0.03461  -0.02882
 Alpha virt. eigenvalues --   -0.02636  -0.01503  -0.01147  -0.00466  -0.00259
 Alpha virt. eigenvalues --   -0.00040   0.00360   0.00747   0.00823   0.00910

  Beta  occ. eigenvalues --  -38.44223 -38.44041 -38.43933 -38.43901 -38.43405
  Beta  occ. eigenvalues --  -38.43266 -38.43201  -2.20072  -2.19898  -2.19789
  Beta  occ. eigenvalues --   -2.19658  -2.19224  -2.19146  -2.19111  -1.13792
  Beta  occ. eigenvalues --   -1.13710  -1.13706  -1.13595  -1.13539  -1.13521
  Beta  occ. eigenvalues --   -1.13480  -1.13449  -1.13428  -1.13374  -1.13348
  Beta  occ. eigenvalues --   -1.13324  -1.12916  -1.12877  -1.12867  -1.12853
  Beta  occ. eigenvalues --   -1.12823  -1.12788  -1.12777  -1.12753  -1.12746
  Beta  occ. eigenvalues --   -0.17775  -0.13191  -0.11893
  Beta virt. eigenvalues --   -0.06960  -0.05651  -0.05449  -0.04332  -0.02690
  Beta virt. eigenvalues --   -0.02143  -0.01635  -0.01414  -0.01066  -0.00474
  Beta virt. eigenvalues --   -0.00295   0.00130   0.00401   0.00822   0.00845

 Mulliken charges and spin densities:
               1          2
     1  Na   0.011476   0.038103
     2  Na  -0.020275   0.208404
     3  Na   0.300108   0.028525
     4  Na   0.096830   0.073593
     5  Na   0.063035  -0.033823
     6  Na   0.059575   0.029408
     7  Na  -0.510750   0.655791
 Sum of Mulliken charges =  -0.00000   1.00000

 Dipole moment (field-independent basis, Debye):
    X=              0.4778    Y=              0.0244    Z=              0.2854  Tot=              0.5571
 Quadrupole moment (field-independent basis, Debye-Ang):
   XX=            -56.7966   YY=            -64.5004   ZZ=            -73.5008
   XY=              0.2114   XZ=              0.1287   YZ=              1.9959

 Normal termination of Gaussian 16 at Thu Dec  7 09:16:06 2023.
