 Gaussian 16, Revision B.01,
 Gaussian 16:  ES64L-G16RevB.01 20-Dec-2017

 -------------------------
 #P B3LYP/6-311+g(d) force
 -------------------------

 -----
 DPGEN
 -----
 Symbolic Z-matrix:
 Charge =  0 Multiplicity = 2

                         Standard orientation:
 ---------------------------------------------------------------------
 Center     Atomic      Atomic             Coordinates (Angstroms)
 Number     Number       Type             X           Y           Z
 ---------------------------------------------------------------------
      1         11           0        2.527107   -2.181495    0.036307
      2         11           0       -3.036116   -1.964940   -0.296395
      3         11           0        0.337832    2.437040   -0.518656
      4         11           0        3.157386    0.972599    0.106001
      5         11           0       -0.397290   -0.083879    2.200672
      6         11           0        0.301126   -0.629435   -1.470490
      7         11           0       -2.890045    1.450109   -0.057438
 ---------------------------------------------------------------------

 SCF Done:  E(UB3LYP) =  -1136.12422471     A.U. after   23 cycles

 The electronic state is 2-A.
 Alpha  occ. eigenvalues --  -38.44856 -38.44607 -38.44367 -38.44012 -38.43903
 Alpha  occ. eigenvalues --  -38.43768 -38.42362  -2.20708  -2.20427  -2.20144
 Alpha  occ. eigenvalues --   -2.19844  -2.19754  -2.19701  -2.18266  -1.14379
 Alpha  occ. eigenvalues --   -1.14366  -1.14363  -1.14101  -1.14089  -1.14075
 Alpha  occ. eigenvalues --   -1.13810  -1.13804  -1.13785  -1.13514  -1.13504
 Alpha  occ. eigenvalues --   -1.13468  -1.13457  -1.13410  -1.13396  -1.13380
 Alpha  occ. eigenvalues --   -1.13337  -1.13284  -1.11967  -1.11920  -1.11899
 Alpha  occ. eigenvalues --   -0.18344  -0.13845  -0.11601  -0.10600
 Alpha virt. eigenvalues --   -0.06561  -0.06080  -0.03776  -0.03583  -0.02566
 Alpha virt. eigenvalues --   -0.02412  -0.02243  -0.01523  -0.00769  -0.00138
 Alpha virt. eigenvalues --   -0.00047   0.00244   0.00589   0.00661   0.00716

  Beta  occ. eigenvalues --  -38.44855 -38.44605 -38.44364 -38.43906 -38.43902
  Beta  occ. eigenvalues --  -38.43720 -38.42349  -2.20708  -2.20426  -2.20139
  Beta  occ. eigenvalues --   -2.19755  -2.19647  -2.19615  -2.18246  -1.14380
  Beta  occ. eigenvalues --   -1.14368  -1.14347  -1.14091  -1.14080  -1.14075
  Beta  occ. eigenvalues --   -1.13803  -1.13793  -1.13782  -1.13492  -1.13410
  Beta  occ. eigenvalues --   -1.13381  -1.13371  -1.13330  -1.13327  -1.13319
  Beta  occ. eigenvalues --   -1.13276  -1.13230  -1.11953  -1.11906  -1.11866
  Beta  occ. eigenvalues --   -0.17651  -0.13675  -0.11402
  Beta virt. eigenvalues --   -0.06687  -0.06437  -0.06034  -0.03717  -0.02882
  Beta virt. eigenvalues --   -0.02139  -0.01802  -0.01552  -0.01309  -0.00817
  Beta virt. eigenvalues --   -0.00087   0.00106   0.00285   0.00672   0.00691

 Mulliken charges and spin densities:
               1          2
     1  Na   0.354104   0.120871
     2  Na   0.123026   0.049757
     3  Na   0.017356   0.099707
     4  Na   0.089221   0.041478
     5  Na  -0.492632   0.604908
     6  Na  -0.332344   0.024948
     7  Na   0.241270   0.058331
 Sum of Mulliken charges =  -0.00000   1.00000

 Dipole moment (field-independent basis, Debye):
    X=             -0.0369    Y=             -0.1676    Z=              0.2403  Tot=              0.2953
 Quadrupole moment (field-independent basis, Debye-Ang):
   XX=            -49.6819   YY=            -68.6228   ZZ=            -75.6174
   XY=              0.0145   XZ=              1.4997   YZ=             -0.3696

 Normal termination of Gaussian 16 at Thu Dec  7 01:49:21 2023.
