 Gaussian 16, Revision B.01,
 Gaussian 16:  ES64L-G16RevB.01 20-Dec-2017

 -------------------------
 #P B3LYP/6-311+g(d) force
 -------------------------

 -----
 DPGEN
 -----
 Symbolic Z-matrix:
 Charge =  0 Multiplicity = 2

                         Standard orientation:
 ---------------------------------------------------------------------
 Center     Atomic      Atomic             Coordinates (Angstroms)
 Number     Number       Type             X           Y           Z
 ---------------------------------------------------------------------
      1         11           0       -0.267187   -0.205425   -1.738711
      2         11           0        0.314929   -2.970223   -0.561455
      3         11           0       -1.797804    2.240935    0.235557
      4         11           0        0.233583    0.035425    1.971555
      5         11           0        1.374018    3.059214   -0.613756
      6         11           0        3.361970   -0.950593    0.424542
      7         11           0       -3.219509   -1.209333    0.282267
 ---------------------------------------------------------------------

 SCF Done:  E(UB3LYP) =  -1136.13164626     A.U. after   20 cycles

 The electronic state is 2-A.
 Alpha  occ. eigenvalues --  -38.44172 -38.43973 -38.43964 -38.43910 -38.43866
 Alpha  occ. eigenvalues --  -38.43653 -38.43560  -2.19935  -2.19815  -2.19750
 Alpha  occ. eigenvalues --   -2.19745  -2.19656  -2.19567  -2.19418  -1.13609
 Alpha  occ. eigenvalues --   -1.13592  -1.13574  -1.13516  -1.13493  -1.13455
 Alpha  occ. eigenvalues --   -1.13430  -1.13425  -1.13402  -1.13400  -1.13391
 Alpha  occ. eigenvalues --   -1.13342  -1.13324  -1.13315  -1.13299  -1.13238
 Alpha  occ. eigenvalues --   -1.13205  -1.13164  -1.13102  -1.13091  -1.13025
 Alpha  occ. eigenvalues --   -0.17939  -0.12771  -0.12239  -0.10742
 Alpha virt. eigenvalues --   -0.05741  -0.05325  -0.04959  -0.03131  -0.02994
 Alpha virt. eigenvalues --   -0.02500  -0.01703  -0.01406  -0.00671  -0.00379
 Alpha virt. eigenvalues --   -0.00060   0.00311   0.00734   0.00776   0.00814

  Beta  occ. eigenvalues --  -38.44165 -38.43972 -38.43892 -38.43886 -38.43852
  Beta  occ. eigenvalues --  -38.43588 -38.43553  -2.19923  -2.19750  -2.19716
  Beta  occ. eigenvalues --   -2.19670  -2.19631  -2.19448  -2.19409  -1.13587
  Beta  occ. eigenvalues --   -1.13585  -1.13568  -1.13475  -1.13426  -1.13403
  Beta  occ. eigenvalues --   -1.13393  -1.13391  -1.13370  -1.13355  -1.13324
  Beta  occ. eigenvalues --   -1.13316  -1.13305  -1.13292  -1.13281  -1.13160
  Beta  occ. eigenvalues --   -1.13132  -1.13087  -1.13080  -1.13069  -1.13010
  Beta  occ. eigenvalues --   -0.17250  -0.12482  -0.11997
  Beta virt. eigenvalues --   -0.07016  -0.05575  -0.05230  -0.04880  -0.02439
  Beta virt. eigenvalues --   -0.02365  -0.01620  -0.01538  -0.01278  -0.00655
  Beta virt. eigenvalues --   -0.00405   0.00069   0.00351   0.00773   0.00818

 Mulliken charges and spin densities:
               1          2
     1  Na   0.137033   0.412784
     2  Na   0.092090  -0.049642
     3  Na   0.156108   0.026656
     4  Na  -0.155390   0.630861
     5  Na  -0.029238   0.046222
     6  Na  -0.083326  -0.021619
     7  Na  -0.117278  -0.045263
 Sum of Mulliken charges =  -0.00000   1.00000

 Dipole moment (field-independent basis, Debye):
    X=              0.1207    Y=             -0.1304    Z=              0.1017  Tot=              0.2047
 Quadrupole moment (field-independent basis, Debye-Ang):
   XX=            -57.5634   YY=            -61.7111   ZZ=            -74.3439
   XY=              1.4825   XZ=             -1.5940   YZ=             -0.7184

 Normal termination of Gaussian 16 at Fri Dec  8 05:50:34 2023.
