 Gaussian 16, Revision B.01,
 Gaussian 16:  ES64L-G16RevB.01 20-Dec-2017

 -------------------------
 #P B3LYP/6-311+g(d) force
 -------------------------

 -----
 DPGEN
 -----
 Symbolic Z-matrix:
 Charge =  0 Multiplicity = 2

                         Standard orientation:
 ---------------------------------------------------------------------
 Center     Atomic      Atomic             Coordinates (Angstroms)
 Number     Number       Type             X           Y           Z
 ---------------------------------------------------------------------
      1         11           0       -0.056168    0.407390   -1.327240
      2         11           0       -0.070732   -0.272438    2.157651
      3         11           0        0.590899    2.947935   -0.216457
      4         11           0        1.510745   -2.403652   -0.074071
      5         11           0       -2.762498    1.259528    0.244706
      6         11           0       -2.379211   -2.075741   -0.627214
      7         11           0        3.166965    0.136977   -0.157375
 ---------------------------------------------------------------------

 SCF Done:  E(UB3LYP) =  -1136.13207798     A.U. after   19 cycles

 The electronic state is 2-A.
 Alpha  occ. eigenvalues --  -38.44167 -38.44156 -38.43697 -38.43678 -38.43434
 Alpha  occ. eigenvalues --  -38.43413 -38.42957  -2.20027  -2.20005  -2.19554
 Alpha  occ. eigenvalues --   -2.19515  -2.19321  -2.19284  -2.19023  -1.13739
 Alpha  occ. eigenvalues --   -1.13697  -1.13680  -1.13673  -1.13660  -1.13627
 Alpha  occ. eigenvalues --   -1.13223  -1.13193  -1.13180  -1.13170  -1.13160
 Alpha  occ. eigenvalues --   -1.13155  -1.13135  -1.13000  -1.12973  -1.12954
 Alpha  occ. eigenvalues --   -1.12920  -1.12884  -1.12690  -1.12638  -1.12615
 Alpha  occ. eigenvalues --   -0.18723  -0.13288  -0.12340  -0.10688
 Alpha virt. eigenvalues --   -0.05743  -0.05221  -0.04608  -0.03236  -0.02771
 Alpha virt. eigenvalues --   -0.02431  -0.01639  -0.01160  -0.00390  -0.00315
 Alpha virt. eigenvalues --   -0.00009   0.00337   0.00803   0.00846   0.00897

  Beta  occ. eigenvalues --  -38.44164 -38.44150 -38.43680 -38.43573 -38.43429
  Beta  occ. eigenvalues --  -38.43410 -38.42913  -2.20024  -2.19997  -2.19487
  Beta  occ. eigenvalues --   -2.19360  -2.19314  -2.19281  -2.18946  -1.13740
  Beta  occ. eigenvalues --   -1.13693  -1.13662  -1.13658  -1.13644  -1.13624
  Beta  occ. eigenvalues --   -1.13164  -1.13142  -1.13136  -1.13121  -1.13094
  Beta  occ. eigenvalues --   -1.13044  -1.13033  -1.12994  -1.12954  -1.12936
  Beta  occ. eigenvalues --   -1.12906  -1.12880  -1.12628  -1.12587  -1.12562
  Beta  occ. eigenvalues --   -0.18023  -0.13065  -0.12091
  Beta virt. eigenvalues --   -0.06770  -0.05690  -0.05158  -0.04564  -0.02470
  Beta virt. eigenvalues --   -0.02038  -0.01553  -0.01394  -0.01070  -0.00405
  Beta virt. eigenvalues --   -0.00344   0.00150   0.00380   0.00853   0.00877

 Mulliken charges and spin densities:
               1          2
     1  Na  -0.702675   0.097074
     2  Na  -0.480403   0.656941
     3  Na   0.391192   0.036133
     4  Na   0.286283   0.063947
     5  Na   0.294628   0.096250
     6  Na   0.072469   0.055540
     7  Na   0.138507  -0.005885
 Sum of Mulliken charges =  -0.00000   1.00000

 Dipole moment (field-independent basis, Debye):
    X=             -0.0708    Y=              0.0552    Z=              0.2987  Tot=              0.3119
 Quadrupole moment (field-independent basis, Debye-Ang):
   XX=            -55.2947   YY=            -62.8801   ZZ=            -74.9692
   XY=              0.1565   XZ=             -0.1165   YZ=              1.8355

 Normal termination of Gaussian 16 at Tue Dec  5 23:10:11 2023.
