 Gaussian 16, Revision B.01,
 Gaussian 16:  ES64L-G16RevB.01 20-Dec-2017

 -------------------------
 #P B3LYP/6-311+g(d) force
 -------------------------

 -----
 DPGEN
 -----
 Symbolic Z-matrix:
 Charge =  0 Multiplicity = 2

                         Standard orientation:
 ---------------------------------------------------------------------
 Center     Atomic      Atomic             Coordinates (Angstroms)
 Number     Number       Type             X           Y           Z
 ---------------------------------------------------------------------
      1         11           0        3.271932    0.237937   -0.543887
      2         11           0        1.401988    0.412256    1.726211
      3         11           0        0.867561    3.392917   -0.761104
      4         11           0       -2.226085    1.645628    0.489066
      5         11           0        1.929587   -2.804026   -0.668835
      6         11           0       -1.074455   -2.343908    0.449614
      7         11           0       -4.170528   -0.540805   -0.691065
 ---------------------------------------------------------------------

 SCF Done:  E(UB3LYP) =  -1136.11750989     A.U. after   22 cycles

 The electronic state is 2-A.
 Alpha  occ. eigenvalues --  -38.45068 -38.44854 -38.44280 -38.44117 -38.43879
 Alpha  occ. eigenvalues --  -38.43795 -38.43576  -2.20809  -2.20710  -2.20106
 Alpha  occ. eigenvalues --   -2.19925  -2.19692  -2.19684  -2.19407  -1.14495
 Alpha  occ. eigenvalues --   -1.14468  -1.14465  -1.14443  -1.14367  -1.14292
 Alpha  occ. eigenvalues --   -1.13791  -1.13778  -1.13750  -1.13621  -1.13594
 Alpha  occ. eigenvalues --   -1.13576  -1.13385  -1.13378  -1.13353  -1.13322
 Alpha  occ. eigenvalues --   -1.13311  -1.13268  -1.13062  -1.13050  -1.13027
 Alpha  occ. eigenvalues --   -0.17253  -0.13758  -0.12718  -0.09928
 Alpha virt. eigenvalues --   -0.07111  -0.05932  -0.04253  -0.03470  -0.03007
 Alpha virt. eigenvalues --   -0.02072  -0.01863  -0.01493  -0.01138  -0.01042
 Alpha virt. eigenvalues --   -0.00280   0.00205   0.00429   0.00571   0.00669

  Beta  occ. eigenvalues --  -38.45073 -38.44817 -38.44268 -38.44110 -38.43855
  Beta  occ. eigenvalues --  -38.43740 -38.43523  -2.20820  -2.20643  -2.20089
  Beta  occ. eigenvalues --   -2.19918  -2.19650  -2.19583  -2.19308  -1.14503
  Beta  occ. eigenvalues --   -1.14469  -1.14450  -1.14401  -1.14315  -1.14246
  Beta  occ. eigenvalues --   -1.13779  -1.13746  -1.13731  -1.13616  -1.13590
  Beta  occ. eigenvalues --   -1.13541  -1.13352  -1.13316  -1.13316  -1.13276
  Beta  occ. eigenvalues --   -1.13254  -1.13192  -1.12995  -1.12983  -1.12963
  Beta  occ. eigenvalues --   -0.16685  -0.13164  -0.12569
  Beta virt. eigenvalues --   -0.07006  -0.06438  -0.05771  -0.03980  -0.02979
  Beta virt. eigenvalues --   -0.02695  -0.01692  -0.01458  -0.01190  -0.01080
  Beta virt. eigenvalues --   -0.00918   0.00021   0.00312   0.00614   0.00631

 Mulliken charges and spin densities:
               1          2
     1  Na  -0.212138   0.451431
     2  Na   0.661034   0.275570
     3  Na   0.047355  -0.067819
     4  Na  -0.634112  -0.026058
     5  Na   0.198969   0.029802
     6  Na  -0.583373  -0.005957
     7  Na   0.522264   0.343030
 Sum of Mulliken charges =  -0.00000   1.00000

 Dipole moment (field-independent basis, Debye):
    X=              0.3399    Y=              0.4354    Z=             -0.1564  Tot=              0.5740
 Quadrupole moment (field-independent basis, Debye-Ang):
   XX=            -71.7469   YY=            -59.5859   ZZ=            -69.3004
   XY=              1.6688   XZ=              1.4212   YZ=             -0.2486

 Normal termination of Gaussian 16 at Sun Dec  3 15:50:42 2023.
