 Gaussian 16, Revision B.01,
 Gaussian 16:  ES64L-G16RevB.01 20-Dec-2017

 -------------------------
 #P B3LYP/6-311+g(d) force
 -------------------------

 -----
 DPGEN
 -----
 Symbolic Z-matrix:
 Charge =  0 Multiplicity = 2

                         Standard orientation:
 ---------------------------------------------------------------------
 Center     Atomic      Atomic             Coordinates (Angstroms)
 Number     Number       Type             X           Y           Z
 ---------------------------------------------------------------------
      1         11           0        2.337006   -0.869357   -1.189094
      2         11           0       -0.406653   -3.120272   -0.706356
      3         11           0        2.428508   -0.482806    2.081732
      4         11           0       -0.259702    0.155023    0.278862
      5         11           0        1.551523    2.615092   -0.830191
      6         11           0       -2.074116    2.666755    0.068066
      7         11           0       -3.576566   -0.964435    0.296980
 ---------------------------------------------------------------------

 SCF Done:  E(UB3LYP) =  -1136.12631046     A.U. after   20 cycles

 The electronic state is 2-A.
 Alpha  occ. eigenvalues --  -38.44478 -38.44108 -38.43893 -38.43869 -38.43766
 Alpha  occ. eigenvalues --  -38.43761 -38.42656  -2.20240  -2.19914  -2.19700
 Alpha  occ. eigenvalues --   -2.19692  -2.19665  -2.19630  -2.18732  -1.13922
 Alpha  occ. eigenvalues --   -1.13897  -1.13872  -1.13630  -1.13583  -1.13521
 Alpha  occ. eigenvalues --   -1.13400  -1.13380  -1.13363  -1.13357  -1.13354
 Alpha  occ. eigenvalues --   -1.13350  -1.13324  -1.13313  -1.13288  -1.13266
 Alpha  occ. eigenvalues --   -1.13237  -1.13222  -1.12448  -1.12402  -1.12360
 Alpha  occ. eigenvalues --   -0.17956  -0.13197  -0.12482  -0.10369
 Alpha virt. eigenvalues --   -0.06040  -0.05527  -0.05001  -0.02964  -0.02487
 Alpha virt. eigenvalues --   -0.02087  -0.01588  -0.01260  -0.00942  -0.00815
 Alpha virt. eigenvalues --   -0.00274   0.00290   0.00633   0.00724   0.00754

  Beta  occ. eigenvalues --  -38.44479 -38.44113 -38.43869 -38.43842 -38.43744
  Beta  occ. eigenvalues --  -38.43655 -38.42642  -2.20242  -2.19925  -2.19651
  Beta  occ. eigenvalues --   -2.19649  -2.19628  -2.19432  -2.18713  -1.13922
  Beta  occ. eigenvalues --   -1.13899  -1.13872  -1.13637  -1.13588  -1.13523
  Beta  occ. eigenvalues --   -1.13373  -1.13350  -1.13330  -1.13321  -1.13313
  Beta  occ. eigenvalues --   -1.13294  -1.13286  -1.13282  -1.13236  -1.13150
  Beta  occ. eigenvalues --   -1.13106  -1.13101  -1.12402  -1.12382  -1.12355
  Beta  occ. eigenvalues --   -0.17395  -0.12921  -0.12240
  Beta virt. eigenvalues --   -0.06640  -0.05870  -0.05322  -0.04669  -0.02522
  Beta virt. eigenvalues --   -0.02055  -0.01757  -0.01211  -0.00996  -0.00788
  Beta virt. eigenvalues --   -0.00744   0.00070   0.00392   0.00751   0.00769

 Mulliken charges and spin densities:
               1          2
     1  Na   0.862429   0.279285
     2  Na   0.522467   0.125439
     3  Na   0.193989   0.251041
     4  Na  -2.517360   0.424299
     5  Na   0.714202   0.204284
     6  Na   0.158847  -0.146523
     7  Na   0.065424  -0.137824
 Sum of Mulliken charges =  -0.00000   1.00000

 Dipole moment (field-independent basis, Debye):
    X=             -0.5285    Y=              0.1388    Z=             -0.3130  Tot=              0.6297
 Quadrupole moment (field-independent basis, Debye-Ang):
   XX=            -55.9503   YY=            -60.5832   ZZ=            -74.5000
   XY=              0.7522   XZ=             -2.6406   YZ=              0.0790

 Normal termination of Gaussian 16 at Wed Dec  6 01:24:29 2023.
