 Gaussian 16, Revision B.01,
 Gaussian 16:  ES64L-G16RevB.01 20-Dec-2017

 -------------------------
 #P B3LYP/6-311+g(d) force
 -------------------------

 -----
 DPGEN
 -----
 Symbolic Z-matrix:
 Charge =  0 Multiplicity = 2

                         Standard orientation:
 ---------------------------------------------------------------------
 Center     Atomic      Atomic             Coordinates (Angstroms)
 Number     Number       Type             X           Y           Z
 ---------------------------------------------------------------------
      1         11           0        2.508149    1.426122   -0.252534
      2         11           0       -0.377070    3.197777   -0.111848
      3         11           0       -3.174549   -0.889891   -0.186332
      4         11           0        5.207879   -0.937268   -0.573336
      5         11           0       -6.319866   -0.659021   -0.479965
      6         11           0       -0.091914   -0.138656    1.561402
      7         11           0        2.247371   -1.999063    0.042613
 ---------------------------------------------------------------------

 SCF Done:  E(UB3LYP) =  -1136.12049170     A.U. after   21 cycles

 The electronic state is 2-A.
 Alpha  occ. eigenvalues --  -38.44531 -38.44354 -38.44268 -38.44262 -38.44248
 Alpha  occ. eigenvalues --  -38.43697 -38.43453  -2.20406  -2.20222  -2.20117
 Alpha  occ. eigenvalues --   -2.20085  -2.20067  -2.19491  -2.19247  -1.14098
 Alpha  occ. eigenvalues --   -1.14077  -1.14046  -1.13925  -1.13918  -1.13824
 Alpha  occ. eigenvalues --   -1.13788  -1.13782  -1.13741  -1.13738  -1.13730
 Alpha  occ. eigenvalues --   -1.13721  -1.13710  -1.13702  -1.13674  -1.13160
 Alpha  occ. eigenvalues --   -1.13139  -1.13138  -1.12926  -1.12917  -1.12873
 Alpha  occ. eigenvalues --   -0.17324  -0.13632  -0.12303  -0.11299
 Alpha virt. eigenvalues --   -0.06181  -0.05519  -0.05015  -0.03389  -0.02786
 Alpha virt. eigenvalues --   -0.02292  -0.02186  -0.01454  -0.01230  -0.00950
 Alpha virt. eigenvalues --   -0.00438  -0.00051   0.00121   0.00424   0.00577

  Beta  occ. eigenvalues --  -38.44497 -38.44326 -38.44242 -38.44231 -38.44189
  Beta  occ. eigenvalues --  -38.43665 -38.43460  -2.20347  -2.20172  -2.20048
  Beta  occ. eigenvalues --   -2.20012  -2.19999  -2.19431  -2.19262  -1.14059
  Beta  occ. eigenvalues --   -1.14039  -1.13978  -1.13893  -1.13874  -1.13779
  Beta  occ. eigenvalues --   -1.13720  -1.13714  -1.13711  -1.13707  -1.13683
  Beta  occ. eigenvalues --   -1.13680  -1.13661  -1.13642  -1.13617  -1.13123
  Beta  occ. eigenvalues --   -1.13097  -1.13097  -1.12939  -1.12930  -1.12856
  Beta  occ. eigenvalues --   -0.16623  -0.13428  -0.11765
  Beta virt. eigenvalues --   -0.07830  -0.05910  -0.04999  -0.04760  -0.03001
  Beta virt. eigenvalues --   -0.02547  -0.02168  -0.01764  -0.01314  -0.01002
  Beta virt. eigenvalues --   -0.00508  -0.00195   0.00085   0.00277   0.00480

 Mulliken charges and spin densities:
               1          2
     1  Na  -0.733215   0.297110
     2  Na   0.430173   0.097841
     3  Na  -0.506715  -0.058444
     4  Na   0.711302   0.103007
     5  Na   0.548064   0.170452
     6  Na  -0.425301   0.345702
     7  Na  -0.024309   0.044332
 Sum of Mulliken charges =  -0.00000   1.00000

 Dipole moment (field-independent basis, Debye):
    X=              1.6842    Y=              0.4370    Z=              0.0088  Tot=              1.7400
 Quadrupole moment (field-independent basis, Debye-Ang):
   XX=            -58.1119   YY=            -67.5276   ZZ=            -71.1953
   XY=             -6.4839   XZ=             -0.5248   YZ=              0.0639

 Normal termination of Gaussian 16 at Tue Nov 28 22:13:21 2023.
