 Gaussian 16, Revision B.01,
 Gaussian 16:  ES64L-G16RevB.01 20-Dec-2017

 -------------------------
 #P B3LYP/6-311+g(d) force
 -------------------------

 -----
 DPGEN
 -----
 Symbolic Z-matrix:
 Charge =  0 Multiplicity = 2

                         Standard orientation:
 ---------------------------------------------------------------------
 Center     Atomic      Atomic             Coordinates (Angstroms)
 Number     Number       Type             X           Y           Z
 ---------------------------------------------------------------------
      1         11           0       -1.627472   -2.124420   -0.693594
      2         11           0        1.732951    2.038711   -1.080550
      3         11           0       -0.321281    0.113848    1.719774
      4         11           0       -3.608836   -0.452666    0.482585
      5         11           0        2.255017   -1.957176   -1.160401
      6         11           0       -1.748932    2.383389   -0.636364
      7         11           0        3.318554   -0.001685    1.368549
 ---------------------------------------------------------------------

 SCF Done:  E(UB3LYP) =  -1136.12187036     A.U. after   22 cycles

 The electronic state is 2-A.
 Alpha  occ. eigenvalues --  -38.44980 -38.44466 -38.44432 -38.44052 -38.43955
 Alpha  occ. eigenvalues --  -38.43948 -38.43294  -2.20865  -2.20299  -2.20285
 Alpha  occ. eigenvalues --   -2.19848  -2.19817  -2.19751  -2.19107  -1.14626
 Alpha  occ. eigenvalues --   -1.14508  -1.14475  -1.13980  -1.13959  -1.13953
 Alpha  occ. eigenvalues --   -1.13941  -1.13931  -1.13896  -1.13515  -1.13503
 Alpha  occ. eigenvalues --   -1.13485  -1.13480  -1.13469  -1.13453  -1.13431
 Alpha  occ. eigenvalues --   -1.13410  -1.13373  -1.12780  -1.12775  -1.12747
 Alpha  occ. eigenvalues --   -0.17836  -0.14273  -0.11751  -0.10518
 Alpha virt. eigenvalues --   -0.06620  -0.05925  -0.04831  -0.03573  -0.02715
 Alpha virt. eigenvalues --   -0.02435  -0.02024  -0.01197  -0.00681  -0.00542
 Alpha virt. eigenvalues --    0.00018   0.00212   0.00227   0.00398   0.00699

  Beta  occ. eigenvalues --  -38.44981 -38.44431 -38.44375 -38.44018 -38.43947
  Beta  occ. eigenvalues --  -38.43920 -38.43289  -2.20865  -2.20233  -2.20182
  Beta  occ. eigenvalues --   -2.19803  -2.19784  -2.19700  -2.19099  -1.14630
  Beta  occ. eigenvalues --   -1.14498  -1.14479  -1.13916  -1.13909  -1.13898
  Beta  occ. eigenvalues --   -1.13887  -1.13865  -1.13816  -1.13470  -1.13466
  Beta  occ. eigenvalues --   -1.13461  -1.13454  -1.13439  -1.13432  -1.13390
  Beta  occ. eigenvalues --   -1.13371  -1.13340  -1.12773  -1.12769  -1.12733
  Beta  occ. eigenvalues --   -0.17325  -0.14089  -0.11397
  Beta virt. eigenvalues --   -0.06956  -0.06423  -0.05888  -0.04091  -0.03355
  Beta virt. eigenvalues --   -0.02286  -0.02142  -0.01346  -0.01124  -0.00506
  Beta virt. eigenvalues --   -0.00248   0.00059   0.00250   0.00405   0.00531

 Mulliken charges and spin densities:
               1          2
     1  Na  -0.116043   0.073321
     2  Na  -0.140411   0.229951
     3  Na  -1.046240   0.266807
     4  Na   0.825918   0.024476
     5  Na  -0.316899   0.193976
     6  Na  -0.000328   0.019598
     7  Na   0.794004   0.191871
 Sum of Mulliken charges =  -0.00000   1.00000

 Dipole moment (field-independent basis, Debye):
    X=             -0.3409    Y=              0.0178    Z=              0.2341  Tot=              0.4139
 Quadrupole moment (field-independent basis, Debye-Ang):
   XX=            -48.2880   YY=            -75.5468   ZZ=            -72.8480
   XY=             -0.0771   XZ=             -0.4712   YZ=              0.3337

 Normal termination of Gaussian 16 at Mon Dec  4 01:35:24 2023.
