 Gaussian 16, Revision B.01,
 Gaussian 16:  ES64L-G16RevB.01 20-Dec-2017

 -------------------------
 #P B3LYP/6-311+g(d) force
 -------------------------

 -----
 DPGEN
 -----
 Symbolic Z-matrix:
 Charge =  0 Multiplicity = 2

                         Standard orientation:
 ---------------------------------------------------------------------
 Center     Atomic      Atomic             Coordinates (Angstroms)
 Number     Number       Type             X           Y           Z
 ---------------------------------------------------------------------
      1         11           0       -2.477367   -1.516620   -0.180263
      2         11           0       -3.062852    2.003516   -0.222800
      3         11           0       -0.161731    0.265653   -1.065028
      4         11           0        3.139469    0.101639   -0.224353
      5         11           0        1.087021   -2.782979   -0.617770
      6         11           0       -0.195264   -1.021333    2.028459
      7         11           0        1.670724    2.950124    0.281756
 ---------------------------------------------------------------------

 SCF Done:  E(UB3LYP) =  -1136.12877362     A.U. after   20 cycles

 The electronic state is 2-A.
 Alpha  occ. eigenvalues --  -38.44299 -38.44152 -38.44011 -38.43931 -38.43332
 Alpha  occ. eigenvalues --  -38.43317 -38.42998  -2.20076  -2.20051  -2.19861
 Alpha  occ. eigenvalues --   -2.19737  -2.19231  -2.19204  -2.19027  -1.13789
 Alpha  occ. eigenvalues --   -1.13745  -1.13734  -1.13731  -1.13720  -1.13631
 Alpha  occ. eigenvalues --   -1.13552  -1.13530  -1.13511  -1.13396  -1.13387
 Alpha  occ. eigenvalues --   -1.13365  -1.12922  -1.12886  -1.12878  -1.12854
 Alpha  occ. eigenvalues --   -1.12842  -1.12805  -1.12728  -1.12688  -1.12633
 Alpha  occ. eigenvalues --   -0.18412  -0.13349  -0.12372  -0.10149
 Alpha virt. eigenvalues --   -0.06045  -0.05437  -0.04922  -0.02960  -0.02589
 Alpha virt. eigenvalues --   -0.02035  -0.01762  -0.01404  -0.00839  -0.00558
 Alpha virt. eigenvalues --   -0.00024   0.00289   0.00713   0.00743   0.00830

  Beta  occ. eigenvalues --  -38.44296 -38.44141 -38.44004 -38.43925 -38.43309
  Beta  occ. eigenvalues --  -38.43220 -38.42966  -2.20072  -2.20037  -2.19851
  Beta  occ. eigenvalues --   -2.19727  -2.19164  -2.19051  -2.18973  -1.13783
  Beta  occ. eigenvalues --   -1.13737  -1.13727  -1.13718  -1.13683  -1.13626
  Beta  occ. eigenvalues --   -1.13548  -1.13511  -1.13498  -1.13386  -1.13376
  Beta  occ. eigenvalues --   -1.13358  -1.12871  -1.12833  -1.12803  -1.12785
  Beta  occ. eigenvalues --   -1.12726  -1.12702  -1.12676  -1.12637  -1.12591
  Beta  occ. eigenvalues --   -0.17757  -0.13097  -0.12142
  Beta virt. eigenvalues --   -0.06418  -0.05812  -0.05362  -0.04819  -0.02293
  Beta virt. eigenvalues --   -0.02021  -0.01729  -0.01406  -0.00961  -0.00803
  Beta virt. eigenvalues --   -0.00560   0.00184   0.00367   0.00744   0.00810

 Mulliken charges and spin densities:
               1          2
     1  Na   0.575398   0.032291
     2  Na  -0.081082  -0.008002
     3  Na  -0.196370   0.296248
     4  Na   0.243242   0.021439
     5  Na   0.287405   0.064928
     6  Na  -0.621404   0.580575
     7  Na  -0.207190   0.012522
 Sum of Mulliken charges =  -0.00000   1.00000

 Dipole moment (field-independent basis, Debye):
    X=             -0.1804    Y=              0.2397    Z=              0.2187  Tot=              0.3712
 Quadrupole moment (field-independent basis, Debye-Ang):
   XX=            -56.2495   YY=            -59.1993   ZZ=            -76.7743
   XY=             -1.3280   XZ=              0.3243   YZ=              2.7072

 Normal termination of Gaussian 16 at Wed Nov 29 03:29:39 2023.
