 Gaussian 16, Revision B.01,
 Gaussian 16:  ES64L-G16RevB.01 20-Dec-2017

 -------------------------
 #P B3LYP/6-311+g(d) force
 -------------------------

 -----
 DPGEN
 -----
 Symbolic Z-matrix:
 Charge =  0 Multiplicity = 2

                         Standard orientation:
 ---------------------------------------------------------------------
 Center     Atomic      Atomic             Coordinates (Angstroms)
 Number     Number       Type             X           Y           Z
 ---------------------------------------------------------------------
      1         11           0       -0.154742    0.288152    2.271252
      2         11           0       -3.051882   -1.246691    0.312618
      3         11           0        0.176586   -2.916173   -0.438985
      4         11           0        3.097816   -0.537854    0.879285
      5         11           0       -0.979650    0.368272   -2.067640
      6         11           0        2.118185    1.101047   -1.359678
      7         11           0       -1.206314    2.943247    0.403149
 ---------------------------------------------------------------------

 SCF Done:  E(UB3LYP) =  -1136.12579430     A.U. after   21 cycles

 The electronic state is 2-A.
 Alpha  occ. eigenvalues --  -38.44756 -38.44195 -38.44178 -38.43978 -38.43956
 Alpha  occ. eigenvalues --  -38.43671 -38.43486  -2.20590  -2.20050  -2.19976
 Alpha  occ. eigenvalues --   -2.19853  -2.19719  -2.19519  -2.19280  -1.14240
 Alpha  occ. eigenvalues --   -1.14223  -1.14220  -1.13761  -1.13698  -1.13664
 Alpha  occ. eigenvalues --   -1.13654  -1.13627  -1.13605  -1.13600  -1.13516
 Alpha  occ. eigenvalues --   -1.13459  -1.13408  -1.13387  -1.13340  -1.13171
 Alpha  occ. eigenvalues --   -1.13165  -1.13134  -1.12963  -1.12932  -1.12923
 Alpha  occ. eigenvalues --   -0.17895  -0.12736  -0.11998  -0.11799
 Alpha virt. eigenvalues --   -0.05780  -0.05031  -0.04625  -0.03511  -0.03468
 Alpha virt. eigenvalues --   -0.03273  -0.01384  -0.01010  -0.00535  -0.00017
 Alpha virt. eigenvalues --    0.00112   0.00402   0.00484   0.00646   0.00790

  Beta  occ. eigenvalues --  -38.44664 -38.44193 -38.44108 -38.43954 -38.43947
  Beta  occ. eigenvalues --  -38.43664 -38.43484  -2.20422  -2.19975  -2.19924
  Beta  occ. eigenvalues --   -2.19799  -2.19716  -2.19507  -2.19278  -1.14132
  Beta  occ. eigenvalues --   -1.14106  -1.14094  -1.13671  -1.13655  -1.13639
  Beta  occ. eigenvalues --   -1.13605  -1.13594  -1.13574  -1.13555  -1.13466
  Beta  occ. eigenvalues --   -1.13426  -1.13396  -1.13385  -1.13340  -1.13158
  Beta  occ. eigenvalues --   -1.13145  -1.13128  -1.12950  -1.12934  -1.12915
  Beta  occ. eigenvalues --   -0.17082  -0.12611  -0.11605
  Beta virt. eigenvalues --   -0.08016  -0.05760  -0.04635  -0.04213  -0.03137
  Beta virt. eigenvalues --   -0.02697  -0.02554  -0.01308  -0.00947  -0.00301
  Beta virt. eigenvalues --    0.00046   0.00148   0.00455   0.00582   0.00815

 Mulliken charges and spin densities:
               1          2
     1  Na  -0.154283   0.664019
     2  Na   0.245327  -0.083997
     3  Na  -0.382339  -0.023587
     4  Na   0.251589   0.027688
     5  Na   0.297922   0.476567
     6  Na  -0.125670   0.025750
     7  Na  -0.132547  -0.086440
 Sum of Mulliken charges =  -0.00000   1.00000

 Dipole moment (field-independent basis, Debye):
    X=             -0.4111    Y=             -0.1653    Z=              0.2297  Tot=              0.4990
 Quadrupole moment (field-independent basis, Debye-Ang):
   XX=            -62.3130   YY=            -68.9311   ZZ=            -66.4504
   XY=             -0.9282   XZ=             -0.3307   YZ=             -0.2363

 Normal termination of Gaussian 16 at Sun Dec  3 17:42:33 2023.
