 Gaussian 16, Revision B.01,
 Gaussian 16:  ES64L-G16RevB.01 20-Dec-2017

 -------------------------
 #P B3LYP/6-311+g(d) force
 -------------------------

 -----
 DPGEN
 -----
 Symbolic Z-matrix:
 Charge =  0 Multiplicity = 2

                         Standard orientation:
 ---------------------------------------------------------------------
 Center     Atomic      Atomic             Coordinates (Angstroms)
 Number     Number       Type             X           Y           Z
 ---------------------------------------------------------------------
      1         11           0        2.676203   -2.464044   -0.198773
      2         11           0       -3.311823   -1.326461   -0.961145
      3         11           0        0.162668    3.498052   -0.195460
      4         11           0       -2.128023    1.532896    1.020166
      5         11           0       -0.297424   -2.425643    1.092479
      6         11           0        3.072115    1.349034   -0.078584
      7         11           0       -0.173715   -0.163834   -0.678683
 ---------------------------------------------------------------------

 SCF Done:  E(UB3LYP) =  -1136.12322010     A.U. after   20 cycles

 The electronic state is 2-A.
 Alpha  occ. eigenvalues --  -38.44162 -38.44149 -38.43891 -38.43826 -38.43805
 Alpha  occ. eigenvalues --  -38.43640 -38.43471  -2.20066  -2.19963  -2.19843
 Alpha  occ. eigenvalues --   -2.19779  -2.19631  -2.19447  -2.19319  -1.13919
 Alpha  occ. eigenvalues --   -1.13718  -1.13692  -1.13637  -1.13612  -1.13598
 Alpha  occ. eigenvalues --   -1.13574  -1.13507  -1.13439  -1.13435  -1.13421
 Alpha  occ. eigenvalues --   -1.13371  -1.13305  -1.13274  -1.13267  -1.13112
 Alpha  occ. eigenvalues --   -1.13094  -1.13066  -1.12980  -1.12965  -1.12925
 Alpha  occ. eigenvalues --   -0.17912  -0.13444  -0.13242  -0.09587
 Alpha virt. eigenvalues --   -0.05884  -0.05659  -0.05554  -0.02786  -0.02661
 Alpha virt. eigenvalues --   -0.02020  -0.01734  -0.01371  -0.01156  -0.00756
 Alpha virt. eigenvalues --   -0.00005   0.00251   0.00549   0.00687   0.00727

  Beta  occ. eigenvalues --  -38.44146 -38.44131 -38.43853 -38.43826 -38.43800
  Beta  occ. eigenvalues --  -38.43590 -38.43406  -2.20011  -2.19961  -2.19843
  Beta  occ. eigenvalues --   -2.19712  -2.19626  -2.19352  -2.19197  -1.13894
  Beta  occ. eigenvalues --   -1.13687  -1.13651  -1.13638  -1.13596  -1.13588
  Beta  occ. eigenvalues --   -1.13544  -1.13485  -1.13434  -1.13393  -1.13387
  Beta  occ. eigenvalues --   -1.13330  -1.13305  -1.13270  -1.13227  -1.13043
  Beta  occ. eigenvalues --   -1.13031  -1.13006  -1.12892  -1.12882  -1.12848
  Beta  occ. eigenvalues --   -0.17589  -0.12949  -0.12698
  Beta virt. eigenvalues --   -0.06366  -0.05739  -0.05336  -0.05255  -0.02355
  Beta virt. eigenvalues --   -0.02248  -0.01782  -0.01585  -0.01110  -0.00887
  Beta virt. eigenvalues --   -0.00445   0.00219   0.00407   0.00666   0.00734

 Mulliken charges and spin densities:
               1          2
     1  Na   0.330334   0.034459
     2  Na   0.549322   0.250638
     3  Na   0.205004   0.041703
     4  Na   0.010966   0.160357
     5  Na  -0.000314   0.113340
     6  Na   0.352550   0.338280
     7  Na  -1.447863   0.061223
 Sum of Mulliken charges =  -0.00000   1.00000

 Dipole moment (field-independent basis, Debye):
    X=              0.0570    Y=             -0.2921    Z=              0.4158  Tot=              0.5113
 Quadrupole moment (field-independent basis, Debye-Ang):
   XX=            -62.5798   YY=            -62.7676   ZZ=            -71.3937
   XY=             -2.3128   XZ=             -1.7524   YZ=             -0.6978

 Normal termination of Gaussian 16 at Wed Nov 29 16:14:08 2023.
