 Gaussian 16, Revision B.01,
 Gaussian 16:  ES64L-G16RevB.01 20-Dec-2017

 -------------------------
 #P B3LYP/6-311+g(d) force
 -------------------------

 -----
 DPGEN
 -----
 Symbolic Z-matrix:
 Charge =  0 Multiplicity = 2

                         Standard orientation:
 ---------------------------------------------------------------------
 Center     Atomic      Atomic             Coordinates (Angstroms)
 Number     Number       Type             X           Y           Z
 ---------------------------------------------------------------------
      1         11           0       -2.238262    2.555194   -0.667443
      2         11           0        3.382971   -2.506931    0.396219
      3         11           0        1.508956    3.119251   -0.043460
      4         11           0        0.315500   -2.367255   -0.204033
      5         11           0        4.784792    0.962679   -0.012326
      6         11           0       -4.229681    0.821054    1.097013
      7         11           0       -3.524276   -2.583991   -0.565970
 ---------------------------------------------------------------------

 SCF Done:  E(UB3LYP) =  -1136.10150322     A.U. after   27 cycles

 The electronic state is 2-A.
 Alpha  occ. eigenvalues --  -38.45607 -38.45341 -38.44961 -38.44875 -38.44212
 Alpha  occ. eigenvalues --  -38.43977 -38.43814  -2.21380  -2.21092  -2.20669
 Alpha  occ. eigenvalues --   -2.20661  -2.20013  -2.19763  -2.19636  -1.15068
 Alpha  occ. eigenvalues --   -1.15051  -1.15009  -1.14762  -1.14730  -1.14719
 Alpha  occ. eigenvalues --   -1.14371  -1.14364  -1.14339  -1.14329  -1.14302
 Alpha  occ. eigenvalues --   -1.14293  -1.13681  -1.13670  -1.13637  -1.13416
 Alpha  occ. eigenvalues --   -1.13402  -1.13383  -1.13307  -1.13285  -1.13262
 Alpha  occ. eigenvalues --   -0.15569  -0.14122  -0.12827  -0.10595
 Alpha virt. eigenvalues --   -0.07923  -0.05082  -0.04581  -0.03516  -0.03429
 Alpha virt. eigenvalues --   -0.02701  -0.02325  -0.01929  -0.01095  -0.00790
 Alpha virt. eigenvalues --   -0.00671  -0.00376   0.00074   0.00195   0.00490

  Beta  occ. eigenvalues --  -38.45599 -38.45286 -38.44988 -38.44840 -38.44180
  Beta  occ. eigenvalues --  -38.43893 -38.43776  -2.21372  -2.20991  -2.20722
  Beta  occ. eigenvalues --   -2.20602  -2.19954  -2.19607  -2.19569  -1.15054
  Beta  occ. eigenvalues --   -1.15048  -1.14985  -1.14694  -1.14664  -1.14643
  Beta  occ. eigenvalues --   -1.14408  -1.14402  -1.14314  -1.14303  -1.14294
  Beta  occ. eigenvalues --   -1.14221  -1.13637  -1.13628  -1.13610  -1.13309
  Beta  occ. eigenvalues --   -1.13293  -1.13281  -1.13250  -1.13242  -1.13214
  Beta  occ. eigenvalues --   -0.15102  -0.13390  -0.12139
  Beta virt. eigenvalues --   -0.08117  -0.07374  -0.04817  -0.04129  -0.03249
  Beta virt. eigenvalues --   -0.03132  -0.02481  -0.01965  -0.01720  -0.00795
  Beta virt. eigenvalues --   -0.00705  -0.00397  -0.00052   0.00093   0.00230

 Mulliken charges and spin densities:
               1          2
     1  Na  -0.500253   0.211944
     2  Na   1.192043  -0.123337
     3  Na   0.153579  -0.161586
     4  Na  -1.440894   0.474306
     5  Na  -0.035552   0.255467
     6  Na   0.340513   0.005596
     7  Na   0.290564   0.337611
 Sum of Mulliken charges =  -0.00000   1.00000

 Dipole moment (field-independent basis, Debye):
    X=             -0.0531    Y=              0.3683    Z=              0.3841  Tot=              0.5348
 Quadrupole moment (field-independent basis, Debye-Ang):
   XX=            -52.3648   YY=            -76.7722   ZZ=            -70.7340
   XY=             -3.3994   XZ=             -2.3953   YZ=              0.1006

 Normal termination of Gaussian 16 at Sun Dec  3 22:29:01 2023.
