 Gaussian 16, Revision B.01,
 Gaussian 16:  ES64L-G16RevB.01 20-Dec-2017

 -------------------------
 #P B3LYP/6-311+g(d) force
 -------------------------

 -----
 DPGEN
 -----
 Symbolic Z-matrix:
 Charge =  0 Multiplicity = 2

                         Standard orientation:
 ---------------------------------------------------------------------
 Center     Atomic      Atomic             Coordinates (Angstroms)
 Number     Number       Type             X           Y           Z
 ---------------------------------------------------------------------
      1         11           0        3.398078   -0.757148   -0.259488
      2         11           0        1.192634    0.243684    2.139398
      3         11           0       -3.747077   -1.181430   -0.141896
      4         11           0       -1.511463    0.026728    0.224114
      5         11           0        0.311463   -2.192100   -0.354673
      6         11           0        1.216608    0.914480   -1.509519
      7         11           0       -0.860243    2.945785   -0.097934
 ---------------------------------------------------------------------

 SCF Done:  E(UB3LYP) =  -1136.10812507     A.U. after   23 cycles

 The electronic state is 2-A.
 Alpha  occ. eigenvalues --  -38.45224 -38.44676 -38.44295 -38.43983 -38.43368
 Alpha  occ. eigenvalues --  -38.43156 -38.42904  -2.21084  -2.20563  -2.20198
 Alpha  occ. eigenvalues --   -2.19887  -2.19358  -2.19333  -2.18780  -1.15010
 Alpha  occ. eigenvalues --   -1.14683  -1.14653  -1.14277  -1.14211  -1.14189
 Alpha  occ. eigenvalues --   -1.13994  -1.13861  -1.13765  -1.13571  -1.13513
 Alpha  occ. eigenvalues --   -1.13475  -1.13086  -1.13025  -1.13005  -1.12974
 Alpha  occ. eigenvalues --   -1.12947  -1.12917  -1.12451  -1.12429  -1.12399
 Alpha  occ. eigenvalues --   -0.19219  -0.13741  -0.11969  -0.11126
 Alpha virt. eigenvalues --   -0.06887  -0.04730  -0.03835  -0.03436  -0.02656
 Alpha virt. eigenvalues --   -0.02464  -0.02371  -0.00954  -0.00349  -0.00040
 Alpha virt. eigenvalues --    0.00161   0.00216   0.00593   0.00769   0.00869

  Beta  occ. eigenvalues --  -38.45232 -38.44662 -38.44281 -38.43877 -38.43311
  Beta  occ. eigenvalues --  -38.43140 -38.42904  -2.21098  -2.20543  -2.20177
  Beta  occ. eigenvalues --   -2.19692  -2.19309  -2.19256  -2.18783  -1.15020
  Beta  occ. eigenvalues --   -1.14690  -1.14664  -1.14259  -1.14185  -1.14163
  Beta  occ. eigenvalues --   -1.13982  -1.13808  -1.13756  -1.13434  -1.13384
  Beta  occ. eigenvalues --   -1.13337  -1.13056  -1.12978  -1.12943  -1.12938
  Beta  occ. eigenvalues --   -1.12879  -1.12856  -1.12454  -1.12422  -1.12394
  Beta  occ. eigenvalues --   -0.18450  -0.13538  -0.11794
  Beta virt. eigenvalues --   -0.07045  -0.06702  -0.04678  -0.03666  -0.02798
  Beta virt. eigenvalues --   -0.02403  -0.01784  -0.01588  -0.00894  -0.00073
  Beta virt. eigenvalues --    0.00052   0.00173   0.00270   0.00779   0.00804

 Mulliken charges and spin densities:
               1          2
     1  Na   1.349417   0.235543
     2  Na  -0.126133   0.300650
     3  Na   0.339755  -0.496366
     4  Na  -1.404026   0.764828
     5  Na  -0.083498   0.084466
     6  Na  -0.702403   0.116900
     7  Na   0.626888  -0.006022
 Sum of Mulliken charges =  -0.00000   1.00000

 Dipole moment (field-independent basis, Debye):
    X=              0.4856    Y=             -0.2331    Z=              0.1527  Tot=              0.5599
 Quadrupole moment (field-independent basis, Debye-Ang):
   XX=            -50.9902   YY=            -68.5842   ZZ=            -72.5913
   XY=             -1.1271   XZ=              0.8267   YZ=              1.4540

 Normal termination of Gaussian 16 at Fri Dec  8 18:39:14 2023.
