 Gaussian 16, Revision B.01,
 Gaussian 16:  ES64L-G16RevB.01 20-Dec-2017

 -------------------------
 #P B3LYP/6-311+g(d) force
 -------------------------

 -----
 DPGEN
 -----
 Symbolic Z-matrix:
 Charge =  0 Multiplicity = 2

                         Standard orientation:
 ---------------------------------------------------------------------
 Center     Atomic      Atomic             Coordinates (Angstroms)
 Number     Number       Type             X           Y           Z
 ---------------------------------------------------------------------
      1         11           0       -3.049246   -0.466071   -0.097191
      2         11           0       -1.646496    2.749482    0.283648
      3         11           0       -0.219168   -0.056784   -1.283407
      4         11           0        2.225885    2.302665   -0.365327
      5         11           0        2.904146   -1.119027   -0.004372
      6         11           0        0.282678   -0.614847    1.851887
      7         11           0       -0.497799   -2.795417   -0.385237
 ---------------------------------------------------------------------

 SCF Done:  E(UB3LYP) =  -1136.13112559     A.U. after   19 cycles

 The electronic state is 2-A.
 Alpha  occ. eigenvalues --  -38.44022 -38.44018 -38.43918 -38.43802 -38.43479
 Alpha  occ. eigenvalues --  -38.43153 -38.42863  -2.19889  -2.19875  -2.19718
 Alpha  occ. eigenvalues --   -2.19599  -2.19420  -2.19109  -2.18955  -1.13608
 Alpha  occ. eigenvalues --   -1.13566  -1.13542  -1.13540  -1.13515  -1.13509
 Alpha  occ. eigenvalues --   -1.13395  -1.13372  -1.13352  -1.13272  -1.13259
 Alpha  occ. eigenvalues --   -1.13238  -1.13218  -1.13083  -1.13012  -1.12815
 Alpha  occ. eigenvalues --   -1.12721  -1.12714  -1.12625  -1.12570  -1.12566
 Alpha  occ. eigenvalues --   -0.18841  -0.13203  -0.12600  -0.10212
 Alpha virt. eigenvalues --   -0.05557  -0.05530  -0.04929  -0.02979  -0.02659
 Alpha virt. eigenvalues --   -0.01952  -0.01603  -0.01274  -0.00628  -0.00464
 Alpha virt. eigenvalues --    0.00038   0.00333   0.00804   0.00828   0.00845

  Beta  occ. eigenvalues --  -38.44015 -38.44013 -38.43910 -38.43798 -38.43461
  Beta  occ. eigenvalues --  -38.43065 -38.42811  -2.19883  -2.19868  -2.19704
  Beta  occ. eigenvalues --   -2.19594  -2.19393  -2.18947  -2.18865  -1.13599
  Beta  occ. eigenvalues --   -1.13555  -1.13528  -1.13519  -1.13501  -1.13501
  Beta  occ. eigenvalues --   -1.13376  -1.13360  -1.13345  -1.13263  -1.13250
  Beta  occ. eigenvalues --   -1.13235  -1.13194  -1.13031  -1.12993  -1.12713
  Beta  occ. eigenvalues --   -1.12610  -1.12596  -1.12550  -1.12505  -1.12492
  Beta  occ. eigenvalues --   -0.18154  -0.12926  -0.12356
  Beta virt. eigenvalues --   -0.06383  -0.05531  -0.05433  -0.04857  -0.02224
  Beta virt. eigenvalues --   -0.01992  -0.01529  -0.01223  -0.00948  -0.00631
  Beta virt. eigenvalues --   -0.00508   0.00195   0.00387   0.00830   0.00847

 Mulliken charges and spin densities:
               1          2
     1  Na   0.274306   0.012355
     2  Na  -0.122011   0.008709
     3  Na  -0.522066   0.265772
     4  Na  -0.110505  -0.006973
     5  Na   0.319830  -0.017798
     6  Na  -0.342437   0.767879
     7  Na   0.502883  -0.029945
 Sum of Mulliken charges =  -0.00000   1.00000

 Dipole moment (field-independent basis, Debye):
    X=              0.0552    Y=              0.0742    Z=              0.2025  Tot=              0.2226
 Quadrupole moment (field-independent basis, Debye-Ang):
   XX=            -54.9500   YY=            -59.5104   ZZ=            -77.0153
   XY=             -0.2177   XZ=             -1.1616   YZ=              1.2526

 Normal termination of Gaussian 16 at Fri Dec  8 01:54:28 2023.
