 Gaussian 16, Revision B.01,
 Gaussian 16:  ES64L-G16RevB.01 20-Dec-2017

 -------------------------
 #P B3LYP/6-311+g(d) force
 -------------------------

 -----
 DPGEN
 -----
 Symbolic Z-matrix:
 Charge =  0 Multiplicity = 2

                         Standard orientation:
 ---------------------------------------------------------------------
 Center     Atomic      Atomic             Coordinates (Angstroms)
 Number     Number       Type             X           Y           Z
 ---------------------------------------------------------------------
      1         11           0        3.381517   -1.516228   -0.337117
      2         11           0        2.544436    1.317332   -0.084673
      3         11           0       -0.032845   -0.099291   -1.617466
      4         11           0       -0.231884    2.741338    0.547141
      5         11           0       -0.081909   -1.096450    2.051259
      6         11           0       -3.168255    1.227020   -0.328905
      7         11           0       -2.411060   -2.573722   -0.230240
 ---------------------------------------------------------------------

 SCF Done:  E(UB3LYP) =  -1136.12466697     A.U. after   21 cycles

 The electronic state is 2-A.
 Alpha  occ. eigenvalues --  -38.44901 -38.44612 -38.44217 -38.43861 -38.43816
 Alpha  occ. eigenvalues --  -38.43766 -38.42735  -2.20689  -2.20434  -2.20093
 Alpha  occ. eigenvalues --   -2.19745  -2.19640  -2.19585  -2.18605  -1.14368
 Alpha  occ. eigenvalues --   -1.14348  -1.14316  -1.14167  -1.14075  -1.14060
 Alpha  occ. eigenvalues --   -1.13801  -1.13745  -1.13712  -1.13421  -1.13400
 Alpha  occ. eigenvalues --   -1.13382  -1.13317  -1.13306  -1.13287  -1.13241
 Alpha  occ. eigenvalues --   -1.13221  -1.13193  -1.12288  -1.12258  -1.12243
 Alpha  occ. eigenvalues --   -0.18034  -0.13560  -0.11945  -0.10505
 Alpha virt. eigenvalues --   -0.06643  -0.05654  -0.04092  -0.03396  -0.02986
 Alpha virt. eigenvalues --   -0.02291  -0.02235  -0.01330  -0.00839  -0.00208
 Alpha virt. eigenvalues --   -0.00061   0.00228   0.00591   0.00693   0.00729

  Beta  occ. eigenvalues --  -38.44889 -38.44603 -38.44175 -38.43867 -38.43807
  Beta  occ. eigenvalues --  -38.43671 -38.42721  -2.20668  -2.20420  -2.20017
  Beta  occ. eigenvalues --   -2.19734  -2.19653  -2.19409  -2.18581  -1.14340
  Beta  occ. eigenvalues --   -1.14335  -1.14304  -1.14161  -1.14055  -1.14047
  Beta  occ. eigenvalues --   -1.13742  -1.13694  -1.13654  -1.13416  -1.13388
  Beta  occ. eigenvalues --   -1.13347  -1.13324  -1.13304  -1.13288  -1.13124
  Beta  occ. eigenvalues --   -1.13100  -1.13070  -1.12274  -1.12245  -1.12208
  Beta  occ. eigenvalues --   -0.17385  -0.13300  -0.11729
  Beta virt. eigenvalues --   -0.06828  -0.06461  -0.05532  -0.03988  -0.02733
  Beta virt. eigenvalues --   -0.02318  -0.02054  -0.01525  -0.01191  -0.00814
  Beta virt. eigenvalues --   -0.00159   0.00088   0.00289   0.00671   0.00737

 Mulliken charges and spin densities:
               1          2
     1  Na   0.272961   0.060126
     2  Na   0.144447   0.156836
     3  Na  -0.106699   0.065773
     4  Na  -0.101873   0.140700
     5  Na  -0.412468   0.493043
     6  Na   0.205721   0.095109
     7  Na  -0.002089  -0.011588
 Sum of Mulliken charges =  -0.00000   1.00000

 Dipole moment (field-independent basis, Debye):
    X=             -0.2488    Y=             -0.4480    Z=             -0.1219  Tot=              0.5268
 Quadrupole moment (field-independent basis, Debye-Ang):
   XX=            -53.2847   YY=            -66.7863   ZZ=            -74.5893
   XY=             -2.2329   XZ=              0.5849   YZ=              1.8314

 Normal termination of Gaussian 16 at Thu Dec  7 03:53:16 2023.
