 Gaussian 16, Revision B.01,
 Gaussian 16:  ES64L-G16RevB.01 20-Dec-2017

 -------------------------
 #P B3LYP/6-311+g(d) force
 -------------------------

 -----
 DPGEN
 -----
 Symbolic Z-matrix:
 Charge =  0 Multiplicity = 2

                         Standard orientation:
 ---------------------------------------------------------------------
 Center     Atomic      Atomic             Coordinates (Angstroms)
 Number     Number       Type             X           Y           Z
 ---------------------------------------------------------------------
      1         11           0       -1.285359   -0.311806    1.832374
      2         11           0        2.281558   -1.341158    1.563901
      3         11           0        1.861744    2.120395    0.321505
      4         11           0        3.726553   -0.477698   -1.358082
      5         11           0       -3.746475   -1.386626   -0.667147
      6         11           0       -2.605826    1.844821   -0.150436
      7         11           0       -0.232196   -0.447929   -1.542113
 ---------------------------------------------------------------------

 SCF Done:  E(UB3LYP) =  -1136.11593307     A.U. after   36 cycles

 The electronic state is 2-A.
 Alpha  occ. eigenvalues --  -38.44852 -38.44829 -38.44484 -38.44338 -38.43928
 Alpha  occ. eigenvalues --  -38.43868 -38.43592  -2.20672  -2.20647  -2.20322
 Alpha  occ. eigenvalues --   -2.20132  -2.19748  -2.19694  -2.19469  -1.14381
 Alpha  occ. eigenvalues --   -1.14364  -1.14359  -1.14319  -1.14283  -1.14249
 Alpha  occ. eigenvalues --   -1.13992  -1.13963  -1.13951  -1.13815  -1.13788
 Alpha  occ. eigenvalues --   -1.13756  -1.13420  -1.13399  -1.13372  -1.13359
 Alpha  occ. eigenvalues --   -1.13342  -1.13321  -1.13165  -1.13127  -1.13079
 Alpha  occ. eigenvalues --   -0.18019  -0.14623  -0.11205  -0.10375
 Alpha virt. eigenvalues --   -0.06770  -0.05946  -0.05268  -0.03121  -0.02740
 Alpha virt. eigenvalues --   -0.02391  -0.02024  -0.01346  -0.01152  -0.00593
 Alpha virt. eigenvalues --    0.00051   0.00137   0.00219   0.00260   0.00437

  Beta  occ. eigenvalues --  -38.44871 -38.44821 -38.44418 -38.44311 -38.43901
  Beta  occ. eigenvalues --  -38.43829 -38.43557  -2.20686  -2.20657  -2.20203
  Beta  occ. eigenvalues --   -2.20084  -2.19697  -2.19622  -2.19407  -1.14392
  Beta  occ. eigenvalues --   -1.14365  -1.14358  -1.14323  -1.14284  -1.14258
  Beta  occ. eigenvalues --   -1.13913  -1.13890  -1.13841  -1.13776  -1.13754
  Beta  occ. eigenvalues --   -1.13713  -1.13377  -1.13370  -1.13342  -1.13300
  Beta  occ. eigenvalues --   -1.13295  -1.13276  -1.13127  -1.13072  -1.13026
  Beta  occ. eigenvalues --   -0.17434  -0.14234  -0.10240
  Beta virt. eigenvalues --   -0.07398  -0.06631  -0.05659  -0.04738  -0.02789
  Beta virt. eigenvalues --   -0.02621  -0.01867  -0.01602  -0.01195  -0.00616
  Beta virt. eigenvalues --   -0.00370   0.00119   0.00242   0.00302   0.00389

 Mulliken charges and spin densities:
               1          2
     1  Na  -0.307010   0.049953
     2  Na   0.024911   0.239432
     3  Na  -0.167327   0.228043
     4  Na   0.379373   0.289843
     5  Na   0.488639   0.182524
     6  Na   0.406905   0.184055
     7  Na  -0.825491  -0.173849
 Sum of Mulliken charges =  -0.00000   1.00000

 Dipole moment (field-independent basis, Debye):
    X=             -0.1862    Y=              0.6507    Z=              0.1348  Tot=              0.6901
 Quadrupole moment (field-independent basis, Debye-Ang):
   XX=            -54.2309   YY=            -69.4709   ZZ=            -74.5710
   XY=             -0.9244   XZ=              0.1960   YZ=             -4.6746

 Normal termination of Gaussian 16 at Thu Dec  7 06:46:28 2023.
