 Gaussian 16, Revision B.01,
 Gaussian 16:  ES64L-G16RevB.01 20-Dec-2017

 -------------------------
 #P B3LYP/6-311+g(d) force
 -------------------------

 -----
 DPGEN
 -----
 Symbolic Z-matrix:
 Charge =  0 Multiplicity = 2

                         Standard orientation:
 ---------------------------------------------------------------------
 Center     Atomic      Atomic             Coordinates (Angstroms)
 Number     Number       Type             X           Y           Z
 ---------------------------------------------------------------------
      1         11           0       -1.818016    3.048820    0.177020
      2         11           0        3.737857   -0.094833   -0.365651
      3         11           0       -0.715292   -0.635676    2.283701
      4         11           0       -2.099425   -2.394678    0.026048
      5         11           0       -1.748794   -0.301967   -2.021813
      6         11           0        1.478028   -1.773260   -0.138307
      7         11           0        1.165641    2.151594    0.039002
 ---------------------------------------------------------------------

 SCF Done:  E(UB3LYP) =  -1136.12327896     A.U. after   19 cycles

 The electronic state is 2-A.
 Alpha  occ. eigenvalues --  -38.44519 -38.44464 -38.43879 -38.43840 -38.43838
 Alpha  occ. eigenvalues --  -38.43580 -38.43549  -2.20379  -2.20331  -2.19794
 Alpha  occ. eigenvalues --   -2.19746  -2.19709  -2.19428  -2.19354  -1.14101
 Alpha  occ. eigenvalues --   -1.14018  -1.13988  -1.13984  -1.13971  -1.13931
 Alpha  occ. eigenvalues --   -1.13675  -1.13466  -1.13454  -1.13420  -1.13397
 Alpha  occ. eigenvalues --   -1.13369  -1.13336  -1.13329  -1.13234  -1.13149
 Alpha  occ. eigenvalues --   -1.13112  -1.13097  -1.13005  -1.12995  -1.12956
 Alpha  occ. eigenvalues --   -0.18046  -0.13437  -0.12508  -0.11329
 Alpha virt. eigenvalues --   -0.05523  -0.05308  -0.04818  -0.03522  -0.03269
 Alpha virt. eigenvalues --   -0.02848  -0.01503  -0.01316  -0.00312  -0.00223
 Alpha virt. eigenvalues --    0.00086   0.00307   0.00519   0.00774   0.00852

  Beta  occ. eigenvalues --  -38.44437 -38.44363 -38.43871 -38.43835 -38.43830
  Beta  occ. eigenvalues --  -38.43579 -38.43552  -2.20227  -2.20144  -2.19784
  Beta  occ. eigenvalues --   -2.19736  -2.19704  -2.19426  -2.19360  -1.14003
  Beta  occ. eigenvalues --   -1.13915  -1.13868  -1.13860  -1.13857  -1.13797
  Beta  occ. eigenvalues --   -1.13672  -1.13455  -1.13428  -1.13405  -1.13374
  Beta  occ. eigenvalues --   -1.13339  -1.13333  -1.13321  -1.13231  -1.13151
  Beta  occ. eigenvalues --   -1.13099  -1.13098  -1.13003  -1.12998  -1.12959
  Beta  occ. eigenvalues --   -0.17366  -0.13110  -0.12385
  Beta virt. eigenvalues --   -0.07421  -0.05404  -0.05198  -0.04531  -0.02863
  Beta virt. eigenvalues --   -0.02525  -0.02102  -0.01480  -0.01297  -0.00287
  Beta virt. eigenvalues --    0.00034   0.00133   0.00369   0.00780   0.00897

 Mulliken charges and spin densities:
               1          2
     1  Na   0.249003   0.051639
     2  Na   0.159295  -0.347828
     3  Na  -0.158650   0.294040
     4  Na   0.780576   0.242341
     5  Na  -0.257139   0.207978
     6  Na  -0.323447   0.419354
     7  Na  -0.449639   0.132477
 Sum of Mulliken charges =  -0.00000   1.00000

 Dipole moment (field-independent basis, Debye):
    X=             -0.1857    Y=             -0.1245    Z=              0.1167  Tot=              0.2522
 Quadrupole moment (field-independent basis, Debye-Ang):
   XX=            -60.3804   YY=            -67.8436   ZZ=            -70.1358
   XY=              0.7701   XZ=             -1.0572   YZ=              0.0613

 Normal termination of Gaussian 16 at Sun Dec  3 20:55:55 2023.
