 Gaussian 16, Revision B.01,
 Gaussian 16:  ES64L-G16RevB.01 20-Dec-2017

 -------------------------
 #P B3LYP/6-311+g(d) force
 -------------------------

 -----
 DPGEN
 -----
 Symbolic Z-matrix:
 Charge =  0 Multiplicity = 2

                         Standard orientation:
 ---------------------------------------------------------------------
 Center     Atomic      Atomic             Coordinates (Angstroms)
 Number     Number       Type             X           Y           Z
 ---------------------------------------------------------------------
      1         11           0       -0.952327   -2.734106    0.699097
      2         11           0       -4.202815   -1.638125   -0.519922
      3         11           0       -3.867752    1.707920    0.209448
      4         11           0       -0.675512    3.148294   -0.438846
      5         11           0        2.594060    2.647439    0.675640
      6         11           0        4.723745   -0.072096   -0.541794
      7         11           0        2.380601   -3.059325   -0.083622
 ---------------------------------------------------------------------

 SCF Done:  E(UB3LYP) =  -1136.10821332     A.U. after   24 cycles

 The electronic state is 2-A.
 Alpha  occ. eigenvalues --  -38.45393 -38.45177 -38.44605 -38.44540 -38.44493
 Alpha  occ. eigenvalues --  -38.44308 -38.43684  -2.21156  -2.20922  -2.20367
 Alpha  occ. eigenvalues --   -2.20332  -2.20267  -2.20089  -2.19474  -1.14839
 Alpha  occ. eigenvalues --   -1.14822  -1.14795  -1.14610  -1.14600  -1.14556
 Alpha  occ. eigenvalues --   -1.14045  -1.14040  -1.14006  -1.13992  -1.13981
 Alpha  occ. eigenvalues --   -1.13972  -1.13941  -1.13935  -1.13874  -1.13746
 Alpha  occ. eigenvalues --   -1.13723  -1.13721  -1.13132  -1.13130  -1.13107
 Alpha  occ. eigenvalues --   -0.15505  -0.13921  -0.13159  -0.10728
 Alpha virt. eigenvalues --   -0.07823  -0.04801  -0.04760  -0.03496  -0.03371
 Alpha virt. eigenvalues --   -0.02619  -0.02211  -0.01874  -0.01084  -0.00970
 Alpha virt. eigenvalues --   -0.00367  -0.00120  -0.00079   0.00213   0.00598

  Beta  occ. eigenvalues --  -38.45386 -38.45177 -38.44584 -38.44501 -38.44460
  Beta  occ. eigenvalues --  -38.44239 -38.43639  -2.21146  -2.20927  -2.20333
  Beta  occ. eigenvalues --   -2.20260  -2.20210  -2.19959  -2.19391  -1.14836
  Beta  occ. eigenvalues --   -1.14819  -1.14759  -1.14618  -1.14607  -1.14526
  Beta  occ. eigenvalues --   -1.14026  -1.14015  -1.13958  -1.13944  -1.13936
  Beta  occ. eigenvalues --   -1.13917  -1.13905  -1.13899  -1.13816  -1.13658
  Beta  occ. eigenvalues --   -1.13638  -1.13631  -1.13075  -1.13073  -1.13054
  Beta  occ. eigenvalues --   -0.15001  -0.13194  -0.12449
  Beta virt. eigenvalues --   -0.08032  -0.07601  -0.04423  -0.04172  -0.03277
  Beta virt. eigenvalues --   -0.03014  -0.02398  -0.02043  -0.01761  -0.00918
  Beta virt. eigenvalues --   -0.00586  -0.00167  -0.00009   0.00159   0.00273

 Mulliken charges and spin densities:
               1          2
     1  Na  -0.354461   0.137695
     2  Na   0.303920   0.221487
     3  Na   0.142303   0.062506
     4  Na  -0.362076   0.178565
     5  Na   0.034393   0.012507
     6  Na   0.086835   0.359963
     7  Na   0.149086   0.027277
 Sum of Mulliken charges =  -0.00000   1.00000

 Dipole moment (field-independent basis, Debye):
    X=             -0.5984    Y=             -0.0756    Z=              0.0376  Tot=              0.6044
 Quadrupole moment (field-independent basis, Debye-Ang):
   XX=            -59.2617   YY=            -68.4190   ZZ=            -71.5090
   XY=             -1.7777   XZ=             -0.2811   YZ=              2.8033

 Normal termination of Gaussian 16 at Sun Dec  3 22:47:03 2023.
