 Gaussian 16, Revision B.01,
 Gaussian 16:  ES64L-G16RevB.01 20-Dec-2017

 -------------------------
 #P B3LYP/6-311+g(d) force
 -------------------------

 -----
 DPGEN
 -----
 Symbolic Z-matrix:
 Charge =  0 Multiplicity = 2

                         Standard orientation:
 ---------------------------------------------------------------------
 Center     Atomic      Atomic             Coordinates (Angstroms)
 Number     Number       Type             X           Y           Z
 ---------------------------------------------------------------------
      1         11           0       -0.018222    0.026626    1.656141
      2         11           0       -0.042174    0.295379   -1.593505
      3         11           0       -0.014734   -2.646641   -0.070426
      4         11           0        2.642085   -1.089249    0.016511
      5         11           0        1.991298    2.174935   -0.044071
      6         11           0       -2.697901   -0.985948   -0.085767
      7         11           0       -1.860352    2.224898    0.121117
 ---------------------------------------------------------------------

 SCF Done:  E(UB3LYP) =  -1136.13370650     A.U. after   20 cycles

 The electronic state is 2-A.
 Alpha  occ. eigenvalues --  -38.43644 -38.43630 -38.43618 -38.43606 -38.43033
 Alpha  occ. eigenvalues --  -38.42863 -38.42819  -2.19549  -2.19538  -2.19534
 Alpha  occ. eigenvalues --   -2.19529  -2.19008  -2.18936  -2.18906  -1.13274
 Alpha  occ. eigenvalues --   -1.13260  -1.13246  -1.13240  -1.13214  -1.13211
 Alpha  occ. eigenvalues --   -1.13200  -1.13198  -1.13186  -1.13177  -1.13127
 Alpha  occ. eigenvalues --   -1.13122  -1.12747  -1.12666  -1.12646  -1.12643
 Alpha  occ. eigenvalues --   -1.12551  -1.12545  -1.12530  -1.12518  -1.12515
 Alpha  occ. eigenvalues --   -0.19760  -0.13389  -0.12868  -0.10657
 Alpha virt. eigenvalues --   -0.05347  -0.05205  -0.04556  -0.03087  -0.02817
 Alpha virt. eigenvalues --   -0.02088  -0.01377  -0.01139  -0.00118   0.00045
 Alpha virt. eigenvalues --    0.00052   0.00367   0.00866   0.00943   0.00959

  Beta  occ. eigenvalues --  -38.43638 -38.43622 -38.43611 -38.43599 -38.43024
  Beta  occ. eigenvalues --  -38.42782 -38.42745  -2.19540  -2.19530  -2.19525
  Beta  occ. eigenvalues --   -2.19521  -2.18996  -2.18790  -2.18771  -1.13270
  Beta  occ. eigenvalues --   -1.13256  -1.13245  -1.13237  -1.13203  -1.13185
  Beta  occ. eigenvalues --   -1.13172  -1.13163  -1.13156  -1.13148  -1.13126
  Beta  occ. eigenvalues --   -1.13120  -1.12720  -1.12644  -1.12611  -1.12563
  Beta  occ. eigenvalues --   -1.12456  -1.12440  -1.12433  -1.12421  -1.12417
  Beta  occ. eigenvalues --   -0.19018  -0.13097  -0.12576
  Beta virt. eigenvalues --   -0.06684  -0.05343  -0.05199  -0.04559  -0.02239
  Beta virt. eigenvalues --   -0.01995  -0.01300  -0.01084  -0.01049  -0.00177
  Beta virt. eigenvalues --   -0.00006   0.00177   0.00397   0.00900   0.00953

 Mulliken charges and spin densities:
               1          2
     1  Na  -0.604797   0.645113
     2  Na  -0.638258   0.589880
     3  Na   0.252471   0.005304
     4  Na   0.228954  -0.012060
     5  Na   0.225320  -0.113455
     6  Na   0.297845  -0.001627
     7  Na   0.238465  -0.113155
 Sum of Mulliken charges =  -0.00000   1.00000

 Dipole moment (field-independent basis, Debye):
    X=             -0.0032    Y=              0.3266    Z=              0.0335  Tot=              0.3283
 Quadrupole moment (field-independent basis, Debye-Ang):
   XX=            -56.2948   YY=            -61.0204   ZZ=            -75.2706
   XY=              0.1307   XZ=             -0.0052   YZ=              0.6217

 Normal termination of Gaussian 16 at Tue Dec  5 19:00:37 2023.
