 Gaussian 16, Revision B.01,
 Gaussian 16:  ES64L-G16RevB.01 20-Dec-2017

 -------------------------
 #P B3LYP/6-311+g(d) force
 -------------------------

 -----
 DPGEN
 -----
 Symbolic Z-matrix:
 Charge =  0 Multiplicity = 2

                         Standard orientation:
 ---------------------------------------------------------------------
 Center     Atomic      Atomic             Coordinates (Angstroms)
 Number     Number       Type             X           Y           Z
 ---------------------------------------------------------------------
      1         11           0        3.566642   -0.769573   -1.269862
      2         11           0        0.049289   -0.290690   -1.676381
      3         11           0       -1.641805   -1.443874    1.360409
      4         11           0       -3.925389   -0.832101   -0.838345
      5         11           0       -1.755725    2.317838    0.336531
      6         11           0        1.636627    2.113582    0.407772
      7         11           0        2.070361   -1.095182    1.679876
 ---------------------------------------------------------------------

 SCF Done:  E(UB3LYP) =  -1136.12508850     A.U. after   23 cycles

 The electronic state is 2-A.
 Alpha  occ. eigenvalues --  -38.45034 -38.44716 -38.44310 -38.44025 -38.43980
 Alpha  occ. eigenvalues --  -38.43112 -38.43049  -2.20864  -2.20511  -2.20137
 Alpha  occ. eigenvalues --   -2.19867  -2.19834  -2.18964  -2.18860  -1.14567
 Alpha  occ. eigenvalues --   -1.14511  -1.14480  -1.14188  -1.14169  -1.14147
 Alpha  occ. eigenvalues --   -1.13799  -1.13793  -1.13777  -1.13553  -1.13520
 Alpha  occ. eigenvalues --   -1.13502  -1.13496  -1.13480  -1.13453  -1.12650
 Alpha  occ. eigenvalues --   -1.12640  -1.12593  -1.12543  -1.12519  -1.12479
 Alpha  occ. eigenvalues --   -0.17988  -0.14055  -0.11272  -0.10958
 Alpha virt. eigenvalues --   -0.06801  -0.05354  -0.04975  -0.03254  -0.02703
 Alpha virt. eigenvalues --   -0.02520  -0.02210  -0.01326  -0.00866  -0.00283
 Alpha virt. eigenvalues --    0.00098   0.00194   0.00258   0.00419   0.00680

  Beta  occ. eigenvalues --  -38.44989 -38.44714 -38.44281 -38.43989 -38.43927
  Beta  occ. eigenvalues --  -38.43101 -38.43049  -2.20782  -2.20506  -2.20085
  Beta  occ. eigenvalues --   -2.19801  -2.19738  -2.18946  -2.18862  -1.14503
  Beta  occ. eigenvalues --   -1.14456  -1.14412  -1.14185  -1.14166  -1.14142
  Beta  occ. eigenvalues --   -1.13760  -1.13756  -1.13738  -1.13511  -1.13476
  Beta  occ. eigenvalues --   -1.13434  -1.13427  -1.13415  -1.13377  -1.12635
  Beta  occ. eigenvalues --   -1.12613  -1.12586  -1.12537  -1.12521  -1.12480
  Beta  occ. eigenvalues --   -0.17314  -0.13942  -0.10885
  Beta virt. eigenvalues --   -0.07315  -0.06528  -0.05179  -0.04462  -0.03012
  Beta virt. eigenvalues --   -0.02473  -0.01926  -0.01616  -0.01017  -0.00615
  Beta virt. eigenvalues --   -0.00257   0.00140   0.00346   0.00375   0.00505

 Mulliken charges and spin densities:
               1          2
     1  Na   0.694105   0.087900
     2  Na  -0.892849   0.389101
     3  Na  -0.130120   0.168892
     4  Na   0.665728   0.025088
     5  Na  -0.070490  -0.064603
     6  Na  -0.090108   0.225871
     7  Na  -0.176265   0.167751
 Sum of Mulliken charges =  -0.00000   1.00000

 Dipole moment (field-independent basis, Debye):
    X=             -0.3168    Y=             -0.1521    Z=             -0.5271  Tot=              0.6335
 Quadrupole moment (field-independent basis, Debye-Ang):
   XX=            -48.7365   YY=            -78.4136   ZZ=            -68.6449
   XY=             -0.3760   XZ=              1.6637   YZ=              0.8288

 Normal termination of Gaussian 16 at Thu Dec  7 07:49:01 2023.
