 Gaussian 16, Revision B.01,
 Gaussian 16:  ES64L-G16RevB.01 20-Dec-2017

 -------------------------
 #P B3LYP/6-311+g(d) force
 -------------------------

 -----
 DPGEN
 -----
 Symbolic Z-matrix:
 Charge =  0 Multiplicity = 2

                         Standard orientation:
 ---------------------------------------------------------------------
 Center     Atomic      Atomic             Coordinates (Angstroms)
 Number     Number       Type             X           Y           Z
 ---------------------------------------------------------------------
      1         11           0       -0.174739   -0.558754    2.032341
      2         11           0        1.112501   -2.826448   -0.213563
      3         11           0        1.048202    2.690943    0.480127
      4         11           0        3.227307    0.004430   -0.198625
      5         11           0       -2.034428    1.716474   -0.387959
      6         11           0       -3.310753   -1.115215   -0.048530
      7         11           0        0.131910    0.088570   -1.663791
 ---------------------------------------------------------------------

 SCF Done:  E(UB3LYP) =  -1136.13209427     A.U. after   20 cycles

 The electronic state is 2-A.
 Alpha  occ. eigenvalues --  -38.44593 -38.44497 -38.43659 -38.43496 -38.43456
 Alpha  occ. eigenvalues --  -38.43368 -38.42917  -2.20413  -2.20301  -2.19526
 Alpha  occ. eigenvalues --   -2.19472  -2.19309  -2.19288  -2.18778  -1.14096
 Alpha  occ. eigenvalues --   -1.14072  -1.14044  -1.13996  -1.13959  -1.13934
 Alpha  occ. eigenvalues --   -1.13252  -1.13198  -1.13162  -1.13141  -1.13134
 Alpha  occ. eigenvalues --   -1.13082  -1.12968  -1.12952  -1.12947  -1.12944
 Alpha  occ. eigenvalues --   -1.12928  -1.12916  -1.12445  -1.12431  -1.12429
 Alpha  occ. eigenvalues --   -0.18567  -0.13318  -0.12130  -0.10774
 Alpha virt. eigenvalues --   -0.06281  -0.04845  -0.04435  -0.03335  -0.02971
 Alpha virt. eigenvalues --   -0.02487  -0.01944  -0.01003  -0.00478  -0.00149
 Alpha virt. eigenvalues --    0.00011   0.00325   0.00765   0.00804   0.00840

  Beta  occ. eigenvalues --  -38.44589 -38.44499 -38.43568 -38.43451 -38.43433
  Beta  occ. eigenvalues --  -38.43355 -38.42907  -2.20407  -2.20307  -2.19360
  Beta  occ. eigenvalues --   -2.19355  -2.19289  -2.19283  -2.18761  -1.14081
  Beta  occ. eigenvalues --   -1.14060  -1.14042  -1.14002  -1.13947  -1.13937
  Beta  occ. eigenvalues --   -1.13185  -1.13094  -1.13052  -1.13045  -1.13022
  Beta  occ. eigenvalues --   -1.13005  -1.12951  -1.12933  -1.12926  -1.12917
  Beta  occ. eigenvalues --   -1.12909  -1.12892  -1.12435  -1.12422  -1.12396
  Beta  occ. eigenvalues --   -0.17843  -0.13083  -0.11907
  Beta virt. eigenvalues --   -0.06878  -0.06240  -0.04804  -0.04380  -0.02575
  Beta virt. eigenvalues --   -0.02186  -0.01865  -0.01479  -0.00915  -0.00530
  Beta virt. eigenvalues --   -0.00119   0.00118   0.00354   0.00810   0.00880

 Mulliken charges and spin densities:
               1          2
     1  Na  -0.484362   0.688361
     2  Na  -0.001604  -0.109659
     3  Na  -0.051650   0.072325
     4  Na   0.139843  -0.004822
     5  Na   0.337022   0.163868
     6  Na   0.045070  -0.097330
     7  Na   0.015681   0.287258
 Sum of Mulliken charges =  -0.00000   1.00000

 Dipole moment (field-independent basis, Debye):
    X=              0.1238    Y=             -0.4607    Z=              0.1080  Tot=              0.4891
 Quadrupole moment (field-independent basis, Debye-Ang):
   XX=            -53.7366   YY=            -65.4390   ZZ=            -74.1919
   XY=              1.9379   XZ=              0.3663   YZ=              1.3604

 Normal termination of Gaussian 16 at Fri Dec  8 01:07:52 2023.
