 Gaussian 16, Revision B.01,
 Gaussian 16:  ES64L-G16RevB.01 20-Dec-2017

 -------------------------
 #P B3LYP/6-311+g(d) force
 -------------------------

 -----
 DPGEN
 -----
 Symbolic Z-matrix:
 Charge =  0 Multiplicity = 2

                         Standard orientation:
 ---------------------------------------------------------------------
 Center     Atomic      Atomic             Coordinates (Angstroms)
 Number     Number       Type             X           Y           Z
 ---------------------------------------------------------------------
      1         11           0        4.389167   -1.070013   -0.413792
      2         11           0        0.166191   -0.504277   -1.545785
      3         11           0       -0.770052   -0.352016    2.239350
      4         11           0        1.930851    0.998761    0.916319
      5         11           0       -0.479627    3.034447   -0.554969
      6         11           0       -3.044090    0.684684   -0.418521
      7         11           0       -2.192439   -2.791586   -0.222603
 ---------------------------------------------------------------------

 SCF Done:  E(UB3LYP) =  -1136.12435538     A.U. after   22 cycles

 The electronic state is 2-A.
 Alpha  occ. eigenvalues --  -38.44798 -38.44666 -38.44623 -38.44230 -38.43530
 Alpha  occ. eigenvalues --  -38.43333 -38.42943  -2.20630  -2.20514  -2.20368
 Alpha  occ. eigenvalues --   -2.20096  -2.19337  -2.19226  -2.18769  -1.14323
 Alpha  occ. eigenvalues --   -1.14302  -1.14238  -1.14224  -1.14159  -1.14126
 Alpha  occ. eigenvalues --   -1.14039  -1.14036  -1.13995  -1.13773  -1.13725
 Alpha  occ. eigenvalues --   -1.13692  -1.13010  -1.12999  -1.12976  -1.12939
 Alpha  occ. eigenvalues --   -1.12902  -1.12824  -1.12437  -1.12431  -1.12413
 Alpha  occ. eigenvalues --   -0.18083  -0.13147  -0.11674  -0.11151
 Alpha virt. eigenvalues --   -0.06920  -0.05136  -0.04234  -0.03349  -0.02810
 Alpha virt. eigenvalues --   -0.02621  -0.02368  -0.01271  -0.00715  -0.00422
 Alpha virt. eigenvalues --   -0.00025   0.00147   0.00321   0.00667   0.00747

  Beta  occ. eigenvalues --  -38.44785 -38.44627 -38.44619 -38.44119 -38.43529
  Beta  occ. eigenvalues --  -38.43310 -38.42939  -2.20607  -2.20443  -2.20360
  Beta  occ. eigenvalues --   -2.19893  -2.19337  -2.19188  -2.18762  -1.14292
  Beta  occ. eigenvalues --   -1.14285  -1.14224  -1.14171  -1.14107  -1.14072
  Beta  occ. eigenvalues --   -1.14034  -1.14030  -1.13990  -1.13632  -1.13589
  Beta  occ. eigenvalues --   -1.13545  -1.13010  -1.12986  -1.12978  -1.12914
  Beta  occ. eigenvalues --   -1.12854  -1.12790  -1.12434  -1.12415  -1.12407
  Beta  occ. eigenvalues --   -0.17333  -0.12983  -0.11470
  Beta virt. eigenvalues --   -0.07247  -0.06699  -0.05067  -0.03933  -0.02840
  Beta virt. eigenvalues --   -0.02381  -0.02011  -0.01800  -0.01172  -0.00671
  Beta virt. eigenvalues --   -0.00171   0.00030   0.00175   0.00478   0.00707

 Mulliken charges and spin densities:
               1          2
     1  Na   0.062819   0.017928
     2  Na  -0.451534   0.340305
     3  Na  -0.200949   0.397087
     4  Na   0.286187   0.142158
     5  Na  -0.104744  -0.036064
     6  Na   0.286666   0.148466
     7  Na   0.121556  -0.009880
 Sum of Mulliken charges =  -0.00000   1.00000

 Dipole moment (field-independent basis, Debye):
    X=             -0.3901    Y=             -0.3885    Z=             -0.1918  Tot=              0.5830
 Quadrupole moment (field-independent basis, Debye-Ang):
   XX=            -55.1424   YY=            -67.0383   ZZ=            -71.8964
   XY=             -1.3757   XZ=             -1.0412   YZ=              0.9151

 Normal termination of Gaussian 16 at Thu Dec  7 19:08:24 2023.
