 Gaussian 16, Revision B.01,
 Gaussian 16:  ES64L-G16RevB.01 20-Dec-2017

 -------------------------
 #P B3LYP/6-311+g(d) force
 -------------------------

 -----
 DPGEN
 -----
 Symbolic Z-matrix:
 Charge =  0 Multiplicity = 2

                         Standard orientation:
 ---------------------------------------------------------------------
 Center     Atomic      Atomic             Coordinates (Angstroms)
 Number     Number       Type             X           Y           Z
 ---------------------------------------------------------------------
      1         11           0        0.707535   -2.307063   -0.303953
      2         11           0        3.298266   -0.920310    0.330064
      3         11           0       -3.048162   -1.523568    0.022908
      4         11           0       -0.485101    0.077962    1.969927
      5         11           0        0.087537    0.150097   -1.898176
      6         11           0        1.832422    2.572673    0.006882
      7         11           0       -2.392498    1.950208   -0.127652
 ---------------------------------------------------------------------

 SCF Done:  E(UB3LYP) =  -1136.12824410     A.U. after   21 cycles

 The electronic state is 2-A.
 Alpha  occ. eigenvalues --  -38.44610 -38.44371 -38.44189 -38.43955 -38.43630
 Alpha  occ. eigenvalues --  -38.43587 -38.42893  -2.20433  -2.20166  -2.20009
 Alpha  occ. eigenvalues --   -2.19831  -2.19560  -2.19366  -2.18834  -1.14142
 Alpha  occ. eigenvalues --   -1.14085  -1.14057  -1.13840  -1.13825  -1.13813
 Alpha  occ. eigenvalues --   -1.13697  -1.13684  -1.13627  -1.13508  -1.13466
 Alpha  occ. eigenvalues --   -1.13438  -1.13287  -1.13191  -1.13161  -1.13045
 Alpha  occ. eigenvalues --   -1.13027  -1.13004  -1.12534  -1.12487  -1.12447
 Alpha  occ. eigenvalues --   -0.18412  -0.13353  -0.11795  -0.10813
 Alpha virt. eigenvalues --   -0.06160  -0.05744  -0.03871  -0.03498  -0.02705
 Alpha virt. eigenvalues --   -0.02673  -0.01970  -0.01383  -0.00504  -0.00113
 Alpha virt. eigenvalues --   -0.00012   0.00310   0.00659   0.00758   0.00788

  Beta  occ. eigenvalues --  -38.44607 -38.44371 -38.44183 -38.43879 -38.43588
  Beta  occ. eigenvalues --  -38.43542 -38.42878  -2.20429  -2.20169  -2.20002
  Beta  occ. eigenvalues --   -2.19690  -2.19399  -2.19369  -2.18812  -1.14142
  Beta  occ. eigenvalues --   -1.14068  -1.14056  -1.13834  -1.13823  -1.13811
  Beta  occ. eigenvalues --   -1.13684  -1.13662  -1.13626  -1.13414  -1.13367
  Beta  occ. eigenvalues --   -1.13336  -1.13177  -1.13081  -1.13059  -1.13028
  Beta  occ. eigenvalues --   -1.13019  -1.13005  -1.12513  -1.12448  -1.12428
  Beta  occ. eigenvalues --   -0.17658  -0.13160  -0.11565
  Beta virt. eigenvalues --   -0.06936  -0.06008  -0.05762  -0.03867  -0.02730
  Beta virt. eigenvalues --   -0.01955  -0.01856  -0.01644  -0.01322  -0.00554
  Beta virt. eigenvalues --   -0.00065   0.00068   0.00329   0.00733   0.00773

 Mulliken charges and spin densities:
               1          2
     1  Na   0.359604   0.021853
     2  Na  -0.102969  -0.011481
     3  Na   0.203359  -0.062561
     4  Na  -0.392837   0.713068
     5  Na  -0.119089   0.616322
     6  Na  -0.048743  -0.114591
     7  Na   0.100675  -0.162609
 Sum of Mulliken charges =  -0.00000   1.00000

 Dipole moment (field-independent basis, Debye):
    X=             -0.2970    Y=              0.1523    Z=              0.2067  Tot=              0.3926
 Quadrupole moment (field-independent basis, Debye-Ang):
   XX=            -51.0559   YY=            -68.3796   ZZ=            -73.8369
   XY=              0.6132   XZ=              1.8200   YZ=             -0.1307

 Normal termination of Gaussian 16 at Tue Dec  5 09:53:48 2023.
