 Gaussian 16, Revision B.01,
 Gaussian 16:  ES64L-G16RevB.01 20-Dec-2017

 -------------------------
 #P B3LYP/6-311+g(d) force
 -------------------------

 -----
 DPGEN
 -----
 Symbolic Z-matrix:
 Charge =  0 Multiplicity = 2

                         Standard orientation:
 ---------------------------------------------------------------------
 Center     Atomic      Atomic             Coordinates (Angstroms)
 Number     Number       Type             X           Y           Z
 ---------------------------------------------------------------------
      1         11           0        1.964534   -1.956092   -1.616033
      2         11           0       -1.111565   -1.790007    1.479934
      3         11           0        4.314862    0.011103   -0.468353
      4         11           0        0.055407    3.113936    0.060991
      5         11           0       -2.790400    1.920365   -1.016614
      6         11           0       -3.868299   -1.669824   -0.332049
      7         11           0        1.435461    0.370519    1.892124
 ---------------------------------------------------------------------

 SCF Done:  E(UB3LYP) =  -1136.11416475     A.U. after   22 cycles

 The electronic state is 2-A.
 Alpha  occ. eigenvalues --  -38.45620 -38.45143 -38.44391 -38.44084 -38.44008
 Alpha  occ. eigenvalues --  -38.43744 -38.42977  -2.21387  -2.20933  -2.20231
 Alpha  occ. eigenvalues --   -2.19871  -2.19790  -2.19570  -2.18769  -1.15056
 Alpha  occ. eigenvalues --   -1.15031  -1.15027  -1.14597  -1.14579  -1.14567
 Alpha  occ. eigenvalues --   -1.13914  -1.13866  -1.13847  -1.13546  -1.13529
 Alpha  occ. eigenvalues --   -1.13495  -1.13465  -1.13451  -1.13435  -1.13236
 Alpha  occ. eigenvalues --   -1.13227  -1.13193  -1.12442  -1.12436  -1.12420
 Alpha  occ. eigenvalues --   -0.16669  -0.13718  -0.11717  -0.11390
 Alpha virt. eigenvalues --   -0.06981  -0.05288  -0.04563  -0.03567  -0.03375
 Alpha virt. eigenvalues --   -0.02339  -0.02177  -0.01312  -0.00845  -0.00523
 Alpha virt. eigenvalues --   -0.00321  -0.00065   0.00129   0.00398   0.00525

  Beta  occ. eigenvalues --  -38.45589 -38.45121 -38.44314 -38.44046 -38.44001
  Beta  occ. eigenvalues --  -38.43697 -38.42983  -2.21332  -2.20894  -2.20091
  Beta  occ. eigenvalues --   -2.19800  -2.19778  -2.19486  -2.18783  -1.15020
  Beta  occ. eigenvalues --   -1.14995  -1.14976  -1.14568  -1.14547  -1.14539
  Beta  occ. eigenvalues --   -1.13811  -1.13760  -1.13758  -1.13497  -1.13484
  Beta  occ. eigenvalues --   -1.13457  -1.13447  -1.13443  -1.13416  -1.13180
  Beta  occ. eigenvalues --   -1.13172  -1.13120  -1.12452  -1.12446  -1.12418
  Beta  occ. eigenvalues --   -0.15944  -0.13210  -0.11651
  Beta virt. eigenvalues --   -0.07794  -0.06810  -0.04797  -0.04085  -0.03297
  Beta virt. eigenvalues --   -0.02995  -0.02144  -0.01809  -0.01056  -0.00607
  Beta virt. eigenvalues --   -0.00436  -0.00221   0.00070   0.00271   0.00590

 Mulliken charges and spin densities:
               1          2
     1  Na  -0.134856   0.195746
     2  Na  -0.209049   0.162971
     3  Na   0.434276   0.063402
     4  Na  -0.015516  -0.068460
     5  Na  -0.116222   0.238936
     6  Na   0.165954   0.071820
     7  Na  -0.124587   0.335585
 Sum of Mulliken charges =  -0.00000   1.00000

 Dipole moment (field-independent basis, Debye):
    X=              1.4720    Y=             -0.7000    Z=             -0.7057  Tot=              1.7762
 Quadrupole moment (field-independent basis, Debye-Ang):
   XX=            -55.8202   YY=            -73.4221   ZZ=            -69.3475
   XY=              4.8464   XZ=              4.0014   YZ=              2.4385

 Normal termination of Gaussian 16 at Sun Dec  3 23:29:19 2023.
