 Gaussian 16, Revision B.01,
 Gaussian 16:  ES64L-G16RevB.01 20-Dec-2017

 -------------------------
 #P B3LYP/6-311+g(d) force
 -------------------------

 -----
 DPGEN
 -----
 Symbolic Z-matrix:
 Charge =  0 Multiplicity = 2

                         Standard orientation:
 ---------------------------------------------------------------------
 Center     Atomic      Atomic             Coordinates (Angstroms)
 Number     Number       Type             X           Y           Z
 ---------------------------------------------------------------------
      1         11           0        3.138086    0.443053   -0.114116
      2         11           0       -2.411099   -1.641996   -0.273832
      3         11           0        1.637642   -2.518993   -0.273544
      4         11           0        0.068609    0.158011   -1.474727
      5         11           0       -2.774804    1.296376   -0.317315
      6         11           0        0.738955    2.870360    0.300558
      7         11           0       -0.397389   -0.606812    2.152977
 ---------------------------------------------------------------------

 SCF Done:  E(UB3LYP) =  -1136.13316874     A.U. after   19 cycles

 The electronic state is 2-A.
 Alpha  occ. eigenvalues --  -38.44221 -38.44082 -38.43852 -38.43707 -38.43352
 Alpha  occ. eigenvalues --  -38.43146 -38.43118  -2.20068  -2.19971  -2.19772
 Alpha  occ. eigenvalues --   -2.19580  -2.19200  -2.19165  -2.18950  -1.13751
 Alpha  occ. eigenvalues --   -1.13747  -1.13730  -1.13707  -1.13630  -1.13600
 Alpha  occ. eigenvalues --   -1.13438  -1.13429  -1.13374  -1.13230  -1.13205
 Alpha  occ. eigenvalues --   -1.13192  -1.12908  -1.12864  -1.12852  -1.12834
 Alpha  occ. eigenvalues --   -1.12811  -1.12782  -1.12618  -1.12610  -1.12586
 Alpha  occ. eigenvalues --   -0.18744  -0.13590  -0.12135  -0.10782
 Alpha virt. eigenvalues --   -0.05824  -0.05260  -0.04449  -0.03382  -0.02864
 Alpha virt. eigenvalues --   -0.02442  -0.01669  -0.01043  -0.00352  -0.00311
 Alpha virt. eigenvalues --   -0.00021   0.00349   0.00747   0.00877   0.00892

  Beta  occ. eigenvalues --  -38.44220 -38.44072 -38.43842 -38.43605 -38.43346
  Beta  occ. eigenvalues --  -38.43112 -38.43097  -2.20067  -2.19956  -2.19757
  Beta  occ. eigenvalues --   -2.19390  -2.19193  -2.19076  -2.18942  -1.13745
  Beta  occ. eigenvalues --   -1.13740  -1.13723  -1.13706  -1.13614  -1.13572
  Beta  occ. eigenvalues --   -1.13430  -1.13385  -1.13359  -1.13107  -1.13073
  Beta  occ. eigenvalues --   -1.13058  -1.12891  -1.12851  -1.12820  -1.12789
  Beta  occ. eigenvalues --   -1.12754  -1.12722  -1.12608  -1.12590  -1.12583
  Beta  occ. eigenvalues --   -0.18037  -0.13326  -0.11924
  Beta virt. eigenvalues --   -0.06847  -0.05759  -0.05245  -0.04386  -0.02607
  Beta virt. eigenvalues --   -0.02071  -0.01569  -0.01442  -0.00991  -0.00402
  Beta virt. eigenvalues --   -0.00318   0.00155   0.00394   0.00835   0.00872

 Mulliken charges and spin densities:
               1          2
     1  Na   0.087994  -0.001857
     2  Na   0.517254   0.052629
     3  Na   0.188275  -0.035935
     4  Na  -0.289368   0.143914
     5  Na   0.187480   0.073057
     6  Na  -0.021606   0.039467
     7  Na  -0.670030   0.728726
 Sum of Mulliken charges =  -0.00000   1.00000

 Dipole moment (field-independent basis, Debye):
    X=              0.0348    Y=             -0.0520    Z=              0.1927  Tot=              0.2026
 Quadrupole moment (field-independent basis, Debye-Ang):
   XX=            -55.3553   YY=            -64.7579   ZZ=            -74.1607
   XY=             -0.5121   XZ=              0.9288   YZ=              1.5503

 Normal termination of Gaussian 16 at Thu Dec  7 04:41:30 2023.
