 Gaussian 16, Revision B.01,
 Gaussian 16:  ES64L-G16RevB.01 20-Dec-2017

 -------------------------
 #P B3LYP/6-311+g(d) force
 -------------------------

 -----
 DPGEN
 -----
 Symbolic Z-matrix:
 Charge =  0 Multiplicity = 2

                         Standard orientation:
 ---------------------------------------------------------------------
 Center     Atomic      Atomic             Coordinates (Angstroms)
 Number     Number       Type             X           Y           Z
 ---------------------------------------------------------------------
      1         11           0        2.424088   -1.823298    0.350835
      2         11           0       -0.489488   -0.331137    2.094926
      3         11           0        0.697835   -0.630965   -2.072477
      4         11           0        2.413876    1.967356    0.308271
      5         11           0       -1.307400   -2.434020   -0.186340
      6         11           0       -0.521860    2.682156   -0.356058
      7         11           0       -3.217050    0.569909   -0.139156
 ---------------------------------------------------------------------

 SCF Done:  E(UB3LYP) =  -1136.13461875     A.U. after   19 cycles

 The electronic state is 2-A.
 Alpha  occ. eigenvalues --  -38.44039 -38.43951 -38.43929 -38.43927 -38.43692
 Alpha  occ. eigenvalues --  -38.43657 -38.43188  -2.19917  -2.19814  -2.19783
 Alpha  occ. eigenvalues --   -2.19740  -2.19533  -2.19519  -2.19042  -1.13605
 Alpha  occ. eigenvalues --   -1.13555  -1.13541  -1.13531  -1.13481  -1.13445
 Alpha  occ. eigenvalues --   -1.13432  -1.13411  -1.13408  -1.13404  -1.13393
 Alpha  occ. eigenvalues --   -1.13385  -1.13230  -1.13214  -1.13209  -1.13176
 Alpha  occ. eigenvalues --   -1.13151  -1.13133  -1.12710  -1.12705  -1.12680
 Alpha  occ. eigenvalues --   -0.18338  -0.12797  -0.12561  -0.11146
 Alpha virt. eigenvalues --   -0.05684  -0.05169  -0.04522  -0.03495  -0.03201
 Alpha virt. eigenvalues --   -0.02910  -0.01392  -0.01014  -0.00288  -0.00147
 Alpha virt. eigenvalues --   -0.00096   0.00390   0.00777   0.00789   0.00861

  Beta  occ. eigenvalues --  -38.43956 -38.43945 -38.43929 -38.43850 -38.43690
  Beta  occ. eigenvalues --  -38.43646 -38.43183  -2.19777  -2.19764  -2.19740
  Beta  occ. eigenvalues --   -2.19672  -2.19518  -2.19517  -2.19035  -1.13512
  Beta  occ. eigenvalues --   -1.13497  -1.13448  -1.13435  -1.13414  -1.13414
  Beta  occ. eigenvalues --   -1.13403  -1.13396  -1.13384  -1.13377  -1.13331
  Beta  occ. eigenvalues --   -1.13323  -1.13230  -1.13200  -1.13161  -1.13159
  Beta  occ. eigenvalues --   -1.13152  -1.13128  -1.12707  -1.12686  -1.12676
  Beta  occ. eigenvalues --   -0.17588  -0.12624  -0.12346
  Beta virt. eigenvalues --   -0.07260  -0.05633  -0.05066  -0.04381  -0.02772
  Beta virt. eigenvalues --   -0.02452  -0.01921  -0.01318  -0.00964  -0.00328
  Beta virt. eigenvalues --   -0.00136   0.00058   0.00430   0.00835   0.00907

 Mulliken charges and spin densities:
               1          2
     1  Na   0.286507  -0.061903
     2  Na  -0.375906   0.669594
     3  Na  -0.267579   0.596508
     4  Na  -0.025615  -0.030787
     5  Na   0.387359  -0.062713
     6  Na  -0.046402  -0.046647
     7  Na   0.041636  -0.064053
 Sum of Mulliken charges =  -0.00000   1.00000

 Dipole moment (field-independent basis, Debye):
    X=              0.0250    Y=             -0.3528    Z=              0.0760  Tot=              0.3618
 Quadrupole moment (field-independent basis, Debye-Ang):
   XX=            -58.6893   YY=            -66.9417   ZZ=            -70.6678
   XY=             -0.5811   XZ=              2.2652   YZ=             -0.4504

 Normal termination of Gaussian 16 at Sun Dec  3 12:57:02 2023.
