 Gaussian 16, Revision B.01,
 Gaussian 16:  ES64L-G16RevB.01 20-Dec-2017

 -------------------------
 #P B3LYP/6-311+g(d) force
 -------------------------

 -----
 DPGEN
 -----
 Symbolic Z-matrix:
 Charge =  0 Multiplicity = 2

                         Standard orientation:
 ---------------------------------------------------------------------
 Center     Atomic      Atomic             Coordinates (Angstroms)
 Number     Number       Type             X           Y           Z
 ---------------------------------------------------------------------
      1         11           0       -1.659520    2.031505   -0.538079
      2         11           0       -0.356114    0.286901    1.353807
      3         11           0       -3.664968   -0.703625    1.006412
      4         11           0       -1.926139   -1.031663   -1.479845
      5         11           0        1.587615   -1.979436   -0.345544
      6         11           0        1.869725    1.642207   -0.422143
      7         11           0        4.149401   -0.245889    0.425392
 ---------------------------------------------------------------------

 SCF Done:  E(UB3LYP) =  -1136.11221836     A.U. after   27 cycles

 The electronic state is 2-A.
 Alpha  occ. eigenvalues --  -38.45103 -38.44549 -38.44049 -38.43718 -38.43562
 Alpha  occ. eigenvalues --  -38.43427 -38.43354  -2.21093  -2.20421  -2.19969
 Alpha  occ. eigenvalues --   -2.19610  -2.19434  -2.19375  -2.19283  -1.14829
 Alpha  occ. eigenvalues --   -1.14778  -1.14702  -1.14111  -1.14062  -1.14050
 Alpha  occ. eigenvalues --   -1.13674  -1.13645  -1.13612  -1.13261  -1.13238
 Alpha  occ. eigenvalues --   -1.13228  -1.13136  -1.13095  -1.13086  -1.13048
 Alpha  occ. eigenvalues --   -1.13039  -1.12985  -1.12961  -1.12938  -1.12888
 Alpha  occ. eigenvalues --   -0.18909  -0.14954  -0.11244  -0.10543
 Alpha virt. eigenvalues --   -0.07448  -0.05327  -0.04299  -0.03332  -0.03060
 Alpha virt. eigenvalues --   -0.02044  -0.01750  -0.01313  -0.00954  -0.00254
 Alpha virt. eigenvalues --   -0.00092   0.00171   0.00328   0.00722   0.00756

  Beta  occ. eigenvalues --  -38.45100 -38.44516 -38.44026 -38.43661 -38.43532
  Beta  occ. eigenvalues --  -38.43411 -38.43343  -2.21091  -2.20359  -2.19932
  Beta  occ. eigenvalues --   -2.19501  -2.19382  -2.19348  -2.19265  -1.14828
  Beta  occ. eigenvalues --   -1.14738  -1.14708  -1.14067  -1.14022  -1.14008
  Beta  occ. eigenvalues --   -1.13646  -1.13608  -1.13565  -1.13187  -1.13172
  Beta  occ. eigenvalues --   -1.13148  -1.13104  -1.13073  -1.13058  -1.13009
  Beta  occ. eigenvalues --   -1.12988  -1.12980  -1.12927  -1.12914  -1.12864
  Beta  occ. eigenvalues --   -0.18281  -0.14589  -0.11012
  Beta virt. eigenvalues --   -0.07153  -0.06832  -0.05211  -0.03756  -0.03156
  Beta virt. eigenvalues --   -0.02802  -0.01674  -0.01262  -0.01066  -0.00425
  Beta virt. eigenvalues --   -0.00174   0.00031   0.00213   0.00496   0.00760

 Mulliken charges and spin densities:
               1          2
     1  Na  -0.036727   0.399978
     2  Na  -0.292939  -0.197632
     3  Na   0.121102   0.419461
     4  Na   0.033493  -0.090500
     5  Na  -0.472226   0.060186
     6  Na  -0.241110   0.214776
     7  Na   0.888406   0.193730
 Sum of Mulliken charges =  -0.00000   1.00000

 Dipole moment (field-independent basis, Debye):
    X=              0.4166    Y=              0.1595    Z=             -0.3315  Tot=              0.5558
 Quadrupole moment (field-independent basis, Debye-Ang):
   XX=            -57.0183   YY=            -76.2783   ZZ=            -66.4587
   XY=             -1.2420   XZ=              3.0735   YZ=             -2.8250

 Normal termination of Gaussian 16 at Sat Dec  9 07:12:53 2023.
