 Gaussian 16, Revision B.01,
 Gaussian 16:  ES64L-G16RevB.01 20-Dec-2017

 -------------------------
 #P B3LYP/6-311+g(d) force
 -------------------------

 -----
 DPGEN
 -----
 Symbolic Z-matrix:
 Charge =  0 Multiplicity = 2

                         Standard orientation:
 ---------------------------------------------------------------------
 Center     Atomic      Atomic             Coordinates (Angstroms)
 Number     Number       Type             X           Y           Z
 ---------------------------------------------------------------------
      1         11           0       -1.258689    2.180961    0.795181
      2         11           0        3.745791   -1.182990   -0.438421
      3         11           0        2.077713    2.655207    0.194532
      4         11           0        1.134778    0.147489   -1.561927
      5         11           0       -1.942473   -2.238462   -0.644083
      6         11           0        0.635518   -1.932733    1.994535
      7         11           0       -4.392639    0.370529   -0.339818
 ---------------------------------------------------------------------

 SCF Done:  E(UB3LYP) =  -1136.11609671     A.U. after   21 cycles

 The electronic state is 2-A.
 Alpha  occ. eigenvalues --  -38.44653 -38.44548 -38.44515 -38.44426 -38.44023
 Alpha  occ. eigenvalues --  -38.43804 -38.43636  -2.20529  -2.20357  -2.20274
 Alpha  occ. eigenvalues --   -2.20201  -2.19815  -2.19629  -2.19425  -1.14241
 Alpha  occ. eigenvalues --   -1.14191  -1.14175  -1.14014  -1.13986  -1.13980
 Alpha  occ. eigenvalues --   -1.13977  -1.13945  -1.13907  -1.13863  -1.13848
 Alpha  occ. eigenvalues --   -1.13821  -1.13462  -1.13453  -1.13432  -1.13314
 Alpha  occ. eigenvalues --   -1.13292  -1.13258  -1.13107  -1.13102  -1.13038
 Alpha  occ. eigenvalues --   -0.17054  -0.13509  -0.12074  -0.10428
 Alpha virt. eigenvalues --   -0.07071  -0.05594  -0.04185  -0.03445  -0.03275
 Alpha virt. eigenvalues --   -0.02500  -0.01988  -0.01543  -0.00937  -0.00562
 Alpha virt. eigenvalues --   -0.00316  -0.00063   0.00225   0.00600   0.00698

  Beta  occ. eigenvalues --  -38.44634 -38.44520 -38.44511 -38.44384 -38.43938
  Beta  occ. eigenvalues --  -38.43801 -38.43621  -2.20496  -2.20290  -2.20288
  Beta  occ. eigenvalues --   -2.20122  -2.19655  -2.19626  -2.19400  -1.14216
  Beta  occ. eigenvalues --   -1.14165  -1.14141  -1.13989  -1.13965  -1.13952
  Beta  occ. eigenvalues --   -1.13946  -1.13927  -1.13893  -1.13808  -1.13795
  Beta  occ. eigenvalues --   -1.13772  -1.13350  -1.13344  -1.13327  -1.13314
  Beta  occ. eigenvalues --   -1.13289  -1.13241  -1.13090  -1.13083  -1.13013
  Beta  occ. eigenvalues --   -0.16601  -0.12972  -0.11657
  Beta virt. eigenvalues --   -0.07099  -0.06856  -0.05544  -0.03770  -0.03043
  Beta virt. eigenvalues --   -0.02776  -0.02278  -0.01496  -0.01417  -0.00852
  Beta virt. eigenvalues --   -0.00203  -0.00160  -0.00013   0.00380   0.00646

 Mulliken charges and spin densities:
               1          2
     1  Na  -0.134777   0.047529
     2  Na   0.106263   0.153790
     3  Na   0.051213  -0.015263
     4  Na   0.067452   0.082854
     5  Na   0.171185  -0.000167
     6  Na  -0.249416   0.466338
     7  Na  -0.011920   0.264919
 Sum of Mulliken charges =  -0.00000   1.00000

 Dipole moment (field-independent basis, Debye):
    X=              0.5452    Y=             -0.0585    Z=              0.1944  Tot=              0.5818
 Quadrupole moment (field-independent basis, Debye-Ang):
   XX=            -56.8004   YY=            -71.8512   ZZ=            -70.0770
   XY=             -0.1729   XZ=              3.0537   YZ=              2.0056

 Normal termination of Gaussian 16 at Sun Dec  3 19:13:38 2023.
