 Gaussian 16, Revision B.01,
 Gaussian 16:  ES64L-G16RevB.01 20-Dec-2017

 -------------------------
 #P B3LYP/6-311+g(d) force
 -------------------------

 -----
 DPGEN
 -----
 Symbolic Z-matrix:
 Charge =  0 Multiplicity = 2

                         Standard orientation:
 ---------------------------------------------------------------------
 Center     Atomic      Atomic             Coordinates (Angstroms)
 Number     Number       Type             X           Y           Z
 ---------------------------------------------------------------------
      1         11           0       -0.088994   -2.635221   -0.158295
      2         11           0       -2.978580   -0.892732    0.259017
      3         11           0        0.330395   -0.254085    1.947024
      4         11           0        1.270745    2.625445    0.611139
      5         11           0        2.976599   -0.856288   -0.462971
      6         11           0        0.619707    0.250979   -1.440733
      7         11           0       -2.129871    1.761901   -0.755181
 ---------------------------------------------------------------------

 SCF Done:  E(UB3LYP) =  -1136.12768416     A.U. after   19 cycles

 The electronic state is 2-A.
 Alpha  occ. eigenvalues --  -38.44388 -38.43869 -38.43592 -38.43559 -38.43455
 Alpha  occ. eigenvalues --  -38.43262 -38.43223  -2.20293  -2.19738  -2.19545
 Alpha  occ. eigenvalues --   -2.19451  -2.19361  -2.19320  -2.19133  -1.14117
 Alpha  occ. eigenvalues --   -1.13914  -1.13880  -1.13500  -1.13390  -1.13377
 Alpha  occ. eigenvalues --   -1.13238  -1.13200  -1.13164  -1.13157  -1.13087
 Alpha  occ. eigenvalues --   -1.13066  -1.13044  -1.13015  -1.12989  -1.12984
 Alpha  occ. eigenvalues --   -1.12936  -1.12916  -1.12812  -1.12800  -1.12734
 Alpha  occ. eigenvalues --   -0.19180  -0.13356  -0.12483  -0.11096
 Alpha virt. eigenvalues --   -0.05722  -0.04924  -0.04373  -0.03299  -0.03015
 Alpha virt. eigenvalues --   -0.02589  -0.01566  -0.00994  -0.00216   0.00016
 Alpha virt. eigenvalues --    0.00125   0.00338   0.00858   0.00900   0.00931

  Beta  occ. eigenvalues --  -38.44368 -38.43870 -38.43542 -38.43502 -38.43438
  Beta  occ. eigenvalues --  -38.43216 -38.43207  -2.20260  -2.19742  -2.19422
  Beta  occ. eigenvalues --   -2.19379  -2.19291  -2.19262  -2.19125  -1.14082
  Beta  occ. eigenvalues --   -1.13879  -1.13857  -1.13500  -1.13389  -1.13368
  Beta  occ. eigenvalues --   -1.13139  -1.13125  -1.13085  -1.13067  -1.13044
  Beta  occ. eigenvalues --   -1.13035  -1.13005  -1.12952  -1.12939  -1.12923
  Beta  occ. eigenvalues --   -1.12916  -1.12863  -1.12798  -1.12769  -1.12723
  Beta  occ. eigenvalues --   -0.18481  -0.13075  -0.12200
  Beta virt. eigenvalues --   -0.07167  -0.05629  -0.04860  -0.04330  -0.02590
  Beta virt. eigenvalues --   -0.02271  -0.01572  -0.01432  -0.00895  -0.00117
  Beta virt. eigenvalues --   -0.00002   0.00176   0.00383   0.00880   0.00920

 Mulliken charges and spin densities:
               1          2
     1  Na   0.163102   0.081177
     2  Na  -0.192436  -0.001878
     3  Na  -0.277258   0.558007
     4  Na  -0.094288   0.083395
     5  Na   0.545712   0.053709
     6  Na  -0.428331   0.169118
     7  Na   0.283498   0.056471
 Sum of Mulliken charges =  -0.00000   1.00000

 Dipole moment (field-independent basis, Debye):
    X=              0.3255    Y=             -0.0821    Z=              0.3208  Tot=              0.4643
 Quadrupole moment (field-independent basis, Debye-Ang):
   XX=            -56.8791   YY=            -64.5715   ZZ=            -72.7960
   XY=              0.3191   XZ=              0.1180   YZ=              0.7548

 Normal termination of Gaussian 16 at Tue Dec  5 18:17:36 2023.
