 Gaussian 16, Revision B.01,
 Gaussian 16:  ES64L-G16RevB.01 20-Dec-2017

 -------------------------
 #P B3LYP/6-311+g(d) force
 -------------------------

 -----
 DPGEN
 -----
 Symbolic Z-matrix:
 Charge =  0 Multiplicity = 2

                         Standard orientation:
 ---------------------------------------------------------------------
 Center     Atomic      Atomic             Coordinates (Angstroms)
 Number     Number       Type             X           Y           Z
 ---------------------------------------------------------------------
      1         11           0        4.724387   -1.611197    0.263291
      2         11           0       -4.625618   -1.216200    1.068278
      3         11           0       -1.683238   -2.132052   -0.959084
      4         11           0       -2.899543    1.372139   -0.116663
      5         11           0       -0.106154    3.088335   -0.620610
      6         11           0        2.922933    1.490804    0.852794
      7         11           0        1.667232   -0.991830   -0.488006
 ---------------------------------------------------------------------

 SCF Done:  E(UB3LYP) =  -1136.12017109     A.U. after   21 cycles

 The electronic state is 2-A.
 Alpha  occ. eigenvalues --  -38.45284 -38.44556 -38.44324 -38.43960 -38.43939
 Alpha  occ. eigenvalues --  -38.43883 -38.42720  -2.21105  -2.20371  -2.20145
 Alpha  occ. eigenvalues --   -2.19783  -2.19772  -2.19754  -2.18516  -1.14837
 Alpha  occ. eigenvalues --   -1.14787  -1.14675  -1.14049  -1.14026  -1.13992
 Alpha  occ. eigenvalues --   -1.13841  -1.13818  -1.13772  -1.13477  -1.13456
 Alpha  occ. eigenvalues --   -1.13432  -1.13430  -1.13429  -1.13423  -1.13396
 Alpha  occ. eigenvalues --   -1.13387  -1.13343  -1.12196  -1.12182  -1.12156
 Alpha  occ. eigenvalues --   -0.16717  -0.14507  -0.11861  -0.10893
 Alpha virt. eigenvalues --   -0.06887  -0.04901  -0.04455  -0.03895  -0.02817
 Alpha virt. eigenvalues --   -0.02420  -0.01801  -0.01710  -0.01096  -0.00267
 Alpha virt. eigenvalues --   -0.00198  -0.00111   0.00246   0.00415   0.00601

  Beta  occ. eigenvalues --  -38.45273 -38.44534 -38.44308 -38.43917 -38.43874
  Beta  occ. eigenvalues --  -38.43840 -38.42723  -2.21084  -2.20329  -2.20118
  Beta  occ. eigenvalues --   -2.19711  -2.19693  -2.19638  -2.18521  -1.14825
  Beta  occ. eigenvalues --   -1.14773  -1.14652  -1.14023  -1.13998  -1.13960
  Beta  occ. eigenvalues --   -1.13821  -1.13794  -1.13748  -1.13432  -1.13403
  Beta  occ. eigenvalues --   -1.13375  -1.13364  -1.13355  -1.13347  -1.13344
  Beta  occ. eigenvalues --   -1.13304  -1.13242  -1.12200  -1.12184  -1.12158
  Beta  occ. eigenvalues --   -0.16145  -0.14119  -0.11628
  Beta virt. eigenvalues --   -0.07017  -0.06788  -0.04528  -0.04181  -0.03723
  Beta virt. eigenvalues --   -0.02492  -0.02045  -0.01609  -0.01206  -0.01025
  Beta virt. eigenvalues --   -0.00077   0.00009   0.00194   0.00320   0.00531

 Mulliken charges and spin densities:
               1          2
     1  Na   0.935523   0.204129
     2  Na   0.829650   0.129489
     3  Na   0.330686   0.077380
     4  Na  -0.813993   0.189719
     5  Na   0.105552  -0.000364
     6  Na   0.302070   0.126069
     7  Na  -1.689488   0.273578
 Sum of Mulliken charges =  -0.00000   1.00000

 Dipole moment (field-independent basis, Debye):
    X=              1.2875    Y=             -0.6884    Z=              0.6170  Tot=              1.5850
 Quadrupole moment (field-independent basis, Debye-Ang):
   XX=            -54.5495   YY=            -68.2061   ZZ=            -69.9048
   XY=              0.8513   XZ=              0.8037   YZ=             -0.2320

 Normal termination of Gaussian 16 at Mon Dec  4 01:24:25 2023.
