 Gaussian 16, Revision B.01,
 Gaussian 16:  ES64L-G16RevB.01 20-Dec-2017

 -------------------------
 #P B3LYP/6-311+g(d) force
 -------------------------

 -----
 DPGEN
 -----
 Symbolic Z-matrix:
 Charge =  0 Multiplicity = 2

                         Standard orientation:
 ---------------------------------------------------------------------
 Center     Atomic      Atomic             Coordinates (Angstroms)
 Number     Number       Type             X           Y           Z
 ---------------------------------------------------------------------
      1         11           0       -0.012507   -0.274323    2.286765
      2         11           0        0.823435    3.388800   -0.170859
      3         11           0       -3.317558   -1.289363   -0.351248
      4         11           0       -2.077889    1.649918   -0.097833
      5         11           0        1.215292    0.301298   -1.230008
      6         11           0        3.307415   -1.163365    0.099378
      7         11           0        0.061812   -2.612965   -0.536195
 ---------------------------------------------------------------------

 SCF Done:  E(UB3LYP) =  -1136.12703692     A.U. after   19 cycles

 The electronic state is 2-A.
 Alpha  occ. eigenvalues --  -38.44826 -38.44141 -38.43810 -38.43797 -38.43671
 Alpha  occ. eigenvalues --  -38.43609 -38.43356  -2.20671  -2.19989  -2.19653
 Alpha  occ. eigenvalues --   -2.19607  -2.19531  -2.19427  -2.19346  -1.14428
 Alpha  occ. eigenvalues --   -1.14302  -1.14285  -1.13714  -1.13662  -1.13583
 Alpha  occ. eigenvalues --   -1.13329  -1.13304  -1.13279  -1.13268  -1.13260
 Alpha  occ. eigenvalues --   -1.13242  -1.13209  -1.13205  -1.13151  -1.13117
 Alpha  occ. eigenvalues --   -1.13077  -1.13056  -1.13032  -1.13007  -1.12937
 Alpha  occ. eigenvalues --   -0.18199  -0.13230  -0.12486  -0.10557
 Alpha virt. eigenvalues --   -0.06223  -0.05219  -0.04834  -0.03210  -0.02707
 Alpha virt. eigenvalues --   -0.02484  -0.01919  -0.01359  -0.00485  -0.00449
 Alpha virt. eigenvalues --   -0.00067   0.00244   0.00719   0.00751   0.00826

  Beta  occ. eigenvalues --  -38.44825 -38.44128 -38.43789 -38.43690 -38.43667
  Beta  occ. eigenvalues --  -38.43610 -38.43326  -2.20672  -2.19967  -2.19594
  Beta  occ. eigenvalues --   -2.19526  -2.19431  -2.19427  -2.19293  -1.14426
  Beta  occ. eigenvalues --   -1.14291  -1.14281  -1.13699  -1.13623  -1.13571
  Beta  occ. eigenvalues --   -1.13323  -1.13243  -1.13236  -1.13208  -1.13185
  Beta  occ. eigenvalues --   -1.13152  -1.13150  -1.13123  -1.13112  -1.13108
  Beta  occ. eigenvalues --   -1.13071  -1.13057  -1.12995  -1.12963  -1.12896
  Beta  occ. eigenvalues --   -0.17534  -0.13043  -0.12296
  Beta virt. eigenvalues --   -0.06609  -0.06144  -0.05092  -0.04783  -0.02482
  Beta virt. eigenvalues --   -0.02055  -0.01850  -0.01494  -0.01265  -0.00479
  Beta virt. eigenvalues --   -0.00448   0.00144   0.00322   0.00737   0.00834

 Mulliken charges and spin densities:
               1          2
     1  Na  -0.379877   0.638230
     2  Na   0.276445   0.019084
     3  Na  -0.182825  -0.019090
     4  Na   0.017736   0.099817
     5  Na   0.116089   0.048005
     6  Na   0.155832   0.061565
     7  Na  -0.003399   0.152390
 Sum of Mulliken charges =  -0.00000   1.00000

 Dipole moment (field-independent basis, Debye):
    X=              0.7106    Y=             -0.3005    Z=              0.2621  Tot=              0.8149
 Quadrupole moment (field-independent basis, Debye-Ang):
   XX=            -56.2184   YY=            -61.9675   ZZ=            -75.8841
   XY=             -0.3690   XZ=              1.8363   YZ=              0.9758

 Normal termination of Gaussian 16 at Thu Dec  7 21:17:40 2023.
