 Gaussian 16, Revision B.01,
 Gaussian 16:  ES64L-G16RevB.01 20-Dec-2017

 -------------------------
 #P B3LYP/6-311+g(d) force
 -------------------------

 -----
 DPGEN
 -----
 Symbolic Z-matrix:
 Charge =  0 Multiplicity = 2

                         Standard orientation:
 ---------------------------------------------------------------------
 Center     Atomic      Atomic             Coordinates (Angstroms)
 Number     Number       Type             X           Y           Z
 ---------------------------------------------------------------------
      1         11           0        0.352791   -1.943481   -0.878763
      2         11           0        2.691586    0.717936   -0.046667
      3         11           0       -1.233441    1.394828   -0.566896
      4         11           0       -3.292131   -1.339573   -0.993851
      5         11           0       -2.749412   -0.031722    2.001678
      6         11           0        0.989441    3.517080   -0.176577
      7         11           0        3.241166   -2.315068    0.661076
 ---------------------------------------------------------------------

 SCF Done:  E(UB3LYP) =  -1136.12737921     A.U. after   20 cycles

 The electronic state is 2-A.
 Alpha  occ. eigenvalues --  -38.44485 -38.44134 -38.43887 -38.43782 -38.43768
 Alpha  occ. eigenvalues --  -38.43648 -38.43265  -2.20324  -2.20004  -2.19736
 Alpha  occ. eigenvalues --   -2.19680  -2.19646  -2.19502  -2.19119  -1.14006
 Alpha  occ. eigenvalues --   -1.13976  -1.13967  -1.13696  -1.13689  -1.13642
 Alpha  occ. eigenvalues --   -1.13438  -1.13421  -1.13403  -1.13367  -1.13340
 Alpha  occ. eigenvalues --   -1.13332  -1.13281  -1.13274  -1.13243  -1.13164
 Alpha  occ. eigenvalues --   -1.13145  -1.13123  -1.12789  -1.12763  -1.12756
 Alpha  occ. eigenvalues --   -0.17574  -0.14199  -0.12665  -0.10219
 Alpha virt. eigenvalues --   -0.06084  -0.05405  -0.04996  -0.03710  -0.02425
 Alpha virt. eigenvalues --   -0.02153  -0.01936  -0.01331  -0.01044  -0.00324
 Alpha virt. eigenvalues --   -0.00188   0.00197   0.00467   0.00587   0.00683

  Beta  occ. eigenvalues --  -38.44470 -38.44129 -38.43850 -38.43755 -38.43687
  Beta  occ. eigenvalues --  -38.43631 -38.43267  -2.20302  -2.19995  -2.19671
  Beta  occ. eigenvalues --   -2.19661  -2.19471  -2.19469  -2.19123  -1.13994
  Beta  occ. eigenvalues --   -1.13964  -1.13911  -1.13687  -1.13682  -1.13629
  Beta  occ. eigenvalues --   -1.13397  -1.13377  -1.13372  -1.13322  -1.13318
  Beta  occ. eigenvalues --   -1.13282  -1.13166  -1.13152  -1.13138  -1.13137
  Beta  occ. eigenvalues --   -1.13123  -1.13102  -1.12792  -1.12766  -1.12755
  Beta  occ. eigenvalues --   -0.17048  -0.13798  -0.12515
  Beta virt. eigenvalues --   -0.06470  -0.05903  -0.05164  -0.04835  -0.03250
  Beta virt. eigenvalues --   -0.02087  -0.01910  -0.01422  -0.01165  -0.00966
  Beta virt. eigenvalues --   -0.00137   0.00169   0.00319   0.00712   0.00758

 Mulliken charges and spin densities:
               1          2
     1  Na  -0.529700   0.100349
     2  Na  -0.778929   0.042333
     3  Na  -1.411434   0.439488
     4  Na   1.174129   0.085446
     5  Na  -0.095150   0.335848
     6  Na   0.786852  -0.088796
     7  Na   0.854231   0.085331
 Sum of Mulliken charges =  -0.00000   1.00000

 Dipole moment (field-independent basis, Debye):
    X=              0.0847    Y=             -0.5263    Z=             -0.1239  Tot=              0.5473
 Quadrupole moment (field-independent basis, Debye-Ang):
   XX=            -59.8928   YY=            -63.5171   ZZ=            -72.8377
   XY=              2.8596   XZ=              5.7185   YZ=             -1.3881

 Normal termination of Gaussian 16 at Tue Nov 28 21:32:34 2023.
