 Gaussian 16, Revision B.01,
 Gaussian 16:  ES64L-G16RevB.01 20-Dec-2017

 -------------------------
 #P B3LYP/6-311+g(d) force
 -------------------------

 -----
 DPGEN
 -----
 Symbolic Z-matrix:
 Charge =  0 Multiplicity = 2

                         Standard orientation:
 ---------------------------------------------------------------------
 Center     Atomic      Atomic             Coordinates (Angstroms)
 Number     Number       Type             X           Y           Z
 ---------------------------------------------------------------------
      1         11           0       -0.056262    1.638038    0.240591
      2         11           0        2.372204    3.641057    0.035867
      3         11           0        3.059805    0.117276   -0.837568
      4         11           0        0.517244   -1.262408    1.510131
      5         11           0       -2.625820   -1.014552    0.512838
      6         11           0        2.740152   -3.390051   -0.654486
      7         11           0       -6.007323    0.270639   -0.807373
 ---------------------------------------------------------------------

 SCF Done:  E(UB3LYP) =  -1136.12197087     A.U. after   20 cycles

 The electronic state is 2-A.
 Alpha  occ. eigenvalues --  -38.45000 -38.44284 -38.44147 -38.43927 -38.43857
 Alpha  occ. eigenvalues --  -38.43769 -38.43522  -2.20781  -2.20103  -2.20027
 Alpha  occ. eigenvalues --   -2.19821  -2.19676  -2.19550  -2.19320  -1.14413
 Alpha  occ. eigenvalues --   -1.14413  -1.14381  -1.13812  -1.13803  -1.13752
 Alpha  occ. eigenvalues --   -1.13700  -1.13679  -1.13617  -1.13515  -1.13512
 Alpha  occ. eigenvalues --   -1.13460  -1.13331  -1.13325  -1.13278  -1.13218
 Alpha  occ. eigenvalues --   -1.13210  -1.13172  -1.13009  -1.12997  -1.12965
 Alpha  occ. eigenvalues --   -0.17051  -0.13511  -0.12436  -0.11402
 Alpha virt. eigenvalues --   -0.05737  -0.05362  -0.05132  -0.03619  -0.02544
 Alpha virt. eigenvalues --   -0.02227  -0.01987  -0.01784  -0.01491  -0.00812
 Alpha virt. eigenvalues --   -0.00413  -0.00065   0.00348   0.00427   0.00547

  Beta  occ. eigenvalues --  -38.44869 -38.44266 -38.44110 -38.43913 -38.43853
  Beta  occ. eigenvalues --  -38.43752 -38.43528  -2.20536  -2.20069  -2.19962
  Beta  occ. eigenvalues --   -2.19798  -2.19668  -2.19520  -2.19340  -1.14247
  Beta  occ. eigenvalues --   -1.14246  -1.14218  -1.13789  -1.13781  -1.13708
  Beta  occ. eigenvalues --   -1.13657  -1.13650  -1.13562  -1.13501  -1.13492
  Beta  occ. eigenvalues --   -1.13441  -1.13325  -1.13315  -1.13268  -1.13197
  Beta  occ. eigenvalues --   -1.13186  -1.13155  -1.13029  -1.13018  -1.12926
  Beta  occ. eigenvalues --   -0.16659  -0.12665  -0.12150
  Beta virt. eigenvalues --   -0.07799  -0.05635  -0.05040  -0.04791  -0.03375
  Beta virt. eigenvalues --   -0.02136  -0.01985  -0.01746  -0.01489  -0.01035
  Beta virt. eigenvalues --   -0.00447  -0.00103   0.00048   0.00456   0.00522

 Mulliken charges and spin densities:
               1          2
     1  Na  -1.515299  -0.101309
     2  Na   0.994856   0.081213
     3  Na  -0.320395   0.191029
     4  Na   0.294972   0.242697
     5  Na   0.220834  -0.004832
     6  Na   0.186762   0.022886
     7  Na   0.138270   0.568316
 Sum of Mulliken charges =  -0.00000   1.00000

 Dipole moment (field-independent basis, Debye):
    X=              0.6117    Y=              0.3194    Z=             -0.0429  Tot=              0.6914
 Quadrupole moment (field-independent basis, Debye-Ang):
   XX=            -66.5460   YY=            -60.3842   ZZ=            -69.9592
   XY=              1.2409   XZ=              1.3577   YZ=              0.0919

 Normal termination of Gaussian 16 at Tue Nov 28 22:18:55 2023.
