 Gaussian 16, Revision B.01,
 Gaussian 16:  ES64L-G16RevB.01 20-Dec-2017

 -------------------------
 #P B3LYP/6-311+g(d) force
 -------------------------

 -----
 DPGEN
 -----
 Symbolic Z-matrix:
 Charge =  0 Multiplicity = 2

                         Standard orientation:
 ---------------------------------------------------------------------
 Center     Atomic      Atomic             Coordinates (Angstroms)
 Number     Number       Type             X           Y           Z
 ---------------------------------------------------------------------
      1         11           0       -0.679321    1.723397   -0.305261
      2         11           0        0.323823   -1.168965   -1.514878
      3         11           0       -5.070556    0.205462    0.118968
      4         11           0       -2.255749   -0.808857    0.111540
      5         11           0        0.355770   -0.602631    1.602283
      6         11           0        2.226518    0.815143   -0.220151
      7         11           0        5.099514   -0.163550    0.207499
 ---------------------------------------------------------------------

 SCF Done:  E(UB3LYP) =  -1136.08509943     A.U. after   29 cycles

 The electronic state is 2-A.
 Alpha  occ. eigenvalues --  -38.47577 -38.45601 -38.44598 -38.43272 -38.43262
 Alpha  occ. eigenvalues --  -38.43173 -38.43047  -2.23567  -2.21610  -2.20649
 Alpha  occ. eigenvalues --   -2.19364  -2.19352  -2.18986  -2.18854  -1.17265
 Alpha  occ. eigenvalues --   -1.17220  -1.17200  -1.15313  -1.15251  -1.15235
 Alpha  occ. eigenvalues --   -1.14324  -1.14307  -1.14253  -1.13089  -1.13067
 Alpha  occ. eigenvalues --   -1.13028  -1.13022  -1.13016  -1.12984  -1.12643
 Alpha  occ. eigenvalues --   -1.12631  -1.12614  -1.12517  -1.12502  -1.12486
 Alpha  occ. eigenvalues --   -0.20454  -0.14000  -0.11898  -0.10886
 Alpha virt. eigenvalues --   -0.08628  -0.05475  -0.03668  -0.03279  -0.03208
 Alpha virt. eigenvalues --   -0.02251  -0.02067  -0.01799  -0.01241  -0.00937
 Alpha virt. eigenvalues --    0.00005   0.00298   0.00331   0.00558   0.00697

  Beta  occ. eigenvalues --  -38.47544 -38.45565 -38.44505 -38.43247 -38.43235
  Beta  occ. eigenvalues --  -38.43176 -38.43042  -2.23515  -2.21549  -2.20479
  Beta  occ. eigenvalues --   -2.19325  -2.19310  -2.18991  -2.18845  -1.17222
  Beta  occ. eigenvalues --   -1.17188  -1.17118  -1.15267  -1.15216  -1.15158
  Beta  occ. eigenvalues --   -1.14215  -1.14173  -1.14138  -1.13066  -1.13045
  Beta  occ. eigenvalues --   -1.13011  -1.12999  -1.12951  -1.12907  -1.12643
  Beta  occ. eigenvalues --   -1.12634  -1.12612  -1.12509  -1.12496  -1.12478
  Beta  occ. eigenvalues --   -0.19612  -0.13771  -0.10848
  Beta virt. eigenvalues --   -0.08420  -0.07495  -0.05316  -0.03224  -0.03077
  Beta virt. eigenvalues --   -0.02822  -0.01700  -0.01473  -0.01294  -0.01050
  Beta virt. eigenvalues --   -0.00920   0.00035   0.00360   0.00459   0.00679

 Mulliken charges and spin densities:
               1          2
     1  Na  -0.217585   0.321666
     2  Na   0.076598   0.142548
     3  Na   0.231010  -0.077634
     4  Na  -0.469596   0.221161
     5  Na   0.371258   0.269641
     6  Na  -0.323206   0.078884
     7  Na   0.331521   0.043734
 Sum of Mulliken charges =  -0.00000   1.00000

 Dipole moment (field-independent basis, Debye):
    X=             -0.0732    Y=             -0.4777    Z=             -0.5102  Tot=              0.7028
 Quadrupole moment (field-independent basis, Debye-Ang):
   XX=            -81.8021   YY=            -72.6485   ZZ=            -60.3162
   XY=             -4.1721   XZ=              0.4338   YZ=              0.4647

 Normal termination of Gaussian 16 at Fri Dec  8 17:44:32 2023.
