 Gaussian 16, Revision B.01,
 Gaussian 16:  ES64L-G16RevB.01 20-Dec-2017

 -------------------------
 #P B3LYP/6-311+g(d) force
 -------------------------

 -----
 DPGEN
 -----
 Symbolic Z-matrix:
 Charge =  0 Multiplicity = 2

                         Standard orientation:
 ---------------------------------------------------------------------
 Center     Atomic      Atomic             Coordinates (Angstroms)
 Number     Number       Type             X           Y           Z
 ---------------------------------------------------------------------
      1         11           0        0.656214    1.498844    1.012742
      2         11           0        2.145575    3.721888   -0.470422
      3         11           0        3.615616   -0.320317   -0.687773
      4         11           0       -0.027157   -1.885249   -0.281922
      5         11           0       -2.701688    0.452993    0.656374
      6         11           0        2.891203   -3.110351    0.326300
      7         11           0       -6.579763   -0.357809   -0.555299
 ---------------------------------------------------------------------

 SCF Done:  E(UB3LYP) =  -1136.11671000     A.U. after   20 cycles

 The electronic state is 2-A.
 Alpha  occ. eigenvalues --  -38.45096 -38.44893 -38.44375 -38.44223 -38.43815
 Alpha  occ. eigenvalues --  -38.43486 -38.43471  -2.20874  -2.20714  -2.20208
 Alpha  occ. eigenvalues --   -2.20085  -2.19615  -2.19360  -2.19242  -1.14502
 Alpha  occ. eigenvalues --   -1.14502  -1.14473  -1.14409  -1.14383  -1.14339
 Alpha  occ. eigenvalues --   -1.13908  -1.13890  -1.13837  -1.13745  -1.13725
 Alpha  occ. eigenvalues --   -1.13696  -1.13340  -1.13271  -1.13244  -1.13043
 Alpha  occ. eigenvalues --   -1.13039  -1.12962  -1.12932  -1.12919  -1.12874
 Alpha  occ. eigenvalues --   -0.16840  -0.13453  -0.12641  -0.11284
 Alpha virt. eigenvalues --   -0.06112  -0.05510  -0.05003  -0.03669  -0.02402
 Alpha virt. eigenvalues --   -0.02349  -0.02050  -0.01713  -0.01610  -0.00793
 Alpha virt. eigenvalues --   -0.00389  -0.00026   0.00134   0.00298   0.00596

  Beta  occ. eigenvalues --  -38.44950 -38.44870 -38.44351 -38.44219 -38.43813
  Beta  occ. eigenvalues --  -38.43482 -38.43474  -2.20672  -2.20602  -2.20164
  Beta  occ. eigenvalues --   -2.20080  -2.19612  -2.19340  -2.19268  -1.14381
  Beta  occ. eigenvalues --   -1.14355  -1.14317  -1.14317  -1.14307  -1.14291
  Beta  occ. eigenvalues --   -1.13881  -1.13861  -1.13809  -1.13734  -1.13721
  Beta  occ. eigenvalues --   -1.13686  -1.13337  -1.13268  -1.13240  -1.13032
  Beta  occ. eigenvalues --   -1.13027  -1.12954  -1.12949  -1.12928  -1.12853
  Beta  occ. eigenvalues --   -0.16535  -0.12966  -0.12038
  Beta virt. eigenvalues --   -0.07575  -0.05869  -0.05363  -0.04575  -0.03496
  Beta virt. eigenvalues --   -0.02214  -0.02042  -0.01624  -0.01536  -0.01014
  Beta virt. eigenvalues --   -0.00317  -0.00190   0.00067   0.00342   0.00436

 Mulliken charges and spin densities:
               1          2
     1  Na  -0.748533  -0.076012
     2  Na   0.622137   0.046712
     3  Na   0.140751   0.209157
     4  Na  -0.525582  -0.020595
     5  Na  -0.034563   0.135914
     6  Na   0.554842   0.057356
     7  Na  -0.009051   0.647467
 Sum of Mulliken charges =  -0.00000   1.00000

 Dipole moment (field-independent basis, Debye):
    X=              1.3120    Y=             -0.7857    Z=             -0.3857  Tot=              1.5772
 Quadrupole moment (field-independent basis, Debye-Ang):
   XX=            -66.1691   YY=            -61.7801   ZZ=            -70.0939
   XY=             -2.0278   XZ=              0.0369   YZ=             -2.2311

 Normal termination of Gaussian 16 at Tue Nov 28 19:39:26 2023.
