 Gaussian 16, Revision B.01,
 Gaussian 16:  ES64L-G16RevB.01 20-Dec-2017

 -------------------------
 #P B3LYP/6-311+g(d) force
 -------------------------

 -----
 DPGEN
 -----
 Symbolic Z-matrix:
 Charge =  0 Multiplicity = 2

                         Standard orientation:
 ---------------------------------------------------------------------
 Center     Atomic      Atomic             Coordinates (Angstroms)
 Number     Number       Type             X           Y           Z
 ---------------------------------------------------------------------
      1         11           0       -0.129133   -0.139280   -1.350297
      2         11           0       -2.823849    1.726996   -0.625537
      3         11           0        0.314206   -0.078004    2.345569
      4         11           0        3.127918    0.035614   -0.824299
      5         11           0        1.006113   -2.919479   -0.092097
      6         11           0       -2.701108   -1.549081    0.170458
      7         11           0        1.205853    2.923235    0.376203
 ---------------------------------------------------------------------

 SCF Done:  E(UB3LYP) =  -1136.13394365     A.U. after   19 cycles

 The electronic state is 2-A.
 Alpha  occ. eigenvalues --  -38.44149 -38.44119 -38.44009 -38.43852 -38.43572
 Alpha  occ. eigenvalues --  -38.43373 -38.43118  -2.19981  -2.19941  -2.19839
 Alpha  occ. eigenvalues --   -2.19665  -2.19358  -2.19199  -2.19109  -1.13636
 Alpha  occ. eigenvalues --   -1.13633  -1.13614  -1.13590  -1.13588  -1.13558
 Alpha  occ. eigenvalues --   -1.13532  -1.13510  -1.13468  -1.13348  -1.13314
 Alpha  occ. eigenvalues --   -1.13291  -1.13031  -1.13017  -1.13003  -1.12915
 Alpha  occ. eigenvalues --   -1.12864  -1.12828  -1.12798  -1.12748  -1.12729
 Alpha  occ. eigenvalues --   -0.18072  -0.13019  -0.12049  -0.10947
 Alpha virt. eigenvalues --   -0.05474  -0.05340  -0.04850  -0.03168  -0.02878
 Alpha virt. eigenvalues --   -0.02782  -0.01597  -0.01208  -0.00593  -0.00393
 Alpha virt. eigenvalues --   -0.00051   0.00320   0.00739   0.00830   0.00847

  Beta  occ. eigenvalues --  -38.44094 -38.44038 -38.44008 -38.43842 -38.43568
  Beta  occ. eigenvalues --  -38.43372 -38.43082  -2.19898  -2.19838  -2.19775
  Beta  occ. eigenvalues --   -2.19648  -2.19352  -2.19200  -2.19045  -1.13597
  Beta  occ. eigenvalues --   -1.13560  -1.13531  -1.13528  -1.13505  -1.13495
  Beta  occ. eigenvalues --   -1.13475  -1.13460  -1.13436  -1.13329  -1.13303
  Beta  occ. eigenvalues --   -1.13280  -1.13018  -1.13006  -1.13002  -1.12909
  Beta  occ. eigenvalues --   -1.12858  -1.12818  -1.12746  -1.12704  -1.12685
  Beta  occ. eigenvalues --   -0.17400  -0.12747  -0.11858
  Beta virt. eigenvalues --   -0.07041  -0.05386  -0.05241  -0.04747  -0.02519
  Beta virt. eigenvalues --   -0.02182  -0.01773  -0.01461  -0.01150  -0.00546
  Beta virt. eigenvalues --   -0.00410   0.00108   0.00374   0.00831   0.00846

 Mulliken charges and spin densities:
               1          2
     1  Na  -0.166737  -0.056293
     2  Na   0.169990   0.047848
     3  Na  -0.445340   0.705719
     4  Na   0.241266   0.075934
     5  Na   0.052585   0.055222
     6  Na   0.156320   0.104629
     7  Na  -0.008084   0.066940
 Sum of Mulliken charges =  -0.00000   1.00000

 Dipole moment (field-independent basis, Debye):
    X=             -0.0666    Y=             -0.0724    Z=              0.2165  Tot=              0.2378
 Quadrupole moment (field-independent basis, Debye-Ang):
   XX=            -57.7535   YY=            -62.2301   ZZ=            -73.5227
   XY=             -0.1833   XZ=             -1.3554   YZ=             -0.8393

 Normal termination of Gaussian 16 at Thu Dec  7 05:43:18 2023.
