 Gaussian 16, Revision B.01,
 Gaussian 16:  ES64L-G16RevB.01 20-Dec-2017

 -------------------------
 #P B3LYP/6-311+g(d) force
 -------------------------

 -----
 DPGEN
 -----
 Symbolic Z-matrix:
 Charge =  0 Multiplicity = 2

                         Standard orientation:
 ---------------------------------------------------------------------
 Center     Atomic      Atomic             Coordinates (Angstroms)
 Number     Number       Type             X           Y           Z
 ---------------------------------------------------------------------
      1         11           0        2.564842    0.116330    1.016796
      2         11           0        1.714228    3.187771   -0.724486
      3         11           0       -0.795908   -1.258319    1.391146
      4         11           0       -3.914393   -1.167606   -0.787688
      5         11           0        2.740767   -2.753371   -0.503430
      6         11           0       -0.165680    0.117070   -1.417174
      7         11           0       -2.143856    1.758125    1.024834
 ---------------------------------------------------------------------

 SCF Done:  E(UB3LYP) =  -1136.12170427     A.U. after   22 cycles

 The electronic state is 2-A.
 Alpha  occ. eigenvalues --  -38.44652 -38.44536 -38.44381 -38.44166 -38.44079
 Alpha  occ. eigenvalues --  -38.43847 -38.42984  -2.20470  -2.20314  -2.20248
 Alpha  occ. eigenvalues --   -2.20013  -2.19862  -2.19738  -2.18764  -1.14156
 Alpha  occ. eigenvalues --   -1.14135  -1.14075  -1.13996  -1.13982  -1.13972
 Alpha  occ. eigenvalues --   -1.13921  -1.13892  -1.13844  -1.13707  -1.13701
 Alpha  occ. eigenvalues --   -1.13641  -1.13526  -1.13523  -1.13480  -1.13456
 Alpha  occ. eigenvalues --   -1.13392  -1.13315  -1.12437  -1.12428  -1.12399
 Alpha  occ. eigenvalues --   -0.17797  -0.13475  -0.11617  -0.10211
 Alpha virt. eigenvalues --   -0.06464  -0.06059  -0.04541  -0.03286  -0.02541
 Alpha virt. eigenvalues --   -0.02314  -0.01933  -0.01728  -0.00919  -0.00528
 Alpha virt. eigenvalues --    0.00044   0.00151   0.00354   0.00520   0.00572

  Beta  occ. eigenvalues --  -38.44615 -38.44489 -38.44350 -38.44162 -38.44080
  Beta  occ. eigenvalues --  -38.43798 -38.42978  -2.20404  -2.20227  -2.20192
  Beta  occ. eigenvalues --   -2.20009  -2.19864  -2.19652  -2.18755  -1.14109
  Beta  occ. eigenvalues --   -1.14067  -1.14035  -1.13945  -1.13923  -1.13903
  Beta  occ. eigenvalues --   -1.13866  -1.13853  -1.13802  -1.13699  -1.13687
  Beta  occ. eigenvalues --   -1.13638  -1.13528  -1.13521  -1.13482  -1.13403
  Beta  occ. eigenvalues --   -1.13297  -1.13259  -1.12431  -1.12417  -1.12394
  Beta  occ. eigenvalues --   -0.17177  -0.13211  -0.11467
  Beta virt. eigenvalues --   -0.06592  -0.06179  -0.05806  -0.04413  -0.02843
  Beta virt. eigenvalues --   -0.02268  -0.02023  -0.01524  -0.01262  -0.00616
  Beta virt. eigenvalues --   -0.00387   0.00123   0.00250   0.00482   0.00634

 Mulliken charges and spin densities:
               1          2
     1  Na   0.285023   0.112916
     2  Na   0.162768  -0.119955
     3  Na   0.031829   0.244915
     4  Na   0.001944   0.226739
     5  Na  -0.039204  -0.116639
     6  Na  -0.549508   0.606756
     7  Na   0.107148   0.045268
 Sum of Mulliken charges =  -0.00000   1.00000

 Dipole moment (field-independent basis, Debye):
    X=             -0.5209    Y=             -0.3084    Z=              0.3665  Tot=              0.7076
 Quadrupole moment (field-independent basis, Debye-Ang):
   XX=            -56.0014   YY=            -64.8079   ZZ=            -73.3591
   XY=             -2.5965   XZ=             -0.1811   YZ=              2.9710

 Normal termination of Gaussian 16 at Fri Dec  8 06:11:18 2023.
