 Gaussian 16, Revision B.01,
 Gaussian 16:  ES64L-G16RevB.01 20-Dec-2017

 -------------------------
 #P B3LYP/6-311+g(d) force
 -------------------------

 -----
 DPGEN
 -----
 Symbolic Z-matrix:
 Charge =  0 Multiplicity = 2

                         Standard orientation:
 ---------------------------------------------------------------------
 Center     Atomic      Atomic             Coordinates (Angstroms)
 Number     Number       Type             X           Y           Z
 ---------------------------------------------------------------------
      1         11           0       -1.569632   -2.333125    0.235559
      2         11           0        0.284597    0.214099    2.197196
      3         11           0        0.567299    2.719919    0.029652
      4         11           0       -2.427741    1.947220    0.080959
      5         11           0       -3.634487   -0.734449   -1.419197
      6         11           0        4.360517    0.607899   -1.295180
      7         11           0        2.419447   -2.421562    0.171011
 ---------------------------------------------------------------------

 SCF Done:  E(UB3LYP) =  -1136.11747304     A.U. after   21 cycles

 The electronic state is 2-A.
 Alpha  occ. eigenvalues --  -38.45003 -38.44820 -38.44557 -38.44060 -38.43864
 Alpha  occ. eigenvalues --  -38.43747 -38.43600  -2.20768  -2.20645  -2.20284
 Alpha  occ. eigenvalues --   -2.19918  -2.19682  -2.19583  -2.19456  -1.14416
 Alpha  occ. eigenvalues --   -1.14402  -1.14376  -1.14318  -1.14311  -1.14240
 Alpha  occ. eigenvalues --   -1.13981  -1.13953  -1.13926  -1.13628  -1.13581
 Alpha  occ. eigenvalues --   -1.13568  -1.13390  -1.13360  -1.13332  -1.13251
 Alpha  occ. eigenvalues --   -1.13245  -1.13207  -1.13098  -1.13095  -1.13078
 Alpha  occ. eigenvalues --   -0.16986  -0.13529  -0.12283  -0.11335
 Alpha virt. eigenvalues --   -0.06239  -0.05678  -0.04706  -0.03712  -0.03246
 Alpha virt. eigenvalues --   -0.02280  -0.01833  -0.01238  -0.01066  -0.00637
 Alpha virt. eigenvalues --   -0.00432   0.00222   0.00243   0.00347   0.00526

  Beta  occ. eigenvalues --  -38.44897 -38.44757 -38.44574 -38.44049 -38.43857
  Beta  occ. eigenvalues --  -38.43749 -38.43569  -2.20571  -2.20529  -2.20319
  Beta  occ. eigenvalues --   -2.19900  -2.19672  -2.19589  -2.19398  -1.14281
  Beta  occ. eigenvalues --   -1.14267  -1.14246  -1.14241  -1.14234  -1.14152
  Beta  occ. eigenvalues --   -1.14008  -1.13980  -1.13925  -1.13620  -1.13563
  Beta  occ. eigenvalues --   -1.13545  -1.13376  -1.13355  -1.13315  -1.13255
  Beta  occ. eigenvalues --   -1.13244  -1.13204  -1.13056  -1.13054  -1.13046
  Beta  occ. eigenvalues --   -0.16484  -0.12740  -0.12213
  Beta virt. eigenvalues --   -0.07855  -0.06013  -0.05301  -0.04165  -0.03645
  Beta virt. eigenvalues --   -0.02652  -0.01906  -0.01496  -0.01125  -0.00894
  Beta virt. eigenvalues --   -0.00503  -0.00204   0.00380   0.00442   0.00555

 Mulliken charges and spin densities:
               1          2
     1  Na  -0.538655  -0.028455
     2  Na   0.428283   0.086676
     3  Na  -0.109803   0.084386
     4  Na  -0.220975   0.102233
     5  Na   0.488046   0.208301
     6  Na   0.030083   0.555254
     7  Na  -0.076978  -0.008396
 Sum of Mulliken charges =  -0.00000   1.00000

 Dipole moment (field-independent basis, Debye):
    X=              0.1842    Y=              0.2148    Z=              0.1453  Tot=              0.3181
 Quadrupole moment (field-independent basis, Debye-Ang):
   XX=            -65.5493   YY=            -68.1091   ZZ=            -67.7142
   XY=             -0.7975   XZ=             -0.0132   YZ=             -1.4162

 Normal termination of Gaussian 16 at Tue Nov 28 20:49:16 2023.
