 Gaussian 16, Revision B.01,
 Gaussian 16:  ES64L-G16RevB.01 20-Dec-2017

 -------------------------
 #P B3LYP/6-311+g(d) force
 -------------------------

 -----
 DPGEN
 -----
 Symbolic Z-matrix:
 Charge =  0 Multiplicity = 2

                         Standard orientation:
 ---------------------------------------------------------------------
 Center     Atomic      Atomic             Coordinates (Angstroms)
 Number     Number       Type             X           Y           Z
 ---------------------------------------------------------------------
      1         11           0       -3.011110   -0.063604   -0.308862
      2         11           0        0.131700   -0.171130    1.885557
      3         11           0        2.500435   -1.712518    0.023380
      4         11           0        2.192641    2.078586   -0.258528
      5         11           0       -1.062450    2.275285    0.448053
      6         11           0       -0.824960   -2.392684    0.068921
      7         11           0        0.073745   -0.013935   -1.858521
 ---------------------------------------------------------------------

 SCF Done:  E(UB3LYP) =  -1136.13519563     A.U. after   19 cycles

 The electronic state is 2-A.
 Alpha  occ. eigenvalues --  -38.43679 -38.43615 -38.43592 -38.43509 -38.43504
 Alpha  occ. eigenvalues --  -38.43118 -38.43092  -2.19622  -2.19534  -2.19494
 Alpha  occ. eigenvalues --   -2.19491  -2.19358  -2.19088  -2.19046  -1.13336
 Alpha  occ. eigenvalues --   -1.13307  -1.13250  -1.13216  -1.13204  -1.13183
 Alpha  occ. eigenvalues --   -1.13177  -1.13169  -1.13151  -1.13143  -1.13139
 Alpha  occ. eigenvalues --   -1.13090  -1.13023  -1.13018  -1.12993  -1.12773
 Alpha  occ. eigenvalues --   -1.12751  -1.12734  -1.12692  -1.12679  -1.12653
 Alpha  occ. eigenvalues --   -0.19447  -0.13044  -0.12658  -0.11300
 Alpha virt. eigenvalues --   -0.05271  -0.05047  -0.04231  -0.03278  -0.03129
 Alpha virt. eigenvalues --   -0.02821  -0.01388  -0.00976  -0.00084   0.00135
 Alpha virt. eigenvalues --    0.00203   0.00362   0.00845   0.00948   0.00992

  Beta  occ. eigenvalues --  -38.43676 -38.43586 -38.43526 -38.43505 -38.43423
  Beta  occ. eigenvalues --  -38.43106 -38.43077  -2.19532  -2.19488  -2.19460
  Beta  occ. eigenvalues --   -2.19353  -2.19343  -2.19072  -2.19023  -1.13250
  Beta  occ. eigenvalues --   -1.13213  -1.13194  -1.13186  -1.13181  -1.13165
  Beta  occ. eigenvalues --   -1.13161  -1.13114  -1.13092  -1.13077  -1.13064
  Beta  occ. eigenvalues --   -1.13007  -1.13004  -1.12996  -1.12967  -1.12759
  Beta  occ. eigenvalues --   -1.12712  -1.12700  -1.12671  -1.12653  -1.12639
  Beta  occ. eigenvalues --   -0.18672  -0.12782  -0.12371
  Beta virt. eigenvalues --   -0.07309  -0.05251  -0.05027  -0.04231  -0.02470
  Beta virt. eigenvalues --   -0.02281  -0.01732  -0.01303  -0.00924   0.00033
  Beta virt. eigenvalues --    0.00088   0.00179   0.00375   0.00896   0.00935

 Mulliken charges and spin densities:
               1          2
     1  Na   0.089586  -0.017506
     2  Na  -0.432917   0.513435
     3  Na   0.073614  -0.132566
     4  Na   0.000349  -0.095942
     5  Na   0.398900   0.059824
     6  Na   0.468030  -0.000664
     7  Na  -0.597562   0.673420
 Sum of Mulliken charges =  -0.00000   1.00000

 Dipole moment (field-independent basis, Debye):
    X=              0.3147    Y=             -0.0546    Z=             -0.1131  Tot=              0.3389
 Quadrupole moment (field-independent basis, Debye-Ang):
   XX=            -57.1190   YY=            -65.6626   ZZ=            -71.6114
   XY=             -0.0791   XZ=              0.0966   YZ=              0.1764

 Normal termination of Gaussian 16 at Thu Dec  7 11:37:37 2023.
