 Gaussian 16, Revision B.01,
 Gaussian 16:  ES64L-G16RevB.01 20-Dec-2017

 -------------------------
 #P B3LYP/6-311+g(d) force
 -------------------------

 -----
 DPGEN
 -----
 Symbolic Z-matrix:
 Charge =  0 Multiplicity = 2

                         Standard orientation:
 ---------------------------------------------------------------------
 Center     Atomic      Atomic             Coordinates (Angstroms)
 Number     Number       Type             X           Y           Z
 ---------------------------------------------------------------------
      1         11           0       -2.558774   -1.686687   -0.327876
      2         11           0        0.673461   -2.696008    0.495822
      3         11           0       -2.155775    1.723552   -0.402921
      4         11           0        1.209853    2.755979   -0.098599
      5         11           0       -0.022517   -0.154865   -1.600663
      6         11           0        3.323708   -0.552277   -0.276575
      7         11           0       -0.469955    0.610307    2.210812
 ---------------------------------------------------------------------

 SCF Done:  E(UB3LYP) =  -1136.13660949     A.U. after   18 cycles

 The electronic state is 2-A.
 Alpha  occ. eigenvalues --  -38.43926 -38.43925 -38.43661 -38.43531 -38.43524
 Alpha  occ. eigenvalues --  -38.43442 -38.43259  -2.19795  -2.19713  -2.19485
 Alpha  occ. eigenvalues --   -2.19453  -2.19389  -2.19289  -2.19262  -1.13457
 Alpha  occ. eigenvalues --   -1.13436  -1.13406  -1.13389  -1.13370  -1.13357
 Alpha  occ. eigenvalues --   -1.13215  -1.13167  -1.13155  -1.13122  -1.13119
 Alpha  occ. eigenvalues --   -1.13097  -1.13063  -1.13042  -1.13012  -1.12986
 Alpha  occ. eigenvalues --   -1.12957  -1.12922  -1.12907  -1.12878  -1.12862
 Alpha  occ. eigenvalues --   -0.18628  -0.12763  -0.12595  -0.11024
 Alpha virt. eigenvalues --   -0.05498  -0.05121  -0.04684  -0.03234  -0.02993
 Alpha virt. eigenvalues --   -0.02797  -0.01379  -0.01130  -0.00324  -0.00198
 Alpha virt. eigenvalues --   -0.00044   0.00351   0.00808   0.00864   0.00923

  Beta  occ. eigenvalues --  -38.43927 -38.43825 -38.43658 -38.43518 -38.43517
  Beta  occ. eigenvalues --  -38.43433 -38.43200  -2.19716  -2.19609  -2.19483
  Beta  occ. eigenvalues --   -2.19432  -2.19382  -2.19273  -2.19156  -1.13382
  Beta  occ. eigenvalues --   -1.13373  -1.13360  -1.13339  -1.13307  -1.13273
  Beta  occ. eigenvalues --   -1.13188  -1.13156  -1.13140  -1.13116  -1.13089
  Beta  occ. eigenvalues --   -1.13076  -1.13051  -1.13017  -1.13005  -1.12969
  Beta  occ. eigenvalues --   -1.12928  -1.12900  -1.12860  -1.12807  -1.12784
  Beta  occ. eigenvalues --   -0.17891  -0.12552  -0.12370
  Beta virt. eigenvalues --   -0.07052  -0.05471  -0.05095  -0.04560  -0.02478
  Beta virt. eigenvalues --   -0.02284  -0.01721  -0.01301  -0.01086  -0.00334
  Beta virt. eigenvalues --   -0.00211   0.00117   0.00388   0.00848   0.00894

 Mulliken charges and spin densities:
               1          2
     1  Na   0.226895   0.036410
     2  Na  -0.029688   0.102632
     3  Na   0.460006   0.015586
     4  Na   0.047761  -0.055290
     5  Na  -0.106467   0.268267
     6  Na  -0.011343  -0.052452
     7  Na  -0.587164   0.684848
 Sum of Mulliken charges =  -0.00000   1.00000

 Dipole moment (field-independent basis, Debye):
    X=              0.1114    Y=              0.1190    Z=              0.2164  Tot=              0.2709
 Quadrupole moment (field-independent basis, Debye-Ang):
   XX=            -58.4524   YY=            -63.1179   ZZ=            -72.6819
   XY=              1.2886   XZ=              0.5641   YZ=             -1.3785

 Normal termination of Gaussian 16 at Tue Dec  5 21:50:36 2023.
