 Gaussian 16, Revision B.01,
 Gaussian 16:  ES64L-G16RevB.01 20-Dec-2017

 -------------------------
 #P B3LYP/6-311+g(d) force
 -------------------------

 -----
 DPGEN
 -----
 Symbolic Z-matrix:
 Charge =  0 Multiplicity = 2

                         Standard orientation:
 ---------------------------------------------------------------------
 Center     Atomic      Atomic             Coordinates (Angstroms)
 Number     Number       Type             X           Y           Z
 ---------------------------------------------------------------------
      1         11           0        7.026177    2.832660   -0.038712
      2         11           0        0.203709   -2.025234   -0.107898
      3         11           0       -2.969290   -1.862813   -1.016054
      4         11           0       -4.624209    1.474368    0.021333
      5         11           0       -7.600683    1.665824    0.491706
      6         11           0        3.015134   -2.469341    1.086918
      7         11           0        4.949163    0.384536   -0.437293
 ---------------------------------------------------------------------

 SCF Done:  E(UB3LYP) =  -1136.10828993     A.U. after   19 cycles

 The electronic state is 2-A.
 Alpha  occ. eigenvalues --  -38.44928 -38.44767 -38.44713 -38.44404 -38.44304
 Alpha  occ. eigenvalues --  -38.43973 -38.43938  -2.20738  -2.20577  -2.20546
 Alpha  occ. eigenvalues --   -2.20204  -2.20094  -2.19794  -2.19709  -1.14381
 Alpha  occ. eigenvalues --   -1.14380  -1.14358  -1.14277  -1.14222  -1.14215
 Alpha  occ. eigenvalues --   -1.14212  -1.14181  -1.14163  -1.13868  -1.13860
 Alpha  occ. eigenvalues --   -1.13844  -1.13740  -1.13739  -1.13738  -1.13476
 Alpha  occ. eigenvalues --   -1.13463  -1.13456  -1.13395  -1.13392  -1.13342
 Alpha  occ. eigenvalues --   -0.15464  -0.14291  -0.12925  -0.11674
 Alpha virt. eigenvalues --   -0.06304  -0.05277  -0.04601  -0.03409  -0.02991
 Alpha virt. eigenvalues --   -0.02700  -0.02266  -0.02063  -0.01741  -0.01194
 Alpha virt. eigenvalues --   -0.00926  -0.00492  -0.00252   0.00356   0.00660

  Beta  occ. eigenvalues --  -38.44843 -38.44723 -38.44643 -38.44410 -38.44250
  Beta  occ. eigenvalues --  -38.43977 -38.43949  -2.20581  -2.20494  -2.20416
  Beta  occ. eigenvalues --   -2.20221  -2.19995  -2.19811  -2.19735  -1.14274
  Beta  occ. eigenvalues --   -1.14272  -1.14256  -1.14226  -1.14158  -1.14156
  Beta  occ. eigenvalues --   -1.14139  -1.14092  -1.14077  -1.13883  -1.13874
  Beta  occ. eigenvalues --   -1.13823  -1.13675  -1.13671  -1.13671  -1.13485
  Beta  occ. eigenvalues --   -1.13482  -1.13416  -1.13414  -1.13413  -1.13325
  Beta  occ. eigenvalues --   -0.14750  -0.13685  -0.12165
  Beta virt. eigenvalues --   -0.08704  -0.05980  -0.04912  -0.04239  -0.03211
  Beta virt. eigenvalues --   -0.02811  -0.02467  -0.02006  -0.01809  -0.01466
  Beta virt. eigenvalues --   -0.00827  -0.00497  -0.00309  -0.00087   0.00481

 Mulliken charges and spin densities:
               1          2
     1  Na   0.466682   0.231172
     2  Na  -1.126928   0.284037
     3  Na   0.245660   0.051149
     4  Na  -0.479749   0.038399
     5  Na   0.542121   0.139954
     6  Na   0.886338   0.267724
     7  Na  -0.534124  -0.012435
 Sum of Mulliken charges =  -0.00000   1.00000

 Dipole moment (field-independent basis, Debye):
    X=             -1.3355    Y=              0.0127    Z=              0.2736  Tot=              1.3633
 Quadrupole moment (field-independent basis, Debye-Ang):
   XX=            -50.5573   YY=            -65.4286   ZZ=            -72.6418
   XY=              2.5613   XZ=              2.4973   YZ=              0.0724

 Normal termination of Gaussian 16 at Mon Dec  4 02:26:21 2023.
