 Gaussian 16, Revision B.01,
 Gaussian 16:  ES64L-G16RevB.01 20-Dec-2017

 -------------------------
 #P B3LYP/6-311+g(d) force
 -------------------------

 -----
 DPGEN
 -----
 Symbolic Z-matrix:
 Charge =  0 Multiplicity = 2

                         Standard orientation:
 ---------------------------------------------------------------------
 Center     Atomic      Atomic             Coordinates (Angstroms)
 Number     Number       Type             X           Y           Z
 ---------------------------------------------------------------------
      1         11           0        3.019583    1.105473   -0.211643
      2         11           0       -1.734328   -2.329447   -0.162327
      3         11           0       -0.381649   -0.423532    2.005720
      4         11           0       -0.114008    2.951118    0.426472
      5         11           0       -2.895892    0.936902   -0.467918
      6         11           0        0.137845    0.043580   -1.609873
      7         11           0        1.968450   -2.284093    0.019569
 ---------------------------------------------------------------------

 SCF Done:  E(UB3LYP) =  -1136.13969133     A.U. after   19 cycles

 The electronic state is 2-A.
 Alpha  occ. eigenvalues --  -38.43881 -38.43747 -38.43680 -38.43509 -38.43491
 Alpha  occ. eigenvalues --  -38.43445 -38.43112  -2.19694  -2.19599  -2.19520
 Alpha  occ. eigenvalues --   -2.19418  -2.19380  -2.19269  -2.19097  -1.13380
 Alpha  occ. eigenvalues --   -1.13354  -1.13333  -1.13286  -1.13255  -1.13239
 Alpha  occ. eigenvalues --   -1.13207  -1.13197  -1.13153  -1.13138  -1.13073
 Alpha  occ. eigenvalues --   -1.13053  -1.13029  -1.13000  -1.12987  -1.12939
 Alpha  occ. eigenvalues --   -1.12938  -1.12903  -1.12779  -1.12726  -1.12722
 Alpha  occ. eigenvalues --   -0.18669  -0.12948  -0.12547  -0.10736
 Alpha virt. eigenvalues --   -0.05402  -0.05285  -0.04798  -0.03083  -0.03007
 Alpha virt. eigenvalues --   -0.02492  -0.01425  -0.01167  -0.00405  -0.00318
 Alpha virt. eigenvalues --    0.00001   0.00358   0.00822   0.00870   0.00895

  Beta  occ. eigenvalues --  -38.43880 -38.43735 -38.43676 -38.43482 -38.43436
  Beta  occ. eigenvalues --  -38.43418 -38.43052  -2.19695  -2.19580  -2.19517
  Beta  occ. eigenvalues --   -2.19369  -2.19256  -2.19249  -2.18987  -1.13372
  Beta  occ. eigenvalues --   -1.13352  -1.13333  -1.13266  -1.13237  -1.13218
  Beta  occ. eigenvalues --   -1.13202  -1.13177  -1.13142  -1.13098  -1.13027
  Beta  occ. eigenvalues --   -1.12986  -1.12961  -1.12931  -1.12918  -1.12912
  Beta  occ. eigenvalues --   -1.12898  -1.12890  -1.12704  -1.12650  -1.12636
  Beta  occ. eigenvalues --   -0.17949  -0.12695  -0.12314
  Beta virt. eigenvalues --   -0.06833  -0.05380  -0.05264  -0.04710  -0.02352
  Beta virt. eigenvalues --   -0.02237  -0.01463  -0.01310  -0.01112  -0.00410
  Beta virt. eigenvalues --   -0.00373   0.00139   0.00392   0.00857   0.00892

 Mulliken charges and spin densities:
               1          2
     1  Na   0.009415  -0.064075
     2  Na   0.336252  -0.047146
     3  Na  -0.409559   0.753491
     4  Na  -0.051009   0.010010
     5  Na   0.166532   0.018425
     6  Na  -0.128752   0.430090
     7  Na   0.077122  -0.100794
 Sum of Mulliken charges =  -0.00000   1.00000

 Dipole moment (field-independent basis, Debye):
    X=              0.0955    Y=             -0.0527    Z=              0.0976  Tot=              0.1464
 Quadrupole moment (field-independent basis, Debye-Ang):
   XX=            -57.3501   YY=            -61.6230   ZZ=            -74.2725
   XY=             -0.0859   XZ=              1.1776   YZ=              0.9536

 Normal termination of Gaussian 16 at Fri Dec  8 04:50:41 2023.
