 Gaussian 16, Revision B.01,
 Gaussian 16:  ES64L-G16RevB.01 20-Dec-2017

 -------------------------
 #P B3LYP/6-311+g(d) force
 -------------------------

 -----
 DPGEN
 -----
 Symbolic Z-matrix:
 Charge =  0 Multiplicity = 2

                         Standard orientation:
 ---------------------------------------------------------------------
 Center     Atomic      Atomic             Coordinates (Angstroms)
 Number     Number       Type             X           Y           Z
 ---------------------------------------------------------------------
      1         11           0       -0.134645    0.280250    1.840026
      2         11           0       -3.271045   -1.315627    0.278447
      3         11           0       -1.170216    0.502698   -1.507060
      4         11           0       -0.065693   -2.592770   -0.576643
      5         11           0       -0.614873    3.392667    0.408067
      6         11           0        2.209368    1.131024   -1.142809
      7         11           0        3.047106   -1.398242    0.699973
 ---------------------------------------------------------------------

 SCF Done:  E(UB3LYP) =  -1136.13522475     A.U. after   19 cycles

 The electronic state is 2-A.
 Alpha  occ. eigenvalues --  -38.44193 -38.44001 -38.43901 -38.43637 -38.43579
 Alpha  occ. eigenvalues --  -38.43463 -38.43157  -2.20004  -2.19835  -2.19747
 Alpha  occ. eigenvalues --   -2.19462  -2.19439  -2.19293  -2.19099  -1.13685
 Alpha  occ. eigenvalues --   -1.13659  -1.13644  -1.13537  -1.13514  -1.13436
 Alpha  occ. eigenvalues --   -1.13433  -1.13417  -1.13365  -1.13152  -1.13127
 Alpha  occ. eigenvalues --   -1.13107  -1.13090  -1.13079  -1.13056  -1.12961
 Alpha  occ. eigenvalues --   -1.12946  -1.12933  -1.12799  -1.12756  -1.12693
 Alpha  occ. eigenvalues --   -0.18240  -0.12869  -0.12408  -0.10703
 Alpha virt. eigenvalues --   -0.05829  -0.05277  -0.04559  -0.03190  -0.03057
 Alpha virt. eigenvalues --   -0.02486  -0.01673  -0.01362  -0.00494  -0.00148
 Alpha virt. eigenvalues --    0.00137   0.00329   0.00692   0.00768   0.00852

  Beta  occ. eigenvalues --  -38.44193 -38.43991 -38.43868 -38.43634 -38.43501
  Beta  occ. eigenvalues --  -38.43457 -38.43107  -2.20006  -2.19820  -2.19689
  Beta  occ. eigenvalues --   -2.19435  -2.19318  -2.19283  -2.19009  -1.13684
  Beta  occ. eigenvalues --   -1.13651  -1.13644  -1.13524  -1.13484  -1.13430
  Beta  occ. eigenvalues --   -1.13388  -1.13365  -1.13329  -1.13106  -1.13103
  Beta  occ. eigenvalues --   -1.13070  -1.13047  -1.12989  -1.12970  -1.12955
  Beta  occ. eigenvalues --   -1.12929  -1.12922  -1.12741  -1.12674  -1.12630
  Beta  occ. eigenvalues --   -0.17513  -0.12701  -0.12194
  Beta virt. eigenvalues --   -0.06834  -0.05770  -0.05128  -0.04449  -0.02621
  Beta virt. eigenvalues --   -0.02380  -0.01627  -0.01507  -0.01245  -0.00243
  Beta virt. eigenvalues --   -0.00184   0.00203   0.00369   0.00742   0.00802

 Mulliken charges and spin densities:
               1          2
     1  Na  -0.516204   0.679333
     2  Na   0.284754  -0.058852
     3  Na   0.265417   0.360221
     4  Na  -0.249212   0.019318
     5  Na   0.092218  -0.074125
     6  Na  -0.301659   0.074944
     7  Na   0.424686  -0.000838
 Sum of Mulliken charges =  -0.00000   1.00000

 Dipole moment (field-independent basis, Debye):
    X=             -0.4350    Y=             -0.1202    Z=              0.1264  Tot=              0.4687
 Quadrupole moment (field-independent basis, Debye-Ang):
   XX=            -57.9330   YY=            -61.6162   ZZ=            -73.1523
   XY=              0.4548   XZ=             -1.1656   YZ=             -0.3796

 Normal termination of Gaussian 16 at Wed Nov 29 15:45:05 2023.
