 Gaussian 16, Revision B.01,
 Gaussian 16:  ES64L-G16RevB.01 20-Dec-2017

 -------------------------
 #P B3LYP/6-311+g(d) force
 -------------------------

 -----
 DPGEN
 -----
 Symbolic Z-matrix:
 Charge =  0 Multiplicity = 2

                         Standard orientation:
 ---------------------------------------------------------------------
 Center     Atomic      Atomic             Coordinates (Angstroms)
 Number     Number       Type             X           Y           Z
 ---------------------------------------------------------------------
      1         11           0        4.850066    0.077613   -0.264211
      2         11           0       -1.061828   -1.993692    1.082644
      3         11           0       -4.099473   -1.160650   -1.090851
      4         11           0       -2.938543    2.259750   -0.718252
      5         11           0        1.935972    1.987140   -0.514677
      6         11           0       -0.655327    0.820707    2.331655
      7         11           0        1.969133   -1.990868   -0.826307
 ---------------------------------------------------------------------

 SCF Done:  E(UB3LYP) =  -1136.10809420     A.U. after   26 cycles

 The electronic state is 2-A.
 Alpha  occ. eigenvalues --  -38.45133 -38.45038 -38.44886 -38.44830 -38.44564
 Alpha  occ. eigenvalues --  -38.44097 -38.42551  -2.20914  -2.20863  -2.20665
 Alpha  occ. eigenvalues --   -2.20585  -2.20335  -2.19825  -2.18389  -1.14568
 Alpha  occ. eigenvalues --   -1.14541  -1.14530  -1.14526  -1.14502  -1.14468
 Alpha  occ. eigenvalues --   -1.14333  -1.14325  -1.14301  -1.14280  -1.14262
 Alpha  occ. eigenvalues --   -1.14182  -1.14035  -1.14003  -1.13941  -1.13518
 Alpha  occ. eigenvalues --   -1.13491  -1.13478  -1.12098  -1.12048  -1.12020
 Alpha  occ. eigenvalues --   -0.16535  -0.13959  -0.11598  -0.11004
 Alpha virt. eigenvalues --   -0.06675  -0.06243  -0.04314  -0.03414  -0.03160
 Alpha virt. eigenvalues --   -0.02850  -0.02248  -0.01565  -0.00989  -0.00772
 Alpha virt. eigenvalues --   -0.00101  -0.00048   0.00216   0.00290   0.00596

  Beta  occ. eigenvalues --  -38.45040 -38.44952 -38.44874 -38.44814 -38.44551
  Beta  occ. eigenvalues --  -38.44118 -38.42547  -2.20739  -2.20702  -2.20644
  Beta  occ. eigenvalues --   -2.20558  -2.20310  -2.19866  -2.18386  -1.14449
  Beta  occ. eigenvalues --   -1.14424  -1.14421  -1.14409  -1.14391  -1.14356
  Beta  occ. eigenvalues --   -1.14319  -1.14308  -1.14288  -1.14262  -1.14241
  Beta  occ. eigenvalues --   -1.14156  -1.14018  -1.13986  -1.13923  -1.13548
  Beta  occ. eigenvalues --   -1.13523  -1.13484  -1.12076  -1.12046  -1.12017
  Beta  occ. eigenvalues --   -0.15910  -0.13428  -0.10927
  Beta virt. eigenvalues --   -0.08017  -0.06443  -0.05821  -0.03659  -0.03245
  Beta virt. eigenvalues --   -0.02824  -0.02500  -0.01875  -0.01403  -0.00778
  Beta virt. eigenvalues --   -0.00481  -0.00057   0.00034   0.00356   0.00470

 Mulliken charges and spin densities:
               1          2
     1  Na   0.413032   0.046223
     2  Na  -0.128007   0.113673
     3  Na   0.179068   0.390572
     4  Na  -0.184968  -0.113357
     5  Na  -0.276842   0.064468
     6  Na   0.064539   0.418901
     7  Na  -0.066822   0.079519
 Sum of Mulliken charges =  -0.00000   1.00000

 Dipole moment (field-independent basis, Debye):
    X=              1.2802    Y=             -0.0551    Z=             -0.0377  Tot=              1.2820
 Quadrupole moment (field-independent basis, Debye-Ang):
   XX=            -55.7926   YY=            -73.2933   ZZ=            -68.7637
   XY=              1.7983   XZ=              0.5370   YZ=              4.3725

 Normal termination of Gaussian 16 at Sun Dec  3 14:19:23 2023.
