 Gaussian 16, Revision B.01,
 Gaussian 16:  ES64L-G16RevB.01 20-Dec-2017

 -------------------------
 #P B3LYP/6-311+g(d) force
 -------------------------

 -----
 DPGEN
 -----
 Symbolic Z-matrix:
 Charge =  0 Multiplicity = 2

                         Standard orientation:
 ---------------------------------------------------------------------
 Center     Atomic      Atomic             Coordinates (Angstroms)
 Number     Number       Type             X           Y           Z
 ---------------------------------------------------------------------
      1         11           0        0.341717    0.143845   -0.152731
      2         11           0        3.650223   -1.208033   -0.262100
      3         11           0       -3.377883   -1.897225   -1.087192
      4         11           0        2.777632    1.934898   -0.616284
      5         11           0        1.037212   -2.975543    1.109979
      6         11           0       -3.778228    0.553883    0.462621
      7         11           0       -0.650674    3.448175    0.545708
 ---------------------------------------------------------------------

 SCF Done:  E(UB3LYP) =  -1136.12000010     A.U. after   22 cycles

 The electronic state is 2-A.
 Alpha  occ. eigenvalues --  -38.44551 -38.44193 -38.44145 -38.43888 -38.43759
 Alpha  occ. eigenvalues --  -38.43600 -38.43558  -2.20373  -2.20043  -2.19976
 Alpha  occ. eigenvalues --   -2.19794  -2.19639  -2.19391  -2.19385  -1.14130
 Alpha  occ. eigenvalues --   -1.14030  -1.13996  -1.13726  -1.13719  -1.13675
 Alpha  occ. eigenvalues --   -1.13617  -1.13613  -1.13592  -1.13551  -1.13508
 Alpha  occ. eigenvalues --   -1.13396  -1.13299  -1.13290  -1.13222  -1.13058
 Alpha  occ. eigenvalues --   -1.13041  -1.13039  -1.13028  -1.13012  -1.13005
 Alpha  occ. eigenvalues --   -0.16983  -0.14068  -0.12483  -0.10365
 Alpha virt. eigenvalues --   -0.06343  -0.05215  -0.04399  -0.03450  -0.03083
 Alpha virt. eigenvalues --   -0.02464  -0.01754  -0.01353  -0.01007  -0.00478
 Alpha virt. eigenvalues --   -0.00137   0.00068   0.00238   0.00619   0.00697

  Beta  occ. eigenvalues --  -38.44541 -38.44169 -38.44110 -38.43884 -38.43713
  Beta  occ. eigenvalues --  -38.43563 -38.43498  -2.20358  -2.20005  -2.19914
  Beta  occ. eigenvalues --   -2.19788  -2.19560  -2.19321  -2.19273  -1.14104
  Beta  occ. eigenvalues --   -1.14024  -1.13973  -1.13701  -1.13695  -1.13612
  Beta  occ. eigenvalues --   -1.13574  -1.13572  -1.13546  -1.13533  -1.13501
  Beta  occ. eigenvalues --   -1.13392  -1.13254  -1.13243  -1.13144  -1.13009
  Beta  occ. eigenvalues --   -1.12990  -1.12973  -1.12961  -1.12951  -1.12936
  Beta  occ. eigenvalues --   -0.16525  -0.13413  -0.12002
  Beta virt. eigenvalues --   -0.07026  -0.06236  -0.04961  -0.04147  -0.03044
  Beta virt. eigenvalues --   -0.02583  -0.02293  -0.01532  -0.01132  -0.00812
  Beta virt. eigenvalues --   -0.00215   0.00148   0.00216   0.00375   0.00629

 Mulliken charges and spin densities:
               1          2
     1  Na  -3.314344  -0.080582
     2  Na   0.566070   0.175479
     3  Na   0.290346   0.153527
     4  Na   0.633954   0.360047
     5  Na   0.561965   0.201333
     6  Na   0.697376   0.055938
     7  Na   0.564634   0.134257
 Sum of Mulliken charges =  -0.00000   1.00000

 Dipole moment (field-independent basis, Debye):
    X=             -0.0056    Y=             -0.1127    Z=              0.1734  Tot=              0.2069
 Quadrupole moment (field-independent basis, Debye-Ang):
   XX=            -64.1874   YY=            -62.0326   ZZ=            -70.2517
   XY=             -3.8542   XZ=             -1.9640   YZ=              2.8594

 Normal termination of Gaussian 16 at Wed Nov 29 16:53:31 2023.
