 Gaussian 16, Revision B.01,
 Gaussian 16:  ES64L-G16RevB.01 20-Dec-2017

 -------------------------
 #P B3LYP/6-311+g(d) force
 -------------------------

 -----
 DPGEN
 -----
 Symbolic Z-matrix:
 Charge =  0 Multiplicity = 2

                         Standard orientation:
 ---------------------------------------------------------------------
 Center     Atomic      Atomic             Coordinates (Angstroms)
 Number     Number       Type             X           Y           Z
 ---------------------------------------------------------------------
      1         11           0        2.477165    0.092038    0.796882
      2         11           0        1.191689    0.810356   -1.655559
      3         11           0       -4.036883   -0.181832    0.020040
      4         11           0       -1.273922    0.120710   -0.678471
      5         11           0        0.053217   -1.059610    1.674917
      6         11           0        0.320123    2.102863    0.710028
      7         11           0        1.268612   -1.884525   -0.867837
 ---------------------------------------------------------------------

 SCF Done:  E(UB3LYP) =  -1136.07451216     A.U. after   26 cycles

 The electronic state is 2-A.
 Alpha  occ. eigenvalues --  -38.45460 -38.44732 -38.44302 -38.44210 -38.43444
 Alpha  occ. eigenvalues --  -38.43302 -38.42949  -2.21258  -2.20913  -2.20534
 Alpha  occ. eigenvalues --   -2.20303  -2.19661  -2.19420  -2.19044  -1.15000
 Alpha  occ. eigenvalues --   -1.14891  -1.14883  -1.14746  -1.14683  -1.14531
 Alpha  occ. eigenvalues --   -1.14360  -1.14181  -1.14105  -1.14047  -1.13911
 Alpha  occ. eigenvalues --   -1.13900  -1.13368  -1.13309  -1.13232  -1.13101
 Alpha  occ. eigenvalues --   -1.13022  -1.13011  -1.12736  -1.12661  -1.12633
 Alpha  occ. eigenvalues --   -0.21184  -0.13560  -0.12722  -0.11794
 Alpha virt. eigenvalues --   -0.07029  -0.03750  -0.03634  -0.03296  -0.02876
 Alpha virt. eigenvalues --   -0.02794  -0.02174  -0.00558  -0.00325   0.00108
 Alpha virt. eigenvalues --    0.00343   0.00454   0.00497   0.00891   0.01174

  Beta  occ. eigenvalues --  -38.45472 -38.44693 -38.44224 -38.44142 -38.43413
  Beta  occ. eigenvalues --  -38.43265 -38.42921  -2.21280  -2.20850  -2.20397
  Beta  occ. eigenvalues --   -2.20183  -2.19612  -2.19359  -2.18998  -1.15013
  Beta  occ. eigenvalues --   -1.14905  -1.14897  -1.14711  -1.14578  -1.14484
  Beta  occ. eigenvalues --   -1.14269  -1.14067  -1.14010  -1.13977  -1.13821
  Beta  occ. eigenvalues --   -1.13796  -1.13343  -1.13226  -1.13195  -1.13066
  Beta  occ. eigenvalues --   -1.12972  -1.12932  -1.12713  -1.12610  -1.12578
  Beta  occ. eigenvalues --   -0.20234  -0.13449  -0.11627
  Beta virt. eigenvalues --   -0.08089  -0.06868  -0.03553  -0.03211  -0.02936
  Beta virt. eigenvalues --   -0.02290  -0.02145  -0.01641  -0.00344  -0.00207
  Beta virt. eigenvalues --    0.00169   0.00412   0.00485   0.00582   0.00926

 Mulliken charges and spin densities:
               1          2
     1  Na   0.675880   0.272423
     2  Na   0.173277   0.268570
     3  Na   0.239875  -0.069119
     4  Na   0.902120   0.208692
     5  Na  -0.099140   0.335151
     6  Na  -1.006162   0.096914
     7  Na  -0.885849  -0.112631
 Sum of Mulliken charges =  -0.00000   1.00000

 Dipole moment (field-independent basis, Debye):
    X=             -0.7721    Y=             -0.0515    Z=              0.4391  Tot=              0.8897
 Quadrupole moment (field-independent basis, Debye-Ang):
   XX=            -51.5276   YY=            -75.7815   ZZ=            -66.0834
   XY=              0.6569   XZ=             -1.1652   YZ=              2.1003

 Normal termination of Gaussian 16 at Thu Dec  7 02:06:44 2023.
