 Gaussian 16, Revision B.01,
 Gaussian 16:  ES64L-G16RevB.01 20-Dec-2017

 -------------------------
 #P B3LYP/6-311+g(d) force
 -------------------------

 -----
 DPGEN
 -----
 Symbolic Z-matrix:
 Charge =  0 Multiplicity = 2

                         Standard orientation:
 ---------------------------------------------------------------------
 Center     Atomic      Atomic             Coordinates (Angstroms)
 Number     Number       Type             X           Y           Z
 ---------------------------------------------------------------------
      1         11           0        0.445096    0.481260    1.733020
      2         11           0        3.244352    0.931662    0.326024
      3         11           0       -0.983167    2.789857   -0.401363
      4         11           0       -3.342870   -0.229159    0.273539
      5         11           0       -0.127672    0.372879   -1.579270
      6         11           0        1.915186   -2.026961   -0.624894
      7         11           0       -1.150924   -2.319539    0.272945
 ---------------------------------------------------------------------

 SCF Done:  E(UB3LYP) =  -1136.12629064     A.U. after   20 cycles

 The electronic state is 2-A.
 Alpha  occ. eigenvalues --  -38.44706 -38.44620 -38.43654 -38.43430 -38.43354
 Alpha  occ. eigenvalues --  -38.43202 -38.42871  -2.20537  -2.20454  -2.19598
 Alpha  occ. eigenvalues --   -2.19323  -2.19259  -2.19236  -2.18805  -1.14243
 Alpha  occ. eigenvalues --   -1.14194  -1.14152  -1.14146  -1.14101  -1.14087
 Alpha  occ. eigenvalues --   -1.13299  -1.13245  -1.13229  -1.13213  -1.12979
 Alpha  occ. eigenvalues --   -1.12952  -1.12927  -1.12917  -1.12887  -1.12876
 Alpha  occ. eigenvalues --   -1.12819  -1.12769  -1.12479  -1.12466  -1.12446
 Alpha  occ. eigenvalues --   -0.18968  -0.13468  -0.12383  -0.10739
 Alpha virt. eigenvalues --   -0.06395  -0.04870  -0.04230  -0.03336  -0.02826
 Alpha virt. eigenvalues --   -0.02303  -0.02098  -0.01023  -0.00370  -0.00047
 Alpha virt. eigenvalues --    0.00062   0.00271   0.00761   0.00794   0.00834

  Beta  occ. eigenvalues --  -38.44697 -38.44605 -38.43591 -38.43415 -38.43333
  Beta  occ. eigenvalues --  -38.43129 -38.42863  -2.20523  -2.20431  -2.19481
  Beta  occ. eigenvalues --   -2.19297  -2.19224  -2.19107  -2.18795  -1.14236
  Beta  occ. eigenvalues --   -1.14170  -1.14143  -1.14117  -1.14084  -1.14068
  Beta  occ. eigenvalues --   -1.13224  -1.13182  -1.13146  -1.13131  -1.12940
  Beta  occ. eigenvalues --   -1.12920  -1.12903  -1.12897  -1.12849  -1.12798
  Beta  occ. eigenvalues --   -1.12740  -1.12691  -1.12476  -1.12464  -1.12403
  Beta  occ. eigenvalues --   -0.18315  -0.13172  -0.12052
  Beta virt. eigenvalues --   -0.06962  -0.06255  -0.04809  -0.04176  -0.02658
  Beta virt. eigenvalues --   -0.02091  -0.01999  -0.01289  -0.00918  -0.00374
  Beta virt. eigenvalues --    0.00030   0.00123   0.00328   0.00805   0.00884

 Mulliken charges and spin densities:
               1          2
     1  Na  -0.365179   0.519796
     2  Na   0.211115   0.018902
     3  Na   0.150737  -0.025193
     4  Na  -0.027441   0.024847
     5  Na  -0.212177   0.228488
     6  Na   0.248218   0.129599
     7  Na  -0.005272   0.103561
 Sum of Mulliken charges =  -0.00000   1.00000

 Dipole moment (field-independent basis, Debye):
    X=              0.1161    Y=              0.4015    Z=              0.1445  Tot=              0.4422
 Quadrupole moment (field-independent basis, Debye-Ang):
   XX=            -51.6641   YY=            -67.1361   ZZ=            -74.4565
   XY=             -0.6449   XZ=             -1.5344   YZ=              0.5006

 Normal termination of Gaussian 16 at Tue Dec  5 22:18:36 2023.
