 Gaussian 16, Revision B.01,
 Gaussian 16:  ES64L-G16RevB.01 20-Dec-2017

 -------------------------
 #P B3LYP/6-311+g(d) force
 -------------------------

 -----
 DPGEN
 -----
 Symbolic Z-matrix:
 Charge =  0 Multiplicity = 2

                         Standard orientation:
 ---------------------------------------------------------------------
 Center     Atomic      Atomic             Coordinates (Angstroms)
 Number     Number       Type             X           Y           Z
 ---------------------------------------------------------------------
      1         11           0       -2.405349    1.615999    0.158155
      2         11           0        2.871463   -0.333556    0.577294
      3         11           0       -2.389109   -1.521151   -0.153355
      4         11           0        1.145268   -2.508443   -0.867564
      5         11           0       -0.486209   -0.464761    2.206535
      6         11           0       -0.323605    0.649628   -1.817002
      7         11           0        1.587542    2.562284   -0.104063
 ---------------------------------------------------------------------

 SCF Done:  E(UB3LYP) =  -1136.13131480     A.U. after   19 cycles

 The electronic state is 2-A.
 Alpha  occ. eigenvalues --  -38.44317 -38.43897 -38.43770 -38.43715 -38.43601
 Alpha  occ. eigenvalues --  -38.43370 -38.43315  -2.20193  -2.19805  -2.19638
 Alpha  occ. eigenvalues --   -2.19623  -2.19569  -2.19220  -2.19158  -1.13865
 Alpha  occ. eigenvalues --   -1.13834  -1.13807  -1.13572  -1.13465  -1.13446
 Alpha  occ. eigenvalues --   -1.13333  -1.13305  -1.13294  -1.13294  -1.13288
 Alpha  occ. eigenvalues --   -1.13234  -1.13226  -1.13197  -1.13186  -1.12890
 Alpha  occ. eigenvalues --   -1.12873  -1.12848  -1.12835  -1.12815  -1.12788
 Alpha  occ. eigenvalues --   -0.18818  -0.13368  -0.12122  -0.11519
 Alpha virt. eigenvalues --   -0.05386  -0.05242  -0.04338  -0.03625  -0.03323
 Alpha virt. eigenvalues --   -0.02921  -0.01210  -0.00867  -0.00223  -0.00003
 Alpha virt. eigenvalues --    0.00069   0.00413   0.00791   0.00883   0.00921

  Beta  occ. eigenvalues --  -38.44227 -38.43889 -38.43764 -38.43707 -38.43536
  Beta  occ. eigenvalues --  -38.43349 -38.43315  -2.20028  -2.19794  -2.19629
  Beta  occ. eigenvalues --   -2.19614  -2.19451  -2.19184  -2.19161  -1.13758
  Beta  occ. eigenvalues --   -1.13718  -1.13688  -1.13554  -1.13445  -1.13428
  Beta  occ. eigenvalues --   -1.13325  -1.13297  -1.13289  -1.13271  -1.13253
  Beta  occ. eigenvalues --   -1.13225  -1.13153  -1.13123  -1.13099  -1.12866
  Beta  occ. eigenvalues --   -1.12836  -1.12831  -1.12824  -1.12804  -1.12792
  Beta  occ. eigenvalues --   -0.18048  -0.13143  -0.11905
  Beta virt. eigenvalues --   -0.07580  -0.05346  -0.05106  -0.04122  -0.02936
  Beta virt. eigenvalues --   -0.02575  -0.01968  -0.01139  -0.00808  -0.00109
  Beta virt. eigenvalues --    0.00032   0.00101   0.00448   0.00883   0.00925

 Mulliken charges and spin densities:
               1          2
     1  Na   0.186788  -0.061202
     2  Na   0.012643   0.069020
     3  Na   0.335815   0.079234
     4  Na  -0.134658   0.052998
     5  Na  -0.417654   0.506261
     6  Na   0.078875   0.412692
     7  Na  -0.061809  -0.059003
 Sum of Mulliken charges =  -0.00000   1.00000

 Dipole moment (field-independent basis, Debye):
    X=             -0.3316    Y=              0.0045    Z=              0.3167  Tot=              0.4586
 Quadrupole moment (field-independent basis, Debye-Ang):
   XX=            -60.5624   YY=            -66.9750   ZZ=            -69.3627
   XY=             -0.0304   XZ=              0.7235   YZ=              2.4476

 Normal termination of Gaussian 16 at Tue Dec  5 14:37:02 2023.
