 Gaussian 16, Revision B.01,
 Gaussian 16:  ES64L-G16RevB.01 20-Dec-2017

 -------------------------
 #P B3LYP/6-311+g(d) force
 -------------------------

 -----
 DPGEN
 -----
 Symbolic Z-matrix:
 Charge =  0 Multiplicity = 2

                         Standard orientation:
 ---------------------------------------------------------------------
 Center     Atomic      Atomic             Coordinates (Angstroms)
 Number     Number       Type             X           Y           Z
 ---------------------------------------------------------------------
      1         11           0        0.198459   -0.310840    2.601275
      2         11           0       -0.642672   -2.074434   -1.536670
      3         11           0        2.281666   -1.764801   -0.106892
      4         11           0       -2.577141    1.502360   -1.524851
      5         11           0        3.824701    0.841561   -0.590595
      6         11           0        0.530277    2.397269    0.302662
      7         11           0       -3.615290   -0.591115    0.855072
 ---------------------------------------------------------------------

 SCF Done:  E(UB3LYP) =  -1136.11172559     A.U. after   26 cycles

 The electronic state is 2-A.
 Alpha  occ. eigenvalues --  -38.45985 -38.45087 -38.44843 -38.44389 -38.43829
 Alpha  occ. eigenvalues --  -38.43326 -38.43197  -2.21730  -2.20890  -2.20657
 Alpha  occ. eigenvalues --   -2.20190  -2.19607  -2.19104  -2.19062  -1.15404
 Alpha  occ. eigenvalues --   -1.15393  -1.15375  -1.14584  -1.14542  -1.14501
 Alpha  occ. eigenvalues --   -1.14297  -1.14283  -1.14270  -1.13863  -1.13837
 Alpha  occ. eigenvalues --   -1.13817  -1.13301  -1.13275  -1.13232  -1.12795
 Alpha  occ. eigenvalues --   -1.12792  -1.12741  -1.12728  -1.12725  -1.12707
 Alpha  occ. eigenvalues --   -0.17184  -0.13751  -0.11449  -0.11125
 Alpha virt. eigenvalues --   -0.07371  -0.05462  -0.04250  -0.03587  -0.03227
 Alpha virt. eigenvalues --   -0.02824  -0.02343  -0.01276  -0.00528  -0.00463
 Alpha virt. eigenvalues --   -0.00043  -0.00027   0.00114   0.00449   0.00619

  Beta  occ. eigenvalues --  -38.45993 -38.45060 -38.44720 -38.44354 -38.43821
  Beta  occ. eigenvalues --  -38.43324 -38.43193  -2.21746  -2.20839  -2.20428
  Beta  occ. eigenvalues --   -2.20125  -2.19592  -2.19104  -2.19058  -1.15409
  Beta  occ. eigenvalues --   -1.15393  -1.15388  -1.14549  -1.14505  -1.14468
  Beta  occ. eigenvalues --   -1.14143  -1.14127  -1.14111  -1.13818  -1.13796
  Beta  occ. eigenvalues --   -1.13769  -1.13292  -1.13259  -1.13224  -1.12798
  Beta  occ. eigenvalues --   -1.12769  -1.12730  -1.12728  -1.12721  -1.12699
  Beta  occ. eigenvalues --   -0.16533  -0.13471  -0.11035
  Beta virt. eigenvalues --   -0.07609  -0.07165  -0.05211  -0.03771  -0.03103
  Beta virt. eigenvalues --   -0.02807  -0.02240  -0.02084  -0.01146  -0.00332
  Beta virt. eigenvalues --   -0.00273  -0.00024   0.00142   0.00202   0.00628

 Mulliken charges and spin densities:
               1          2
     1  Na  -0.005156   0.583595
     2  Na  -0.146893  -0.024890
     3  Na  -0.169220   0.267196
     4  Na   0.178128   0.230266
     5  Na   0.435084  -0.108755
     6  Na  -0.467272   0.140917
     7  Na   0.175329  -0.088330
 Sum of Mulliken charges =  -0.00000   1.00000

 Dipole moment (field-independent basis, Debye):
    X=             -0.8594    Y=              0.0135    Z=              0.2341  Tot=              0.8908
 Quadrupole moment (field-independent basis, Debye-Ang):
   XX=            -50.8486   YY=            -78.7463   ZZ=            -67.4533
   XY=              2.7936   XZ=             -2.8362   YZ=             -4.3168

 Normal termination of Gaussian 16 at Sun Dec  3 12:56:16 2023.
