 Gaussian 16, Revision B.01,
 Gaussian 16:  ES64L-G16RevB.01 20-Dec-2017

 -------------------------
 #P B3LYP/6-311+g(d) force
 -------------------------

 -----
 DPGEN
 -----
 Symbolic Z-matrix:
 Charge =  0 Multiplicity = 2

                         Standard orientation:
 ---------------------------------------------------------------------
 Center     Atomic      Atomic             Coordinates (Angstroms)
 Number     Number       Type             X           Y           Z
 ---------------------------------------------------------------------
      1         11           0        1.306191    0.464139   -1.719000
      2         11           0        0.812235   -1.876170   -0.392400
      3         11           0       -3.930598   -0.085860    0.029300
      4         11           0       -1.163399   -0.059208   -0.664400
      5         11           0        2.546101   -0.057838    0.646400
      6         11           0        0.079807   -0.347784    1.757100
      7         11           0        0.349663    1.962721    0.343000
 ---------------------------------------------------------------------

 SCF Done:  E(UB3LYP) =  -1136.03245505     A.U. after   28 cycles

 The electronic state is 2-A.
 Alpha  occ. eigenvalues --  -38.45971 -38.45219 -38.45189 -38.44914 -38.44128
 Alpha  occ. eigenvalues --  -38.43412 -38.43075  -2.21766  -2.21522  -2.21423
 Alpha  occ. eigenvalues --   -2.21216  -2.20516  -2.19677  -2.19300  -1.15583
 Alpha  occ. eigenvalues --   -1.15515  -1.15397  -1.15390  -1.15382  -1.15309
 Alpha  occ. eigenvalues --   -1.15163  -1.15093  -1.15001  -1.14861  -1.14825
 Alpha  occ. eigenvalues --   -1.14688  -1.14253  -1.14190  -1.14055  -1.13333
 Alpha  occ. eigenvalues --   -1.13258  -1.13219  -1.13006  -1.12922  -1.12824
 Alpha  occ. eigenvalues --   -0.21951  -0.13905  -0.12929  -0.11707
 Alpha virt. eigenvalues --   -0.07208  -0.03806  -0.03757  -0.03215  -0.02690
 Alpha virt. eigenvalues --   -0.02489  -0.02177  -0.00539  -0.00233   0.00098
 Alpha virt. eigenvalues --    0.00382   0.00505   0.00612   0.00872   0.01169

  Beta  occ. eigenvalues --  -38.45983 -38.45154 -38.45123 -38.44825 -38.44089
  Beta  occ. eigenvalues --  -38.43382 -38.43048  -2.21789  -2.21399  -2.21321
  Beta  occ. eigenvalues --   -2.21059  -2.20453  -2.19634  -2.19260  -1.15545
  Beta  occ. eigenvalues --   -1.15497  -1.15409  -1.15406  -1.15276  -1.15214
  Beta  occ. eigenvalues --   -1.15048  -1.14982  -1.14943  -1.14760  -1.14703
  Beta  occ. eigenvalues --   -1.14595  -1.14218  -1.14135  -1.13955  -1.13317
  Beta  occ. eigenvalues --   -1.13194  -1.13151  -1.12986  -1.12836  -1.12795
  Beta  occ. eigenvalues --   -0.21014  -0.13765  -0.11401
  Beta virt. eigenvalues --   -0.08301  -0.07068  -0.03423  -0.03169  -0.03055
  Beta virt. eigenvalues --   -0.02220  -0.01818  -0.01594  -0.00256  -0.00192
  Beta virt. eigenvalues --    0.00133   0.00451   0.00602   0.00644   0.00917

 Mulliken charges and spin densities:
               1          2
     1  Na  -0.170865   0.251724
     2  Na  -0.246143   0.006458
     3  Na   0.501491  -0.001922
     4  Na  -0.008743   0.083663
     5  Na   0.248080   0.056581
     6  Na   0.011557   0.582448
     7  Na  -0.335377   0.021047
 Sum of Mulliken charges =  -0.00000   1.00000

 Dipole moment (field-independent basis, Debye):
    X=             -1.0831    Y=              0.1834    Z=              0.2606  Tot=              1.1290
 Quadrupole moment (field-independent basis, Debye-Ang):
   XX=            -47.7016   YY=            -78.4364   ZZ=            -66.4405
   XY=              0.4985   XZ=             -0.9793   YZ=              1.8459

 Normal termination of Gaussian 16 at Fri Dec  8 18:51:29 2023.
