 Gaussian 16, Revision B.01,
 Gaussian 16:  ES64L-G16RevB.01 20-Dec-2017

 -------------------------
 #P B3LYP/6-311+g(d) force
 -------------------------

 -----
 DPGEN
 -----
 Symbolic Z-matrix:
 Charge =  0 Multiplicity = 2

                         Standard orientation:
 ---------------------------------------------------------------------
 Center     Atomic      Atomic             Coordinates (Angstroms)
 Number     Number       Type             X           Y           Z
 ---------------------------------------------------------------------
      1         11           0       -3.703041   -0.132476    1.264179
      2         11           0        1.980021   -1.548860   -1.228719
      3         11           0        3.831478    0.589892    1.085508
      4         11           0        1.486508    1.788069   -0.171224
      5         11           0       -1.296263   -1.111535   -1.355395
      6         11           0       -2.080210    1.983177   -0.827893
      7         11           0       -0.218492   -1.568267    1.233543
 ---------------------------------------------------------------------

 SCF Done:  E(UB3LYP) =  -1136.12006889     A.U. after   21 cycles

 The electronic state is 2-A.
 Alpha  occ. eigenvalues --  -38.44507 -38.44243 -38.44064 -38.43831 -38.43539
 Alpha  occ. eigenvalues --  -38.43535 -38.43389  -2.20332  -2.20150  -2.19925
 Alpha  occ. eigenvalues --   -2.19721  -2.19524  -2.19423  -2.19251  -1.13995
 Alpha  occ. eigenvalues --   -1.13972  -1.13965  -1.13950  -1.13795  -1.13748
 Alpha  occ. eigenvalues --   -1.13669  -1.13564  -1.13544  -1.13419  -1.13382
 Alpha  occ. eigenvalues --   -1.13332  -1.13214  -1.13182  -1.13117  -1.13099
 Alpha  occ. eigenvalues --   -1.13074  -1.13054  -1.12919  -1.12904  -1.12873
 Alpha  occ. eigenvalues --   -0.18425  -0.14335  -0.11593  -0.11003
 Alpha virt. eigenvalues --   -0.06470  -0.05149  -0.04827  -0.03361  -0.02659
 Alpha virt. eigenvalues --   -0.02337  -0.02193  -0.01040  -0.00865  -0.00041
 Alpha virt. eigenvalues --    0.00118   0.00166   0.00421   0.00552   0.00691

  Beta  occ. eigenvalues --  -38.44451 -38.44226 -38.44035 -38.43818 -38.43528
  Beta  occ. eigenvalues --  -38.43506 -38.43359  -2.20228  -2.20119  -2.19870
  Beta  occ. eigenvalues --   -2.19698  -2.19477  -2.19408  -2.19198  -1.13935
  Beta  occ. eigenvalues --   -1.13924  -1.13897  -1.13888  -1.13776  -1.13713
  Beta  occ. eigenvalues --   -1.13636  -1.13525  -1.13505  -1.13389  -1.13366
  Beta  occ. eigenvalues --   -1.13315  -1.13188  -1.13121  -1.13092  -1.13075
  Beta  occ. eigenvalues --   -1.13062  -1.13014  -1.12879  -1.12871  -1.12823
  Beta  occ. eigenvalues --   -0.17793  -0.13970  -0.11296
  Beta virt. eigenvalues --   -0.07415  -0.06179  -0.04964  -0.04245  -0.03194
  Beta virt. eigenvalues --   -0.02248  -0.02080  -0.01491  -0.00842  -0.00553
  Beta virt. eigenvalues --    0.00041   0.00158   0.00284   0.00492   0.00695

 Mulliken charges and spin densities:
               1          2
     1  Na   0.144662   0.227483
     2  Na   0.449529  -0.125516
     3  Na   0.713467   0.183818
     4  Na  -0.825790   0.143951
     5  Na  -0.062910   0.685120
     6  Na   0.101893  -0.217906
     7  Na  -0.520850   0.103049
 Sum of Mulliken charges =  -0.00000   1.00000

 Dipole moment (field-independent basis, Debye):
    X=              0.0702    Y=             -0.7049    Z=              0.1939  Tot=              0.7345
 Quadrupole moment (field-independent basis, Debye-Ang):
   XX=            -55.2932   YY=            -76.2353   ZZ=            -66.1933
   XY=             -3.7534   XZ=             -0.4135   YZ=              0.0131

 Normal termination of Gaussian 16 at Tue Dec  5 19:10:48 2023.
