 Gaussian 16, Revision B.01,
 Gaussian 16:  ES64L-G16RevB.01 20-Dec-2017

 -------------------------
 #P B3LYP/6-311+g(d) force
 -------------------------

 -----
 DPGEN
 -----
 Symbolic Z-matrix:
 Charge =  0 Multiplicity = 2

                         Standard orientation:
 ---------------------------------------------------------------------
 Center     Atomic      Atomic             Coordinates (Angstroms)
 Number     Number       Type             X           Y           Z
 ---------------------------------------------------------------------
      1         11           0       -2.498830   -2.448819   -0.208211
      2         11           0       -1.889447    0.230974    1.786655
      3         11           0        0.520806   -0.718726   -2.379990
      4         11           0        1.323184   -0.581997    2.157427
      5         11           0        3.590043   -0.709791   -0.483883
      6         11           0        0.983672    2.187438    0.400866
      7         11           0       -2.029428    2.040921   -1.272864
 ---------------------------------------------------------------------

 SCF Done:  E(UB3LYP) =  -1136.12361575     A.U. after   38 cycles

 The electronic state is 2-A.
 Alpha  occ. eigenvalues --  -38.45318 -38.44845 -38.44733 -38.43978 -38.43135
 Alpha  occ. eigenvalues --  -38.43129 -38.43099  -2.21101  -2.20696  -2.20547
 Alpha  occ. eigenvalues --   -2.19769  -2.18993  -2.18991  -2.18865  -1.14753
 Alpha  occ. eigenvalues --   -1.14743  -1.14711  -1.14381  -1.14350  -1.14316
 Alpha  occ. eigenvalues --   -1.14211  -1.14189  -1.14163  -1.13453  -1.13411
 Alpha  occ. eigenvalues --   -1.13410  -1.12719  -1.12672  -1.12656  -1.12652
 Alpha  occ. eigenvalues --   -1.12638  -1.12587  -1.12556  -1.12548  -1.12490
 Alpha  occ. eigenvalues --   -0.17726  -0.13076  -0.12409  -0.11180
 Alpha virt. eigenvalues --   -0.05679  -0.05491  -0.04669  -0.03483  -0.03211
 Alpha virt. eigenvalues --   -0.03124  -0.01515  -0.01042  -0.00699  -0.00092
 Alpha virt. eigenvalues --    0.00227   0.00270   0.00324   0.00468   0.00605

  Beta  occ. eigenvalues --  -38.45235 -38.44797 -38.44674 -38.43975 -38.43126
  Beta  occ. eigenvalues --  -38.43120 -38.43102  -2.20946  -2.20610  -2.20440
  Beta  occ. eigenvalues --   -2.19762  -2.18980  -2.18977  -2.18872  -1.14644
  Beta  occ. eigenvalues --   -1.14636  -1.14608  -1.14326  -1.14273  -1.14253
  Beta  occ. eigenvalues --   -1.14127  -1.14119  -1.14088  -1.13445  -1.13408
  Beta  occ. eigenvalues --   -1.13408  -1.12710  -1.12654  -1.12646  -1.12636
  Beta  occ. eigenvalues --   -1.12611  -1.12578  -1.12561  -1.12541  -1.12498
  Beta  occ. eigenvalues --   -0.16999  -0.12697  -0.11070
  Beta virt. eigenvalues --   -0.08493  -0.05511  -0.04848  -0.04463  -0.03191
  Beta virt. eigenvalues --   -0.02601  -0.02572  -0.01409  -0.00645  -0.00537
  Beta virt. eigenvalues --    0.00097   0.00272   0.00335   0.00388   0.00556

 Mulliken charges and spin densities:
               1          2
     1  Na  -0.022380   0.221621
     2  Na   0.238506   0.047687
     3  Na  -0.674527   0.122293
     4  Na   0.088253   0.174966
     5  Na   0.412324  -0.135014
     6  Na  -0.161169   0.263449
     7  Na   0.118993   0.304998
 Sum of Mulliken charges =  -0.00000   1.00000

 Dipole moment (field-independent basis, Debye):
    X=             -0.2559    Y=              0.0699    Z=             -0.0151  Tot=              0.2657
 Quadrupole moment (field-independent basis, Debye-Ang):
   XX=            -58.6060   YY=            -60.3899   ZZ=            -77.7236
   XY=              0.5181   XZ=              1.3374   YZ=             -3.3291

 Normal termination of Gaussian 16 at Sun Dec  3 15:39:57 2023.
