 Gaussian 16, Revision B.01,
 Gaussian 16:  ES64L-G16RevB.01 20-Dec-2017

 -------------------------
 #P B3LYP/6-311+g(d) force
 -------------------------

 -----
 DPGEN
 -----
 Symbolic Z-matrix:
 Charge =  0 Multiplicity = 2

                         Standard orientation:
 ---------------------------------------------------------------------
 Center     Atomic      Atomic             Coordinates (Angstroms)
 Number     Number       Type             X           Y           Z
 ---------------------------------------------------------------------
      1         11           0       -1.852932   -1.165363    1.413571
      2         11           0       -3.696812    1.885165   -0.208512
      3         11           0        3.400363    0.664553    0.345182
      4         11           0       -4.032262   -2.125016   -0.605350
      5         11           0        6.110607   -0.681833   -0.241468
      6         11           0       -0.506589    2.466157   -0.106599
      7         11           0        0.577624   -1.043663   -0.596823
 ---------------------------------------------------------------------

 SCF Done:  E(UB3LYP) =  -1136.11407246     A.U. after   21 cycles

 The electronic state is 2-A.
 Alpha  occ. eigenvalues --  -38.45152 -38.44544 -38.44432 -38.44411 -38.43971
 Alpha  occ. eigenvalues --  -38.43926 -38.42898  -2.21006  -2.20418  -2.20249
 Alpha  occ. eigenvalues --   -2.20233  -2.19771  -2.19757  -2.18711  -1.14705
 Alpha  occ. eigenvalues --   -1.14638  -1.14608  -1.14113  -1.14081  -1.14036
 Alpha  occ. eigenvalues --   -1.13923  -1.13897  -1.13882  -1.13878  -1.13877
 Alpha  occ. eigenvalues --   -1.13842  -1.13436  -1.13436  -1.13431  -1.13421
 Alpha  occ. eigenvalues --   -1.13417  -1.13392  -1.12397  -1.12386  -1.12352
 Alpha  occ. eigenvalues --   -0.17163  -0.14187  -0.11639  -0.11497
 Alpha virt. eigenvalues --   -0.06186  -0.05471  -0.04861  -0.03437  -0.02969
 Alpha virt. eigenvalues --   -0.02722  -0.01810  -0.01504  -0.01080  -0.00680
 Alpha virt. eigenvalues --   -0.00489  -0.00001   0.00208   0.00440   0.00549

  Beta  occ. eigenvalues --  -38.45079 -38.44526 -38.44363 -38.44339 -38.43969
  Beta  occ. eigenvalues --  -38.43929 -38.42903  -2.20874  -2.20389  -2.20121
  Beta  occ. eigenvalues --   -2.20100  -2.19768  -2.19767  -2.18724  -1.14605
  Beta  occ. eigenvalues --   -1.14558  -1.14514  -1.14080  -1.14044  -1.14022
  Beta  occ. eigenvalues --   -1.13839  -1.13807  -1.13794  -1.13794  -1.13790
  Beta  occ. eigenvalues --   -1.13745  -1.13448  -1.13442  -1.13436  -1.13421
  Beta  occ. eigenvalues --   -1.13405  -1.13356  -1.12408  -1.12399  -1.12336
  Beta  occ. eigenvalues --   -0.16456  -0.13555  -0.11220
  Beta virt. eigenvalues --   -0.08251  -0.05849  -0.05168  -0.04326  -0.03131
  Beta virt. eigenvalues --   -0.02788  -0.02373  -0.01375  -0.01354  -0.00717
  Beta virt. eigenvalues --   -0.00504  -0.00381   0.00105   0.00365   0.00529

 Mulliken charges and spin densities:
               1          2
     1  Na   0.058761   0.116218
     2  Na   0.079124   0.344556
     3  Na  -0.247030   0.237529
     4  Na   0.232129  -0.025239
     5  Na   0.343666   0.157809
     6  Na  -0.132043   0.002562
     7  Na  -0.334606   0.166565
 Sum of Mulliken charges =  -0.00000   1.00000

 Dipole moment (field-independent basis, Debye):
    X=             -0.2017    Y=             -0.6935    Z=             -0.3505  Tot=              0.8028
 Quadrupole moment (field-independent basis, Debye-Ang):
   XX=            -58.9457   YY=            -74.3153   ZZ=            -66.7301
   XY=             -1.9884   XZ=              1.3323   YZ=              3.5142

 Normal termination of Gaussian 16 at Tue Nov 28 21:34:17 2023.
