 Gaussian 16, Revision B.01,
 Gaussian 16:  ES64L-G16RevB.01 20-Dec-2017

 -------------------------
 #P B3LYP/6-311+g(d) force
 -------------------------

 -----
 DPGEN
 -----
 Symbolic Z-matrix:
 Charge =  0 Multiplicity = 2

                         Standard orientation:
 ---------------------------------------------------------------------
 Center     Atomic      Atomic             Coordinates (Angstroms)
 Number     Number       Type             X           Y           Z
 ---------------------------------------------------------------------
      1         11           0       -4.264411   -1.577511    0.766682
      2         11           0        0.961138   -0.205967   -0.989984
      3         11           0        4.245630   -2.098377   -0.099163
      4         11           0       -0.975302   -2.565998   -0.157651
      5         11           0        3.088243    1.606621    1.080916
      6         11           0       -3.085361    1.678762   -0.374953
      7         11           0        0.030062    3.162470   -0.225847
 ---------------------------------------------------------------------

 SCF Done:  E(UB3LYP) =  -1136.11516511     A.U. after   24 cycles

 The electronic state is 2-A.
 Alpha  occ. eigenvalues --  -38.45434 -38.45067 -38.44804 -38.44103 -38.43676
 Alpha  occ. eigenvalues --  -38.43627 -38.43369  -2.21204  -2.20811  -2.20565
 Alpha  occ. eigenvalues --   -2.19888  -2.19515  -2.19495  -2.19181  -1.14890
 Alpha  occ. eigenvalues --   -1.14872  -1.14813  -1.14482  -1.14458  -1.14427
 Alpha  occ. eigenvalues --   -1.14260  -1.14233  -1.14188  -1.13554  -1.13532
 Alpha  occ. eigenvalues --   -1.13525  -1.13278  -1.13195  -1.13154  -1.13130
 Alpha  occ. eigenvalues --   -1.13119  -1.13087  -1.12857  -1.12847  -1.12820
 Alpha  occ. eigenvalues --   -0.16667  -0.13685  -0.12338  -0.10390
 Alpha virt. eigenvalues --   -0.07508  -0.05074  -0.04594  -0.03659  -0.03153
 Alpha virt. eigenvalues --   -0.02346  -0.01951  -0.01286  -0.01162  -0.00907
 Alpha virt. eigenvalues --   -0.00195   0.00008   0.00184   0.00459   0.00584

  Beta  occ. eigenvalues --  -38.45413 -38.45019 -38.44795 -38.44066 -38.43633
  Beta  occ. eigenvalues --  -38.43574 -38.43369  -2.21166  -2.20722  -2.20550
  Beta  occ. eigenvalues --   -2.19820  -2.19424  -2.19421  -2.19181  -1.14866
  Beta  occ. eigenvalues --   -1.14849  -1.14772  -1.14422  -1.14388  -1.14369
  Beta  occ. eigenvalues --   -1.14251  -1.14222  -1.14169  -1.13508  -1.13485
  Beta  occ. eigenvalues --   -1.13475  -1.13199  -1.13132  -1.13107  -1.13072
  Beta  occ. eigenvalues --   -1.13061  -1.13016  -1.12855  -1.12846  -1.12824
  Beta  occ. eigenvalues --   -0.16138  -0.13118  -0.12051
  Beta virt. eigenvalues --   -0.07380  -0.06959  -0.04862  -0.04229  -0.03362
  Beta virt. eigenvalues --   -0.02611  -0.02140  -0.01742  -0.01072  -0.00874
  Beta virt. eigenvalues --   -0.00808   0.00009   0.00098   0.00398   0.00617

 Mulliken charges and spin densities:
               1          2
     1  Na   0.170017   0.260725
     2  Na  -0.851525   0.162443
     3  Na   0.189350   0.311180
     4  Na   0.042964  -0.005128
     5  Na   0.353655   0.173984
     6  Na  -0.080742   0.141180
     7  Na   0.176282  -0.044383
 Sum of Mulliken charges =  -0.00000   1.00000

 Dipole moment (field-independent basis, Debye):
    X=              0.8438    Y=              0.0403    Z=              0.4309  Tot=              0.9483
 Quadrupole moment (field-independent basis, Debye-Ang):
   XX=            -65.2360   YY=            -61.7865   ZZ=            -70.5160
   XY=              0.3616   XZ=              0.8181   YZ=              0.0257

 Normal termination of Gaussian 16 at Mon Dec  4 02:42:43 2023.
