 Gaussian 16, Revision B.01,
 Gaussian 16:  ES64L-G16RevB.01 20-Dec-2017

 -------------------------
 #P B3LYP/6-311+g(d) force
 -------------------------

 -----
 DPGEN
 -----
 Symbolic Z-matrix:
 Charge =  0 Multiplicity = 2

                         Standard orientation:
 ---------------------------------------------------------------------
 Center     Atomic      Atomic             Coordinates (Angstroms)
 Number     Number       Type             X           Y           Z
 ---------------------------------------------------------------------
      1         11           0       -1.431973   -2.446554   -0.647252
      2         11           0       -0.133663    0.019442    2.180746
      3         11           0       -3.319146    0.315483    0.015884
      4         11           0        2.447502   -2.052696    0.371306
      5         11           0        0.555485   -0.253211   -1.351993
      6         11           0       -0.875074    2.606759   -0.227813
      7         11           0        2.756870    1.810776   -0.340877
 ---------------------------------------------------------------------

 SCF Done:  E(UB3LYP) =  -1136.13232896     A.U. after   18 cycles

 The electronic state is 2-A.
 Alpha  occ. eigenvalues --  -38.44192 -38.44179 -38.44063 -38.43858 -38.43470
 Alpha  occ. eigenvalues --  -38.43291 -38.42972  -2.20012  -2.20000  -2.19880
 Alpha  occ. eigenvalues --   -2.19715  -2.19332  -2.19143  -2.19014  -1.13700
 Alpha  occ. eigenvalues --   -1.13685  -1.13669  -1.13664  -1.13658  -1.13624
 Alpha  occ. eigenvalues --   -1.13578  -1.13529  -1.13506  -1.13381  -1.13343
 Alpha  occ. eigenvalues --   -1.13323  -1.13086  -1.12975  -1.12941  -1.12846
 Alpha  occ. eigenvalues --   -1.12812  -1.12764  -1.12684  -1.12650  -1.12634
 Alpha  occ. eigenvalues --   -0.18477  -0.13132  -0.12264  -0.10715
 Alpha virt. eigenvalues --   -0.05822  -0.05579  -0.04304  -0.03235  -0.02713
 Alpha virt. eigenvalues --   -0.02542  -0.01742  -0.01351  -0.00453  -0.00233
 Alpha virt. eigenvalues --   -0.00028   0.00306   0.00731   0.00816   0.00887

  Beta  occ. eigenvalues --  -38.44193 -38.44171 -38.44055 -38.43754 -38.43451
  Beta  occ. eigenvalues --  -38.43286 -38.42928  -2.20015  -2.19988  -2.19867
  Beta  occ. eigenvalues --   -2.19523  -2.19300  -2.19137  -2.18936  -1.13692
  Beta  occ. eigenvalues --   -1.13689  -1.13667  -1.13654  -1.13630  -1.13620
  Beta  occ. eigenvalues --   -1.13562  -1.13515  -1.13498  -1.13253  -1.13213
  Beta  occ. eigenvalues --   -1.13183  -1.13056  -1.12945  -1.12917  -1.12841
  Beta  occ. eigenvalues --   -1.12792  -1.12758  -1.12621  -1.12596  -1.12579
  Beta  occ. eigenvalues --   -0.17788  -0.12930  -0.11997
  Beta virt. eigenvalues --   -0.06816  -0.05735  -0.05526  -0.04256  -0.02508
  Beta virt. eigenvalues --   -0.02026  -0.01647  -0.01470  -0.01255  -0.00467
  Beta virt. eigenvalues --   -0.00253   0.00127   0.00352   0.00808   0.00818

 Mulliken charges and spin densities:
               1          2
     1  Na   0.373737   0.092628
     2  Na  -0.498954   0.720424
     3  Na   0.047673   0.010979
     4  Na   0.090003   0.082869
     5  Na  -0.400479   0.051787
     6  Na   0.129080   0.027248
     7  Na   0.258941   0.014065
 Sum of Mulliken charges =  -0.00000   1.00000

 Dipole moment (field-independent basis, Debye):
    X=              0.2369    Y=             -0.0309    Z=              0.3587  Tot=              0.4310
 Quadrupole moment (field-independent basis, Debye-Ang):
   XX=            -53.1270   YY=            -64.6821   ZZ=            -74.8539
   XY=             -0.4895   XZ=              1.0818   YZ=             -0.7340

 Normal termination of Gaussian 16 at Fri Dec  8 07:33:39 2023.
