 Gaussian 16, Revision B.01,
 Gaussian 16:  ES64L-G16RevB.01 20-Dec-2017

 -------------------------
 #P B3LYP/6-311+g(d) force
 -------------------------

 -----
 DPGEN
 -----
 Symbolic Z-matrix:
 Charge =  0 Multiplicity = 2

                         Standard orientation:
 ---------------------------------------------------------------------
 Center     Atomic      Atomic             Coordinates (Angstroms)
 Number     Number       Type             X           Y           Z
 ---------------------------------------------------------------------
      1         11           0        0.690460    2.709085    0.786498
      2         11           0       -2.031142   -2.397566   -0.209257
      3         11           0       -3.076185    1.334645   -0.857763
      4         11           0       -1.210302    0.219941    1.664960
      5         11           0        3.954704    0.163798   -0.649986
      6         11           0        1.485394   -2.030725    0.859794
      7         11           0        0.187072    0.000821   -1.594245
 ---------------------------------------------------------------------

 SCF Done:  E(UB3LYP) =  -1136.13001350     A.U. after   20 cycles

 The electronic state is 2-A.
 Alpha  occ. eigenvalues --  -38.44579 -38.44390 -38.44064 -38.43563 -38.43504
 Alpha  occ. eigenvalues --  -38.43432 -38.43140  -2.20338  -2.20205  -2.19952
 Alpha  occ. eigenvalues --   -2.19372  -2.19338  -2.19270  -2.19109  -1.14011
 Alpha  occ. eigenvalues --   -1.13993  -1.13964  -1.13885  -1.13857  -1.13823
 Alpha  occ. eigenvalues --   -1.13665  -1.13603  -1.13561  -1.13077  -1.13035
 Alpha  occ. eigenvalues --   -1.13029  -1.13016  -1.12985  -1.12965  -1.12950
 Alpha  occ. eigenvalues --   -1.12936  -1.12890  -1.12791  -1.12756  -1.12702
 Alpha  occ. eigenvalues --   -0.18219  -0.13094  -0.11842  -0.10756
 Alpha virt. eigenvalues --   -0.06434  -0.05222  -0.04316  -0.03202  -0.02739
 Alpha virt. eigenvalues --   -0.02310  -0.02192  -0.01219  -0.00778  -0.00142
 Alpha virt. eigenvalues --   -0.00017   0.00231   0.00459   0.00723   0.00757

  Beta  occ. eigenvalues --  -38.44564 -38.44359 -38.44025 -38.43537 -38.43489
  Beta  occ. eigenvalues --  -38.43430 -38.43077  -2.20309  -2.20150  -2.19881
  Beta  occ. eigenvalues --   -2.19328  -2.19314  -2.19271  -2.18997  -1.13989
  Beta  occ. eigenvalues --   -1.13974  -1.13945  -1.13843  -1.13818  -1.13781
  Beta  occ. eigenvalues --   -1.13608  -1.13560  -1.13501  -1.13035  -1.13019
  Beta  occ. eigenvalues --   -1.12991  -1.12987  -1.12961  -1.12957  -1.12942
  Beta  occ. eigenvalues --   -1.12919  -1.12876  -1.12718  -1.12668  -1.12619
  Beta  occ. eigenvalues --   -0.17551  -0.12811  -0.11563
  Beta virt. eigenvalues --   -0.07056  -0.06187  -0.05147  -0.04123  -0.02776
  Beta virt. eigenvalues --   -0.02143  -0.01994  -0.01400  -0.01172  -0.00587
  Beta virt. eigenvalues --   -0.00007   0.00009   0.00285   0.00567   0.00788

 Mulliken charges and spin densities:
               1          2
     1  Na  -0.144567  -0.077458
     2  Na   0.227576   0.034148
     3  Na   0.088467   0.138996
     4  Na   0.186154   0.432490
     5  Na   0.134434   0.083845
     6  Na  -0.060183  -0.049179
     7  Na  -0.431881   0.437157
 Sum of Mulliken charges =  -0.00000   1.00000

 Dipole moment (field-independent basis, Debye):
    X=              0.0814    Y=              0.1112    Z=             -0.2129  Tot=              0.2536
 Quadrupole moment (field-independent basis, Debye-Ang):
   XX=            -51.9879   YY=            -68.1191   ZZ=            -72.1481
   XY=              1.1037   XZ=              1.3068   YZ=             -0.9364

 Normal termination of Gaussian 16 at Fri Dec  8 06:28:11 2023.
