 Gaussian 16, Revision B.01,
 Gaussian 16:  ES64L-G16RevB.01 20-Dec-2017

 -------------------------
 #P B3LYP/6-311+g(d) force
 -------------------------

 -----
 DPGEN
 -----
 Symbolic Z-matrix:
 Charge =  0 Multiplicity = 2

                         Standard orientation:
 ---------------------------------------------------------------------
 Center     Atomic      Atomic             Coordinates (Angstroms)
 Number     Number       Type             X           Y           Z
 ---------------------------------------------------------------------
      1         11           0        2.431970    1.673653   -0.116345
      2         11           0       -2.934229    0.638880    0.415330
      3         11           0        0.296885   -1.041118    2.239407
      4         11           0        3.278996   -1.336354   -0.255601
      5         11           0       -2.096655   -2.784400   -0.783115
      6         11           0       -1.091696    3.041620   -0.169943
      7         11           0        0.114729   -0.192281   -1.329734
 ---------------------------------------------------------------------

 SCF Done:  E(UB3LYP) =  -1136.12791152     A.U. after   20 cycles

 The electronic state is 2-A.
 Alpha  occ. eigenvalues --  -38.44757 -38.44353 -38.44178 -38.43937 -38.43595
 Alpha  occ. eigenvalues --  -38.43415 -38.43060  -2.20582  -2.20194  -2.20044
 Alpha  occ. eigenvalues --   -2.19749  -2.19389  -2.19359  -2.18899  -1.14270
 Alpha  occ. eigenvalues --   -1.14242  -1.14220  -1.13889  -1.13860  -1.13822
 Alpha  occ. eigenvalues --   -1.13746  -1.13698  -1.13663  -1.13407  -1.13380
 Alpha  occ. eigenvalues --   -1.13357  -1.13072  -1.13063  -1.13043  -1.13027
 Alpha  occ. eigenvalues --   -1.12996  -1.12975  -1.12584  -1.12554  -1.12538
 Alpha  occ. eigenvalues --   -0.17997  -0.13535  -0.12081  -0.10481
 Alpha virt. eigenvalues --   -0.06243  -0.05512  -0.04670  -0.03296  -0.02857
 Alpha virt. eigenvalues --   -0.02200  -0.01956  -0.01406  -0.00719  -0.00464
 Alpha virt. eigenvalues --   -0.00047   0.00290   0.00663   0.00719   0.00764

  Beta  occ. eigenvalues --  -38.44757 -38.44348 -38.44172 -38.43832 -38.43572
  Beta  occ. eigenvalues --  -38.43376 -38.43062  -2.20585  -2.20186  -2.20035
  Beta  occ. eigenvalues --   -2.19554  -2.19349  -2.19289  -2.18904  -1.14276
  Beta  occ. eigenvalues --   -1.14240  -1.14207  -1.13886  -1.13839  -1.13817
  Beta  occ. eigenvalues --   -1.13737  -1.13674  -1.13663  -1.13275  -1.13246
  Beta  occ. eigenvalues --   -1.13221  -1.13033  -1.13014  -1.13004  -1.12995
  Beta  occ. eigenvalues --   -1.12951  -1.12926  -1.12588  -1.12549  -1.12541
  Beta  occ. eigenvalues --   -0.17397  -0.13346  -0.11812
  Beta virt. eigenvalues --   -0.06674  -0.06098  -0.05414  -0.04544  -0.02656
  Beta virt. eigenvalues --   -0.02173  -0.01856  -0.01368  -0.01270  -0.00746
  Beta virt. eigenvalues --   -0.00379   0.00149   0.00347   0.00726   0.00769

 Mulliken charges and spin densities:
               1          2
     1  Na   0.257446   0.137353
     2  Na   0.288263   0.132570
     3  Na  -0.475174   0.613574
     4  Na   0.293664   0.040244
     5  Na   0.043922   0.090425
     6  Na  -0.180637  -0.031987
     7  Na  -0.227483   0.017820
 Sum of Mulliken charges =  -0.00000   1.00000

 Dipole moment (field-independent basis, Debye):
    X=              0.7118    Y=             -0.3457    Z=              0.0918  Tot=              0.7966
 Quadrupole moment (field-independent basis, Debye-Ang):
   XX=            -54.3600   YY=            -63.9183   ZZ=            -75.9753
   XY=             -0.9757   XZ=             -1.3422   YZ=              1.4991

 Normal termination of Gaussian 16 at Wed Dec  6 00:13:54 2023.
