 Gaussian 16, Revision B.01,
 Gaussian 16:  ES64L-G16RevB.01 20-Dec-2017

 -------------------------
 #P B3LYP/6-311+g(d) force
 -------------------------

 -----
 DPGEN
 -----
 Symbolic Z-matrix:
 Charge =  0 Multiplicity = 2

                         Standard orientation:
 ---------------------------------------------------------------------
 Center     Atomic      Atomic             Coordinates (Angstroms)
 Number     Number       Type             X           Y           Z
 ---------------------------------------------------------------------
      1         11           0       -0.483662    3.591320   -0.766767
      2         11           0       -1.623860    0.692109    1.318383
      3         11           0       -3.994797   -0.970161   -0.215208
      4         11           0        1.036042   -2.179739    1.669667
      5         11           0        2.164971    2.146588    0.451769
      6         11           0       -0.650845   -1.962351   -1.649542
      7         11           0        3.552151   -1.317767   -0.808301
 ---------------------------------------------------------------------

 SCF Done:  E(UB3LYP) =  -1136.11841795     A.U. after   20 cycles

 The electronic state is 2-A.
 Alpha  occ. eigenvalues --  -38.44954 -38.44533 -38.44517 -38.44329 -38.44049
 Alpha  occ. eigenvalues --  -38.43915 -38.43731  -2.20714  -2.20313  -2.20273
 Alpha  occ. eigenvalues --   -2.20106  -2.19837  -2.19719  -2.19557  -1.14403
 Alpha  occ. eigenvalues --   -1.14382  -1.14309  -1.13993  -1.13975  -1.13946
 Alpha  occ. eigenvalues --   -1.13942  -1.13936  -1.13906  -1.13795  -1.13775
 Alpha  occ. eigenvalues --   -1.13743  -1.13501  -1.13489  -1.13473  -1.13384
 Alpha  occ. eigenvalues --   -1.13375  -1.13330  -1.13240  -1.13221  -1.13177
 Alpha  occ. eigenvalues --   -0.16715  -0.12915  -0.12638  -0.10082
 Alpha virt. eigenvalues --   -0.06886  -0.05592  -0.05029  -0.03294  -0.03065
 Alpha virt. eigenvalues --   -0.02343  -0.01994  -0.01400  -0.01250  -0.00570
 Alpha virt. eigenvalues --   -0.00216   0.00010   0.00233   0.00537   0.00611

  Beta  occ. eigenvalues --  -38.44910 -38.44531 -38.44503 -38.44326 -38.44047
  Beta  occ. eigenvalues --  -38.43851 -38.43697  -2.20632  -2.20311  -2.20247
  Beta  occ. eigenvalues --   -2.20103  -2.19833  -2.19601  -2.19495  -1.14347
  Beta  occ. eigenvalues --   -1.14319  -1.14250  -1.13990  -1.13971  -1.13940
  Beta  occ. eigenvalues --   -1.13919  -1.13916  -1.13890  -1.13790  -1.13764
  Beta  occ. eigenvalues --   -1.13743  -1.13497  -1.13485  -1.13472  -1.13305
  Beta  occ. eigenvalues --   -1.13292  -1.13240  -1.13200  -1.13164  -1.13136
  Beta  occ. eigenvalues --   -0.16142  -0.12760  -0.12467
  Beta virt. eigenvalues --   -0.06676  -0.06515  -0.05451  -0.04583  -0.02978
  Beta virt. eigenvalues --   -0.02648  -0.02112  -0.01395  -0.01267  -0.01067
  Beta virt. eigenvalues --   -0.00383  -0.00053   0.00231   0.00316   0.00626

 Mulliken charges and spin densities:
               1          2
     1  Na   0.139037  -0.080678
     2  Na   0.299234   0.342269
     3  Na   0.031650  -0.084434
     4  Na  -0.097562   0.210509
     5  Na  -0.313690   0.091331
     6  Na  -0.271014   0.378850
     7  Na   0.212344   0.142152
 Sum of Mulliken charges =  -0.00000   1.00000

 Dipole moment (field-independent basis, Debye):
    X=             -0.2603    Y=              0.0496    Z=             -0.4481  Tot=              0.5206
 Quadrupole moment (field-independent basis, Debye-Ang):
   XX=            -55.2817   YY=            -67.5778   ZZ=            -73.3907
   XY=             -1.8712   XZ=              0.3719   YZ=             -1.2921

 Normal termination of Gaussian 16 at Sun Dec  3 13:01:27 2023.
