 Gaussian 16, Revision B.01,
 Gaussian 16:  ES64L-G16RevB.01 20-Dec-2017

 -------------------------
 #P B3LYP/6-311+g(d) force
 -------------------------

 -----
 DPGEN
 -----
 Symbolic Z-matrix:
 Charge =  0 Multiplicity = 2

                         Standard orientation:
 ---------------------------------------------------------------------
 Center     Atomic      Atomic             Coordinates (Angstroms)
 Number     Number       Type             X           Y           Z
 ---------------------------------------------------------------------
      1         11           0        2.692540   -1.859438   -0.213860
      2         11           0        3.999039    1.499764   -0.061792
      3         11           0        0.611341    0.665809   -0.060579
      4         11           0       -1.727553   -0.317404    2.025977
      5         11           0       -2.783208   -0.218686   -1.450525
      6         11           0       -1.770522    3.098064   -0.104744
      7         11           0       -1.021638   -2.868108   -0.134478
 ---------------------------------------------------------------------

 SCF Done:  E(UB3LYP) =  -1136.12581751     A.U. after   22 cycles

 The electronic state is 2-A.
 Alpha  occ. eigenvalues --  -38.44993 -38.44808 -38.43899 -38.43711 -38.43685
 Alpha  occ. eigenvalues --  -38.43280 -38.43147  -2.20761  -2.20601  -2.19688
 Alpha  occ. eigenvalues --   -2.19593  -2.19540  -2.19222  -2.18982  -1.14431
 Alpha  occ. eigenvalues --   -1.14429  -1.14389  -1.14304  -1.14278  -1.14197
 Alpha  occ. eigenvalues --   -1.13369  -1.13345  -1.13326  -1.13283  -1.13240
 Alpha  occ. eigenvalues --   -1.13214  -1.13192  -1.13179  -1.13144  -1.12936
 Alpha  occ. eigenvalues --   -1.12892  -1.12840  -1.12652  -1.12647  -1.12629
 Alpha  occ. eigenvalues --   -0.17746  -0.13701  -0.11976  -0.10098
 Alpha virt. eigenvalues --   -0.06768  -0.05464  -0.04815  -0.02956  -0.02495
 Alpha virt. eigenvalues --   -0.02420  -0.01947  -0.01446  -0.01119  -0.00595
 Alpha virt. eigenvalues --   -0.00285   0.00228   0.00424   0.00584   0.00775

  Beta  occ. eigenvalues --  -38.44998 -38.44809 -38.43896 -38.43626 -38.43610
  Beta  occ. eigenvalues --  -38.43267 -38.43139  -2.20769  -2.20603  -2.19683
  Beta  occ. eigenvalues --   -2.19437  -2.19400  -2.19202  -2.18971  -1.14436
  Beta  occ. eigenvalues --   -1.14434  -1.14394  -1.14305  -1.14275  -1.14201
  Beta  occ. eigenvalues --   -1.13368  -1.13326  -1.13323  -1.13175  -1.13133
  Beta  occ. eigenvalues --   -1.13117  -1.13084  -1.13079  -1.13041  -1.12887
  Beta  occ. eigenvalues --   -1.12882  -1.12832  -1.12643  -1.12636  -1.12600
  Beta  occ. eigenvalues --   -0.17147  -0.13478  -0.11817
  Beta virt. eigenvalues --   -0.06668  -0.06157  -0.05290  -0.04736  -0.02603
  Beta virt. eigenvalues --   -0.02240  -0.01825  -0.01493  -0.01285  -0.00834
  Beta virt. eigenvalues --   -0.00501   0.00115   0.00318   0.00530   0.00617

 Mulliken charges and spin densities:
               1          2
     1  Na   0.942929  -0.146666
     2  Na   0.283767  -0.078547
     3  Na  -2.704731   0.380741
     4  Na   0.286899   0.180942
     5  Na   0.104177   0.355768
     6  Na   0.741023   0.101379
     7  Na   0.345936   0.206382
 Sum of Mulliken charges =  -0.00000   1.00000

 Dipole moment (field-independent basis, Debye):
    X=              1.5236    Y=              0.4311    Z=              0.3627  Tot=              1.6245
 Quadrupole moment (field-independent basis, Debye-Ang):
   XX=            -54.3303   YY=            -60.2773   ZZ=            -76.3851
   XY=             -0.0098   XZ=             -2.1075   YZ=              0.1242

 Normal termination of Gaussian 16 at Tue Dec  5 11:14:34 2023.
