 Gaussian 16, Revision B.01,
 Gaussian 16:  ES64L-G16RevB.01 20-Dec-2017

 -------------------------
 #P B3LYP/6-311+g(d) force
 -------------------------

 -----
 DPGEN
 -----
 Symbolic Z-matrix:
 Charge =  0 Multiplicity = 2

                         Standard orientation:
 ---------------------------------------------------------------------
 Center     Atomic      Atomic             Coordinates (Angstroms)
 Number     Number       Type             X           Y           Z
 ---------------------------------------------------------------------
      1         11           0       -1.519096    0.461436    1.415084
      2         11           0        0.745356   -1.382004    1.423237
      3         11           0       -0.856940    2.226388   -0.709495
      4         11           0        1.592664    1.547086    0.420644
      5         11           0        2.852880   -0.841418   -0.626958
      6         11           0       -0.034072   -0.734740   -1.364018
      7         11           0       -2.780792   -1.276749   -0.558493
 ---------------------------------------------------------------------

 SCF Done:  E(UB3LYP) =  -1136.10115396     A.U. after   21 cycles

 The electronic state is 2-A.
 Alpha  occ. eigenvalues --  -38.44208 -38.44172 -38.43767 -38.43763 -38.43443
 Alpha  occ. eigenvalues --  -38.43219 -38.43120  -2.20210  -2.20103  -2.19907
 Alpha  occ. eigenvalues --   -2.19840  -2.19633  -2.19320  -2.19152  -1.13995
 Alpha  occ. eigenvalues --   -1.13904  -1.13878  -1.13859  -1.13837  -1.13766
 Alpha  occ. eigenvalues --   -1.13686  -1.13632  -1.13545  -1.13448  -1.13427
 Alpha  occ. eigenvalues --   -1.13379  -1.13299  -1.13242  -1.13227  -1.13171
 Alpha  occ. eigenvalues --   -1.12960  -1.12939  -1.12777  -1.12765  -1.12664
 Alpha  occ. eigenvalues --   -0.20693  -0.14115  -0.12126  -0.11952
 Alpha virt. eigenvalues --   -0.05756  -0.04569  -0.04013  -0.03590  -0.02810
 Alpha virt. eigenvalues --   -0.02665  -0.01559  -0.00571  -0.00275   0.00303
 Alpha virt. eigenvalues --    0.00546   0.00632   0.00930   0.01001   0.01022

  Beta  occ. eigenvalues --  -38.44196 -38.44160 -38.43713 -38.43702 -38.43381
  Beta  occ. eigenvalues --  -38.43204 -38.43105  -2.20189  -2.20085  -2.19813
  Beta  occ. eigenvalues --   -2.19733  -2.19525  -2.19301  -2.19128  -1.13978
  Beta  occ. eigenvalues --   -1.13883  -1.13860  -1.13825  -1.13802  -1.13687
  Beta  occ. eigenvalues --   -1.13661  -1.13567  -1.13475  -1.13385  -1.13341
  Beta  occ. eigenvalues --   -1.13301  -1.13239  -1.13167  -1.13160  -1.13123
  Beta  occ. eigenvalues --   -1.12950  -1.12880  -1.12762  -1.12721  -1.12648
  Beta  occ. eigenvalues --   -0.19863  -0.13873  -0.11911
  Beta virt. eigenvalues --   -0.07673  -0.05688  -0.04467  -0.03624  -0.03147
  Beta virt. eigenvalues --   -0.02126  -0.01561  -0.01482  -0.00523  -0.00026
  Beta virt. eigenvalues --    0.00338   0.00562   0.00695   0.00943   0.01027

 Mulliken charges and spin densities:
               1          2
     1  Na   0.344799   0.045395
     2  Na  -0.497306   0.252317
     3  Na   0.224566  -0.044119
     4  Na  -0.698525   0.356638
     5  Na   1.646120  -0.077925
     6  Na  -0.669016   0.479323
     7  Na  -0.350637  -0.011629
 Sum of Mulliken charges =  -0.00000   1.00000

 Dipole moment (field-independent basis, Debye):
    X=             -0.0096    Y=             -0.2966    Z=             -0.1269  Tot=              0.3228
 Quadrupole moment (field-independent basis, Debye-Ang):
   XX=            -54.7611   YY=            -72.5003   ZZ=            -68.1805
   XY=             -0.0439   XZ=             -0.0114   YZ=             -0.1591

 Normal termination of Gaussian 16 at Thu Dec  7 04:54:47 2023.
