 Gaussian 16, Revision B.01,
 Gaussian 16:  ES64L-G16RevB.01 20-Dec-2017

 -------------------------
 #P B3LYP/6-311+g(d) force
 -------------------------

 -----
 DPGEN
 -----
 Symbolic Z-matrix:
 Charge =  0 Multiplicity = 2

                         Standard orientation:
 ---------------------------------------------------------------------
 Center     Atomic      Atomic             Coordinates (Angstroms)
 Number     Number       Type             X           Y           Z
 ---------------------------------------------------------------------
      1         11           0       -1.461370    2.689043   -0.004838
      2         11           0        2.293119    1.827607    0.127050
      3         11           0        2.743539   -1.312558   -1.053612
      4         11           0       -0.196500    0.092129   -1.166733
      5         11           0       -1.057322   -2.820124    0.339447
      6         11           0        0.721059   -0.284938    2.144952
      7         11           0       -3.042526   -0.191159   -0.386265
 ---------------------------------------------------------------------

 SCF Done:  E(UB3LYP) =  -1136.13195804     A.U. after   19 cycles

 The electronic state is 2-A.
 Alpha  occ. eigenvalues --  -38.44030 -38.43871 -38.43781 -38.43768 -38.43298
 Alpha  occ. eigenvalues --  -38.43281 -38.42872  -2.19879  -2.19772  -2.19666
 Alpha  occ. eigenvalues --   -2.19647  -2.19157  -2.19122  -2.18982  -1.13568
 Alpha  occ. eigenvalues --   -1.13527  -1.13519  -1.13503  -1.13422  -1.13383
 Alpha  occ. eigenvalues --   -1.13375  -1.13327  -1.13318  -1.13282  -1.13263
 Alpha  occ. eigenvalues --   -1.13256  -1.12889  -1.12816  -1.12801  -1.12785
 Alpha  occ. eigenvalues --   -1.12779  -1.12763  -1.12658  -1.12633  -1.12580
 Alpha  occ. eigenvalues --   -0.18729  -0.13431  -0.12239  -0.10875
 Alpha virt. eigenvalues --   -0.05371  -0.05296  -0.04653  -0.03258  -0.02774
 Alpha virt. eigenvalues --   -0.02493  -0.01523  -0.01139  -0.00332  -0.00225
 Alpha virt. eigenvalues --    0.00008   0.00331   0.00796   0.00845   0.00902

  Beta  occ. eigenvalues --  -38.43986 -38.43867 -38.43759 -38.43684 -38.43300
  Beta  occ. eigenvalues --  -38.43276 -38.42837  -2.19798  -2.19765  -2.19635
  Beta  occ. eigenvalues --   -2.19487  -2.19162  -2.19116  -2.18920  -1.13522
  Beta  occ. eigenvalues --   -1.13500  -1.13467  -1.13443  -1.13411  -1.13379
  Beta  occ. eigenvalues --   -1.13340  -1.13297  -1.13247  -1.13209  -1.13164
  Beta  occ. eigenvalues --   -1.13142  -1.12887  -1.12817  -1.12798  -1.12774
  Beta  occ. eigenvalues --   -1.12764  -1.12757  -1.12600  -1.12586  -1.12544
  Beta  occ. eigenvalues --   -0.18070  -0.13128  -0.12028
  Beta virt. eigenvalues --   -0.06966  -0.05261  -0.05172  -0.04579  -0.02618
  Beta virt. eigenvalues --   -0.02083  -0.01591  -0.01308  -0.01041  -0.00293
  Beta virt. eigenvalues --   -0.00206   0.00150   0.00397   0.00868   0.00883

 Mulliken charges and spin densities:
               1          2
     1  Na  -0.016153   0.028262
     2  Na   0.377672   0.127587
     3  Na   0.140864   0.164663
     4  Na  -0.365363   0.027195
     5  Na   0.056792   0.030874
     6  Na  -0.437808   0.579332
     7  Na   0.243996   0.042087
 Sum of Mulliken charges =  -0.00000   1.00000

 Dipole moment (field-independent basis, Debye):
    X=              0.1975    Y=             -0.0563    Z=              0.3183  Tot=              0.3788
 Quadrupole moment (field-independent basis, Debye-Ang):
   XX=            -57.2692   YY=            -62.3940   ZZ=            -73.4925
   XY=              0.2930   XZ=             -1.2295   YZ=              1.2508

 Normal termination of Gaussian 16 at Wed Nov 29 03:48:38 2023.
