 Gaussian 16, Revision B.01,
 Gaussian 16:  ES64L-G16RevB.01 20-Dec-2017

 -------------------------
 #P B3LYP/6-311+g(d) force
 -------------------------

 -----
 DPGEN
 -----
 Symbolic Z-matrix:
 Charge =  0 Multiplicity = 2

                         Standard orientation:
 ---------------------------------------------------------------------
 Center     Atomic      Atomic             Coordinates (Angstroms)
 Number     Number       Type             X           Y           Z
 ---------------------------------------------------------------------
      1         11           0        0.207049   -0.576749    1.915570
      2         11           0        3.336724   -1.414239   -0.318212
      3         11           0       -2.799549   -1.969365    0.073252
      4         11           0       -3.299049    1.182179    0.108626
      5         11           0        2.821288    1.243643    0.344602
      6         11           0       -0.156938    2.436665   -0.501356
      7         11           0       -0.109526   -0.902134   -1.622482
 ---------------------------------------------------------------------

 SCF Done:  E(UB3LYP) =  -1136.11662725     A.U. after   26 cycles

 The electronic state is 2-A.
 Alpha  occ. eigenvalues --  -38.45437 -38.45018 -38.44603 -38.44338 -38.43989
 Alpha  occ. eigenvalues --  -38.43883 -38.42185  -2.21243  -2.20875  -2.20520
 Alpha  occ. eigenvalues --   -2.20181  -2.19865  -2.19727  -2.18046  -1.14912
 Alpha  occ. eigenvalues --   -1.14909  -1.14887  -1.14745  -1.14498  -1.14489
 Alpha  occ. eigenvalues --   -1.14162  -1.14145  -1.14127  -1.13871  -1.13814
 Alpha  occ. eigenvalues --   -1.13788  -1.13559  -1.13514  -1.13486  -1.13402
 Alpha  occ. eigenvalues --   -1.13376  -1.13365  -1.11733  -1.11701  -1.11698
 Alpha  occ. eigenvalues --   -0.18479  -0.14393  -0.11378  -0.10548
 Alpha virt. eigenvalues --   -0.07407  -0.05836  -0.03978  -0.03457  -0.02873
 Alpha virt. eigenvalues --   -0.02396  -0.02238  -0.01548  -0.00629  -0.00250
 Alpha virt. eigenvalues --    0.00021   0.00167   0.00419   0.00555   0.00676

  Beta  occ. eigenvalues --  -38.45438 -38.45015 -38.44595 -38.44255 -38.43919
  Beta  occ. eigenvalues --  -38.43884 -38.42177  -2.21246  -2.20872  -2.20509
  Beta  occ. eigenvalues --   -2.20028  -2.19738  -2.19731  -2.18034  -1.14918
  Beta  occ. eigenvalues --   -1.14899  -1.14888  -1.14747  -1.14489  -1.14473
  Beta  occ. eigenvalues --   -1.14153  -1.14125  -1.14110  -1.13765  -1.13706
  Beta  occ. eigenvalues --   -1.13676  -1.13471  -1.13437  -1.13410  -1.13397
  Beta  occ. eigenvalues --   -1.13358  -1.13344  -1.11726  -1.11693  -1.11671
  Beta  occ. eigenvalues --   -0.17765  -0.14241  -0.11173
  Beta virt. eigenvalues --   -0.07271  -0.06690  -0.05800  -0.03455  -0.03162
  Beta virt. eigenvalues --   -0.02695  -0.01768  -0.01517  -0.01230  -0.00669
  Beta virt. eigenvalues --   -0.00009   0.00048   0.00188   0.00622   0.00641

 Mulliken charges and spin densities:
               1          2
     1  Na  -0.419557   0.438778
     2  Na   0.352048  -0.006292
     3  Na   0.572782   0.052792
     4  Na  -0.167651  -0.006427
     5  Na   0.229749   0.172257
     6  Na  -0.003462  -0.079380
     7  Na  -0.563907   0.428272
 Sum of Mulliken charges =  -0.00000   1.00000

 Dipole moment (field-independent basis, Debye):
    X=             -0.2300    Y=             -0.3514    Z=              0.2055  Tot=              0.4675
 Quadrupole moment (field-independent basis, Debye-Ang):
   XX=            -45.6356   YY=            -73.1876   ZZ=            -75.6713
   XY=             -1.3098   XZ=             -0.8723   YZ=              0.5603

 Normal termination of Gaussian 16 at Tue Dec  5 13:37:22 2023.
