 Gaussian 16, Revision B.01,
 Gaussian 16:  ES64L-G16RevB.01 20-Dec-2017

 -------------------------
 #P B3LYP/6-311+g(d) force
 -------------------------

 -----
 DPGEN
 -----
 Symbolic Z-matrix:
 Charge =  0 Multiplicity = 2

                         Standard orientation:
 ---------------------------------------------------------------------
 Center     Atomic      Atomic             Coordinates (Angstroms)
 Number     Number       Type             X           Y           Z
 ---------------------------------------------------------------------
      1         11           0       -3.191451    0.696511   -0.638382
      2         11           0        0.316787    0.294628   -0.601868
      3         11           0       -1.558141   -0.855063    2.213953
      4         11           0        2.684336   -1.917705    0.218414
      5         11           0       -0.508446    3.149541    0.140715
      6         11           0       -1.603032   -2.347883   -1.140928
      7         11           0        3.859948    0.979972   -0.191905
 ---------------------------------------------------------------------

 SCF Done:  E(UB3LYP) =  -1136.12207362     A.U. after   23 cycles

 The electronic state is 2-A.
 Alpha  occ. eigenvalues --  -38.45136 -38.44838 -38.44529 -38.43440 -38.43278
 Alpha  occ. eigenvalues --  -38.43171 -38.43166  -2.20932  -2.20667  -2.20351
 Alpha  occ. eigenvalues --   -2.19287  -2.19171  -2.19128  -2.18986  -1.14607
 Alpha  occ. eigenvalues --   -1.14594  -1.14571  -1.14348  -1.14326  -1.14288
 Alpha  occ. eigenvalues --   -1.14029  -1.14009  -1.13979  -1.12946  -1.12933
 Alpha  occ. eigenvalues --   -1.12920  -1.12898  -1.12866  -1.12837  -1.12775
 Alpha  occ. eigenvalues --   -1.12764  -1.12751  -1.12646  -1.12634  -1.12603
 Alpha  occ. eigenvalues --   -0.17829  -0.13908  -0.11684  -0.10166
 Alpha virt. eigenvalues --   -0.06732  -0.05633  -0.04419  -0.03177  -0.02536
 Alpha virt. eigenvalues --   -0.02248  -0.02011  -0.01458  -0.00775  -0.00684
 Alpha virt. eigenvalues --   -0.00238   0.00241   0.00439   0.00702   0.00723

  Beta  occ. eigenvalues --  -38.45139 -38.44817 -38.44530 -38.43333 -38.43245
  Beta  occ. eigenvalues --  -38.43172 -38.43152  -2.20938  -2.20632  -2.20352
  Beta  occ. eigenvalues --   -2.19149  -2.19088  -2.19069  -2.18987  -1.14611
  Beta  occ. eigenvalues --   -1.14596  -1.14575  -1.14309  -1.14299  -1.14257
  Beta  occ. eigenvalues --   -1.14030  -1.14004  -1.13981  -1.12917  -1.12846
  Beta  occ. eigenvalues --   -1.12813  -1.12796  -1.12777  -1.12762  -1.12742
  Beta  occ. eigenvalues --   -1.12724  -1.12696  -1.12645  -1.12626  -1.12605
  Beta  occ. eigenvalues --   -0.17251  -0.13715  -0.11533
  Beta virt. eigenvalues --   -0.06593  -0.06146  -0.05576  -0.04321  -0.02734
  Beta virt. eigenvalues --   -0.02374  -0.01715  -0.01394  -0.01099  -0.00732
  Beta virt. eigenvalues --   -0.00600   0.00127   0.00324   0.00651   0.00713

 Mulliken charges and spin densities:
               1          2
     1  Na   1.098915   0.208471
     2  Na  -2.168558   0.243716
     3  Na  -0.500440   0.530024
     4  Na   0.488717  -0.019234
     5  Na   0.050060  -0.087256
     6  Na   0.697364   0.212900
     7  Na   0.333941  -0.088620
 Sum of Mulliken charges =  -0.00000   1.00000

 Dipole moment (field-independent basis, Debye):
    X=              1.0538    Y=              0.0760    Z=             -0.0594  Tot=              1.0582
 Quadrupole moment (field-independent basis, Debye-Ang):
   XX=            -48.4513   YY=            -65.4321   ZZ=            -77.3741
   XY=             -0.0486   XZ=              1.4160   YZ=              0.8762

 Normal termination of Gaussian 16 at Tue Dec  5 12:56:30 2023.
