 Gaussian 16, Revision B.01,
 Gaussian 16:  ES64L-G16RevB.01 20-Dec-2017

 -------------------------
 #P B3LYP/6-311+g(d) force
 -------------------------

 -----
 DPGEN
 -----
 Symbolic Z-matrix:
 Charge =  0 Multiplicity = 2

                         Standard orientation:
 ---------------------------------------------------------------------
 Center     Atomic      Atomic             Coordinates (Angstroms)
 Number     Number       Type             X           Y           Z
 ---------------------------------------------------------------------
      1         11           0       -0.123688    3.552832    0.143849
      2         11           0       -2.943143    1.985652   -0.532528
      3         11           0       -1.144348   -3.124232   -0.001084
      4         11           0        1.985086   -2.596037    0.334940
      5         11           0       -4.046956   -1.213578    0.010593
      6         11           0        4.223759    0.041781   -1.040903
      7         11           0        2.049290    1.353582    1.085134
 ---------------------------------------------------------------------

 SCF Done:  E(UB3LYP) =  -1136.11739877     A.U. after   21 cycles

 The electronic state is 2-A.
 Alpha  occ. eigenvalues --  -38.44982 -38.44789 -38.44525 -38.44375 -38.43949
 Alpha  occ. eigenvalues --  -38.43785 -38.43439  -2.20796  -2.20573  -2.20343
 Alpha  occ. eigenvalues --   -2.20198  -2.19755  -2.19601  -2.19277  -1.14491
 Alpha  occ. eigenvalues --   -1.14469  -1.14432  -1.14257  -1.14242  -1.14219
 Alpha  occ. eigenvalues --   -1.14032  -1.14022  -1.13958  -1.13849  -1.13840
 Alpha  occ. eigenvalues --   -1.13805  -1.13414  -1.13407  -1.13398  -1.13271
 Alpha  occ. eigenvalues --   -1.13265  -1.13229  -1.12942  -1.12921  -1.12919
 Alpha  occ. eigenvalues --   -0.16263  -0.13983  -0.13432  -0.10693
 Alpha virt. eigenvalues --   -0.07023  -0.05531  -0.03968  -0.03267  -0.03144
 Alpha virt. eigenvalues --   -0.02504  -0.02250  -0.01636  -0.01277  -0.00881
 Alpha virt. eigenvalues --   -0.00154   0.00014   0.00307   0.00532   0.00635

  Beta  occ. eigenvalues --  -38.44972 -38.44780 -38.44486 -38.44302 -38.43911
  Beta  occ. eigenvalues --  -38.43757 -38.43407  -2.20782  -2.20562  -2.20278
  Beta  occ. eigenvalues --   -2.20061  -2.19684  -2.19554  -2.19219  -1.14483
  Beta  occ. eigenvalues --   -1.14460  -1.14393  -1.14253  -1.14238  -1.14181
  Beta  occ. eigenvalues --   -1.13984  -1.13982  -1.13882  -1.13755  -1.13746
  Beta  occ. eigenvalues --   -1.13719  -1.13367  -1.13364  -1.13342  -1.13238
  Beta  occ. eigenvalues --   -1.13234  -1.13177  -1.12900  -1.12887  -1.12879
  Beta  occ. eigenvalues --   -0.15765  -0.13332  -0.12761
  Beta virt. eigenvalues --   -0.07371  -0.07096  -0.05136  -0.03753  -0.02829
  Beta virt. eigenvalues --   -0.02796  -0.02163  -0.01926  -0.01517  -0.01138
  Beta virt. eigenvalues --   -0.00581   0.00077   0.00296   0.00404   0.00571

 Mulliken charges and spin densities:
               1          2
     1  Na   0.240544   0.129403
     2  Na  -0.128592   0.115542
     3  Na  -0.238295   0.038475
     4  Na   0.125289   0.100208
     5  Na   0.107430   0.209970
     6  Na   0.403297   0.353532
     7  Na  -0.509673   0.052871
 Sum of Mulliken charges =  -0.00000   1.00000

 Dipole moment (field-independent basis, Debye):
    X=              0.7808    Y=              0.2060    Z=             -0.2324  Tot=              0.8403
 Quadrupole moment (field-independent basis, Debye-Ang):
   XX=            -63.3115   YY=            -67.9811   ZZ=            -69.2097
   XY=             -0.6883   XZ=             -0.9210   YZ=             -0.9227

 Normal termination of Gaussian 16 at Mon Dec  4 02:58:12 2023.
