 Gaussian 16, Revision B.01,
 Gaussian 16:  ES64L-G16RevB.01 20-Dec-2017

 -------------------------
 #P B3LYP/6-311+g(d) force
 -------------------------

 -----
 DPGEN
 -----
 Symbolic Z-matrix:
 Charge =  0 Multiplicity = 2

                         Standard orientation:
 ---------------------------------------------------------------------
 Center     Atomic      Atomic             Coordinates (Angstroms)
 Number     Number       Type             X           Y           Z
 ---------------------------------------------------------------------
      1         11           0        0.202899   -0.067697   -1.669098
      2         11           0       -1.806113    2.723137   -0.665066
      3         11           0        1.227202    1.806081    1.319521
      4         11           0       -2.426190   -2.239476   -0.821932
      5         11           0        3.908666    0.039152   -0.669788
      6         11           0       -2.258458    0.077977    1.391412
      7         11           0        1.151994   -2.339173    1.114950
 ---------------------------------------------------------------------

 SCF Done:  E(UB3LYP) =  -1136.12939831     A.U. after   21 cycles

 The electronic state is 2-A.
 Alpha  occ. eigenvalues --  -38.44672 -38.44540 -38.43977 -38.43861 -38.43604
 Alpha  occ. eigenvalues --  -38.43545 -38.43473  -2.20427  -2.20301  -2.19779
 Alpha  occ. eigenvalues --   -2.19723  -2.19426  -2.19422  -2.19286  -1.14100
 Alpha  occ. eigenvalues --   -1.14092  -1.14054  -1.13981  -1.13975  -1.13908
 Alpha  occ. eigenvalues --   -1.13472  -1.13452  -1.13411  -1.13393  -1.13381
 Alpha  occ. eigenvalues --   -1.13357  -1.13114  -1.13102  -1.13093  -1.13065
 Alpha  occ. eigenvalues --   -1.13049  -1.13029  -1.12955  -1.12945  -1.12920
 Alpha  occ. eigenvalues --   -0.17735  -0.12964  -0.11916  -0.10536
 Alpha virt. eigenvalues --   -0.06280  -0.05479  -0.04576  -0.03313  -0.02955
 Alpha virt. eigenvalues --   -0.02358  -0.01990  -0.01197  -0.00845  -0.00217
 Alpha virt. eigenvalues --   -0.00011   0.00312   0.00363   0.00540   0.00704

  Beta  occ. eigenvalues --  -38.44668 -38.44513 -38.43950 -38.43833 -38.43596
  Beta  occ. eigenvalues --  -38.43479 -38.43468  -2.20420  -2.20251  -2.19729
  Beta  occ. eigenvalues --   -2.19672  -2.19414  -2.19302  -2.19280  -1.14090
  Beta  occ. eigenvalues --   -1.14083  -1.14051  -1.13946  -1.13927  -1.13876
  Beta  occ. eigenvalues --   -1.13440  -1.13399  -1.13371  -1.13355  -1.13345
  Beta  occ. eigenvalues --   -1.13324  -1.13086  -1.13075  -1.13038  -1.13022
  Beta  occ. eigenvalues --   -1.12985  -1.12952  -1.12947  -1.12926  -1.12910
  Beta  occ. eigenvalues --   -0.17031  -0.12815  -0.11722
  Beta virt. eigenvalues --   -0.06843  -0.06097  -0.05336  -0.04328  -0.02863
  Beta virt. eigenvalues --   -0.02375  -0.01875  -0.01505  -0.01132  -0.00492
  Beta virt. eigenvalues --   -0.00220   0.00087   0.00345   0.00475   0.00655

 Mulliken charges and spin densities:
               1          2
     1  Na  -0.352898   0.520403
     2  Na   0.177045  -0.087760
     3  Na  -0.219599   0.181329
     4  Na   0.174286  -0.112975
     5  Na   0.315180  -0.018823
     6  Na   0.125016   0.384040
     7  Na  -0.219029   0.133786
 Sum of Mulliken charges =  -0.00000   1.00000

 Dipole moment (field-independent basis, Debye):
    X=              0.6803    Y=             -0.1095    Z=              0.0962  Tot=              0.6957
 Quadrupole moment (field-independent basis, Debye-Ang):
   XX=            -54.1432   YY=            -66.8107   ZZ=            -71.6124
   XY=             -0.3679   XZ=              0.3113   YZ=             -0.7549

 Normal termination of Gaussian 16 at Thu Dec  7 03:56:39 2023.
