 Gaussian 16, Revision B.01,
 Gaussian 16:  ES64L-G16RevB.01 20-Dec-2017

 -------------------------
 #P B3LYP/6-311+g(d) force
 -------------------------

 -----
 DPGEN
 -----
 Symbolic Z-matrix:
 Charge =  0 Multiplicity = 2

                         Standard orientation:
 ---------------------------------------------------------------------
 Center     Atomic      Atomic             Coordinates (Angstroms)
 Number     Number       Type             X           Y           Z
 ---------------------------------------------------------------------
      1         11           0        1.695045   -1.992056   -0.736043
      2         11           0        1.121894    1.731065   -1.083203
      3         11           0       -2.058669    2.419890   -0.216262
      4         11           0        3.754185    0.010526    0.636873
      5         11           0       -1.197524   -1.019588   -1.215383
      6         11           0        0.192310    0.303565    1.983823
      7         11           0       -3.507241   -1.453402    0.630195
 ---------------------------------------------------------------------

 SCF Done:  E(UB3LYP) =  -1136.12319616     A.U. after   22 cycles

 The electronic state is 2-A.
 Alpha  occ. eigenvalues --  -38.44907 -38.44905 -38.44356 -38.43686 -38.43566
 Alpha  occ. eigenvalues --  -38.43142 -38.42929  -2.20736  -2.20727  -2.20166
 Alpha  occ. eigenvalues --   -2.19577  -2.19379  -2.19033  -2.18900  -1.14422
 Alpha  occ. eigenvalues --   -1.14406  -1.14395  -1.14373  -1.14365  -1.14333
 Alpha  occ. eigenvalues --   -1.13879  -1.13807  -1.13793  -1.13299  -1.13219
 Alpha  occ. eigenvalues --   -1.13201  -1.13058  -1.13034  -1.13023  -1.12727
 Alpha  occ. eigenvalues --   -1.12697  -1.12640  -1.12600  -1.12553  -1.12503
 Alpha  occ. eigenvalues --   -0.18454  -0.13755  -0.11532  -0.10900
 Alpha virt. eigenvalues --   -0.06898  -0.05372  -0.04131  -0.03344  -0.02718
 Alpha virt. eigenvalues --   -0.02392  -0.02320  -0.01222  -0.00786  -0.00163
 Alpha virt. eigenvalues --    0.00123   0.00182   0.00365   0.00615   0.00738

  Beta  occ. eigenvalues --  -38.44892 -38.44844 -38.44346 -38.43654 -38.43565
  Beta  occ. eigenvalues --  -38.43112 -38.42891  -2.20709  -2.20615  -2.20147
  Beta  occ. eigenvalues --   -2.19525  -2.19379  -2.18981  -2.18834  -1.14391
  Beta  occ. eigenvalues --   -1.14372  -1.14348  -1.14338  -1.14289  -1.14249
  Beta  occ. eigenvalues --   -1.13870  -1.13793  -1.13775  -1.13253  -1.13172
  Beta  occ. eigenvalues --   -1.13161  -1.13047  -1.13037  -1.13019  -1.12692
  Beta  occ. eigenvalues --   -1.12636  -1.12608  -1.12552  -1.12483  -1.12457
  Beta  occ. eigenvalues --   -0.17711  -0.13579  -0.11270
  Beta virt. eigenvalues --   -0.07154  -0.06571  -0.05359  -0.03610  -0.03120
  Beta virt. eigenvalues --   -0.02338  -0.01928  -0.01507  -0.01185  -0.00454
  Beta virt. eigenvalues --   -0.00110   0.00144   0.00212   0.00521   0.00702

 Mulliken charges and spin densities:
               1          2
     1  Na  -0.216606   0.120342
     2  Na  -0.230411   0.158757
     3  Na   0.109140  -0.064367
     4  Na   0.644211   0.198320
     5  Na   0.015400  -0.024886
     6  Na  -0.429700   0.479432
     7  Na   0.107967   0.132402
 Sum of Mulliken charges =  -0.00000   1.00000

 Dipole moment (field-independent basis, Debye):
    X=              0.4982    Y=              0.4061    Z=              0.6448  Tot=              0.9104
 Quadrupole moment (field-independent basis, Debye-Ang):
   XX=            -48.7286   YY=            -73.9590   ZZ=            -71.1675
   XY=             -1.3146   XZ=             -1.3967   YZ=             -1.3967

 Normal termination of Gaussian 16 at Thu Dec  7 20:13:27 2023.
