 Gaussian 16, Revision B.01,
 Gaussian 16:  ES64L-G16RevB.01 20-Dec-2017

 -------------------------
 #P B3LYP/6-311+g(d) force
 -------------------------

 -----
 DPGEN
 -----
 Symbolic Z-matrix:
 Charge =  0 Multiplicity = 2

                         Standard orientation:
 ---------------------------------------------------------------------
 Center     Atomic      Atomic             Coordinates (Angstroms)
 Number     Number       Type             X           Y           Z
 ---------------------------------------------------------------------
      1         11           0        0.038251    0.163026   -0.640846
      2         11           0       -3.682629   -0.254500   -0.885435
      3         11           0       -2.001868   -2.868461    1.161139
      4         11           0        1.722168   -3.311299   -0.128608
      5         11           0        3.820920   -0.260262   -0.339099
      6         11           0        1.997664    3.182098    0.560927
      7         11           0       -1.894506    3.349398    0.271922
 ---------------------------------------------------------------------

 SCF Done:  E(UB3LYP) =  -1136.11790830     A.U. after   25 cycles

 The electronic state is 2-A.
 Alpha  occ. eigenvalues --  -38.45346 -38.44901 -38.44702 -38.44197 -38.43969
 Alpha  occ. eigenvalues --  -38.43864 -38.43741  -2.21075  -2.20651  -2.20488
 Alpha  occ. eigenvalues --   -2.19966  -2.19748  -2.19652  -2.19532  -1.14771
 Alpha  occ. eigenvalues --   -1.14736  -1.14701  -1.14347  -1.14319  -1.14275
 Alpha  occ. eigenvalues --   -1.14228  -1.14132  -1.14110  -1.13645  -1.13617
 Alpha  occ. eigenvalues --   -1.13590  -1.13423  -1.13387  -1.13377  -1.13323
 Alpha  occ. eigenvalues --   -1.13292  -1.13284  -1.13202  -1.13166  -1.13166
 Alpha  occ. eigenvalues --   -0.16348  -0.13166  -0.13060  -0.09579
 Alpha virt. eigenvalues --   -0.07083  -0.05911  -0.04581  -0.03530  -0.02875
 Alpha virt. eigenvalues --   -0.02276  -0.02165  -0.01682  -0.01426  -0.00738
 Alpha virt. eigenvalues --   -0.00241   0.00031   0.00281   0.00390   0.00687

  Beta  occ. eigenvalues --  -38.45343 -38.44894 -38.44707 -38.44163 -38.43918
  Beta  occ. eigenvalues --  -38.43825 -38.43693  -2.21074  -2.20642  -2.20496
  Beta  occ. eigenvalues --   -2.19904  -2.19654  -2.19579  -2.19443  -1.14773
  Beta  occ. eigenvalues --   -1.14739  -1.14672  -1.14345  -1.14317  -1.14235
  Beta  occ. eigenvalues --   -1.14226  -1.14147  -1.14116  -1.13603  -1.13577
  Beta  occ. eigenvalues --   -1.13538  -1.13361  -1.13326  -1.13300  -1.13272
  Beta  occ. eigenvalues --   -1.13243  -1.13235  -1.13141  -1.13109  -1.13101
  Beta  occ. eigenvalues --   -0.16064  -0.12668  -0.12366
  Beta virt. eigenvalues --   -0.07192  -0.06454  -0.05702  -0.04113  -0.03196
  Beta virt. eigenvalues --   -0.02346  -0.02098  -0.02055  -0.01503  -0.01193
  Beta virt. eigenvalues --   -0.00490   0.00080   0.00204   0.00377   0.00416

 Mulliken charges and spin densities:
               1          2
     1  Na  -2.454038  -0.024740
     2  Na   0.489242   0.223628
     3  Na   0.218064   0.259662
     4  Na   0.180152   0.088963
     5  Na   0.856233   0.212614
     6  Na   0.349402   0.211077
     7  Na   0.360945   0.028795
 Sum of Mulliken charges =  -0.00000   1.00000

 Dipole moment (field-independent basis, Debye):
    X=              0.1028    Y=              0.5016    Z=              0.1758  Tot=              0.5413
 Quadrupole moment (field-independent basis, Debye-Ang):
   XX=            -58.2430   YY=            -64.5941   ZZ=            -73.5428
   XY=             -3.2102   XZ=             -0.7811   YZ=              2.0694

 Normal termination of Gaussian 16 at Sat Dec  9 06:35:12 2023.
