 Gaussian 16, Revision B.01,
 Gaussian 16:  ES64L-G16RevB.01 20-Dec-2017

 -------------------------
 #P B3LYP/6-311+g(d) force
 -------------------------

 -----
 DPGEN
 -----
 Symbolic Z-matrix:
 Charge =  0 Multiplicity = 2

                         Standard orientation:
 ---------------------------------------------------------------------
 Center     Atomic      Atomic             Coordinates (Angstroms)
 Number     Number       Type             X           Y           Z
 ---------------------------------------------------------------------
      1         11           0       -3.382576   -0.172441   -0.951089
      2         11           0        3.670367    0.907183    1.009911
      3         11           0        0.124780    0.241740   -0.683034
      4         11           0        4.033177   -0.771285   -1.496847
      5         11           0       -1.928659   -2.596538    0.204654
      6         11           0       -0.397728   -0.448498    2.122790
      7         11           0       -2.119360    2.839839   -0.206385
 ---------------------------------------------------------------------

 SCF Done:  E(UB3LYP) =  -1136.11355472     A.U. after   23 cycles

 The electronic state is 2-A.
 Alpha  occ. eigenvalues --  -38.45422 -38.44769 -38.44539 -38.44072 -38.44042
 Alpha  occ. eigenvalues --  -38.42618 -38.42261  -2.21218  -2.20594  -2.20459
 Alpha  occ. eigenvalues --   -2.19975  -2.19946  -2.18523  -2.18084  -1.14923
 Alpha  occ. eigenvalues --   -1.14881  -1.14854  -1.14277  -1.14246  -1.14229
 Alpha  occ. eigenvalues --   -1.14215  -1.14102  -1.14048  -1.13658  -1.13624
 Alpha  occ. eigenvalues --   -1.13611  -1.13585  -1.13564  -1.13555  -1.12212
 Alpha  occ. eigenvalues --   -1.12173  -1.12151  -1.11756  -1.11741  -1.11733
 Alpha  occ. eigenvalues --   -0.17777  -0.14447  -0.11109  -0.11008
 Alpha virt. eigenvalues --   -0.06560  -0.05693  -0.03853  -0.03503  -0.03179
 Alpha virt. eigenvalues --   -0.02421  -0.02191  -0.01121  -0.00714  -0.00523
 Alpha virt. eigenvalues --   -0.00179   0.00065   0.00375   0.00504   0.00683

  Beta  occ. eigenvalues --  -38.45428 -38.44724 -38.44522 -38.43996 -38.43987
  Beta  occ. eigenvalues --  -38.42599 -38.42261  -2.21232  -2.20509  -2.20433
  Beta  occ. eigenvalues --   -2.19844  -2.19835  -2.18490  -2.18085  -1.14919
  Beta  occ. eigenvalues --   -1.14894  -1.14848  -1.14219  -1.14189  -1.14170
  Beta  occ. eigenvalues --   -1.14162  -1.14083  -1.14037  -1.13566  -1.13553
  Beta  occ. eigenvalues --   -1.13545  -1.13490  -1.13473  -1.13464  -1.12181
  Beta  occ. eigenvalues --   -1.12152  -1.12117  -1.11758  -1.11737  -1.11728
  Beta  occ. eigenvalues --   -0.17109  -0.13978  -0.10958
  Beta virt. eigenvalues --   -0.07393  -0.06371  -0.05147  -0.03620  -0.03313
  Beta virt. eigenvalues --   -0.02761  -0.01993  -0.01733  -0.01032  -0.00448
  Beta virt. eigenvalues --   -0.00227  -0.00013   0.00156   0.00452   0.00605

 Mulliken charges and spin densities:
               1          2
     1  Na   0.508812   0.268953
     2  Na   0.417396   0.020801
     3  Na  -1.739396   0.189270
     4  Na   0.330946   0.147312
     5  Na   0.111375   0.111186
     6  Na   0.044480   0.275310
     7  Na   0.326388  -0.012831
 Sum of Mulliken charges =  -0.00000   1.00000

 Dipole moment (field-independent basis, Debye):
    X=              1.8282    Y=             -0.2135    Z=              0.5579  Tot=              1.9233
 Quadrupole moment (field-independent basis, Debye-Ang):
   XX=            -60.6851   YY=            -72.8017   ZZ=            -64.8932
   XY=              2.2688   XZ=              0.3313   YZ=              7.7708

 Normal termination of Gaussian 16 at Thu Dec  7 21:22:21 2023.
