 Gaussian 16, Revision B.01,
 Gaussian 16:  ES64L-G16RevB.01 20-Dec-2017

 -------------------------
 #P B3LYP/6-311+g(d) force
 -------------------------

 -----
 DPGEN
 -----
 Symbolic Z-matrix:
 Charge =  0 Multiplicity = 2

                         Standard orientation:
 ---------------------------------------------------------------------
 Center     Atomic      Atomic             Coordinates (Angstroms)
 Number     Number       Type             X           Y           Z
 ---------------------------------------------------------------------
      1         11           0       -3.312640   -1.670549   -0.605873
      2         11           0       -1.807790   -0.496106    2.134735
      3         11           0       -2.298122    1.367568   -0.953028
      4         11           0        0.359295    3.071567    0.213132
      5         11           0        2.930249   -2.623552   -0.062656
      6         11           0        0.491068   -0.641568   -0.766231
      7         11           0        3.637941    0.992641    0.039921
 ---------------------------------------------------------------------

 SCF Done:  E(UB3LYP) =  -1136.12129469     A.U. after   25 cycles

 The electronic state is 2-A.
 Alpha  occ. eigenvalues --  -38.45787 -38.44509 -38.44194 -38.44089 -38.43630
 Alpha  occ. eigenvalues --  -38.43358 -38.42891  -2.21539  -2.20350  -2.19991
 Alpha  occ. eigenvalues --   -2.19973  -2.19539  -2.19224  -2.18692  -1.15232
 Alpha  occ. eigenvalues --   -1.15201  -1.15153  -1.14031  -1.14006  -1.13992
 Alpha  occ. eigenvalues --   -1.13728  -1.13687  -1.13648  -1.13625  -1.13618
 Alpha  occ. eigenvalues --   -1.13568  -1.13220  -1.13191  -1.13165  -1.12873
 Alpha  occ. eigenvalues --   -1.12849  -1.12842  -1.12363  -1.12354  -1.12342
 Alpha  occ. eigenvalues --   -0.17673  -0.14083  -0.11780  -0.10020
 Alpha virt. eigenvalues --   -0.07008  -0.05805  -0.04566  -0.03316  -0.02550
 Alpha virt. eigenvalues --   -0.02308  -0.01960  -0.01474  -0.01297  -0.00485
 Alpha virt. eigenvalues --   -0.00201   0.00151   0.00429   0.00581   0.00587

  Beta  occ. eigenvalues --  -38.45791 -38.44492 -38.44195 -38.44076 -38.43589
  Beta  occ. eigenvalues --  -38.43252 -38.42889  -2.21546  -2.20324  -2.19995
  Beta  occ. eigenvalues --   -2.19953  -2.19466  -2.19027  -2.18690  -1.15235
  Beta  occ. eigenvalues --   -1.15205  -1.15159  -1.14016  -1.13980  -1.13946
  Beta  occ. eigenvalues --   -1.13723  -1.13658  -1.13642  -1.13627  -1.13609
  Beta  occ. eigenvalues --   -1.13559  -1.13172  -1.13130  -1.13103  -1.12738
  Beta  occ. eigenvalues --   -1.12715  -1.12706  -1.12359  -1.12345  -1.12342
  Beta  occ. eigenvalues --   -0.17093  -0.13861  -0.11641
  Beta virt. eigenvalues --   -0.06940  -0.06019  -0.05635  -0.04519  -0.02869
  Beta virt. eigenvalues --   -0.02449  -0.01653  -0.01548  -0.01281  -0.01027
  Beta virt. eigenvalues --   -0.00377   0.00134   0.00221   0.00537   0.00645

 Mulliken charges and spin densities:
               1          2
     1  Na   0.641951   0.113041
     2  Na  -0.579491   0.582468
     3  Na   1.114876   0.258341
     4  Na  -0.062576  -0.012500
     5  Na   0.541770  -0.071929
     6  Na  -1.891285   0.153772
     7  Na   0.234756  -0.023193
 Sum of Mulliken charges =  -0.00000   1.00000

 Dipole moment (field-independent basis, Debye):
    X=              1.3392    Y=             -0.5065    Z=             -0.0829  Tot=              1.4342
 Quadrupole moment (field-independent basis, Debye-Ang):
   XX=            -49.9497   YY=            -64.6810   ZZ=            -78.1697
   XY=              2.9928   XZ=              3.3069   YZ=              1.5863

 Normal termination of Gaussian 16 at Tue Dec  5 19:17:09 2023.
