 Gaussian 16, Revision B.01,
 Gaussian 16:  ES64L-G16RevB.01 20-Dec-2017

 -------------------------
 #P B3LYP/6-311+g(d) force
 -------------------------

 -----
 DPGEN
 -----
 Symbolic Z-matrix:
 Charge =  0 Multiplicity = 2

                         Standard orientation:
 ---------------------------------------------------------------------
 Center     Atomic      Atomic             Coordinates (Angstroms)
 Number     Number       Type             X           Y           Z
 ---------------------------------------------------------------------
      1         11           0        0.516699   -1.318605   -1.267589
      2         11           0       -1.727524    1.334579    1.552274
      3         11           0        1.030877    2.365994   -1.024973
      4         11           0       -2.671635    0.305636   -1.629922
      5         11           0        3.552100   -0.913893   -0.321896
      6         11           0       -2.174620   -1.980202    0.763670
      7         11           0        1.474104    0.206492    1.928437
 ---------------------------------------------------------------------

 SCF Done:  E(UB3LYP) =  -1136.12868561     A.U. after   23 cycles

 The electronic state is 2-A.
 Alpha  occ. eigenvalues --  -38.44636 -38.44149 -38.44144 -38.43949 -38.43817
 Alpha  occ. eigenvalues --  -38.43055 -38.43054  -2.20475  -2.19987  -2.19940
 Alpha  occ. eigenvalues --   -2.19804  -2.19692  -2.18945  -2.18915  -1.14144
 Alpha  occ. eigenvalues --   -1.14132  -1.14098  -1.13671  -1.13657  -1.13623
 Alpha  occ. eigenvalues --   -1.13617  -1.13576  -1.13562  -1.13476  -1.13454
 Alpha  occ. eigenvalues --   -1.13436  -1.13378  -1.13332  -1.13311  -1.12642
 Alpha  occ. eigenvalues --   -1.12623  -1.12606  -1.12575  -1.12563  -1.12539
 Alpha  occ. eigenvalues --   -0.18303  -0.13720  -0.11581  -0.11089
 Alpha virt. eigenvalues --   -0.06117  -0.05219  -0.04751  -0.03260  -0.02967
 Alpha virt. eigenvalues --   -0.02650  -0.01866  -0.00870  -0.00716  -0.00069
 Alpha virt. eigenvalues --    0.00204   0.00317   0.00361   0.00548   0.00810

  Beta  occ. eigenvalues --  -38.44604 -38.44149 -38.44093 -38.43923 -38.43778
  Beta  occ. eigenvalues --  -38.43037 -38.43036  -2.20416  -2.19989  -2.19847
  Beta  occ. eigenvalues --   -2.19757  -2.19620  -2.18918  -2.18885  -1.14098
  Beta  occ. eigenvalues --   -1.14092  -1.14052  -1.13664  -1.13659  -1.13622
  Beta  occ. eigenvalues --   -1.13549  -1.13508  -1.13500  -1.13443  -1.13425
  Beta  occ. eigenvalues --   -1.13391  -1.13329  -1.13276  -1.13261  -1.12620
  Beta  occ. eigenvalues --   -1.12582  -1.12575  -1.12548  -1.12547  -1.12514
  Beta  occ. eigenvalues --   -0.17561  -0.13558  -0.10900
  Beta virt. eigenvalues --   -0.07729  -0.05916  -0.04677  -0.04492  -0.02986
  Beta virt. eigenvalues --   -0.02415  -0.01979  -0.01711  -0.00649  -0.00388
  Beta virt. eigenvalues --    0.00016   0.00325   0.00365   0.00396   0.00667

 Mulliken charges and spin densities:
               1          2
     1  Na  -0.472910   0.179021
     2  Na   0.092757   0.090646
     3  Na  -0.376722   0.307639
     4  Na   0.217927   0.230272
     5  Na   0.477010  -0.069517
     6  Na   0.212379   0.113009
     7  Na  -0.150440   0.148929
 Sum of Mulliken charges =  -0.00000   1.00000

 Dipole moment (field-independent basis, Debye):
    X=              0.1224    Y=              0.1423    Z=             -0.2123  Tot=              0.2834
 Quadrupole moment (field-independent basis, Debye-Ang):
   XX=            -53.2682   YY=            -74.0260   ZZ=            -67.6090
   XY=              0.1335   XZ=              0.5513   YZ=             -6.7417

 Normal termination of Gaussian 16 at Thu Dec  7 17:12:33 2023.
