 Gaussian 16, Revision B.01,
 Gaussian 16:  ES64L-G16RevB.01 20-Dec-2017

 -------------------------
 #P B3LYP/6-311+g(d) force
 -------------------------

 -----
 DPGEN
 -----
 Symbolic Z-matrix:
 Charge =  0 Multiplicity = 2

                         Standard orientation:
 ---------------------------------------------------------------------
 Center     Atomic      Atomic             Coordinates (Angstroms)
 Number     Number       Type             X           Y           Z
 ---------------------------------------------------------------------
      1         11           0        0.074366    0.152461   -1.599108
      2         11           0        3.031149    0.589876   -0.530238
      3         11           0        1.820910   -2.188204    0.280433
      4         11           0       -2.887536    0.478527   -0.293823
      5         11           0       -1.822009   -2.540150   -0.031535
      6         11           0        0.159703    0.484125    2.104131
      7         11           0       -0.376583    3.023364    0.070140
 ---------------------------------------------------------------------

 SCF Done:  E(UB3LYP) =  -1136.13660771     A.U. after   20 cycles

 The electronic state is 2-A.
 Alpha  occ. eigenvalues --  -38.43962 -38.43803 -38.43753 -38.43543 -38.43413
 Alpha  occ. eigenvalues --  -38.43357 -38.43247  -2.19835  -2.19679  -2.19637
 Alpha  occ. eigenvalues --   -2.19416  -2.19267  -2.19246  -2.19188  -1.13543
 Alpha  occ. eigenvalues --   -1.13502  -1.13459  -1.13384  -1.13347  -1.13309
 Alpha  occ. eigenvalues --   -1.13296  -1.13272  -1.13258  -1.13091  -1.13075
 Alpha  occ. eigenvalues --   -1.13051  -1.12964  -1.12937  -1.12913  -1.12899
 Alpha  occ. eigenvalues --   -1.12887  -1.12858  -1.12854  -1.12839  -1.12830
 Alpha  occ. eigenvalues --   -0.18728  -0.13197  -0.12433  -0.10937
 Alpha virt. eigenvalues --   -0.05446  -0.04999  -0.04884  -0.03285  -0.02935
 Alpha virt. eigenvalues --   -0.02679  -0.01425  -0.01126  -0.00303  -0.00224
 Alpha virt. eigenvalues --   -0.00015   0.00355   0.00841   0.00882   0.00898

  Beta  occ. eigenvalues --  -38.43947 -38.43795 -38.43656 -38.43536 -38.43409
  Beta  occ. eigenvalues --  -38.43358 -38.43187  -2.19810  -2.19667  -2.19459
  Beta  occ. eigenvalues --   -2.19406  -2.19262  -2.19193  -2.19136  -1.13523
  Beta  occ. eigenvalues --   -1.13475  -1.13436  -1.13371  -1.13329  -1.13296
  Beta  occ. eigenvalues --   -1.13184  -1.13144  -1.13137  -1.13083  -1.13054
  Beta  occ. eigenvalues --   -1.13035  -1.12947  -1.12904  -1.12898  -1.12860
  Beta  occ. eigenvalues --   -1.12854  -1.12838  -1.12827  -1.12799  -1.12778
  Beta  occ. eigenvalues --   -0.18011  -0.12944  -0.12204
  Beta virt. eigenvalues --   -0.07009  -0.05409  -0.04959  -0.04806  -0.02507
  Beta virt. eigenvalues --   -0.02199  -0.01628  -0.01319  -0.01057  -0.00336
  Beta virt. eigenvalues --   -0.00242   0.00129   0.00394   0.00876   0.00889

 Mulliken charges and spin densities:
               1          2
     1  Na  -0.265405   0.316770
     2  Na   0.342771  -0.002723
     3  Na   0.058591   0.086038
     4  Na   0.248463   0.003849
     5  Na  -0.103307  -0.017334
     6  Na  -0.520730   0.672353
     7  Na   0.239617  -0.058952
 Sum of Mulliken charges =  -0.00000   1.00000

 Dipole moment (field-independent basis, Debye):
    X=              0.1467    Y=              0.2154    Z=              0.1562  Tot=              0.3038
 Quadrupole moment (field-independent basis, Debye-Ang):
   XX=            -59.0368   YY=            -61.9180   ZZ=            -73.5660
   XY=              0.0346   XZ=             -0.2651   YZ=             -1.1795

 Normal termination of Gaussian 16 at Fri Dec  8 03:57:11 2023.
