 Gaussian 16, Revision B.01,
 Gaussian 16:  ES64L-G16RevB.01 20-Dec-2017

 -------------------------
 #P B3LYP/6-311+g(d) force
 -------------------------

 -----
 DPGEN
 -----
 Symbolic Z-matrix:
 Charge =  0 Multiplicity = 2

                         Standard orientation:
 ---------------------------------------------------------------------
 Center     Atomic      Atomic             Coordinates (Angstroms)
 Number     Number       Type             X           Y           Z
 ---------------------------------------------------------------------
      1         11           0        3.495962    1.835911    1.146367
      2         11           0        1.330872   -3.393830    0.238510
      3         11           0       -2.013828    2.500798   -0.722874
      4         11           0       -2.363160   -2.709197    0.041066
      5         11           0        0.792523    3.515710   -0.252585
      6         11           0       -4.911652   -0.042550    0.446413
      7         11           0        3.669282   -1.706842   -0.896898
 ---------------------------------------------------------------------

 SCF Done:  E(UB3LYP) =  -1136.10401334     A.U. after   22 cycles

 The electronic state is 2-A.
 Alpha  occ. eigenvalues --  -38.45627 -38.45540 -38.44781 -38.44387 -38.44234
 Alpha  occ. eigenvalues --  -38.43972 -38.43700  -2.21348  -2.21304  -2.20541
 Alpha  occ. eigenvalues --   -2.20208  -2.20023  -2.19784  -2.19531  -1.15043
 Alpha  occ. eigenvalues --   -1.15030  -1.14997  -1.14976  -1.14967  -1.14943
 Alpha  occ. eigenvalues --   -1.14205  -1.14191  -1.14164  -1.13904  -1.13858
 Alpha  occ. eigenvalues --   -1.13828  -1.13674  -1.13660  -1.13648  -1.13447
 Alpha  occ. eigenvalues --   -1.13433  -1.13424  -1.13211  -1.13189  -1.13169
 Alpha  occ. eigenvalues --   -0.15459  -0.13704  -0.13491  -0.10652
 Alpha virt. eigenvalues --   -0.07916  -0.04877  -0.04589  -0.03401  -0.03298
 Alpha virt. eigenvalues --   -0.02614  -0.02406  -0.01803  -0.01303  -0.01021
 Alpha virt. eigenvalues --   -0.00405  -0.00353   0.00157   0.00305   0.00427

  Beta  occ. eigenvalues --  -38.45628 -38.45551 -38.44740 -38.44324 -38.44152
  Beta  occ. eigenvalues --  -38.43942 -38.43685  -2.21353  -2.21328  -2.20464
  Beta  occ. eigenvalues --   -2.20096  -2.19869  -2.19728  -2.19513  -1.15050
  Beta  occ. eigenvalues --   -1.15036  -1.15011  -1.14995  -1.14948  -1.14943
  Beta  occ. eigenvalues --   -1.14153  -1.14138  -1.14111  -1.13820  -1.13784
  Beta  occ. eigenvalues --   -1.13741  -1.13568  -1.13562  -1.13543  -1.13414
  Beta  occ. eigenvalues --   -1.13394  -1.13387  -1.13191  -1.13184  -1.13117
  Beta  occ. eigenvalues --   -0.14990  -0.13110  -0.12770
  Beta virt. eigenvalues --   -0.07972  -0.07411  -0.04581  -0.04160  -0.03069
  Beta virt. eigenvalues --   -0.03013  -0.02384  -0.02185  -0.01606  -0.01205
  Beta virt. eigenvalues --   -0.00614  -0.00254  -0.00170   0.00308   0.00385

 Mulliken charges and spin densities:
               1          2
     1  Na  -0.095813   0.430354
     2  Na  -0.235056   0.145926
     3  Na  -0.074568   0.240465
     4  Na   0.000561   0.011806
     5  Na  -0.017907  -0.018987
     6  Na   0.343179   0.226598
     7  Na   0.079604  -0.036162
 Sum of Mulliken charges =  -0.00000   1.00000

 Dipole moment (field-independent basis, Debye):
    X=             -0.2915    Y=             -0.8775    Z=             -0.1532  Tot=              0.9372
 Quadrupole moment (field-independent basis, Debye-Ang):
   XX=            -58.8092   YY=            -70.4939   ZZ=            -71.2042
   XY=             -3.0649   XZ=             -2.9712   YZ=              0.5765

 Normal termination of Gaussian 16 at Sun Dec  3 12:33:54 2023.
