 Gaussian 16, Revision B.01,
 Gaussian 16:  ES64L-G16RevB.01 20-Dec-2017

 -------------------------
 #P B3LYP/6-311+g(d) force
 -------------------------

 -----
 DPGEN
 -----
 Symbolic Z-matrix:
 Charge =  0 Multiplicity = 2

                         Standard orientation:
 ---------------------------------------------------------------------
 Center     Atomic      Atomic             Coordinates (Angstroms)
 Number     Number       Type             X           Y           Z
 ---------------------------------------------------------------------
      1         11           0       -0.868398   -2.603376    1.072130
      2         11           0       -1.617060    2.047297    0.832829
      3         11           0        0.740209    0.296264    1.793562
      4         11           0        3.243567   -1.055107   -0.342264
      5         11           0       -0.112902   -0.844891   -1.775077
      6         11           0        1.627787    2.298090   -0.625839
      7         11           0       -3.013204   -0.138277   -0.955341
 ---------------------------------------------------------------------

 SCF Done:  E(UB3LYP) =  -1136.13059774     A.U. after   21 cycles

 The electronic state is 2-A.
 Alpha  occ. eigenvalues --  -38.44369 -38.43935 -38.43849 -38.43789 -38.43601
 Alpha  occ. eigenvalues --  -38.43470 -38.43061  -2.20157  -2.19812  -2.19675
 Alpha  occ. eigenvalues --   -2.19631  -2.19514  -2.19439  -2.18957  -1.13838
 Alpha  occ. eigenvalues --   -1.13806  -1.13797  -1.13532  -1.13481  -1.13424
 Alpha  occ. eigenvalues --   -1.13366  -1.13329  -1.13326  -1.13310  -1.13293
 Alpha  occ. eigenvalues --   -1.13242  -1.13180  -1.13150  -1.13141  -1.13131
 Alpha  occ. eigenvalues --   -1.13070  -1.13055  -1.12642  -1.12608  -1.12575
 Alpha  occ. eigenvalues --   -0.18542  -0.13099  -0.11983  -0.11449
 Alpha virt. eigenvalues --   -0.05894  -0.04858  -0.04298  -0.03437  -0.03180
 Alpha virt. eigenvalues --   -0.02805  -0.01683  -0.00954  -0.00448   0.00101
 Alpha virt. eigenvalues --    0.00176   0.00367   0.00595   0.00835   0.00874

  Beta  occ. eigenvalues --  -38.44366 -38.43914 -38.43810 -38.43779 -38.43551
  Beta  occ. eigenvalues --  -38.43401 -38.43050  -2.20154  -2.19774  -2.19613
  Beta  occ. eigenvalues --   -2.19605  -2.19422  -2.19315  -2.18940  -1.13826
  Beta  occ. eigenvalues --   -1.13805  -1.13792  -1.13493  -1.13456  -1.13397
  Beta  occ. eigenvalues --   -1.13316  -1.13308  -1.13288  -1.13272  -1.13246
  Beta  occ. eigenvalues --   -1.13225  -1.13122  -1.13078  -1.13065  -1.13060
  Beta  occ. eigenvalues --   -1.12983  -1.12955  -1.12617  -1.12586  -1.12566
  Beta  occ. eigenvalues --   -0.17814  -0.12857  -0.11750
  Beta virt. eigenvalues --   -0.07518  -0.05831  -0.04683  -0.04037  -0.02964
  Beta virt. eigenvalues --   -0.02545  -0.01826  -0.01553  -0.00850  -0.00281
  Beta virt. eigenvalues --    0.00156   0.00188   0.00408   0.00676   0.00848

 Mulliken charges and spin densities:
               1          2
     1  Na  -0.294487   0.060888
     2  Na  -0.087063   0.075001
     3  Na   0.319153   0.361325
     4  Na   0.145684  -0.000414
     5  Na  -0.158848   0.358014
     6  Na  -0.200964   0.159260
     7  Na   0.276525  -0.014073
 Sum of Mulliken charges =  -0.00000   1.00000

 Dipole moment (field-independent basis, Debye):
    X=              0.5002    Y=             -0.2888    Z=             -0.2368  Tot=              0.6242
 Quadrupole moment (field-independent basis, Debye-Ang):
   XX=            -56.6831   YY=            -67.8836   ZZ=            -69.8452
   XY=             -0.1989   XZ=             -1.1700   YZ=             -3.0526

 Normal termination of Gaussian 16 at Sun Dec  3 22:32:09 2023.
