 Gaussian 16, Revision B.01,
 Gaussian 16:  ES64L-G16RevB.01 20-Dec-2017

 -------------------------
 #P B3LYP/6-311+g(d) force
 -------------------------

 -----
 DPGEN
 -----
 Symbolic Z-matrix:
 Charge =  0 Multiplicity = 2

                         Standard orientation:
 ---------------------------------------------------------------------
 Center     Atomic      Atomic             Coordinates (Angstroms)
 Number     Number       Type             X           Y           Z
 ---------------------------------------------------------------------
      1         11           0       -0.716246   -1.991055    0.504554
      2         11           0        1.936176    2.180970   -0.353534
      3         11           0        1.064872   -0.599365    1.884758
      4         11           0       -1.928980    1.441265    1.609424
      5         11           0       -3.584351   -0.387254   -1.232545
      6         11           0        3.380879   -1.051917   -0.747767
      7         11           0       -0.152349    0.407356   -1.664890
 ---------------------------------------------------------------------

 SCF Done:  E(UB3LYP) =  -1136.11692467     A.U. after   24 cycles

 The electronic state is 2-A.
 Alpha  occ. eigenvalues --  -38.45313 -38.44912 -38.44459 -38.43455 -38.43380
 Alpha  occ. eigenvalues --  -38.43309 -38.42766  -2.21101  -2.20724  -2.20256
 Alpha  occ. eigenvalues --   -2.19371  -2.19274  -2.19245  -2.18738  -1.14785
 Alpha  occ. eigenvalues --   -1.14737  -1.14723  -1.14389  -1.14355  -1.14350
 Alpha  occ. eigenvalues --   -1.13922  -1.13911  -1.13883  -1.13241  -1.13146
 Alpha  occ. eigenvalues --   -1.13084  -1.12988  -1.12915  -1.12895  -1.12874
 Alpha  occ. eigenvalues --   -1.12847  -1.12835  -1.12371  -1.12343  -1.12315
 Alpha  occ. eigenvalues --   -0.18562  -0.13612  -0.11582  -0.11015
 Alpha virt. eigenvalues --   -0.06617  -0.05274  -0.04069  -0.03140  -0.02742
 Alpha virt. eigenvalues --   -0.02624  -0.02359  -0.01360  -0.00437   0.00014
 Alpha virt. eigenvalues --    0.00178   0.00284   0.00490   0.00672   0.00704

  Beta  occ. eigenvalues --  -38.45290 -38.44843 -38.44437 -38.43435 -38.43358
  Beta  occ. eigenvalues --  -38.43294 -38.42754  -2.21058  -2.20597  -2.20216
  Beta  occ. eigenvalues --   -2.19338  -2.19248  -2.19206  -2.18719  -1.14753
  Beta  occ. eigenvalues --   -1.14708  -1.14694  -1.14295  -1.14268  -1.14258
  Beta  occ. eigenvalues --   -1.13886  -1.13883  -1.13860  -1.13224  -1.13100
  Beta  occ. eigenvalues --   -1.13064  -1.12963  -1.12889  -1.12864  -1.12843
  Beta  occ. eigenvalues --   -1.12816  -1.12811  -1.12360  -1.12321  -1.12276
  Beta  occ. eigenvalues --   -0.17826  -0.13355  -0.10839
  Beta virt. eigenvalues --   -0.07763  -0.06370  -0.04665  -0.03963  -0.02935
  Beta virt. eigenvalues --   -0.02237  -0.02116  -0.01880  -0.00871  -0.00391
  Beta virt. eigenvalues --    0.00126   0.00207   0.00375   0.00503   0.00772

 Mulliken charges and spin densities:
               1          2
     1  Na  -0.160435   0.030222
     2  Na   0.121492   0.237434
     3  Na   0.360697   0.319648
     4  Na  -0.326763   0.292014
     5  Na   0.343680   0.000123
     6  Na   0.095395   0.015945
     7  Na  -0.434066   0.104614
 Sum of Mulliken charges =  -0.00000   1.00000

 Dipole moment (field-independent basis, Debye):
    X=             -0.0889    Y=             -0.0476    Z=             -0.1165  Tot=              0.1540
 Quadrupole moment (field-independent basis, Debye-Ang):
   XX=            -47.9721   YY=            -70.9408   ZZ=            -73.6040
   XY=             -2.7715   XZ=             -1.4553   YZ=              9.4849

 Normal termination of Gaussian 16 at Fri Dec  8 03:49:16 2023.
