 Gaussian 16, Revision B.01,
 Gaussian 16:  ES64L-G16RevB.01 20-Dec-2017

 -------------------------
 #P B3LYP/6-311+g(d) force
 -------------------------

 -----
 DPGEN
 -----
 Symbolic Z-matrix:
 Charge =  0 Multiplicity = 2

                         Standard orientation:
 ---------------------------------------------------------------------
 Center     Atomic      Atomic             Coordinates (Angstroms)
 Number     Number       Type             X           Y           Z
 ---------------------------------------------------------------------
      1         11           0        3.019617    0.045842    0.315421
      2         11           0        3.205805   -3.365824    0.680411
      3         11           0       -3.455345   -0.263392   -1.279057
      4         11           0        2.012085    4.056865    0.380598
      5         11           0       -4.662498   -0.173049    1.821050
      6         11           0       -0.285118   -1.823790   -1.085200
      7         11           0        0.165454    1.523349   -0.833222
 ---------------------------------------------------------------------

 SCF Done:  E(UB3LYP) =  -1136.12140291     A.U. after   19 cycles

 The electronic state is 2-A.
 Alpha  occ. eigenvalues --  -38.44677 -38.44471 -38.44374 -38.44006 -38.43934
 Alpha  occ. eigenvalues --  -38.43843 -38.43824  -2.20480  -2.20290  -2.20179
 Alpha  occ. eigenvalues --   -2.19808  -2.19712  -2.19684  -2.19620  -1.14114
 Alpha  occ. eigenvalues --   -1.14113  -1.14099  -1.13990  -1.13967  -1.13889
 Alpha  occ. eigenvalues --   -1.13883  -1.13867  -1.13757  -1.13494  -1.13480
 Alpha  occ. eigenvalues --   -1.13454  -1.13402  -1.13384  -1.13378  -1.13367
 Alpha  occ. eigenvalues --   -1.13347  -1.13284  -1.13281  -1.13250  -1.13240
 Alpha  occ. eigenvalues --   -0.16597  -0.13824  -0.12190  -0.11123
 Alpha virt. eigenvalues --   -0.06059  -0.05291  -0.04916  -0.03802  -0.02566
 Alpha virt. eigenvalues --   -0.02413  -0.01876  -0.01626  -0.01267  -0.00993
 Alpha virt. eigenvalues --   -0.00285   0.00007   0.00108   0.00277   0.00569

  Beta  occ. eigenvalues --  -38.44571 -38.44421 -38.44363 -38.44012 -38.43925
  Beta  occ. eigenvalues --  -38.43820 -38.43804  -2.20281  -2.20200  -2.20159
  Beta  occ. eigenvalues --   -2.19827  -2.19695  -2.19651  -2.19577  -1.13978
  Beta  occ. eigenvalues --   -1.13977  -1.13971  -1.13924  -1.13907  -1.13871
  Beta  occ. eigenvalues --   -1.13870  -1.13801  -1.13740  -1.13515  -1.13496
  Beta  occ. eigenvalues --   -1.13414  -1.13384  -1.13369  -1.13365  -1.13349
  Beta  occ. eigenvalues --   -1.13332  -1.13255  -1.13247  -1.13215  -1.13207
  Beta  occ. eigenvalues --   -0.16030  -0.13091  -0.11996
  Beta virt. eigenvalues --   -0.07627  -0.05789  -0.04943  -0.04679  -0.03555
  Beta virt. eigenvalues --   -0.02279  -0.02093  -0.01558  -0.01442  -0.01122
  Beta virt. eigenvalues --   -0.00610   0.00035   0.00107   0.00314   0.00456

 Mulliken charges and spin densities:
               1          2
     1  Na  -0.091997   0.160775
     2  Na   0.516891   0.137076
     3  Na  -0.116538  -0.099636
     4  Na   0.948898   0.081472
     5  Na   0.161861   0.549305
     6  Na  -0.394805   0.052271
     7  Na  -1.024311   0.118737
 Sum of Mulliken charges =  -0.00000   1.00000

 Dipole moment (field-independent basis, Debye):
    X=              0.0143    Y=              0.0081    Z=              0.2613  Tot=              0.2619
 Quadrupole moment (field-independent basis, Debye-Ang):
   XX=            -68.6732   YY=            -60.2655   ZZ=            -67.8604
   XY=              1.0956   XZ=              2.1884   YZ=              1.0419

 Normal termination of Gaussian 16 at Wed Nov 29 00:09:15 2023.
