 Gaussian 16, Revision B.01,
 Gaussian 16:  ES64L-G16RevB.01 20-Dec-2017

 -------------------------
 #P B3LYP/6-311+g(d) force
 -------------------------

 -----
 DPGEN
 -----
 Symbolic Z-matrix:
 Charge =  0 Multiplicity = 2

                         Standard orientation:
 ---------------------------------------------------------------------
 Center     Atomic      Atomic             Coordinates (Angstroms)
 Number     Number       Type             X           Y           Z
 ---------------------------------------------------------------------
      1         11           0       -0.581718    0.117124   -1.289057
      2         11           0        0.712145   -2.192197   -0.309757
      3         11           0       -3.375181   -0.050032   -0.361157
      4         11           0       -1.074425   -0.285169    1.460543
      5         11           0        1.763776   -0.254214    1.450843
      6         11           0        0.323516    2.276509    0.322043
      7         11           0        2.231886    0.387979   -1.273457
 ---------------------------------------------------------------------

 SCF Done:  E(UB3LYP) =  -1136.08648405     A.U. after   26 cycles

 The electronic state is 2-A.
 Alpha  occ. eigenvalues --  -38.44706 -38.44222 -38.44200 -38.43822 -38.43793
 Alpha  occ. eigenvalues --  -38.42691 -38.42471  -2.20606  -2.20393  -2.20323
 Alpha  occ. eigenvalues --   -2.20163  -2.19991  -2.18781  -2.18523  -1.14400
 Alpha  occ. eigenvalues --   -1.14318  -1.14280  -1.14234  -1.14191  -1.14154
 Alpha  occ. eigenvalues --   -1.14005  -1.13989  -1.13881  -1.13825  -1.13803
 Alpha  occ. eigenvalues --   -1.13693  -1.13610  -1.13540  -1.13533  -1.12497
 Alpha  occ. eigenvalues --   -1.12430  -1.12348  -1.12255  -1.12171  -1.12102
 Alpha  occ. eigenvalues --   -0.21113  -0.13900  -0.12514  -0.11944
 Alpha virt. eigenvalues --   -0.06010  -0.04020  -0.03554  -0.03429  -0.02946
 Alpha virt. eigenvalues --   -0.02729  -0.01706  -0.00471  -0.00312   0.00295
 Alpha virt. eigenvalues --    0.00579   0.00716   0.00918   0.00999   0.01057

  Beta  occ. eigenvalues --  -38.44700 -38.44176 -38.44138 -38.43760 -38.43731
  Beta  occ. eigenvalues --  -38.42676 -38.42458  -2.20596  -2.20290  -2.20239
  Beta  occ. eigenvalues --   -2.20056  -2.19884  -2.18761  -2.18504  -1.14375
  Beta  occ. eigenvalues --   -1.14293  -1.14231  -1.14186  -1.14136  -1.14074
  Beta  occ. eigenvalues --   -1.13934  -1.13912  -1.13818  -1.13757  -1.13732
  Beta  occ. eigenvalues --   -1.13621  -1.13522  -1.13460  -1.13442  -1.12488
  Beta  occ. eigenvalues --   -1.12384  -1.12319  -1.12247  -1.12112  -1.12095
  Beta  occ. eigenvalues --   -0.20262  -0.13734  -0.11630
  Beta virt. eigenvalues --   -0.08063  -0.05919  -0.03505  -0.03423  -0.03261
  Beta virt. eigenvalues --   -0.02033  -0.01807  -0.01560  -0.00296  -0.00150
  Beta virt. eigenvalues --    0.00324   0.00632   0.00848   0.00909   0.01011

 Mulliken charges and spin densities:
               1          2
     1  Na   0.273683   0.188079
     2  Na  -0.981462   0.374620
     3  Na  -0.200175   0.181236
     4  Na  -0.015306   0.077746
     5  Na   0.977996   0.131381
     6  Na  -1.076595   0.233938
     7  Na   1.021859  -0.186999
 Sum of Mulliken charges =  -0.00000   1.00000

 Dipole moment (field-independent basis, Debye):
    X=             -0.4739    Y=              0.0824    Z=             -0.0486  Tot=              0.4835
 Quadrupole moment (field-independent basis, Debye-Ang):
   XX=            -53.7196   YY=            -74.0254   ZZ=            -66.1567
   XY=              0.1236   XZ=              0.1799   YZ=              0.9326

 Normal termination of Gaussian 16 at Fri Dec  8 19:36:06 2023.
