 Gaussian 16, Revision B.01,
 Gaussian 16:  ES64L-G16RevB.01 20-Dec-2017

 -------------------------
 #P B3LYP/6-311+g(d) force
 -------------------------

 -----
 DPGEN
 -----
 Symbolic Z-matrix:
 Charge =  0 Multiplicity = 2

                         Standard orientation:
 ---------------------------------------------------------------------
 Center     Atomic      Atomic             Coordinates (Angstroms)
 Number     Number       Type             X           Y           Z
 ---------------------------------------------------------------------
      1         11           0        1.506180   -2.573025    0.075966
      2         11           0        0.215454   -0.086184    2.008529
      3         11           0       -0.047463   -0.165004   -1.292206
      4         11           0        0.288866    3.238849   -0.043865
      5         11           0       -2.327240   -2.238158   -0.262781
      6         11           0        3.269132    0.492229   -0.424055
      7         11           0       -2.904929    1.331293   -0.061589
 ---------------------------------------------------------------------

 SCF Done:  E(UB3LYP) =  -1136.13522943     A.U. after   20 cycles

 The electronic state is 2-A.
 Alpha  occ. eigenvalues --  -38.44151 -38.44101 -38.43863 -38.43771 -38.43744
 Alpha  occ. eigenvalues --  -38.43226 -38.42906  -2.19953  -2.19906  -2.19643
 Alpha  occ. eigenvalues --   -2.19612  -2.19595  -2.19122  -2.18926  -1.13628
 Alpha  occ. eigenvalues --   -1.13603  -1.13592  -1.13590  -1.13573  -1.13536
 Alpha  occ. eigenvalues --   -1.13323  -1.13321  -1.13302  -1.13286  -1.13282
 Alpha  occ. eigenvalues --   -1.13282  -1.13249  -1.13232  -1.13216  -1.12820
 Alpha  occ. eigenvalues --   -1.12734  -1.12729  -1.12628  -1.12565  -1.12543
 Alpha  occ. eigenvalues --   -0.18373  -0.12956  -0.12439  -0.10179
 Alpha virt. eigenvalues --   -0.05735  -0.05398  -0.05124  -0.02883  -0.02624
 Alpha virt. eigenvalues --   -0.02113  -0.01700  -0.01398  -0.00757  -0.00677
 Alpha virt. eigenvalues --    0.00006   0.00307   0.00749   0.00788   0.00815

  Beta  occ. eigenvalues --  -38.44136 -38.44099 -38.43864 -38.43765 -38.43736
  Beta  occ. eigenvalues --  -38.43122 -38.42866  -2.19928  -2.19906  -2.19646
  Beta  occ. eigenvalues --   -2.19601  -2.19586  -2.18932  -2.18855  -1.13600
  Beta  occ. eigenvalues --   -1.13583  -1.13582  -1.13577  -1.13567  -1.13535
  Beta  occ. eigenvalues --   -1.13317  -1.13313  -1.13302  -1.13285  -1.13275
  Beta  occ. eigenvalues --   -1.13242  -1.13236  -1.13225  -1.13210  -1.12700
  Beta  occ. eigenvalues --   -1.12603  -1.12591  -1.12556  -1.12514  -1.12488
  Beta  occ. eigenvalues --   -0.17688  -0.12704  -0.12227
  Beta virt. eigenvalues --   -0.06334  -0.05671  -0.05365  -0.05056  -0.02174
  Beta virt. eigenvalues --   -0.01943  -0.01584  -0.01341  -0.01087  -0.00783
  Beta virt. eigenvalues --   -0.00704   0.00166   0.00370   0.00795   0.00804

 Mulliken charges and spin densities:
               1          2
     1  Na   0.457530   0.080858
     2  Na  -0.304364   0.703398
     3  Na  -0.649184   0.238817
     4  Na  -0.008639  -0.046555
     5  Na   0.318466   0.013432
     6  Na   0.070066   0.041874
     7  Na   0.116125  -0.031824
 Sum of Mulliken charges =  -0.00000   1.00000

 Dipole moment (field-independent basis, Debye):
    X=             -0.0014    Y=              0.0636    Z=              0.1522  Tot=              0.1650
 Quadrupole moment (field-independent basis, Debye-Ang):
   XX=            -55.2276   YY=            -58.4021   ZZ=            -77.4698
   XY=              0.2041   XZ=             -0.6769   YZ=             -0.0860

 Normal termination of Gaussian 16 at Tue Dec  5 11:52:40 2023.
