 Gaussian 16, Revision B.01,
 Gaussian 16:  ES64L-G16RevB.01 20-Dec-2017

 -------------------------
 #P B3LYP/6-311+g(d) force
 -------------------------

 -----
 DPGEN
 -----
 Symbolic Z-matrix:
 Charge =  0 Multiplicity = 2

                         Standard orientation:
 ---------------------------------------------------------------------
 Center     Atomic      Atomic             Coordinates (Angstroms)
 Number     Number       Type             X           Y           Z
 ---------------------------------------------------------------------
      1         11           0       -3.052631   -0.044951   -0.152101
      2         11           0       -0.665823   -2.749005   -0.094386
      3         11           0       -0.189317   -0.389510    1.670200
      4         11           0        2.345114    1.732169   -0.109147
      5         11           0       -0.921637    2.698547    0.286915
      6         11           0       -0.165126    0.110808   -1.617467
      7         11           0        2.649421   -1.358057    0.015986
 ---------------------------------------------------------------------

 SCF Done:  E(UB3LYP) =  -1136.13651143     A.U. after   21 cycles

 The electronic state is 2-A.
 Alpha  occ. eigenvalues --  -38.44015 -38.43715 -38.43514 -38.43425 -38.43316
 Alpha  occ. eigenvalues --  -38.42943 -38.42863  -2.19891  -2.19600  -2.19407
 Alpha  occ. eigenvalues --   -2.19342  -2.19200  -2.18975  -2.18909  -1.13580
 Alpha  occ. eigenvalues --   -1.13557  -1.13518  -1.13324  -1.13259  -1.13247
 Alpha  occ. eigenvalues --   -1.13104  -1.13082  -1.13056  -1.13042  -1.13013
 Alpha  occ. eigenvalues --   -1.12941  -1.12890  -1.12866  -1.12826  -1.12676
 Alpha  occ. eigenvalues --   -1.12593  -1.12576  -1.12570  -1.12529  -1.12522
 Alpha  occ. eigenvalues --   -0.19361  -0.13291  -0.12768  -0.10519
 Alpha virt. eigenvalues --   -0.05606  -0.04981  -0.04789  -0.03057  -0.02830
 Alpha virt. eigenvalues --   -0.02089  -0.01532  -0.01081  -0.00218  -0.00190
 Alpha virt. eigenvalues --    0.00051   0.00364   0.00860   0.00917   0.00944

  Beta  occ. eigenvalues --  -38.44007 -38.43711 -38.43510 -38.43415 -38.43308
  Beta  occ. eigenvalues --  -38.42865 -38.42790  -2.19881  -2.19596  -2.19403
  Beta  occ. eigenvalues --   -2.19330  -2.19187  -2.18835  -2.18776  -1.13571
  Beta  occ. eigenvalues --   -1.13525  -1.13513  -1.13325  -1.13248  -1.13228
  Beta  occ. eigenvalues --   -1.13088  -1.13076  -1.13043  -1.13029  -1.12973
  Beta  occ. eigenvalues --   -1.12936  -1.12882  -1.12829  -1.12823  -1.12585
  Beta  occ. eigenvalues --   -1.12495  -1.12478  -1.12472  -1.12431  -1.12425
  Beta  occ. eigenvalues --   -0.18638  -0.13020  -0.12493
  Beta virt. eigenvalues --   -0.06587  -0.05589  -0.04980  -0.04768  -0.02249
  Beta virt. eigenvalues --   -0.02027  -0.01457  -0.01065  -0.01016  -0.00275
  Beta virt. eigenvalues --   -0.00235   0.00174   0.00391   0.00882   0.00919

 Mulliken charges and spin densities:
               1          2
     1  Na   0.262136  -0.066708
     2  Na   0.301765  -0.115474
     3  Na  -0.461627   0.693790
     4  Na   0.092471  -0.037711
     5  Na   0.077828  -0.037429
     6  Na  -0.434500   0.631052
     7  Na   0.161927  -0.067521
 Sum of Mulliken charges =  -0.00000   1.00000

 Dipole moment (field-independent basis, Debye):
    X=             -0.1906    Y=             -0.0571    Z=              0.0096  Tot=              0.1992
 Quadrupole moment (field-independent basis, Debye-Ang):
   XX=            -55.5479   YY=            -61.0440   ZZ=            -75.7470
   XY=             -0.2550   XZ=              0.0905   YZ=              1.1288

 Normal termination of Gaussian 16 at Tue Nov 28 21:31:18 2023.
