 Gaussian 16, Revision B.01,
 Gaussian 16:  ES64L-G16RevB.01 20-Dec-2017

 -------------------------
 #P B3LYP/6-311+g(d) force
 -------------------------

 -----
 DPGEN
 -----
 Symbolic Z-matrix:
 Charge =  0 Multiplicity = 2

                         Standard orientation:
 ---------------------------------------------------------------------
 Center     Atomic      Atomic             Coordinates (Angstroms)
 Number     Number       Type             X           Y           Z
 ---------------------------------------------------------------------
      1         11           0       -1.307356   -1.994428   -0.218080
      2         11           0       -4.483913   -2.225618    0.564594
      3         11           0       -3.304372    0.553196   -0.506314
      4         11           0       -1.448722    3.604860    0.333628
      5         11           0        0.239626    1.317482   -0.183179
      6         11           0        3.662848   -0.834711   -0.348619
      7         11           0        6.641889   -0.420781    0.357971
 ---------------------------------------------------------------------

 SCF Done:  E(UB3LYP) =  -1136.11846208     A.U. after   21 cycles

 The electronic state is 2-A.
 Alpha  occ. eigenvalues --  -38.44770 -38.44552 -38.44536 -38.44021 -38.43861
 Alpha  occ. eigenvalues --  -38.43680 -38.43311  -2.20658  -2.20422  -2.20383
 Alpha  occ. eigenvalues --   -2.19883  -2.19755  -2.19491  -2.19101  -1.14381
 Alpha  occ. eigenvalues --   -1.14353  -1.14268  -1.14106  -1.14093  -1.14069
 Alpha  occ. eigenvalues --   -1.14032  -1.14026  -1.13958  -1.13704  -1.13520
 Alpha  occ. eigenvalues --   -1.13505  -1.13416  -1.13411  -1.13304  -1.13165
 Alpha  occ. eigenvalues --   -1.13129  -1.13128  -1.12777  -1.12775  -1.12736
 Alpha  occ. eigenvalues --   -0.17390  -0.13615  -0.12900  -0.10917
 Alpha virt. eigenvalues --   -0.06189  -0.05513  -0.04349  -0.04248  -0.02565
 Alpha virt. eigenvalues --   -0.02273  -0.01939  -0.01804  -0.01343  -0.00722
 Alpha virt. eigenvalues --   -0.00279  -0.00082   0.00134   0.00379   0.00681

  Beta  occ. eigenvalues --  -38.44744 -38.44518 -38.44501 -38.44000 -38.43835
  Beta  occ. eigenvalues --  -38.43628 -38.43319  -2.20612  -2.20350  -2.20329
  Beta  occ. eigenvalues --   -2.19844  -2.19711  -2.19394  -2.19122  -1.14333
  Beta  occ. eigenvalues --   -1.14323  -1.14232  -1.14045  -1.14040  -1.14021
  Beta  occ. eigenvalues --   -1.14007  -1.13994  -1.13895  -1.13673  -1.13492
  Beta  occ. eigenvalues --   -1.13473  -1.13391  -1.13379  -1.13256  -1.13106
  Beta  occ. eigenvalues --   -1.13063  -1.13062  -1.12796  -1.12795  -1.12708
  Beta  occ. eigenvalues --   -0.16766  -0.13375  -0.12397
  Beta virt. eigenvalues --   -0.07475  -0.06023  -0.04879  -0.04111  -0.03865
  Beta virt. eigenvalues --   -0.02470  -0.02028  -0.01666  -0.01472  -0.01189
  Beta virt. eigenvalues --   -0.00390   0.00026   0.00110   0.00341   0.00465

 Mulliken charges and spin densities:
               1          2
     1  Na  -0.914579   0.011502
     2  Na   1.162482   0.258466
     3  Na  -0.303953   0.331147
     4  Na   1.960147   0.385153
     5  Na  -1.884079   0.016038
     6  Na  -0.533996  -0.226538
     7  Na   0.513979   0.224232
 Sum of Mulliken charges =  -0.00000   1.00000

 Dipole moment (field-independent basis, Debye):
    X=             -2.5444    Y=             -0.1526    Z=              0.4515  Tot=              2.5886
 Quadrupole moment (field-independent basis, Debye-Ang):
   XX=            -60.7516   YY=            -62.0398   ZZ=            -71.8267
   XY=              5.9589   XZ=              0.2387   YZ=             -0.2747

 Normal termination of Gaussian 16 at Tue Nov 28 21:44:32 2023.
