 Gaussian 16, Revision B.01,
 Gaussian 16:  ES64L-G16RevB.01 20-Dec-2017

 -------------------------
 #P B3LYP/6-311+g(d) force
 -------------------------

 -----
 DPGEN
 -----
 Symbolic Z-matrix:
 Charge =  0 Multiplicity = 2

                         Standard orientation:
 ---------------------------------------------------------------------
 Center     Atomic      Atomic             Coordinates (Angstroms)
 Number     Number       Type             X           Y           Z
 ---------------------------------------------------------------------
      1         11           0        1.680552   -0.702478    1.674824
      2         11           0       -1.989210    2.226881    0.028680
      3         11           0        0.157389   -1.024271   -1.696144
      4         11           0       -1.517509   -0.978143    1.605283
      5         11           0       -3.652026   -1.078804   -0.782529
      6         11           0        3.997081   -0.640940   -0.678387
      7         11           0        1.323724    2.197754   -0.151726
 ---------------------------------------------------------------------

 SCF Done:  E(UB3LYP) =  -1136.12221211     A.U. after   25 cycles

 The electronic state is 2-A.
 Alpha  occ. eigenvalues --  -38.45585 -38.45068 -38.44395 -38.43950 -38.43780
 Alpha  occ. eigenvalues --  -38.43017 -38.42663  -2.21369  -2.20858  -2.20209
 Alpha  occ. eigenvalues --   -2.19867  -2.19695  -2.18842  -2.18512  -1.15069
 Alpha  occ. eigenvalues --   -1.15034  -1.14963  -1.14537  -1.14513  -1.14486
 Alpha  occ. eigenvalues --   -1.13895  -1.13858  -1.13849  -1.13586  -1.13504
 Alpha  occ. eigenvalues --   -1.13487  -1.13368  -1.13324  -1.13312  -1.12522
 Alpha  occ. eigenvalues --   -1.12509  -1.12478  -1.12199  -1.12195  -1.12120
 Alpha  occ. eigenvalues --   -0.18257  -0.14035  -0.11411  -0.10928
 Alpha virt. eigenvalues --   -0.07201  -0.05196  -0.04645  -0.03306  -0.02842
 Alpha virt. eigenvalues --   -0.02553  -0.02197  -0.01370  -0.00852  -0.00231
 Alpha virt. eigenvalues --    0.00044   0.00202   0.00358   0.00511   0.00729

  Beta  occ. eigenvalues --  -38.45542 -38.45061 -38.44388 -38.43882 -38.43719
  Beta  occ. eigenvalues --  -38.43012 -38.42660  -2.21291  -2.20844  -2.20196
  Beta  occ. eigenvalues --   -2.19746  -2.19587  -2.18834  -2.18507  -1.15009
  Beta  occ. eigenvalues --   -1.14979  -1.14904  -1.14527  -1.14503  -1.14475
  Beta  occ. eigenvalues --   -1.13888  -1.13847  -1.13835  -1.13491  -1.13421
  Beta  occ. eigenvalues --   -1.13388  -1.13293  -1.13249  -1.13213  -1.12508
  Beta  occ. eigenvalues --   -1.12506  -1.12474  -1.12196  -1.12182  -1.12119
  Beta  occ. eigenvalues --   -0.17515  -0.13946  -0.10808
  Beta virt. eigenvalues --   -0.07352  -0.06954  -0.05039  -0.04182  -0.03023
  Beta virt. eigenvalues --   -0.02661  -0.01775  -0.01656  -0.01129  -0.00588
  Beta virt. eigenvalues --   -0.00189   0.00077   0.00320   0.00441   0.00599

 Mulliken charges and spin densities:
               1          2
     1  Na  -0.187215   0.093413
     2  Na  -0.256434  -0.011633
     3  Na  -0.692861   0.346628
     4  Na  -0.326253   0.146885
     5  Na   0.893449   0.186785
     6  Na   0.922556   0.107986
     7  Na  -0.353242   0.129937
 Sum of Mulliken charges =  -0.00000   1.00000

 Dipole moment (field-independent basis, Debye):
    X=              0.5099    Y=             -0.5278    Z=             -0.7104  Tot=              1.0213
 Quadrupole moment (field-independent basis, Debye-Ang):
   XX=            -46.1670   YY=            -79.9893   ZZ=            -68.9250
   XY=             -0.2556   XZ=             -0.2390   YZ=              0.9913

 Normal termination of Gaussian 16 at Fri Dec  8 04:35:22 2023.
