 Gaussian 16, Revision B.01,
 Gaussian 16:  ES64L-G16RevB.01 20-Dec-2017

 -------------------------
 #P B3LYP/6-311+g(d) force
 -------------------------

 -----
 DPGEN
 -----
 Symbolic Z-matrix:
 Charge =  0 Multiplicity = 2

                         Standard orientation:
 ---------------------------------------------------------------------
 Center     Atomic      Atomic             Coordinates (Angstroms)
 Number     Number       Type             X           Y           Z
 ---------------------------------------------------------------------
      1         11           0       -1.088002   -0.179433    1.391916
      2         11           0       -2.984779   -2.182256   -0.902592
      3         11           0        0.389128    2.928596   -0.560601
      4         11           0       -3.526548    1.781388    0.449824
      5         11           0        3.071296    1.998560   -0.514152
      6         11           0        0.394920   -2.558972   -0.506484
      7         11           0        3.743986   -1.787882    0.642089
 ---------------------------------------------------------------------

 SCF Done:  E(UB3LYP) =  -1136.11581872     A.U. after   19 cycles

 The electronic state is 2-A.
 Alpha  occ. eigenvalues --  -38.45186 -38.44661 -38.44143 -38.44017 -38.43977
 Alpha  occ. eigenvalues --  -38.43750 -38.43694  -2.21022  -2.20476  -2.19952
 Alpha  occ. eigenvalues --   -2.19822  -2.19799  -2.19573  -2.19544  -1.14717
 Alpha  occ. eigenvalues --   -1.14676  -1.14658  -1.14141  -1.14113  -1.14100
 Alpha  occ. eigenvalues --   -1.13659  -1.13613  -1.13590  -1.13583  -1.13464
 Alpha  occ. eigenvalues --   -1.13456  -1.13442  -1.13428  -1.13419  -1.13283
 Alpha  occ. eigenvalues --   -1.13258  -1.13190  -1.13183  -1.13181  -1.13132
 Alpha  occ. eigenvalues --   -0.16830  -0.13657  -0.12943  -0.10414
 Alpha virt. eigenvalues --   -0.06777  -0.05567  -0.03928  -0.03864  -0.02933
 Alpha virt. eigenvalues --   -0.02560  -0.02102  -0.01351  -0.01016  -0.00520
 Alpha virt. eigenvalues --   -0.00509  -0.00059   0.00375   0.00483   0.00563

  Beta  occ. eigenvalues --  -38.45183 -38.44608 -38.44097 -38.43950 -38.43946
  Beta  occ. eigenvalues --  -38.43747 -38.43669  -2.21019  -2.20378  -2.19866
  Beta  occ. eigenvalues --   -2.19771  -2.19676  -2.19573  -2.19503  -1.14712
  Beta  occ. eigenvalues --   -1.14676  -1.14651  -1.14074  -1.14043  -1.14031
  Beta  occ. eigenvalues --   -1.13604  -1.13549  -1.13536  -1.13527  -1.13432
  Beta  occ. eigenvalues --   -1.13387  -1.13371  -1.13356  -1.13341  -1.13292
  Beta  occ. eigenvalues --   -1.13262  -1.13166  -1.13160  -1.13137  -1.13075
  Beta  occ. eigenvalues --   -0.16533  -0.12916  -0.12167
  Beta virt. eigenvalues --   -0.07291  -0.06594  -0.05530  -0.03712  -0.03370
  Beta virt. eigenvalues --   -0.02507  -0.02250  -0.01848  -0.01114  -0.00764
  Beta virt. eigenvalues --   -0.00414  -0.00181   0.00118   0.00479   0.00544

 Mulliken charges and spin densities:
               1          2
     1  Na  -0.263841   0.080431
     2  Na  -0.044351   0.148198
     3  Na  -0.020988   0.097895
     4  Na   0.444678   0.177614
     5  Na  -0.167979   0.030237
     6  Na  -0.305358   0.101053
     7  Na   0.357839   0.364573
 Sum of Mulliken charges =  -0.00000   1.00000

 Dipole moment (field-independent basis, Debye):
    X=             -1.3769    Y=             -0.2787    Z=             -0.2037  Tot=              1.4196
 Quadrupole moment (field-independent basis, Debye-Ang):
   XX=            -55.3091   YY=            -74.8700   ZZ=            -69.9757
   XY=             -0.2227   XZ=              3.9028   YZ=             -0.1239

 Normal termination of Gaussian 16 at Sun Dec  3 12:04:34 2023.
