 Gaussian 16, Revision B.01,
 Gaussian 16:  ES64L-G16RevB.01 20-Dec-2017

 -------------------------
 #P B3LYP/6-311+g(d) force
 -------------------------

 -----
 DPGEN
 -----
 Symbolic Z-matrix:
 Charge =  0 Multiplicity = 2

                         Standard orientation:
 ---------------------------------------------------------------------
 Center     Atomic      Atomic             Coordinates (Angstroms)
 Number     Number       Type             X           Y           Z
 ---------------------------------------------------------------------
      1         11           0       -2.407020    2.023767   -0.641826
      2         11           0       -1.235130    0.011212    2.092113
      3         11           0        3.873850   -0.039099   -1.246875
      4         11           0        2.096300   -1.256086    1.563912
      5         11           0       -0.251973   -1.109263   -1.632409
      6         11           0       -3.413149   -1.451742   -0.496813
      7         11           0        1.337120    1.821210    0.361897
 ---------------------------------------------------------------------

 SCF Done:  E(UB3LYP) =  -1136.12446162     A.U. after   26 cycles

 The electronic state is 2-A.
 Alpha  occ. eigenvalues --  -38.44651 -38.44456 -38.44342 -38.44271 -38.43835
 Alpha  occ. eigenvalues --  -38.43604 -38.43073  -2.20469  -2.20305  -2.20138
 Alpha  occ. eigenvalues --   -2.20056  -2.19658  -2.19466  -2.18926  -1.14144
 Alpha  occ. eigenvalues --   -1.14107  -1.14080  -1.13983  -1.13965  -1.13915
 Alpha  occ. eigenvalues --   -1.13812  -1.13793  -1.13765  -1.13761  -1.13748
 Alpha  occ. eigenvalues --   -1.13663  -1.13325  -1.13309  -1.13292  -1.13169
 Alpha  occ. eigenvalues --   -1.13134  -1.13072  -1.12614  -1.12577  -1.12563
 Alpha  occ. eigenvalues --   -0.17984  -0.14087  -0.11263  -0.10805
 Alpha virt. eigenvalues --   -0.06676  -0.05654  -0.04835  -0.03145  -0.02676
 Alpha virt. eigenvalues --   -0.02393  -0.02293  -0.01240  -0.01062  -0.00356
 Alpha virt. eigenvalues --    0.00115   0.00166   0.00280   0.00511   0.00534

  Beta  occ. eigenvalues --  -38.44595 -38.44408 -38.44325 -38.44272 -38.43820
  Beta  occ. eigenvalues --  -38.43581 -38.43052  -2.20364  -2.20217  -2.20106
  Beta  occ. eigenvalues --   -2.20061  -2.19631  -2.19425  -2.18890  -1.14068
  Beta  occ. eigenvalues --   -1.14042  -1.14003  -1.13920  -1.13911  -1.13845
  Beta  occ. eigenvalues --   -1.13782  -1.13771  -1.13757  -1.13744  -1.13740
  Beta  occ. eigenvalues --   -1.13669  -1.13298  -1.13293  -1.13277  -1.13144
  Beta  occ. eigenvalues --   -1.13086  -1.13040  -1.12589  -1.12539  -1.12528
  Beta  occ. eigenvalues --   -0.17348  -0.13849  -0.10573
  Beta virt. eigenvalues --   -0.07541  -0.06512  -0.04907  -0.04749  -0.02855
  Beta virt. eigenvalues --   -0.02455  -0.01945  -0.01760  -0.00963  -0.00692
  Beta virt. eigenvalues --   -0.00141   0.00163   0.00290   0.00336   0.00583

 Mulliken charges and spin densities:
               1          2
     1  Na   0.085625   0.143556
     2  Na  -0.181919   0.390401
     3  Na   0.431332   0.040459
     4  Na   0.230704  -0.007346
     5  Na  -0.748666   0.202313
     6  Na   0.514116  -0.082910
     7  Na  -0.331192   0.313526
 Sum of Mulliken charges =  -0.00000   1.00000

 Dipole moment (field-independent basis, Debye):
    X=              0.1881    Y=              0.1330    Z=              0.0896  Tot=              0.2472
 Quadrupole moment (field-independent basis, Debye-Ang):
   XX=            -50.7651   YY=            -70.5916   ZZ=            -74.5371
   XY=             -1.9551   XZ=             -1.4786   YZ=             -6.7767

 Normal termination of Gaussian 16 at Tue Dec  5 19:14:46 2023.
