 Gaussian 16, Revision B.01,
 Gaussian 16:  ES64L-G16RevB.01 20-Dec-2017

 -------------------------
 #P B3LYP/6-311+g(d) force
 -------------------------

 -----
 DPGEN
 -----
 Symbolic Z-matrix:
 Charge =  0 Multiplicity = 2

                         Standard orientation:
 ---------------------------------------------------------------------
 Center     Atomic      Atomic             Coordinates (Angstroms)
 Number     Number       Type             X           Y           Z
 ---------------------------------------------------------------------
      1         11           0        0.174370   -0.183168   -1.441558
      2         11           0       -3.711397   -0.264007   -0.384802
      3         11           0       -1.592382    2.610862   -0.002883
      4         11           0        2.723305    1.772494   -0.051044
      5         11           0        0.180950    0.120185    1.853531
      6         11           0        3.266019   -1.360920   -0.313433
      7         11           0       -1.040865   -2.695445    0.340188
 ---------------------------------------------------------------------

 SCF Done:  E(UB3LYP) =  -1136.12744772     A.U. after   22 cycles

 The electronic state is 2-A.
 Alpha  occ. eigenvalues --  -38.44872 -38.44503 -38.44263 -38.44237 -38.43172
 Alpha  occ. eigenvalues --  -38.43160 -38.42898  -2.20650  -2.20330  -2.20184
 Alpha  occ. eigenvalues --   -2.20081  -2.19086  -2.18979  -2.18740  -1.14325
 Alpha  occ. eigenvalues --   -1.14292  -1.14279  -1.14017  -1.13997  -1.13962
 Alpha  occ. eigenvalues --   -1.13914  -1.13840  -1.13795  -1.13754  -1.13733
 Alpha  occ. eigenvalues --   -1.13705  -1.12773  -1.12713  -1.12695  -1.12661
 Alpha  occ. eigenvalues --   -1.12644  -1.12610  -1.12424  -1.12406  -1.12364
 Alpha  occ. eigenvalues --   -0.18265  -0.13713  -0.11644  -0.10287
 Alpha virt. eigenvalues --   -0.06739  -0.05550  -0.04192  -0.03236  -0.02570
 Alpha virt. eigenvalues --   -0.02426  -0.02058  -0.01442  -0.00689  -0.00374
 Alpha virt. eigenvalues --   -0.00119   0.00172   0.00589   0.00716   0.00762

  Beta  occ. eigenvalues --  -38.44842 -38.44485 -38.44243 -38.44231 -38.43172
  Beta  occ. eigenvalues --  -38.43058 -38.42888  -2.20596  -2.20299  -2.20148
  Beta  occ. eigenvalues --   -2.20073  -2.18982  -2.18900  -2.18725  -1.14282
  Beta  occ. eigenvalues --   -1.14255  -1.14244  -1.14000  -1.13969  -1.13931
  Beta  occ. eigenvalues --   -1.13871  -1.13822  -1.13771  -1.13743  -1.13728
  Beta  occ. eigenvalues --   -1.13679  -1.12668  -1.12659  -1.12643  -1.12601
  Beta  occ. eigenvalues --   -1.12586  -1.12543  -1.12417  -1.12378  -1.12349
  Beta  occ. eigenvalues --   -0.17642  -0.13313  -0.11432
  Beta virt. eigenvalues --   -0.06761  -0.06356  -0.05493  -0.04125  -0.02635
  Beta virt. eigenvalues --   -0.02351  -0.01753  -0.01425  -0.01229  -0.00629
  Beta virt. eigenvalues --   -0.00344   0.00050   0.00279   0.00688   0.00777

 Mulliken charges and spin densities:
               1          2
     1  Na  -0.326934   0.118202
     2  Na   0.013633   0.156194
     3  Na  -0.100861   0.025112
     4  Na   0.194684   0.022720
     5  Na   0.000707   0.461006
     6  Na   0.262156   0.159004
     7  Na  -0.043384   0.057763
 Sum of Mulliken charges =  -0.00000   1.00000

 Dipole moment (field-independent basis, Debye):
    X=              0.3540    Y=             -0.0849    Z=              0.1627  Tot=              0.3988
 Quadrupole moment (field-independent basis, Debye-Ang):
   XX=            -52.3423   YY=            -67.1051   ZZ=            -74.2709
   XY=              0.7281   XZ=              0.4401   YZ=             -0.4694

 Normal termination of Gaussian 16 at Tue Dec  5 15:21:06 2023.
