 Gaussian 16, Revision B.01,
 Gaussian 16:  ES64L-G16RevB.01 20-Dec-2017

 -------------------------
 #P B3LYP/6-311+g(d) force
 -------------------------

 -----
 DPGEN
 -----
 Symbolic Z-matrix:
 Charge =  0 Multiplicity = 2

                         Standard orientation:
 ---------------------------------------------------------------------
 Center     Atomic      Atomic             Coordinates (Angstroms)
 Number     Number       Type             X           Y           Z
 ---------------------------------------------------------------------
      1         11           0        3.434314    1.006072   -0.529697
      2         11           0       -3.803055   -1.068004   -0.150762
      3         11           0       -2.596700    1.850185   -0.576285
      4         11           0        0.730191    3.110030    1.021933
      5         11           0       -0.832661   -2.408351    0.812312
      6         11           0        2.868896   -2.432014   -0.076987
      7         11           0        0.199015   -0.057917   -0.500514
 ---------------------------------------------------------------------

 SCF Done:  E(UB3LYP) =  -1136.12223073     A.U. after   21 cycles

 The electronic state is 2-A.
 Alpha  occ. eigenvalues --  -38.44312 -38.44239 -38.44066 -38.44037 -38.43767
 Alpha  occ. eigenvalues --  -38.43706 -38.43441  -2.20152  -2.20035  -2.19894
 Alpha  occ. eigenvalues --   -2.19886  -2.19690  -2.19564  -2.19337  -1.13849
 Alpha  occ. eigenvalues --   -1.13830  -1.13781  -1.13720  -1.13698  -1.13670
 Alpha  occ. eigenvalues --   -1.13580  -1.13554  -1.13544  -1.13535  -1.13514
 Alpha  occ. eigenvalues --   -1.13503  -1.13496  -1.13355  -1.13301  -1.13232
 Alpha  occ. eigenvalues --   -1.13209  -1.13193  -1.12991  -1.12965  -1.12915
 Alpha  occ. eigenvalues --   -0.17529  -0.14040  -0.12681  -0.09813
 Alpha virt. eigenvalues --   -0.06607  -0.05756  -0.04072  -0.03347  -0.02960
 Alpha virt. eigenvalues --   -0.02493  -0.01990  -0.01254  -0.00612  -0.00473
 Alpha virt. eigenvalues --   -0.00082   0.00177   0.00328   0.00681   0.00704

  Beta  occ. eigenvalues --  -38.44285 -38.44227 -38.44021 -38.43997 -38.43738
  Beta  occ. eigenvalues --  -38.43696 -38.43394  -2.20107  -2.20018  -2.19816
  Beta  occ. eigenvalues --   -2.19812  -2.19672  -2.19510  -2.19251  -1.13826
  Beta  occ. eigenvalues --   -1.13803  -1.13714  -1.13710  -1.13689  -1.13624
  Beta  occ. eigenvalues --   -1.13529  -1.13504  -1.13500  -1.13477  -1.13462
  Beta  occ. eigenvalues --   -1.13454  -1.13426  -1.13340  -1.13301  -1.13193
  Beta  occ. eigenvalues --   -1.13174  -1.13157  -1.12936  -1.12907  -1.12866
  Beta  occ. eigenvalues --   -0.17140  -0.13290  -0.12314
  Beta virt. eigenvalues --   -0.06627  -0.06451  -0.05560  -0.03861  -0.02771
  Beta virt. eigenvalues --   -0.02336  -0.02326  -0.01824  -0.00989  -0.00503
  Beta virt. eigenvalues --   -0.00336   0.00200   0.00348   0.00461   0.00695

 Mulliken charges and spin densities:
               1          2
     1  Na   0.614019   0.343624
     2  Na   0.431645   0.310152
     3  Na   1.017248   0.364180
     4  Na   0.333771   0.113771
     5  Na   0.505679   0.128914
     6  Na   0.637981   0.080806
     7  Na  -3.540342  -0.341448
 Sum of Mulliken charges =  -0.00000   1.00000

 Dipole moment (field-independent basis, Debye):
    X=              0.1723    Y=             -0.0604    Z=              0.6532  Tot=              0.6782
 Quadrupole moment (field-independent basis, Debye-Ang):
   XX=            -67.6518   YY=            -59.8283   ZZ=            -70.2122
   XY=              2.1752   XZ=              0.0562   YZ=             -0.1276

 Normal termination of Gaussian 16 at Wed Nov 29 16:47:34 2023.
