 Gaussian 16, Revision B.01,
 Gaussian 16:  ES64L-G16RevB.01 20-Dec-2017

 -------------------------
 #P B3LYP/6-311+g(d) force
 -------------------------

 -----
 DPGEN
 -----
 Symbolic Z-matrix:
 Charge =  0 Multiplicity = 2

                         Standard orientation:
 ---------------------------------------------------------------------
 Center     Atomic      Atomic             Coordinates (Angstroms)
 Number     Number       Type             X           Y           Z
 ---------------------------------------------------------------------
      1         11           0        0.449323    0.316921   -0.357493
      2         11           0        3.519266    1.233515   -0.457435
      3         11           0       -1.532011   -2.287724   -1.103237
      4         11           0       -1.061565   -0.863485    2.415809
      5         11           0       -0.939361    2.880539    0.360833
      6         11           0       -2.809106    0.610046   -0.968891
      7         11           0        2.373454   -1.889812    0.110415
 ---------------------------------------------------------------------

 SCF Done:  E(UB3LYP) =  -1136.12359614     A.U. after   22 cycles

 The electronic state is 2-A.
 Alpha  occ. eigenvalues --  -38.44344 -38.44260 -38.44253 -38.43828 -38.43232
 Alpha  occ. eigenvalues --  -38.43219 -38.42626  -2.20160  -2.20112  -2.20085
 Alpha  occ. eigenvalues --   -2.19738  -2.19101  -2.19085  -2.18765  -1.13875
 Alpha  occ. eigenvalues --   -1.13831  -1.13816  -1.13799  -1.13767  -1.13750
 Alpha  occ. eigenvalues --   -1.13707  -1.13689  -1.13684  -1.13430  -1.13387
 Alpha  occ. eigenvalues --   -1.13379  -1.12843  -1.12790  -1.12751  -1.12724
 Alpha  occ. eigenvalues --   -1.12719  -1.12707  -1.12459  -1.12423  -1.12383
 Alpha  occ. eigenvalues --   -0.18355  -0.13549  -0.11914  -0.10972
 Alpha virt. eigenvalues --   -0.05925  -0.05267  -0.04248  -0.03105  -0.02895
 Alpha virt. eigenvalues --   -0.02441  -0.01716  -0.01110  -0.00525  -0.00288
 Alpha virt. eigenvalues --   -0.00134   0.00313   0.00613   0.00800   0.00889

  Beta  occ. eigenvalues --  -38.44342 -38.44259 -38.44143 -38.43794 -38.43215
  Beta  occ. eigenvalues --  -38.43201 -38.42613  -2.20156  -2.20111  -2.19882
  Beta  occ. eigenvalues --   -2.19679  -2.19078  -2.19047  -2.18746  -1.13875
  Beta  occ. eigenvalues --   -1.13828  -1.13814  -1.13797  -1.13756  -1.13688
  Beta  occ. eigenvalues --   -1.13608  -1.13571  -1.13544  -1.13389  -1.13347
  Beta  occ. eigenvalues --   -1.13323  -1.12838  -1.12752  -1.12719  -1.12713
  Beta  occ. eigenvalues --   -1.12695  -1.12666  -1.12419  -1.12391  -1.12382
  Beta  occ. eigenvalues --   -0.17716  -0.13291  -0.11741
  Beta virt. eigenvalues --   -0.06960  -0.05647  -0.05213  -0.04155  -0.02598
  Beta virt. eigenvalues --   -0.02154  -0.01832  -0.01354  -0.01048  -0.00346
  Beta virt. eigenvalues --   -0.00245   0.00065   0.00383   0.00791   0.00812

 Mulliken charges and spin densities:
               1          2
     1  Na  -2.799852   0.405187
     2  Na   0.379600  -0.158909
     3  Na   0.448310   0.140720
     4  Na  -0.360737   0.419781
     5  Na   0.736504   0.044430
     6  Na   0.535850   0.135614
     7  Na   1.060324   0.013176
 Sum of Mulliken charges =  -0.00000   1.00000

 Dipole moment (field-independent basis, Debye):
    X=              0.6070    Y=             -0.1483    Z=              0.3448  Tot=              0.7136
 Quadrupole moment (field-independent basis, Debye-Ang):
   XX=            -55.5226   YY=            -64.3218   ZZ=            -71.8069
   XY=              0.1565   XZ=             -0.3356   YZ=              0.3790

 Normal termination of Gaussian 16 at Thu Dec  7 04:05:03 2023.
