 Gaussian 16, Revision B.01,
 Gaussian 16:  ES64L-G16RevB.01 20-Dec-2017

 -------------------------
 #P B3LYP/6-311+g(d) force
 -------------------------

 -----
 DPGEN
 -----
 Symbolic Z-matrix:
 Charge =  0 Multiplicity = 2

                         Standard orientation:
 ---------------------------------------------------------------------
 Center     Atomic      Atomic             Coordinates (Angstroms)
 Number     Number       Type             X           Y           Z
 ---------------------------------------------------------------------
      1         11           0        1.120810    2.473098    0.442303
      2         11           0       -3.148018   -1.364682   -0.350910
      3         11           0       -2.150634    1.886888   -0.104451
      4         11           0       -0.234055   -0.680075    2.198705
      5         11           0        3.087671    0.299345   -0.513798
      6         11           0        1.586365   -2.585197   -0.087768
      7         11           0       -0.262138   -0.029378   -1.584081
 ---------------------------------------------------------------------

 SCF Done:  E(UB3LYP) =  -1136.13175218     A.U. after   19 cycles

 The electronic state is 2-A.
 Alpha  occ. eigenvalues --  -38.44447 -38.44134 -38.43898 -38.43755 -38.43552
 Alpha  occ. eigenvalues --  -38.43419 -38.42825  -2.20255  -2.20011  -2.19746
 Alpha  occ. eigenvalues --   -2.19647  -2.19527  -2.19260  -2.18717  -1.13928
 Alpha  occ. eigenvalues --   -1.13910  -1.13896  -1.13700  -1.13671  -1.13651
 Alpha  occ. eigenvalues --   -1.13422  -1.13400  -1.13372  -1.13368  -1.13300
 Alpha  occ. eigenvalues --   -1.13262  -1.13201  -1.13157  -1.13136  -1.12925
 Alpha  occ. eigenvalues --   -1.12923  -1.12904  -1.12398  -1.12372  -1.12358
 Alpha  occ. eigenvalues --   -0.18602  -0.13496  -0.12044  -0.10983
 Alpha virt. eigenvalues --   -0.06074  -0.05238  -0.04126  -0.03410  -0.03098
 Alpha virt. eigenvalues --   -0.02593  -0.01842  -0.01050  -0.00413  -0.00102
 Alpha virt. eigenvalues --    0.00028   0.00321   0.00715   0.00812   0.00882

  Beta  occ. eigenvalues --  -38.44441 -38.44124 -38.43794 -38.43749 -38.43503
  Beta  occ. eigenvalues --  -38.43417 -38.42817  -2.20246  -2.19994  -2.19639
  Beta  occ. eigenvalues --   -2.19554  -2.19436  -2.19259  -2.18705  -1.13914
  Beta  occ. eigenvalues --   -1.13907  -1.13883  -1.13691  -1.13647  -1.13638
  Beta  occ. eigenvalues --   -1.13403  -1.13282  -1.13272  -1.13255  -1.13238
  Beta  occ. eigenvalues --   -1.13230  -1.13138  -1.13101  -1.13068  -1.12927
  Beta  occ. eigenvalues --   -1.12914  -1.12889  -1.12392  -1.12366  -1.12327
  Beta  occ. eigenvalues --   -0.17901  -0.13239  -0.11823
  Beta virt. eigenvalues --   -0.07062  -0.06036  -0.05183  -0.04034  -0.02703
  Beta virt. eigenvalues --   -0.02246  -0.01751  -0.01615  -0.00989  -0.00431
  Beta virt. eigenvalues --   -0.00042   0.00116   0.00365   0.00801   0.00843

 Mulliken charges and spin densities:
               1          2
     1  Na  -0.008478   0.148370
     2  Na   0.145648   0.005149
     3  Na   0.207476   0.134075
     4  Na  -0.536548   0.573920
     5  Na   0.197849   0.074254
     6  Na   0.133679   0.037548
     7  Na  -0.139626   0.026685
 Sum of Mulliken charges =  -0.00000   1.00000

 Dipole moment (field-independent basis, Debye):
    X=             -0.4923    Y=             -0.3862    Z=              0.0581  Tot=              0.6285
 Quadrupole moment (field-independent basis, Debye-Ang):
   XX=            -54.8169   YY=            -66.8741   ZZ=            -72.9219
   XY=              0.9565   XZ=             -0.6021   YZ=              1.1816

 Normal termination of Gaussian 16 at Wed Dec  6 00:50:08 2023.
