 Gaussian 16, Revision B.01,
 Gaussian 16:  ES64L-G16RevB.01 20-Dec-2017

 -------------------------
 #P B3LYP/6-311+g(d) force
 -------------------------

 -----
 DPGEN
 -----
 Symbolic Z-matrix:
 Charge =  0 Multiplicity = 2

                         Standard orientation:
 ---------------------------------------------------------------------
 Center     Atomic      Atomic             Coordinates (Angstroms)
 Number     Number       Type             X           Y           Z
 ---------------------------------------------------------------------
      1         11           0        3.293291   -0.402413    0.289116
      2         11           0       -2.275640   -1.562968   -0.604305
      3         11           0       -0.075239    0.581373   -1.160557
      4         11           0       -2.208682    2.003914    0.189251
      5         11           0        0.798226   -2.594775   -0.475782
      6         11           0       -0.820958   -0.835973    1.842900
      7         11           0        1.289002    2.810842   -0.080624
 ---------------------------------------------------------------------

 SCF Done:  E(UB3LYP) =  -1136.12386962     A.U. after   20 cycles

 The electronic state is 2-A.
 Alpha  occ. eigenvalues --  -38.44184 -38.44085 -38.43990 -38.43625 -38.43456
 Alpha  occ. eigenvalues --  -38.43319 -38.42872  -2.20045  -2.19886  -2.19873
 Alpha  occ. eigenvalues --   -2.19606  -2.19369  -2.19289  -2.19022  -1.13849
 Alpha  occ. eigenvalues --   -1.13686  -1.13661  -1.13629  -1.13547  -1.13534
 Alpha  occ. eigenvalues --   -1.13533  -1.13514  -1.13486  -1.13383  -1.13289
 Alpha  occ. eigenvalues --   -1.13224  -1.13060  -1.13036  -1.12989  -1.12940
 Alpha  occ. eigenvalues --   -1.12903  -1.12874  -1.12677  -1.12673  -1.12624
 Alpha  occ. eigenvalues --   -0.19145  -0.13205  -0.12947  -0.10330
 Alpha virt. eigenvalues --   -0.05735  -0.05249  -0.04941  -0.02977  -0.02813
 Alpha virt. eigenvalues --   -0.01940  -0.01383  -0.01214  -0.00561  -0.00261
 Alpha virt. eigenvalues --    0.00036   0.00339   0.00837   0.00883   0.00899

  Beta  occ. eigenvalues --  -38.44183 -38.44083 -38.43981 -38.43601 -38.43440
  Beta  occ. eigenvalues --  -38.43239 -38.42824  -2.20046  -2.19874  -2.19872
  Beta  occ. eigenvalues --   -2.19568  -2.19345  -2.19140  -2.18940  -1.13843
  Beta  occ. eigenvalues --   -1.13676  -1.13654  -1.13628  -1.13543  -1.13528
  Beta  occ. eigenvalues --   -1.13514  -1.13502  -1.13477  -1.13354  -1.13224
  Beta  occ. eigenvalues --   -1.13194  -1.13044  -1.12997  -1.12961  -1.12846
  Beta  occ. eigenvalues --   -1.12805  -1.12766  -1.12621  -1.12594  -1.12564
  Beta  occ. eigenvalues --   -0.18430  -0.12966  -0.12738
  Beta virt. eigenvalues --   -0.06380  -0.05678  -0.05191  -0.04845  -0.02278
  Beta virt. eigenvalues --   -0.02147  -0.01337  -0.01188  -0.00881  -0.00553
  Beta virt. eigenvalues --   -0.00295   0.00214   0.00407   0.00841   0.00891

 Mulliken charges and spin densities:
               1          2
     1  Na  -0.186870  -0.023251
     2  Na   0.777208   0.043875
     3  Na   0.102080   0.207556
     4  Na   0.012248  -0.026497
     5  Na   0.094919   0.090760
     6  Na  -0.743829   0.747822
     7  Na  -0.055756  -0.040266
 Sum of Mulliken charges =  -0.00000   1.00000

 Dipole moment (field-independent basis, Debye):
    X=              0.1793    Y=              0.3069    Z=              0.2891  Tot=              0.4582
 Quadrupole moment (field-independent basis, Debye-Ang):
   XX=            -56.7034   YY=            -59.7139   ZZ=            -76.0080
   XY=             -0.2128   XZ=              1.6089   YZ=              2.3516

 Normal termination of Gaussian 16 at Thu Dec  7 03:13:51 2023.
