 Gaussian 16, Revision B.01,
 Gaussian 16:  ES64L-G16RevB.01 20-Dec-2017

 -------------------------
 #P B3LYP/6-311+g(d) force
 -------------------------

 -----
 DPGEN
 -----
 Symbolic Z-matrix:
 Charge =  0 Multiplicity = 2

                         Standard orientation:
 ---------------------------------------------------------------------
 Center     Atomic      Atomic             Coordinates (Angstroms)
 Number     Number       Type             X           Y           Z
 ---------------------------------------------------------------------
      1         11           0       -2.082171    2.341663   -0.089245
      2         11           0        1.895015    2.519785    0.101920
      3         11           0        0.570418   -2.761741   -0.019963
      4         11           0       -2.738278   -1.237874   -0.147579
      5         11           0       -0.299756   -0.230864    2.030636
      6         11           0       -0.313133   -0.027389   -1.647075
      7         11           0        2.967905   -0.603580   -0.228695
 ---------------------------------------------------------------------

 SCF Done:  E(UB3LYP) =  -1136.13704288     A.U. after   19 cycles

 The electronic state is 2-A.
 Alpha  occ. eigenvalues --  -38.43951 -38.43931 -38.43740 -38.43670 -38.43542
 Alpha  occ. eigenvalues --  -38.43211 -38.43202  -2.19833  -2.19746  -2.19539
 Alpha  occ. eigenvalues --   -2.19528  -2.19445  -2.19202  -2.19104  -1.13554
 Alpha  occ. eigenvalues --   -1.13500  -1.13452  -1.13432  -1.13406  -1.13373
 Alpha  occ. eigenvalues --   -1.13250  -1.13212  -1.13209  -1.13187  -1.13180
 Alpha  occ. eigenvalues --   -1.13142  -1.13114  -1.13068  -1.13064  -1.12894
 Alpha  occ. eigenvalues --   -1.12845  -1.12831  -1.12768  -1.12752  -1.12729
 Alpha  occ. eigenvalues --   -0.18753  -0.13115  -0.12449  -0.10748
 Alpha virt. eigenvalues --   -0.05639  -0.05269  -0.04696  -0.03169  -0.02849
 Alpha virt. eigenvalues --   -0.02574  -0.01408  -0.01203  -0.00465  -0.00292
 Alpha virt. eigenvalues --   -0.00006   0.00358   0.00825   0.00856   0.00912

  Beta  occ. eigenvalues --  -38.43941 -38.43928 -38.43741 -38.43666 -38.43446
  Beta  occ. eigenvalues --  -38.43195 -38.43145  -2.19820  -2.19743  -2.19542
  Beta  occ. eigenvalues --   -2.19525  -2.19267  -2.19095  -2.19082  -1.13539
  Beta  occ. eigenvalues --   -1.13463  -1.13446  -1.13421  -1.13393  -1.13374
  Beta  occ. eigenvalues --   -1.13253  -1.13208  -1.13199  -1.13183  -1.13166
  Beta  occ. eigenvalues --   -1.13144  -1.13000  -1.12944  -1.12936  -1.12830
  Beta  occ. eigenvalues --   -1.12776  -1.12746  -1.12738  -1.12722  -1.12699
  Beta  occ. eigenvalues --   -0.18013  -0.12880  -0.12225
  Beta virt. eigenvalues --   -0.06800  -0.05643  -0.05216  -0.04663  -0.02382
  Beta virt. eigenvalues --   -0.02090  -0.01496  -0.01328  -0.01135  -0.00506
  Beta virt. eigenvalues --   -0.00353   0.00139   0.00390   0.00844   0.00892

 Mulliken charges and spin densities:
               1          2
     1  Na  -0.028646  -0.118631
     2  Na  -0.059864  -0.080013
     3  Na   0.402466   0.001196
     4  Na   0.468025  -0.056859
     5  Na  -0.516126   0.805127
     6  Na  -0.227113   0.497027
     7  Na  -0.038742  -0.047848
 Sum of Mulliken charges =  -0.00000   1.00000

 Dipole moment (field-independent basis, Debye):
    X=             -0.3099    Y=              0.1701    Z=              0.1277  Tot=              0.3759
 Quadrupole moment (field-independent basis, Debye-Ang):
   XX=            -57.7346   YY=            -61.4577   ZZ=            -74.5994
   XY=             -0.2163   XZ=             -0.0815   YZ=              0.6073

 Normal termination of Gaussian 16 at Thu Dec  7 05:22:00 2023.
