 Gaussian 16, Revision B.01,
 Gaussian 16:  ES64L-G16RevB.01 20-Dec-2017

 -------------------------
 #P B3LYP/6-311+g(d) force
 -------------------------

 -----
 DPGEN
 -----
 Symbolic Z-matrix:
 Charge =  0 Multiplicity = 2

                         Standard orientation:
 ---------------------------------------------------------------------
 Center     Atomic      Atomic             Coordinates (Angstroms)
 Number     Number       Type             X           Y           Z
 ---------------------------------------------------------------------
      1         11           0        0.029067    0.455067   -1.713326
      2         11           0        1.260866    2.726569    0.321888
      3         11           0       -0.254901   -0.284803    1.717571
      4         11           0       -1.993947    2.029440   -0.117469
      5         11           0        3.357934   -0.770251    0.038401
      6         11           0       -3.127602   -1.591572    0.026299
      7         11           0        0.728584   -2.564450   -0.273364
 ---------------------------------------------------------------------

 SCF Done:  E(UB3LYP) =  -1136.13282472     A.U. after   20 cycles

 The electronic state is 2-A.
 Alpha  occ. eigenvalues --  -38.44339 -38.44141 -38.43774 -38.43525 -38.43467
 Alpha  occ. eigenvalues --  -38.43187 -38.43171  -2.20140  -2.19917  -2.19680
 Alpha  occ. eigenvalues --   -2.19378  -2.19360  -2.19148  -2.19134  -1.13820
 Alpha  occ. eigenvalues --   -1.13802  -1.13779  -1.13591  -1.13578  -1.13557
 Alpha  occ. eigenvalues --   -1.13431  -1.13347  -1.13282  -1.13089  -1.13064
 Alpha  occ. eigenvalues --   -1.13040  -1.13035  -1.13008  -1.12967  -1.12842
 Alpha  occ. eigenvalues --   -1.12799  -1.12775  -1.12772  -1.12750  -1.12725
 Alpha  occ. eigenvalues --   -0.18663  -0.13057  -0.12485  -0.10352
 Alpha virt. eigenvalues --   -0.05889  -0.05369  -0.04634  -0.03062  -0.02777
 Alpha virt. eigenvalues --   -0.02147  -0.01863  -0.01332  -0.00416  -0.00246
 Alpha virt. eigenvalues --   -0.00006   0.00307   0.00740   0.00822   0.00871

  Beta  occ. eigenvalues --  -38.44340 -38.44142 -38.43762 -38.43516 -38.43456
  Beta  occ. eigenvalues --  -38.43114 -38.43095  -2.20145  -2.19922  -2.19664
  Beta  occ. eigenvalues --   -2.19364  -2.19344  -2.19010  -2.19001  -1.13825
  Beta  occ. eigenvalues --   -1.13790  -1.13782  -1.13585  -1.13576  -1.13561
  Beta  occ. eigenvalues --   -1.13412  -1.13305  -1.13278  -1.13073  -1.13053
  Beta  occ. eigenvalues --   -1.13011  -1.12997  -1.12993  -1.12961  -1.12754
  Beta  occ. eigenvalues --   -1.12707  -1.12680  -1.12672  -1.12653  -1.12626
  Beta  occ. eigenvalues --   -0.17936  -0.12823  -0.12275
  Beta virt. eigenvalues --   -0.06459  -0.05851  -0.05340  -0.04596  -0.02264
  Beta virt. eigenvalues --   -0.02085  -0.01794  -0.01321  -0.01088  -0.00460
  Beta virt. eigenvalues --   -0.00252   0.00133   0.00334   0.00783   0.00822

 Mulliken charges and spin densities:
               1          2
     1  Na  -0.145985   0.607719
     2  Na  -0.023087  -0.058540
     3  Na  -0.349807   0.774445
     4  Na   0.346392  -0.041058
     5  Na  -0.019831  -0.081635
     6  Na   0.081961  -0.109579
     7  Na   0.110356  -0.091352
 Sum of Mulliken charges =  -0.00000   1.00000

 Dipole moment (field-independent basis, Debye):
    X=              0.0946    Y=              0.0045    Z=              0.0492  Tot=              0.1067
 Quadrupole moment (field-independent basis, Debye-Ang):
   XX=            -52.4695   YY=            -62.7198   ZZ=            -76.4808
   XY=              1.4782   XZ=              0.8884   YZ=              1.5924

 Normal termination of Gaussian 16 at Tue Dec  5 11:45:01 2023.
