 Gaussian 16, Revision B.01,
 Gaussian 16:  ES64L-G16RevB.01 20-Dec-2017

 -------------------------
 #P B3LYP/6-311+g(d) force
 -------------------------

 -----
 DPGEN
 -----
 Symbolic Z-matrix:
 Charge =  0 Multiplicity = 2

                         Standard orientation:
 ---------------------------------------------------------------------
 Center     Atomic      Atomic             Coordinates (Angstroms)
 Number     Number       Type             X           Y           Z
 ---------------------------------------------------------------------
      1         11           0        3.603163   -0.873267   -0.294905
      2         11           0        0.454347   -1.125194   -1.323442
      3         11           0        0.540042   -0.877550    2.161972
      4         11           0       -2.317503    0.517864   -0.640708
      5         11           0       -2.532339   -2.666117    0.044347
      6         11           0       -1.265371    3.249990    0.343594
      7         11           0        1.517662    1.774273   -0.290860
 ---------------------------------------------------------------------

 SCF Done:  E(UB3LYP) =  -1136.13051805     A.U. after   20 cycles

 The electronic state is 2-A.
 Alpha  occ. eigenvalues --  -38.44336 -38.43963 -38.43870 -38.43723 -38.43594
 Alpha  occ. eigenvalues --  -38.43545 -38.43284  -2.20166  -2.19769  -2.19707
 Alpha  occ. eigenvalues --   -2.19629  -2.19540  -2.19460  -2.19141  -1.13843
 Alpha  occ. eigenvalues --   -1.13824  -1.13801  -1.13458  -1.13424  -1.13411
 Alpha  occ. eigenvalues --   -1.13384  -1.13360  -1.13343  -1.13312  -1.13298
 Alpha  occ. eigenvalues --   -1.13260  -1.13245  -1.13203  -1.13161  -1.13137
 Alpha  occ. eigenvalues --   -1.13107  -1.13086  -1.12805  -1.12777  -1.12773
 Alpha  occ. eigenvalues --   -0.18341  -0.13365  -0.12525  -0.10535
 Alpha virt. eigenvalues --   -0.05994  -0.05407  -0.04622  -0.03211  -0.02846
 Alpha virt. eigenvalues --   -0.02337  -0.02003  -0.01411  -0.00524  -0.00163
 Alpha virt. eigenvalues --    0.00051   0.00233   0.00642   0.00768   0.00851

  Beta  occ. eigenvalues --  -38.44330 -38.43966 -38.43760 -38.43711 -38.43554
  Beta  occ. eigenvalues --  -38.43532 -38.43286  -2.20157  -2.19777  -2.19612
  Beta  occ. eigenvalues --   -2.19501  -2.19470  -2.19439  -2.19144  -1.13839
  Beta  occ. eigenvalues --   -1.13811  -1.13784  -1.13466  -1.13420  -1.13411
  Beta  occ. eigenvalues --   -1.13357  -1.13267  -1.13244  -1.13233  -1.13216
  Beta  occ. eigenvalues --   -1.13200  -1.13164  -1.13139  -1.13125  -1.13115
  Beta  occ. eigenvalues --   -1.13085  -1.13049  -1.12807  -1.12778  -1.12768
  Beta  occ. eigenvalues --   -0.17664  -0.13150  -0.12384
  Beta virt. eigenvalues --   -0.06565  -0.05861  -0.05380  -0.04512  -0.02531
  Beta virt. eigenvalues --   -0.02152  -0.01916  -0.01487  -0.01268  -0.00566
  Beta virt. eigenvalues --    0.00006   0.00167   0.00317   0.00731   0.00788

 Mulliken charges and spin densities:
               1          2
     1  Na   0.809550   0.075822
     2  Na  -0.054216   0.202633
     3  Na  -0.693413   0.672575
     4  Na  -0.572103   0.039440
     5  Na   0.372325  -0.046040
     6  Na   0.653443  -0.011781
     7  Na  -0.515585   0.067351
 Sum of Mulliken charges =  -0.00000   1.00000

 Dipole moment (field-independent basis, Debye):
    X=              0.4804    Y=             -0.5731    Z=              0.1764  Tot=              0.7683
 Quadrupole moment (field-independent basis, Debye-Ang):
   XX=            -54.8984   YY=            -62.6374   ZZ=            -75.4071
   XY=              0.3948   XZ=             -1.0026   YZ=              0.6627

 Normal termination of Gaussian 16 at Thu Dec  7 20:23:24 2023.
