 Gaussian 16, Revision B.01,
 Gaussian 16:  ES64L-G16RevB.01 20-Dec-2017

 -------------------------
 #P B3LYP/6-311+g(d) force
 -------------------------

 -----
 DPGEN
 -----
 Symbolic Z-matrix:
 Charge =  0 Multiplicity = 2

                         Standard orientation:
 ---------------------------------------------------------------------
 Center     Atomic      Atomic             Coordinates (Angstroms)
 Number     Number       Type             X           Y           Z
 ---------------------------------------------------------------------
      1         11           0       -2.269621   -2.250972   -1.374459
      2         11           0       -5.184231   -1.253674    0.228414
      3         11           0       -2.931337    1.120900    1.707309
      4         11           0       -1.116721    3.166090   -1.035936
      5         11           0        0.768726    0.577186   -0.173946
      6         11           0        4.083557   -1.484701    0.883397
      7         11           0        6.649627    0.125172   -0.234779
 ---------------------------------------------------------------------

 SCF Done:  E(UB3LYP) =  -1136.10837914     A.U. after   20 cycles

 The electronic state is 2-A.
 Alpha  occ. eigenvalues --  -38.44857 -38.44846 -38.44403 -38.44399 -38.44353
 Alpha  occ. eigenvalues --  -38.44103 -38.43532  -2.20631  -2.20625  -2.20176
 Alpha  occ. eigenvalues --   -2.20170  -2.20128  -2.19892  -2.19310  -1.14310
 Alpha  occ. eigenvalues --   -1.14286  -1.14285  -1.14274  -1.14271  -1.14223
 Alpha  occ. eigenvalues --   -1.13848  -1.13846  -1.13842  -1.13831  -1.13815
 Alpha  occ. eigenvalues --   -1.13814  -1.13796  -1.13772  -1.13741  -1.13581
 Alpha  occ. eigenvalues --   -1.13552  -1.13500  -1.12987  -1.12970  -1.12959
 Alpha  occ. eigenvalues --   -0.15762  -0.13647  -0.11959  -0.10715
 Alpha virt. eigenvalues --   -0.07057  -0.05557  -0.04757  -0.03404  -0.02963
 Alpha virt. eigenvalues --   -0.02525  -0.02109  -0.01761  -0.01708  -0.00797
 Alpha virt. eigenvalues --   -0.00394  -0.00286   0.00182   0.00312   0.00505

  Beta  occ. eigenvalues --  -38.44829 -38.44777 -38.44408 -38.44407 -38.44285
  Beta  occ. eigenvalues --  -38.44072 -38.43536  -2.20578  -2.20498  -2.20189
  Beta  occ. eigenvalues --   -2.20184  -2.20000  -2.19835  -2.19320  -1.14250
  Beta  occ. eigenvalues --   -1.14248  -1.14241  -1.14219  -1.14187  -1.14132
  Beta  occ. eigenvalues --   -1.13856  -1.13853  -1.13848  -1.13844  -1.13818
  Beta  occ. eigenvalues --   -1.13812  -1.13709  -1.13685  -1.13653  -1.13543
  Beta  occ. eigenvalues --   -1.13505  -1.13463  -1.12996  -1.12970  -1.12955
  Beta  occ. eigenvalues --   -0.15110  -0.13373  -0.11865
  Beta virt. eigenvalues --   -0.07376  -0.06446  -0.05245  -0.04417  -0.03069
  Beta virt. eigenvalues --   -0.02617  -0.02297  -0.01966  -0.01545  -0.01324
  Beta virt. eigenvalues --   -0.00585  -0.00312  -0.00130   0.00373   0.00441

 Mulliken charges and spin densities:
               1          2
     1  Na   0.351343   0.386699
     2  Na  -0.094363  -0.057877
     3  Na   0.311965   0.435997
     4  Na   1.260380   0.096561
     5  Na  -1.752302   0.092855
     6  Na  -0.110974  -0.089800
     7  Na   0.033952   0.135566
 Sum of Mulliken charges =  -0.00000   1.00000

 Dipole moment (field-independent basis, Debye):
    X=              0.8859    Y=              0.9087    Z=             -0.3153  Tot=              1.3077
 Quadrupole moment (field-independent basis, Debye-Ang):
   XX=            -59.5392   YY=            -67.9778   ZZ=            -68.2163
   XY=              1.1664   XZ=             -1.5477   YZ=             -4.5427

 Normal termination of Gaussian 16 at Tue Nov 28 22:42:07 2023.
