 Gaussian 16, Revision B.01,
 Gaussian 16:  ES64L-G16RevB.01 20-Dec-2017

 -------------------------
 #P B3LYP/6-311+g(d) force
 -------------------------

 -----
 DPGEN
 -----
 Symbolic Z-matrix:
 Charge =  0 Multiplicity = 2

                         Standard orientation:
 ---------------------------------------------------------------------
 Center     Atomic      Atomic             Coordinates (Angstroms)
 Number     Number       Type             X           Y           Z
 ---------------------------------------------------------------------
      1         11           0        0.459992   -2.001551   -0.332846
      2         11           0        1.255174    1.866183   -0.470946
      3         11           0        2.463205   -0.449541    0.407154
      4         11           0       -0.216218    0.157246   -1.610926
      5         11           0       -0.271515   -0.448054    1.687254
      6         11           0       -2.306013   -0.879664   -0.319846
      7         11           0       -1.384626    1.755381    0.640154
 ---------------------------------------------------------------------

 SCF Done:  E(UB3LYP) =  -1136.05165014     A.U. after   20 cycles

 The electronic state is 2-A.
 Alpha  occ. eigenvalues --  -38.45085 -38.44560 -38.44232 -38.44072 -38.44026
 Alpha  occ. eigenvalues --  -38.43922 -38.43757  -2.21514  -2.20879  -2.20395
 Alpha  occ. eigenvalues --   -2.20308  -2.20184  -2.20082  -2.19914  -1.15515
 Alpha  occ. eigenvalues --   -1.15331  -1.15145  -1.14830  -1.14677  -1.14506
 Alpha  occ. eigenvalues --   -1.14349  -1.14197  -1.13963  -1.13947  -1.13881
 Alpha  occ. eigenvalues --   -1.13851  -1.13837  -1.13757  -1.13717  -1.13692
 Alpha  occ. eigenvalues --   -1.13635  -1.13600  -1.13536  -1.13489  -1.13405
 Alpha  occ. eigenvalues --   -0.22107  -0.13978  -0.13082  -0.12601
 Alpha virt. eigenvalues --   -0.05128  -0.04173  -0.04054  -0.03862  -0.03350
 Alpha virt. eigenvalues --   -0.02990  -0.00952  -0.00424  -0.00093   0.00327
 Alpha virt. eigenvalues --    0.00871   0.00985   0.01072   0.01184   0.01241

  Beta  occ. eigenvalues --  -38.44989 -38.44470 -38.44219 -38.44050 -38.44010
  Beta  occ. eigenvalues --  -38.43905 -38.43733  -2.21344  -2.20720  -2.20371
  Beta  occ. eigenvalues --   -2.20282  -2.20160  -2.20057  -2.19876  -1.15386
  Beta  occ. eigenvalues --   -1.15233  -1.15027  -1.14730  -1.14575  -1.14431
  Beta  occ. eigenvalues --   -1.14299  -1.14182  -1.13918  -1.13896  -1.13856
  Beta  occ. eigenvalues --   -1.13805  -1.13777  -1.13719  -1.13693  -1.13626
  Beta  occ. eigenvalues --   -1.13619  -1.13585  -1.13498  -1.13431  -1.13386
  Beta  occ. eigenvalues --   -0.21317  -0.13614  -0.12720
  Beta virt. eigenvalues --   -0.08309  -0.05143  -0.04158  -0.03990  -0.02888
  Beta virt. eigenvalues --   -0.02443  -0.01835  -0.00887  -0.00381   0.00054
  Beta virt. eigenvalues --    0.00357   0.00872   0.00982   0.01092   0.01183

 Mulliken charges and spin densities:
               1          2
     1  Na   0.280055   0.073263
     2  Na   0.398163   0.148728
     3  Na  -0.180700  -0.009062
     4  Na  -0.407387   0.351443
     5  Na  -0.257157   0.445711
     6  Na   0.012225  -0.092163
     7  Na   0.154801   0.082081
 Sum of Mulliken charges =  -0.00000   1.00000

 Dipole moment (field-independent basis, Debye):
    X=             -0.0129    Y=              0.1521    Z=              0.3115  Tot=              0.3469
 Quadrupole moment (field-independent basis, Debye-Ang):
   XX=            -61.2096   YY=            -69.6538   ZZ=            -68.1149
   XY=              0.2980   XZ=              0.5331   YZ=              0.9546

 Normal termination of Gaussian 16 at Sat Dec  9 05:31:54 2023.
