 Gaussian 16, Revision B.01,
 Gaussian 16:  ES64L-G16RevB.01 20-Dec-2017

 -------------------------
 #P B3LYP/6-311+g(d) force
 -------------------------

 -----
 DPGEN
 -----
 Symbolic Z-matrix:
 Charge =  0 Multiplicity = 2

                         Standard orientation:
 ---------------------------------------------------------------------
 Center     Atomic      Atomic             Coordinates (Angstroms)
 Number     Number       Type             X           Y           Z
 ---------------------------------------------------------------------
      1         11           0        2.857631   -1.885359   -0.183979
      2         11           0       -3.250164   -1.332109   -1.082594
      3         11           0       -2.094746    0.539240    1.586614
      4         11           0       -0.010437   -2.582973    0.775058
      5         11           0        0.316038    0.357435   -1.080242
      6         11           0        3.376342    1.729617    0.144919
      7         11           0       -1.194664    3.174149   -0.159776
 ---------------------------------------------------------------------

 SCF Done:  E(UB3LYP) =  -1136.12255800     A.U. after   22 cycles

 The electronic state is 2-A.
 Alpha  occ. eigenvalues --  -38.44564 -38.44300 -38.44125 -38.43996 -38.43867
 Alpha  occ. eigenvalues --  -38.43581 -38.43272  -2.20339  -2.20158  -2.20024
 Alpha  occ. eigenvalues --   -2.19849  -2.19688  -2.19410  -2.19140  -1.14006
 Alpha  occ. eigenvalues --   -1.13979  -1.13972  -1.13844  -1.13823  -1.13784
 Alpha  occ. eigenvalues --   -1.13742  -1.13698  -1.13642  -1.13544  -1.13519
 Alpha  occ. eigenvalues --   -1.13472  -1.13356  -1.13341  -1.13322  -1.13066
 Alpha  occ. eigenvalues --   -1.13047  -1.13017  -1.12820  -1.12802  -1.12757
 Alpha  occ. eigenvalues --   -0.17690  -0.13706  -0.12484  -0.09820
 Alpha virt. eigenvalues --   -0.06788  -0.05685  -0.04829  -0.03059  -0.02634
 Alpha virt. eigenvalues --   -0.02408  -0.01646  -0.01431  -0.01200  -0.00617
 Alpha virt. eigenvalues --   -0.00217   0.00185   0.00352   0.00526   0.00755

  Beta  occ. eigenvalues --  -38.44529 -38.44275 -38.44126 -38.43987 -38.43858
  Beta  occ. eigenvalues --  -38.43493 -38.43245  -2.20273  -2.20114  -2.20025
  Beta  occ. eigenvalues --   -2.19835  -2.19673  -2.19245  -2.19093  -1.13958
  Beta  occ. eigenvalues --   -1.13936  -1.13929  -1.13813  -1.13792  -1.13741
  Beta  occ. eigenvalues --   -1.13730  -1.13710  -1.13642  -1.13529  -1.13509
  Beta  occ. eigenvalues --   -1.13448  -1.13348  -1.13321  -1.13311  -1.12952
  Beta  occ. eigenvalues --   -1.12935  -1.12910  -1.12792  -1.12769  -1.12710
  Beta  occ. eigenvalues --   -0.17374  -0.13213  -0.12038
  Beta virt. eigenvalues --   -0.06618  -0.06404  -0.05369  -0.04645  -0.02786
  Beta virt. eigenvalues --   -0.02197  -0.02047  -0.01456  -0.01103  -0.00855
  Beta virt. eigenvalues --   -0.00492   0.00034   0.00357   0.00535   0.00594

 Mulliken charges and spin densities:
               1          2
     1  Na   0.242040   0.042589
     2  Na  -0.010349   0.425419
     3  Na  -0.007025   0.128127
     4  Na  -0.297858   0.083240
     5  Na   0.121562   0.152079
     6  Na  -0.139551   0.168136
     7  Na   0.091181   0.000411
 Sum of Mulliken charges =  -0.00000   1.00000

 Dipole moment (field-independent basis, Debye):
    X=              0.6615    Y=              0.6127    Z=              0.6491  Tot=              1.1110
 Quadrupole moment (field-independent basis, Debye-Ang):
   XX=            -61.8385   YY=            -66.9614   ZZ=            -70.0815
   XY=             -2.0843   XZ=             -0.7818   YZ=             -0.3358

 Normal termination of Gaussian 16 at Tue Dec  5 22:20:03 2023.
