 Gaussian 16, Revision B.01,
 Gaussian 16:  ES64L-G16RevB.01 20-Dec-2017

 -------------------------
 #P B3LYP/6-311+g(d) force
 -------------------------

 -----
 DPGEN
 -----
 Symbolic Z-matrix:
 Charge =  0 Multiplicity = 2

                         Standard orientation:
 ---------------------------------------------------------------------
 Center     Atomic      Atomic             Coordinates (Angstroms)
 Number     Number       Type             X           Y           Z
 ---------------------------------------------------------------------
      1         11           0        0.621581   -1.919226   -0.320629
      2         11           0        3.731905   -2.777296   -0.324120
      3         11           0        3.205504    0.605091    0.645316
      4         11           0        2.232997    3.486363   -0.630513
      5         11           0       -0.207555    1.206296    0.488267
      6         11           0       -3.243377   -0.558207    0.564287
      7         11           0       -6.341055   -0.043021   -0.422609
 ---------------------------------------------------------------------

 SCF Done:  E(UB3LYP) =  -1136.12580031     A.U. after   19 cycles

 The electronic state is 2-A.
 Alpha  occ. eigenvalues --  -38.44476 -38.44386 -38.44173 -38.43934 -38.43895
 Alpha  occ. eigenvalues --  -38.43678 -38.43301  -2.20284  -2.20248  -2.20027
 Alpha  occ. eigenvalues --   -2.19780  -2.19750  -2.19505  -2.19105  -1.13959
 Alpha  occ. eigenvalues --   -1.13935  -1.13914  -1.13914  -1.13909  -1.13839
 Alpha  occ. eigenvalues --   -1.13735  -1.13709  -1.13637  -1.13479  -1.13468
 Alpha  occ. eigenvalues --   -1.13418  -1.13408  -1.13388  -1.13336  -1.13164
 Alpha  occ. eigenvalues --   -1.13158  -1.13135  -1.12797  -1.12790  -1.12751
 Alpha  occ. eigenvalues --   -0.17133  -0.13827  -0.12548  -0.11351
 Alpha virt. eigenvalues --   -0.05820  -0.05252  -0.04738  -0.03871  -0.02496
 Alpha virt. eigenvalues --   -0.02272  -0.02012  -0.01928  -0.01023  -0.00732
 Alpha virt. eigenvalues --   -0.00388  -0.00082   0.00191   0.00544   0.00699

  Beta  occ. eigenvalues --  -38.44373 -38.44364 -38.44147 -38.43921 -38.43855
  Beta  occ. eigenvalues --  -38.43660 -38.43305  -2.20209  -2.20092  -2.19983
  Beta  occ. eigenvalues --   -2.19726  -2.19709  -2.19471  -2.19122  -1.13926
  Beta  occ. eigenvalues --   -1.13911  -1.13807  -1.13784  -1.13783  -1.13782
  Beta  occ. eigenvalues --   -1.13702  -1.13682  -1.13588  -1.13434  -1.13424
  Beta  occ. eigenvalues --   -1.13395  -1.13391  -1.13365  -1.13280  -1.13140
  Beta  occ. eigenvalues --   -1.13134  -1.13113  -1.12817  -1.12809  -1.12696
  Beta  occ. eigenvalues --   -0.16586  -0.12879  -0.12418
  Beta virt. eigenvalues --   -0.07885  -0.05698  -0.04777  -0.04347  -0.03666
  Beta virt. eigenvalues --   -0.02218  -0.02113  -0.01772  -0.01369  -0.00878
  Beta virt. eigenvalues --   -0.00406  -0.00125   0.00058   0.00358   0.00639

 Mulliken charges and spin densities:
               1          2
     1  Na  -1.123242   0.077979
     2  Na   1.339847   0.118549
     3  Na  -0.092672   0.260910
     4  Na   0.558744   0.070444
     5  Na  -0.811058   0.036940
     6  Na  -0.158212  -0.046400
     7  Na   0.286592   0.481578
 Sum of Mulliken charges =  -0.00000   1.00000

 Dipole moment (field-independent basis, Debye):
    X=              1.0587    Y=              0.3919    Z=             -0.4935  Tot=              1.2321
 Quadrupole moment (field-independent basis, Debye-Ang):
   XX=            -60.6809   YY=            -63.8007   ZZ=            -70.1368
   XY=             -1.6892   XZ=              1.7076   YZ=             -1.3212

 Normal termination of Gaussian 16 at Wed Nov 29 00:03:05 2023.
