 Gaussian 16, Revision B.01,
 Gaussian 16:  ES64L-G16RevB.01 20-Dec-2017

 -------------------------
 #P B3LYP/6-311+g(d) force
 -------------------------

 -----
 DPGEN
 -----
 Symbolic Z-matrix:
 Charge =  0 Multiplicity = 2

                         Standard orientation:
 ---------------------------------------------------------------------
 Center     Atomic      Atomic             Coordinates (Angstroms)
 Number     Number       Type             X           Y           Z
 ---------------------------------------------------------------------
      1         11           0        1.208215   -1.544089    1.004142
      2         11           0        4.679780   -0.679439   -0.862398
      3         11           0        0.048473    1.405774    2.344794
      4         11           0       -1.978748   -1.616369    0.585823
      5         11           0       -4.151013   -0.775952   -1.329923
      6         11           0        1.946722    1.131399   -1.272277
      7         11           0       -1.753429    2.078677   -0.470160
 ---------------------------------------------------------------------

 SCF Done:  E(UB3LYP) =  -1136.12021854     A.U. after   23 cycles

 The electronic state is 2-A.
 Alpha  occ. eigenvalues --  -38.44790 -38.44709 -38.44669 -38.43860 -38.43793
 Alpha  occ. eigenvalues --  -38.43575 -38.43068  -2.20666  -2.20531  -2.20496
 Alpha  occ. eigenvalues --   -2.19695  -2.19645  -2.19394  -2.18898  -1.14366
 Alpha  occ. eigenvalues --   -1.14308  -1.14269  -1.14224  -1.14191  -1.14183
 Alpha  occ. eigenvalues --   -1.14148  -1.14131  -1.14089  -1.13396  -1.13356
 Alpha  occ. eigenvalues --   -1.13320  -1.13314  -1.13310  -1.13274  -1.13079
 Alpha  occ. eigenvalues --   -1.13054  -1.13038  -1.12573  -1.12546  -1.12533
 Alpha  occ. eigenvalues --   -0.17772  -0.13618  -0.12207  -0.11300
 Alpha virt. eigenvalues --   -0.06451  -0.05201  -0.04745  -0.03517  -0.02930
 Alpha virt. eigenvalues --   -0.02451  -0.02330  -0.01272  -0.01143  -0.00217
 Alpha virt. eigenvalues --   -0.00022   0.00062   0.00368   0.00477   0.00626

  Beta  occ. eigenvalues --  -38.44713 -38.44677 -38.44605 -38.43857 -38.43752
  Beta  occ. eigenvalues --  -38.43581 -38.43066  -2.20527  -2.20471  -2.20378
  Beta  occ. eigenvalues --   -2.19641  -2.19623  -2.19408  -2.18896  -1.14273
  Beta  occ. eigenvalues --   -1.14220  -1.14185  -1.14162  -1.14136  -1.14101
  Beta  occ. eigenvalues --   -1.14081  -1.14073  -1.13999  -1.13332  -1.13309
  Beta  occ. eigenvalues --   -1.13305  -1.13294  -1.13279  -1.13274  -1.13090
  Beta  occ. eigenvalues --   -1.13056  -1.13033  -1.12571  -1.12545  -1.12526
  Beta  occ. eigenvalues --   -0.16923  -0.13465  -0.11209
  Beta virt. eigenvalues --   -0.08173  -0.06096  -0.04757  -0.04401  -0.02840
  Beta virt. eigenvalues --   -0.02409  -0.02393  -0.02167  -0.01137  -0.00719
  Beta virt. eigenvalues --   -0.00071   0.00075   0.00215   0.00414   0.00623

 Mulliken charges and spin densities:
               1          2
     1  Na  -0.234860   0.431979
     2  Na   0.642000  -0.026667
     3  Na   0.247809   0.057555
     4  Na  -0.388192  -0.044759
     5  Na   0.360773   0.072562
     6  Na  -0.407252   0.152907
     7  Na  -0.220277   0.356423
 Sum of Mulliken charges =  -0.00000   1.00000

 Dipole moment (field-independent basis, Debye):
    X=              0.7885    Y=              0.6765    Z=              0.3729  Tot=              1.1038
 Quadrupole moment (field-independent basis, Debye-Ang):
   XX=            -64.1347   YY=            -68.7360   ZZ=            -67.6780
   XY=             -4.9386   XZ=              2.6667   YZ=             -3.4820

 Normal termination of Gaussian 16 at Sun Dec  3 13:08:23 2023.
