 Gaussian 16, Revision B.01,
 Gaussian 16:  ES64L-G16RevB.01 20-Dec-2017

 -------------------------
 #P B3LYP/6-311+g(d) force
 -------------------------

 -----
 DPGEN
 -----
 Symbolic Z-matrix:
 Charge =  0 Multiplicity = 2

                         Standard orientation:
 ---------------------------------------------------------------------
 Center     Atomic      Atomic             Coordinates (Angstroms)
 Number     Number       Type             X           Y           Z
 ---------------------------------------------------------------------
      1         11           0       -0.050032    0.129255   -1.672749
      2         11           0        2.896894    0.555854    0.076916
      3         11           0       -1.823596   -2.154549    0.074732
      4         11           0        1.351802   -2.289344   -0.319049
      5         11           0        0.106708   -0.203574    1.859727
      6         11           0        0.254232    2.817397    0.003028
      7         11           0       -2.736007    1.144960   -0.022604
 ---------------------------------------------------------------------

 SCF Done:  E(UB3LYP) =  -1136.13834062     A.U. after   18 cycles

 The electronic state is 2-A.
 Alpha  occ. eigenvalues --  -38.43596 -38.43529 -38.43382 -38.43300 -38.43266
 Alpha  occ. eigenvalues --  -38.43215 -38.43052  -2.19467  -2.19421  -2.19271
 Alpha  occ. eigenvalues --   -2.19257  -2.19221  -2.19183  -2.19108  -1.13161
 Alpha  occ. eigenvalues --   -1.13131  -1.13122  -1.13114  -1.13088  -1.13075
 Alpha  occ. eigenvalues --   -1.13016  -1.12987  -1.12943  -1.12929  -1.12907
 Alpha  occ. eigenvalues --   -1.12892  -1.12885  -1.12882  -1.12864  -1.12834
 Alpha  occ. eigenvalues --   -1.12804  -1.12767  -1.12759  -1.12708  -1.12703
 Alpha  occ. eigenvalues --   -0.19519  -0.13055  -0.12908  -0.10948
 Alpha virt. eigenvalues --   -0.05228  -0.04898  -0.04751  -0.03095  -0.03039
 Alpha virt. eigenvalues --   -0.02482  -0.01270  -0.01031  -0.00065  -0.00025
 Alpha virt. eigenvalues --    0.00070   0.00371   0.00904   0.00960   0.00973

  Beta  occ. eigenvalues --  -38.43592 -38.43524 -38.43377 -38.43293 -38.43201
  Beta  occ. eigenvalues --  -38.43179 -38.42977  -2.19464  -2.19415  -2.19265
  Beta  occ. eigenvalues --   -2.19213  -2.19163  -2.19098  -2.18971  -1.13156
  Beta  occ. eigenvalues --   -1.13119  -1.13116  -1.13104  -1.13075  -1.13051
  Beta  occ. eigenvalues --   -1.12986  -1.12971  -1.12910  -1.12886  -1.12880
  Beta  occ. eigenvalues --   -1.12870  -1.12857  -1.12823  -1.12793  -1.12761
  Beta  occ. eigenvalues --   -1.12740  -1.12733  -1.12674  -1.12616  -1.12610
  Beta  occ. eigenvalues --   -0.18764  -0.12784  -0.12624
  Beta virt. eigenvalues --   -0.06965  -0.05226  -0.04897  -0.04741  -0.02270
  Beta virt. eigenvalues --   -0.02199  -0.01402  -0.01200  -0.00965  -0.00122
  Beta virt. eigenvalues --   -0.00032   0.00143   0.00385   0.00930   0.00956

 Mulliken charges and spin densities:
               1          2
     1  Na  -0.446977   0.552943
     2  Na   0.179415  -0.060988
     3  Na   0.260279  -0.043811
     4  Na   0.400441   0.007993
     5  Na  -0.572008   0.751101
     6  Na   0.101649  -0.108173
     7  Na   0.077200  -0.099066
 Sum of Mulliken charges =  -0.00000   1.00000

 Dipole moment (field-independent basis, Debye):
    X=             -0.0600    Y=              0.1871    Z=              0.1385  Tot=              0.2404
 Quadrupole moment (field-independent basis, Debye-Ang):
   XX=            -58.2475   YY=            -61.8684   ZZ=            -73.5342
   XY=              0.3393   XZ=             -0.2939   YZ=              0.7171

 Normal termination of Gaussian 16 at Fri Dec  8 18:34:28 2023.
