 Gaussian 16, Revision B.01,
 Gaussian 16:  ES64L-G16RevB.01 20-Dec-2017

 -------------------------
 #P B3LYP/6-311+g(d) force
 -------------------------

 -----
 DPGEN
 -----
 Symbolic Z-matrix:
 Charge =  0 Multiplicity = 2

                         Standard orientation:
 ---------------------------------------------------------------------
 Center     Atomic      Atomic             Coordinates (Angstroms)
 Number     Number       Type             X           Y           Z
 ---------------------------------------------------------------------
      1         11           0        5.699489   -0.223465    0.355612
      2         11           0       -0.438244   -0.650342   -0.725712
      3         11           0       -3.154847    2.540910   -0.714262
      4         11           0        8.270765    1.224433    0.412594
      5         11           0       -5.212795   -0.219547    1.127106
      6         11           0        2.640656   -2.213505   -0.544652
      7         11           0       -7.805024   -0.458483    0.089314
 ---------------------------------------------------------------------

 SCF Done:  E(UB3LYP) =  -1136.10064811     A.U. after   19 cycles

 The electronic state is 2-A.
 Alpha  occ. eigenvalues --  -38.45954 -38.44844 -38.44649 -38.44631 -38.44301
 Alpha  occ. eigenvalues --  -38.44058 -38.43588  -2.21721  -2.20695  -2.20468
 Alpha  occ. eigenvalues --   -2.20374  -2.20090  -2.19878  -2.19400  -1.15368
 Alpha  occ. eigenvalues --   -1.15340  -1.15335  -1.14555  -1.14312  -1.14308
 Alpha  occ. eigenvalues --   -1.14113  -1.14092  -1.14073  -1.14069  -1.14049
 Alpha  occ. eigenvalues --   -1.14009  -1.13747  -1.13740  -1.13706  -1.13599
 Alpha  occ. eigenvalues --   -1.13511  -1.13511  -1.13061  -1.13060  -1.13042
 Alpha  occ. eigenvalues --   -0.15345  -0.14172  -0.12743  -0.11693
 Alpha virt. eigenvalues --   -0.06711  -0.05556  -0.04304  -0.03516  -0.02948
 Alpha virt. eigenvalues --   -0.02822  -0.02372  -0.02059  -0.01611  -0.01295
 Alpha virt. eigenvalues --   -0.01102  -0.00534  -0.00288   0.00302   0.00350

  Beta  occ. eigenvalues --  -38.45843 -38.44791 -38.44675 -38.44631 -38.44247
  Beta  occ. eigenvalues --  -38.44025 -38.43593  -2.21514  -2.20599  -2.20474
  Beta  occ. eigenvalues --   -2.20426  -2.19988  -2.19817  -2.19413  -1.15227
  Beta  occ. eigenvalues --   -1.15202  -1.15194  -1.14503  -1.14249  -1.14243
  Beta  occ. eigenvalues --   -1.14120  -1.14113  -1.14108  -1.14094  -1.14015
  Beta  occ. eigenvalues --   -1.14009  -1.13677  -1.13670  -1.13645  -1.13561
  Beta  occ. eigenvalues --   -1.13470  -1.13470  -1.13072  -1.13072  -1.13024
  Beta  occ. eigenvalues --   -0.14635  -0.13687  -0.12093
  Beta virt. eigenvalues --   -0.08572  -0.06303  -0.05207  -0.03950  -0.03287
  Beta virt. eigenvalues --   -0.02737  -0.02540  -0.02125  -0.01842  -0.01438
  Beta virt. eigenvalues --   -0.00941  -0.00634  -0.00353  -0.00075   0.00335

 Mulliken charges and spin densities:
               1          2
     1  Na  -0.617540   0.067591
     2  Na   0.167223  -0.077910
     3  Na   0.488295   0.464934
     4  Na   0.406148   0.105613
     5  Na  -0.442053  -0.006820
     6  Na  -0.482441   0.234912
     7  Na   0.480368   0.211679
 Sum of Mulliken charges =  -0.00000   1.00000

 Dipole moment (field-independent basis, Debye):
    X=             -2.2902    Y=              0.8981    Z=             -0.3640  Tot=              2.4868
 Quadrupole moment (field-independent basis, Debye-Ang):
   XX=            -52.5982   YY=            -65.3272   ZZ=            -73.5071
   XY=              0.0761   XZ=              4.1407   YZ=             -1.4688

 Normal termination of Gaussian 16 at Sun Dec  3 15:21:17 2023.
