 Gaussian 16, Revision B.01,
 Gaussian 16:  ES64L-G16RevB.01 20-Dec-2017

 -------------------------
 #P B3LYP/6-311+g(d) force
 -------------------------

 -----
 DPGEN
 -----
 Symbolic Z-matrix:
 Charge =  0 Multiplicity = 2

                         Standard orientation:
 ---------------------------------------------------------------------
 Center     Atomic      Atomic             Coordinates (Angstroms)
 Number     Number       Type             X           Y           Z
 ---------------------------------------------------------------------
      1         11           0        2.774940   -1.437623   -0.802537
      2         11           0       -3.620057   -0.072543   -0.619211
      3         11           0       -0.137945   -0.145946   -1.512736
      4         11           0        2.308067    2.113483   -0.411710
      5         11           0       -1.263791    2.337399    0.606300
      6         11           0        0.817075   -0.396446    2.300184
      7         11           0       -0.878290   -2.398325    0.439711
 ---------------------------------------------------------------------

 SCF Done:  E(UB3LYP) =  -1136.13299799     A.U. after   20 cycles

 The electronic state is 2-A.
 Alpha  occ. eigenvalues --  -38.44292 -38.44147 -38.44123 -38.43522 -38.43509
 Alpha  occ. eigenvalues --  -38.43293 -38.43168  -2.20085  -2.20017  -2.19956
 Alpha  occ. eigenvalues --   -2.19492  -2.19334  -2.19116  -2.19052  -1.13760
 Alpha  occ. eigenvalues --   -1.13732  -1.13722  -1.13694  -1.13655  -1.13637
 Alpha  occ. eigenvalues --   -1.13628  -1.13602  -1.13573  -1.13220  -1.13155
 Alpha  occ. eigenvalues --   -1.13107  -1.13013  -1.12991  -1.12971  -1.12800
 Alpha  occ. eigenvalues --   -1.12789  -1.12749  -1.12730  -1.12729  -1.12638
 Alpha  occ. eigenvalues --   -0.18377  -0.13104  -0.11852  -0.11342
 Alpha virt. eigenvalues --   -0.05910  -0.05138  -0.04103  -0.03287  -0.03023
 Alpha virt. eigenvalues --   -0.02904  -0.01920  -0.00997  -0.00469  -0.00069
 Alpha virt. eigenvalues --    0.00109   0.00294   0.00637   0.00809   0.00868

  Beta  occ. eigenvalues --  -38.44284 -38.44100 -38.44042 -38.43520 -38.43467
  Beta  occ. eigenvalues --  -38.43283 -38.43156  -2.20070  -2.19917  -2.19824
  Beta  occ. eigenvalues --   -2.19417  -2.19333  -2.19099  -2.19035  -1.13744
  Beta  occ. eigenvalues --   -1.13724  -1.13713  -1.13615  -1.13583  -1.13562
  Beta  occ. eigenvalues --   -1.13543  -1.13500  -1.13487  -1.13172  -1.13103
  Beta  occ. eigenvalues --   -1.13049  -1.13003  -1.12991  -1.12959  -1.12790
  Beta  occ. eigenvalues --   -1.12764  -1.12740  -1.12718  -1.12682  -1.12630
  Beta  occ. eigenvalues --   -0.17667  -0.12830  -0.11629
  Beta virt. eigenvalues --   -0.07399  -0.05768  -0.05105  -0.03915  -0.02802
  Beta virt. eigenvalues --   -0.02236  -0.01936  -0.01752  -0.00976  -0.00298
  Beta virt. eigenvalues --    0.00029   0.00104   0.00341   0.00788   0.00843

 Mulliken charges and spin densities:
               1          2
     1  Na   0.217546   0.008353
     2  Na   0.197138   0.025818
     3  Na  -0.168503   0.252812
     4  Na  -0.053135   0.019244
     5  Na  -0.106656   0.090821
     6  Na  -0.259039   0.561192
     7  Na   0.172649   0.041760
 Sum of Mulliken charges =  -0.00000   1.00000

 Dipole moment (field-independent basis, Debye):
    X=              0.0386    Y=             -0.1536    Z=              0.0864  Tot=              0.1804
 Quadrupole moment (field-independent basis, Debye-Ang):
   XX=            -53.0664   YY=            -69.7773   ZZ=            -70.5069
   XY=             -0.2232   XZ=             -0.1434   YZ=              0.9511

 Normal termination of Gaussian 16 at Tue Dec  5 11:38:45 2023.
