 Gaussian 16, Revision B.01,
 Gaussian 16:  ES64L-G16RevB.01 20-Dec-2017

 -------------------------
 #P B3LYP/6-311+g(d) force
 -------------------------

 -----
 DPGEN
 -----
 Symbolic Z-matrix:
 Charge =  0 Multiplicity = 2

                         Standard orientation:
 ---------------------------------------------------------------------
 Center     Atomic      Atomic             Coordinates (Angstroms)
 Number     Number       Type             X           Y           Z
 ---------------------------------------------------------------------
      1         11           0        3.961806   -2.060643    0.356814
      2         11           0        4.536216    1.414288    0.289097
      3         11           0       -2.380993    3.439948   -0.524328
      4         11           0        0.505964   -2.865666   -0.680402
      5         11           0        0.893299    2.732604   -0.219887
      6         11           0       -3.375506   -2.703521   -0.272217
      7         11           0       -4.140786    0.042990    1.050922
 ---------------------------------------------------------------------

 SCF Done:  E(UB3LYP) =  -1136.10638339     A.U. after   23 cycles

 The electronic state is 2-A.
 Alpha  occ. eigenvalues --  -38.45184 -38.45147 -38.44804 -38.44654 -38.44310
 Alpha  occ. eigenvalues --  -38.44292 -38.43989  -2.20935  -2.20928  -2.20551
 Alpha  occ. eigenvalues --   -2.20419  -2.20099  -2.20084  -2.19766  -1.14618
 Alpha  occ. eigenvalues --   -1.14603  -1.14595  -1.14594  -1.14576  -1.14562
 Alpha  occ. eigenvalues --   -1.14241  -1.14234  -1.14176  -1.14082  -1.14076
 Alpha  occ. eigenvalues --   -1.14021  -1.13771  -1.13765  -1.13743  -1.13736
 Alpha  occ. eigenvalues --   -1.13722  -1.13709  -1.13429  -1.13413  -1.13409
 Alpha  occ. eigenvalues --   -0.15351  -0.13960  -0.13013  -0.10933
 Alpha virt. eigenvalues --   -0.07615  -0.05081  -0.04596  -0.03553  -0.03450
 Alpha virt. eigenvalues --   -0.02507  -0.02138  -0.01979  -0.01153  -0.01079
 Alpha virt. eigenvalues --   -0.00688  -0.00275  -0.00023   0.00256   0.00626

  Beta  occ. eigenvalues --  -38.45192 -38.45104 -38.44797 -38.44577 -38.44308
  Beta  occ. eigenvalues --  -38.44220 -38.43963  -2.20949  -2.20858  -2.20542
  Beta  occ. eigenvalues --   -2.20277  -2.20100  -2.19948  -2.19719  -1.14637
  Beta  occ. eigenvalues --   -1.14613  -1.14553  -1.14550  -1.14543  -1.14502
  Beta  occ. eigenvalues --   -1.14238  -1.14231  -1.14143  -1.13986  -1.13980
  Beta  occ. eigenvalues --   -1.13926  -1.13768  -1.13767  -1.13726  -1.13644
  Beta  occ. eigenvalues --   -1.13629  -1.13622  -1.13397  -1.13383  -1.13371
  Beta  occ. eigenvalues --   -0.14799  -0.13306  -0.12359
  Beta virt. eigenvalues --   -0.07790  -0.07650  -0.04722  -0.04077  -0.03357
  Beta virt. eigenvalues --   -0.03069  -0.02303  -0.02011  -0.01814  -0.00950
  Beta virt. eigenvalues --   -0.00746  -0.00455   0.00049   0.00130   0.00242

 Mulliken charges and spin densities:
               1          2
     1  Na   0.104433  -0.106549
     2  Na   0.546210   0.271107
     3  Na   0.227704   0.008679
     4  Na  -0.186414   0.380583
     5  Na  -0.735743   0.224652
     6  Na   0.210240   0.052757
     7  Na  -0.166430   0.168772
 Sum of Mulliken charges =  -0.00000   1.00000

 Dipole moment (field-independent basis, Debye):
    X=             -0.2522    Y=             -0.2700    Z=              0.1932  Tot=              0.4169
 Quadrupole moment (field-independent basis, Debye-Ang):
   XX=            -58.0271   YY=            -68.7448   ZZ=            -72.5611
   XY=             -4.1525   XZ=              0.6373   YZ=              1.0583

 Normal termination of Gaussian 16 at Mon Dec  4 05:40:34 2023.
