 Gaussian 16, Revision B.01,
 Gaussian 16:  ES64L-G16RevB.01 20-Dec-2017

 -------------------------
 #P B3LYP/6-311+g(d) force
 -------------------------

 -----
 DPGEN
 -----
 Symbolic Z-matrix:
 Charge =  0 Multiplicity = 2

                         Standard orientation:
 ---------------------------------------------------------------------
 Center     Atomic      Atomic             Coordinates (Angstroms)
 Number     Number       Type             X           Y           Z
 ---------------------------------------------------------------------
      1         11           0        2.750282    1.308437   -0.093763
      2         11           0       -0.438709    2.550567    0.152619
      3         11           0        0.144059   -0.253373   -1.746888
      4         11           0       -1.850464   -2.289131    0.169344
      5         11           0        2.535555   -1.839178   -0.078969
      6         11           0       -3.129718    0.644491   -0.355166
      7         11           0       -0.011006   -0.121813    1.952822
 ---------------------------------------------------------------------

 SCF Done:  E(UB3LYP) =  -1136.13512341     A.U. after   19 cycles

 The electronic state is 2-A.
 Alpha  occ. eigenvalues --  -38.44370 -38.44013 -38.43891 -38.43532 -38.43512
 Alpha  occ. eigenvalues --  -38.43425 -38.42505  -2.20224  -2.19894  -2.19748
 Alpha  occ. eigenvalues --   -2.19486  -2.19446  -2.19289  -2.18414  -1.13886
 Alpha  occ. eigenvalues --   -1.13884  -1.13877  -1.13603  -1.13564  -1.13541
 Alpha  occ. eigenvalues --   -1.13422  -1.13396  -1.13373  -1.13178  -1.13127
 Alpha  occ. eigenvalues --   -1.13118  -1.13103  -1.13089  -1.13062  -1.12951
 Alpha  occ. eigenvalues --   -1.12947  -1.12923  -1.12106  -1.12075  -1.12046
 Alpha  occ. eigenvalues --   -0.18972  -0.13673  -0.11978  -0.10912
 Alpha virt. eigenvalues --   -0.06005  -0.05376  -0.03945  -0.03525  -0.02681
 Alpha virt. eigenvalues --   -0.02617  -0.01837  -0.01069  -0.00312  -0.00072
 Alpha virt. eigenvalues --    0.00013   0.00345   0.00730   0.00865   0.00930

  Beta  occ. eigenvalues --  -38.44363 -38.44009 -38.43888 -38.43466 -38.43419
  Beta  occ. eigenvalues --  -38.43417 -38.42498  -2.20213  -2.19890  -2.19745
  Beta  occ. eigenvalues --   -2.19365  -2.19281  -2.19272  -2.18404  -1.13882
  Beta  occ. eigenvalues --   -1.13874  -1.13855  -1.13605  -1.13555  -1.13520
  Beta  occ. eigenvalues --   -1.13411  -1.13386  -1.13366  -1.13097  -1.13045
  Beta  occ. eigenvalues --   -1.13016  -1.13008  -1.12979  -1.12945  -1.12930
  Beta  occ. eigenvalues --   -1.12922  -1.12896  -1.12101  -1.12049  -1.12032
  Beta  occ. eigenvalues --   -0.18227  -0.13428  -0.11718
  Beta virt. eigenvalues --   -0.06993  -0.05924  -0.05387  -0.03938  -0.02723
  Beta virt. eigenvalues --   -0.01903  -0.01729  -0.01544  -0.01005  -0.00365
  Beta virt. eigenvalues --   -0.00065   0.00115   0.00372   0.00806   0.00859

 Mulliken charges and spin densities:
               1          2
     1  Na   0.130323  -0.005363
     2  Na   0.159303  -0.003685
     3  Na  -0.378927   0.473803
     4  Na   0.206239  -0.075159
     5  Na   0.274369  -0.078599
     6  Na   0.063467   0.022616
     7  Na  -0.454773   0.666386
 Sum of Mulliken charges =  -0.00000   1.00000

 Dipole moment (field-independent basis, Debye):
    X=              0.0529    Y=             -0.1961    Z=             -0.0363  Tot=              0.2063
 Quadrupole moment (field-independent basis, Debye-Ang):
   XX=            -52.9057   YY=            -67.4859   ZZ=            -73.5228
   XY=             -0.2883   XZ=              0.7556   YZ=             -0.6054

 Normal termination of Gaussian 16 at Fri Dec  8 04:00:23 2023.
