 Gaussian 16, Revision B.01,
 Gaussian 16:  ES64L-G16RevB.01 20-Dec-2017

 -------------------------
 #P B3LYP/6-311+g(d) force
 -------------------------

 -----
 DPGEN
 -----
 Symbolic Z-matrix:
 Charge =  0 Multiplicity = 2

                         Standard orientation:
 ---------------------------------------------------------------------
 Center     Atomic      Atomic             Coordinates (Angstroms)
 Number     Number       Type             X           Y           Z
 ---------------------------------------------------------------------
      1         11           0        1.508291    1.895930   -0.966573
      2         11           0       -3.904996   -0.980620    0.927817
      3         11           0        2.550806   -1.540162   -0.774759
      4         11           0       -0.962608   -1.407973   -1.423005
      5         11           0       -2.490228    1.616511   -0.722027
      6         11           0       -0.342848    0.403110    1.727810
      7         11           0        3.641582    0.013204    1.230736
 ---------------------------------------------------------------------

 SCF Done:  E(UB3LYP) =  -1136.11329635     A.U. after   33 cycles

 The electronic state is 2-A.
 Alpha  occ. eigenvalues --  -38.45166 -38.44668 -38.44420 -38.44229 -38.44141
 Alpha  occ. eigenvalues --  -38.43815 -38.43260  -2.20981  -2.20557  -2.20275
 Alpha  occ. eigenvalues --   -2.20086  -2.19942  -2.19720  -2.19093  -1.14689
 Alpha  occ. eigenvalues --   -1.14637  -1.14596  -1.14371  -1.14191  -1.14148
 Alpha  occ. eigenvalues --   -1.13971  -1.13943  -1.13873  -1.13774  -1.13725
 Alpha  occ. eigenvalues --   -1.13688  -1.13621  -1.13601  -1.13573  -1.13385
 Alpha  occ. eigenvalues --   -1.13361  -1.13347  -1.12775  -1.12758  -1.12714
 Alpha  occ. eigenvalues --   -0.18290  -0.14620  -0.11317  -0.10565
 Alpha virt. eigenvalues --   -0.07069  -0.05593  -0.05063  -0.03157  -0.02922
 Alpha virt. eigenvalues --   -0.02476  -0.02138  -0.01282  -0.00964  -0.00405
 Alpha virt. eigenvalues --    0.00038   0.00167   0.00246   0.00350   0.00612

  Beta  occ. eigenvalues --  -38.45152 -38.44651 -38.44398 -38.44144 -38.44142
  Beta  occ. eigenvalues --  -38.43807 -38.43242  -2.20954  -2.20523  -2.20234
  Beta  occ. eigenvalues --   -2.19945  -2.19932  -2.19710  -2.19061  -1.14665
  Beta  occ. eigenvalues --   -1.14613  -1.14573  -1.14359  -1.14160  -1.14129
  Beta  occ. eigenvalues --   -1.13930  -1.13913  -1.13855  -1.13672  -1.13621
  Beta  occ. eigenvalues --   -1.13611  -1.13599  -1.13584  -1.13560  -1.13364
  Beta  occ. eigenvalues --   -1.13351  -1.13328  -1.12748  -1.12730  -1.12691
  Beta  occ. eigenvalues --   -0.17603  -0.14553  -0.10391
  Beta virt. eigenvalues --   -0.07488  -0.06801  -0.05363  -0.04501  -0.02837
  Beta virt. eigenvalues --   -0.02738  -0.01935  -0.01436  -0.01037  -0.00730
  Beta virt. eigenvalues --   -0.00376   0.00070   0.00262   0.00299   0.00466

 Mulliken charges and spin densities:
               1          2
     1  Na  -0.217664   0.230213
     2  Na   0.550494  -0.130858
     3  Na  -0.168692  -0.215490
     4  Na  -0.493664   0.542248
     5  Na   0.424590   0.003989
     6  Na  -0.730024   0.322040
     7  Na   0.634961   0.247858
 Sum of Mulliken charges =  -0.00000   1.00000

 Dipole moment (field-independent basis, Debye):
    X=             -0.5421    Y=              0.7517    Z=              0.4904  Tot=              1.0486
 Quadrupole moment (field-independent basis, Debye-Ang):
   XX=            -55.8008   YY=            -77.3652   ZZ=            -66.8043
   XY=              0.9245   XZ=              1.4313   YZ=             -0.9781

 Normal termination of Gaussian 16 at Tue Dec  5 21:08:05 2023.
