 Gaussian 16, Revision B.01,
 Gaussian 16:  ES64L-G16RevB.01 20-Dec-2017

 -------------------------
 #P B3LYP/6-311+g(d) force
 -------------------------

 -----
 DPGEN
 -----
 Symbolic Z-matrix:
 Charge =  0 Multiplicity = 2

                         Standard orientation:
 ---------------------------------------------------------------------
 Center     Atomic      Atomic             Coordinates (Angstroms)
 Number     Number       Type             X           Y           Z
 ---------------------------------------------------------------------
      1         11           0       -0.477032    2.782558   -0.377060
      2         11           0        2.253766   -2.142314   -0.073604
      3         11           0        0.063625   -0.072997   -1.613056
      4         11           0       -1.022229   -2.531233   -0.153306
      5         11           0       -3.001796    0.293118   -0.094178
      6         11           0       -0.485839    0.002447    2.066507
      7         11           0        2.669504    1.668421    0.244697
 ---------------------------------------------------------------------

 SCF Done:  E(UB3LYP) =  -1136.13778973     A.U. after   20 cycles

 The electronic state is 2-A.
 Alpha  occ. eigenvalues --  -38.43801 -38.43657 -38.43651 -38.43534 -38.43453
 Alpha  occ. eigenvalues --  -38.43367 -38.43130  -2.19609  -2.19554  -2.19490
 Alpha  occ. eigenvalues --   -2.19414  -2.19334  -2.19299  -2.19157  -1.13279
 Alpha  occ. eigenvalues --   -1.13276  -1.13257  -1.13237  -1.13194  -1.13181
 Alpha  occ. eigenvalues --   -1.13179  -1.13156  -1.13131  -1.13096  -1.13083
 Alpha  occ. eigenvalues --   -1.13067  -1.13053  -1.13035  -1.12986  -1.12952
 Alpha  occ. eigenvalues --   -1.12944  -1.12894  -1.12814  -1.12769  -1.12757
 Alpha  occ. eigenvalues --   -0.18923  -0.12861  -0.12745  -0.10873
 Alpha virt. eigenvalues --   -0.05297  -0.05163  -0.04799  -0.03090  -0.03035
 Alpha virt. eigenvalues --   -0.02615  -0.01333  -0.01120  -0.00310  -0.00167
 Alpha virt. eigenvalues --   -0.00004   0.00358   0.00845   0.00900   0.00925

  Beta  occ. eigenvalues --  -38.43799 -38.43656 -38.43556 -38.43528 -38.43442
  Beta  occ. eigenvalues --  -38.43357 -38.43064  -2.19607  -2.19492  -2.19406
  Beta  occ. eigenvalues --   -2.19380  -2.19318  -2.19284  -2.19037  -1.13276
  Beta  occ. eigenvalues --   -1.13263  -1.13257  -1.13182  -1.13151  -1.13146
  Beta  occ. eigenvalues --   -1.13128  -1.13085  -1.13077  -1.13062  -1.13052
  Beta  occ. eigenvalues --   -1.13038  -1.13015  -1.13010  -1.12956  -1.12938
  Beta  occ. eigenvalues --   -1.12915  -1.12888  -1.12739  -1.12689  -1.12669
  Beta  occ. eigenvalues --   -0.18178  -0.12608  -0.12520
  Beta virt. eigenvalues --   -0.06920  -0.05273  -0.05127  -0.04766  -0.02311
  Beta virt. eigenvalues --   -0.02258  -0.01535  -0.01254  -0.01053  -0.00342
  Beta virt. eigenvalues --   -0.00218   0.00138   0.00385   0.00884   0.00903

 Mulliken charges and spin densities:
               1          2
     1  Na   0.192372  -0.038510
     2  Na  -0.027719  -0.066640
     3  Na  -0.234017   0.388210
     4  Na   0.363168  -0.026877
     5  Na   0.438916  -0.018124
     6  Na  -0.658012   0.790267
     7  Na  -0.074709  -0.028325
 Sum of Mulliken charges =  -0.00000   1.00000

 Dipole moment (field-independent basis, Debye):
    X=              0.1088    Y=              0.0585    Z=              0.2331  Tot=              0.2638
 Quadrupole moment (field-independent basis, Debye-Ang):
   XX=            -57.9585   YY=            -62.0844   ZZ=            -73.7277
   XY=             -0.5037   XZ=              1.4768   YZ=             -0.1278

 Normal termination of Gaussian 16 at Fri Dec  8 01:08:31 2023.
