 Gaussian 16, Revision B.01,
 Gaussian 16:  ES64L-G16RevB.01 20-Dec-2017

 -------------------------
 #P B3LYP/6-311+g(d) force
 -------------------------

 -----
 DPGEN
 -----
 Symbolic Z-matrix:
 Charge =  0 Multiplicity = 2

                         Standard orientation:
 ---------------------------------------------------------------------
 Center     Atomic      Atomic             Coordinates (Angstroms)
 Number     Number       Type             X           Y           Z
 ---------------------------------------------------------------------
      1         11           0       -3.178779    0.646748   -0.127886
      2         11           0        0.107252   -0.146398   -1.820785
      3         11           0        3.091299    1.100223    0.248095
      4         11           0        1.849434   -2.443948   -0.187214
      5         11           0       -0.111922    2.957586   -0.231348
      6         11           0       -0.172705    0.121297    1.912434
      7         11           0       -1.584580   -2.235509    0.206705
 ---------------------------------------------------------------------

 SCF Done:  E(UB3LYP) =  -1136.13872035     A.U. after   19 cycles

 The electronic state is 2-A.
 Alpha  occ. eigenvalues --  -38.44247 -38.44022 -38.43526 -38.43522 -38.43469
 Alpha  occ. eigenvalues --  -38.43345 -38.43232  -2.20029  -2.19844  -2.19434
 Alpha  occ. eigenvalues --   -2.19345  -2.19308  -2.19279  -2.19146  -1.13707
 Alpha  occ. eigenvalues --   -1.13682  -1.13671  -1.13518  -1.13509  -1.13486
 Alpha  occ. eigenvalues --   -1.13128  -1.13085  -1.13046  -1.13037  -1.13023
 Alpha  occ. eigenvalues --   -1.13009  -1.12971  -1.12967  -1.12949  -1.12948
 Alpha  occ. eigenvalues --   -1.12909  -1.12881  -1.12822  -1.12803  -1.12758
 Alpha  occ. eigenvalues --   -0.18563  -0.12862  -0.12460  -0.10718
 Alpha virt. eigenvalues --   -0.05801  -0.05087  -0.04707  -0.03139  -0.02932
 Alpha virt. eigenvalues --   -0.02536  -0.01640  -0.01141  -0.00449  -0.00289
 Alpha virt. eigenvalues --   -0.00015   0.00357   0.00780   0.00870   0.00899

  Beta  occ. eigenvalues --  -38.44244 -38.44020 -38.43520 -38.43465 -38.43438
  Beta  occ. eigenvalues --  -38.43268 -38.43222  -2.20026  -2.19843  -2.19338
  Beta  occ. eigenvalues --   -2.19304  -2.19281  -2.19138  -2.19131  -1.13689
  Beta  occ. eigenvalues --   -1.13681  -1.13672  -1.13520  -1.13493  -1.13481
  Beta  occ. eigenvalues --   -1.13038  -1.13027  -1.13004  -1.12997  -1.12964
  Beta  occ. eigenvalues --   -1.12958  -1.12951  -1.12945  -1.12932  -1.12873
  Beta  occ. eigenvalues --   -1.12824  -1.12791  -1.12786  -1.12765  -1.12742
  Beta  occ. eigenvalues --   -0.17819  -0.12645  -0.12209
  Beta virt. eigenvalues --   -0.06826  -0.05765  -0.05077  -0.04655  -0.02376
  Beta virt. eigenvalues --   -0.02152  -0.01553  -0.01493  -0.01068  -0.00501
  Beta virt. eigenvalues --   -0.00330   0.00115   0.00372   0.00817   0.00879

 Mulliken charges and spin densities:
               1          2
     1  Na   0.069309  -0.094321
     2  Na  -0.219335   0.698153
     3  Na  -0.030830  -0.088237
     4  Na   0.141436  -0.077871
     5  Na  -0.021428  -0.131604
     6  Na  -0.282740   0.694920
     7  Na   0.343587  -0.001040
 Sum of Mulliken charges =  -0.00000   1.00000

 Dipole moment (field-independent basis, Debye):
    X=              0.1314    Y=              0.2332    Z=              0.0352  Tot=              0.2700
 Quadrupole moment (field-independent basis, Debye-Ang):
   XX=            -55.4074   YY=            -63.1765   ZZ=            -74.4451
   XY=             -0.7330   XZ=              0.8813   YZ=             -0.5190

 Normal termination of Gaussian 16 at Thu Dec  7 17:46:45 2023.
