 Gaussian 16, Revision B.01,
 Gaussian 16:  ES64L-G16RevB.01 20-Dec-2017

 -------------------------
 #P B3LYP/6-311+g(d) force
 -------------------------

 -----
 DPGEN
 -----
 Symbolic Z-matrix:
 Charge =  0 Multiplicity = 2

                         Standard orientation:
 ---------------------------------------------------------------------
 Center     Atomic      Atomic             Coordinates (Angstroms)
 Number     Number       Type             X           Y           Z
 ---------------------------------------------------------------------
      1         11           0       -3.442209    0.134606    1.425765
      2         11           0        0.819888    2.065919   -0.100710
      3         11           0        4.115657    0.208511    0.610602
      4         11           0       -1.699673   -1.655163   -1.154540
      5         11           0        0.637911   -1.246793    1.680246
      6         11           0        1.573861   -0.871125   -1.534650
      7         11           0       -2.005436    1.364045   -0.926713
 ---------------------------------------------------------------------

 SCF Done:  E(UB3LYP) =  -1136.11491406     A.U. after   29 cycles

 The electronic state is 2-A.
 Alpha  occ. eigenvalues --  -38.45518 -38.44905 -38.44695 -38.43898 -38.43248
 Alpha  occ. eigenvalues --  -38.43106 -38.43005  -2.21297  -2.20753  -2.20501
 Alpha  occ. eigenvalues --   -2.19812  -2.19156  -2.19079  -2.18883  -1.14979
 Alpha  occ. eigenvalues --   -1.14940  -1.14915  -1.14438  -1.14392  -1.14361
 Alpha  occ. eigenvalues --   -1.14205  -1.14163  -1.14107  -1.13514  -1.13453
 Alpha  occ. eigenvalues --   -1.13432  -1.12934  -1.12824  -1.12795  -1.12782
 Alpha  occ. eigenvalues --   -1.12729  -1.12671  -1.12562  -1.12551  -1.12466
 Alpha  occ. eigenvalues --   -0.18553  -0.14331  -0.11315  -0.10792
 Alpha virt. eigenvalues --   -0.07262  -0.05316  -0.04356  -0.03113  -0.02931
 Alpha virt. eigenvalues --   -0.02400  -0.02348  -0.01285  -0.00667  -0.00208
 Alpha virt. eigenvalues --    0.00053   0.00185   0.00300   0.00654   0.00761

  Beta  occ. eigenvalues --  -38.45496 -38.44845 -38.44677 -38.43858 -38.43222
  Beta  occ. eigenvalues --  -38.43091 -38.42989  -2.21256  -2.20641  -2.20467
  Beta  occ. eigenvalues --   -2.19742  -2.19113  -2.19058  -2.18858  -1.14949
  Beta  occ. eigenvalues --   -1.14911  -1.14889  -1.14367  -1.14313  -1.14284
  Beta  occ. eigenvalues --   -1.14183  -1.14134  -1.14080  -1.13465  -1.13394
  Beta  occ. eigenvalues --   -1.13371  -1.12912  -1.12802  -1.12760  -1.12730
  Beta  occ. eigenvalues --   -1.12685  -1.12651  -1.12548  -1.12514  -1.12448
  Beta  occ. eigenvalues --   -0.17861  -0.13994  -0.10555
  Beta virt. eigenvalues --   -0.07674  -0.06980  -0.04675  -0.04230  -0.02898
  Beta virt. eigenvalues --   -0.02691  -0.01908  -0.01649  -0.00880  -0.00597
  Beta virt. eigenvalues --   -0.00061   0.00115   0.00298   0.00346   0.00769

 Mulliken charges and spin densities:
               1          2
     1  Na  -0.017508   0.234194
     2  Na  -0.432703  -0.133593
     3  Na   0.707772   0.195368
     4  Na  -0.075777   0.044736
     5  Na  -0.354496   0.268176
     6  Na  -0.141690   0.176601
     7  Na   0.314402   0.214518
 Sum of Mulliken charges =  -0.00000   1.00000

 Dipole moment (field-independent basis, Debye):
    X=              1.2120    Y=             -0.6459    Z=              0.7472  Tot=              1.5634
 Quadrupole moment (field-independent basis, Debye-Ang):
   XX=            -46.6304   YY=            -82.7588   ZZ=            -64.7148
   XY=              1.1136   XZ=             -0.7528   YZ=              1.5670

 Normal termination of Gaussian 16 at Thu Dec  7 21:07:34 2023.
