 Gaussian 16, Revision B.01,
 Gaussian 16:  ES64L-G16RevB.01 20-Dec-2017

 -------------------------
 #P B3LYP/6-311+g(d) force
 -------------------------

 -----
 DPGEN
 -----
 Symbolic Z-matrix:
 Charge =  0 Multiplicity = 2

                         Standard orientation:
 ---------------------------------------------------------------------
 Center     Atomic      Atomic             Coordinates (Angstroms)
 Number     Number       Type             X           Y           Z
 ---------------------------------------------------------------------
      1         11           0       -2.110023   -1.596389    1.967688
      2         11           0       -5.076635   -1.522045   -1.276150
      3         11           0       -3.359454    1.224414   -0.189409
      4         11           0       -0.666547    2.791142    0.201859
      5         11           0        0.882008    0.167706    0.375923
      6         11           0        4.062310   -0.637025   -1.636078
      7         11           0        6.268341   -0.427804    0.556167
 ---------------------------------------------------------------------

 SCF Done:  E(UB3LYP) =  -1136.10812130     A.U. after   20 cycles

 The electronic state is 2-A.
 Alpha  occ. eigenvalues --  -38.45187 -38.44885 -38.44742 -38.44103 -38.43740
 Alpha  occ. eigenvalues --  -38.43628 -38.43442  -2.20962  -2.20667  -2.20537
 Alpha  occ. eigenvalues --   -2.19927  -2.19499  -2.19488  -2.19326  -1.14636
 Alpha  occ. eigenvalues --   -1.14619  -1.14614  -1.14333  -1.14307  -1.14263
 Alpha  occ. eigenvalues --   -1.14197  -1.14187  -1.14177  -1.13631  -1.13605
 Alpha  occ. eigenvalues --   -1.13555  -1.13197  -1.13176  -1.13168  -1.13155
 Alpha  occ. eigenvalues --   -1.13147  -1.13108  -1.12964  -1.12954  -1.12945
 Alpha  occ. eigenvalues --   -0.16353  -0.14034  -0.11657  -0.10996
 Alpha virt. eigenvalues --   -0.07152  -0.05369  -0.04260  -0.03385  -0.03103
 Alpha virt. eigenvalues --   -0.02761  -0.02194  -0.01478  -0.01084  -0.00854
 Alpha virt. eigenvalues --   -0.00749   0.00003   0.00200   0.00434   0.00540

  Beta  occ. eigenvalues --  -38.45185 -38.44787 -38.44742 -38.44091 -38.43736
  Beta  occ. eigenvalues --  -38.43586 -38.43404  -2.20958  -2.20538  -2.20485
  Beta  occ. eigenvalues --   -2.19906  -2.19492  -2.19414  -2.19255  -1.14634
  Beta  occ. eigenvalues --   -1.14616  -1.14611  -1.14210  -1.14197  -1.14187
  Beta  occ. eigenvalues --   -1.14185  -1.14177  -1.14130  -1.13614  -1.13588
  Beta  occ. eigenvalues --   -1.13531  -1.13173  -1.13163  -1.13135  -1.13123
  Beta  occ. eigenvalues --   -1.13108  -1.13060  -1.12920  -1.12902  -1.12891
  Beta  occ. eigenvalues --   -0.15666  -0.13886  -0.11502
  Beta virt. eigenvalues --   -0.07216  -0.06715  -0.05230  -0.03844  -0.03199
  Beta virt. eigenvalues --   -0.02865  -0.02325  -0.01607  -0.01414  -0.00906
  Beta virt. eigenvalues --   -0.00736  -0.00373   0.00194   0.00315   0.00520

 Mulliken charges and spin densities:
               1          2
     1  Na   0.449760   0.397537
     2  Na   0.330442  -0.025284
     3  Na  -0.708096   0.308841
     4  Na   1.059413   0.148601
     5  Na  -1.177374   0.176855
     6  Na  -0.146735  -0.003289
     7  Na   0.192590  -0.003261
 Sum of Mulliken charges =  -0.00000   1.00000

 Dipole moment (field-independent basis, Debye):
    X=              2.2424    Y=             -0.4234    Z=              0.2090  Tot=              2.2916
 Quadrupole moment (field-independent basis, Debye-Ang):
   XX=            -59.9743   YY=            -69.9804   ZZ=            -64.6272
   XY=              2.7458   XZ=              4.5273   YZ=              2.6253

 Normal termination of Gaussian 16 at Tue Nov 28 20:56:56 2023.
