 Gaussian 16, Revision B.01,
 Gaussian 16:  ES64L-G16RevB.01 20-Dec-2017

 -------------------------
 #P B3LYP/6-311+g(d) force
 -------------------------

 -----
 DPGEN
 -----
 Symbolic Z-matrix:
 Charge =  0 Multiplicity = 2

                         Standard orientation:
 ---------------------------------------------------------------------
 Center     Atomic      Atomic             Coordinates (Angstroms)
 Number     Number       Type             X           Y           Z
 ---------------------------------------------------------------------
      1         11           0        5.657850   -0.313622   -0.751386
      2         11           0        0.415025    3.013655    0.236706
      3         11           0       -2.703972    3.139824    0.399262
      4         11           0       -4.814999   -0.343153   -0.209329
      5         11           0       -4.692973   -3.507714   -0.171257
      6         11           0        1.977045    0.376196   -0.620863
      7         11           0        4.162025   -2.365186    1.116868
 ---------------------------------------------------------------------

 SCF Done:  E(UB3LYP) =  -1136.10714991     A.U. after   18 cycles

 The electronic state is 2-A.
 Alpha  occ. eigenvalues --  -38.46186 -38.45871 -38.44272 -38.43624 -38.43307
 Alpha  occ. eigenvalues --  -38.43282 -38.43197  -2.21978  -2.21673  -2.20119
 Alpha  occ. eigenvalues --   -2.19445  -2.19080  -2.19074  -2.19041  -1.15657
 Alpha  occ. eigenvalues --   -1.15641  -1.15618  -1.15328  -1.15325  -1.15285
 Alpha  occ. eigenvalues --   -1.13785  -1.13781  -1.13720  -1.13113  -1.13087
 Alpha  occ. eigenvalues --   -1.13072  -1.12807  -1.12759  -1.12751  -1.12721
 Alpha  occ. eigenvalues --   -1.12721  -1.12717  -1.12699  -1.12696  -1.12645
 Alpha  occ. eigenvalues --   -0.16152  -0.14006  -0.12259  -0.10498
 Alpha virt. eigenvalues --   -0.07047  -0.05889  -0.04302  -0.03687  -0.02847
 Alpha virt. eigenvalues --   -0.02505  -0.02091  -0.01641  -0.01248  -0.00935
 Alpha virt. eigenvalues --   -0.00658  -0.00573   0.00101   0.00166   0.00243

  Beta  occ. eigenvalues --  -38.46179 -38.45842 -38.44195 -38.43546 -38.43314
  Beta  occ. eigenvalues --  -38.43254 -38.43200  -2.21969  -2.21620  -2.19977
  Beta  occ. eigenvalues --   -2.19298  -2.19094  -2.19053  -2.19022  -1.15641
  Beta  occ. eigenvalues --   -1.15634  -1.15603  -1.15292  -1.15277  -1.15255
  Beta  occ. eigenvalues --   -1.13689  -1.13678  -1.13629  -1.13027  -1.12987
  Beta  occ. eigenvalues --   -1.12972  -1.12792  -1.12770  -1.12755  -1.12718
  Beta  occ. eigenvalues --   -1.12714  -1.12687  -1.12687  -1.12658  -1.12622
  Beta  occ. eigenvalues --   -0.15613  -0.13362  -0.11910
  Beta virt. eigenvalues --   -0.07264  -0.06919  -0.05431  -0.03982  -0.03239
  Beta virt. eigenvalues --   -0.02671  -0.02344  -0.01884  -0.01461  -0.01130
  Beta virt. eigenvalues --   -0.00648  -0.00392  -0.00306   0.00219   0.00324

 Mulliken charges and spin densities:
               1          2
     1  Na   0.349131   0.083373
     2  Na   0.468537  -0.096049
     3  Na   0.114362   0.440479
     4  Na  -0.206402  -0.046101
     5  Na   0.225603   0.137703
     6  Na  -1.197858   0.322932
     7  Na   0.246626   0.157664
 Sum of Mulliken charges =  -0.00000   1.00000

 Dipole moment (field-independent basis, Debye):
    X=              5.2405    Y=             -1.2497    Z=              0.0544  Tot=              5.3877
 Quadrupole moment (field-independent basis, Debye-Ang):
   XX=            -61.9002   YY=            -64.4649   ZZ=            -70.8558
   XY=             -1.5427   XZ=             -3.5767   YZ=             -3.8462

 Normal termination of Gaussian 16 at Sun Dec  3 13:57:41 2023.
