 Gaussian 16, Revision B.01,
 Gaussian 16:  ES64L-G16RevB.01 20-Dec-2017

 -------------------------
 #P B3LYP/6-311+g(d) force
 -------------------------

 -----
 DPGEN
 -----
 Symbolic Z-matrix:
 Charge =  0 Multiplicity = 2

                         Standard orientation:
 ---------------------------------------------------------------------
 Center     Atomic      Atomic             Coordinates (Angstroms)
 Number     Number       Type             X           Y           Z
 ---------------------------------------------------------------------
      1         11           0        0.885316    2.979729   -0.260589
      2         11           0        1.220926   -2.854732    0.230346
      3         11           0       -0.212731   -0.208802   -1.523428
      4         11           0       -2.570693   -1.847234   -0.075126
      5         11           0        2.892644   -0.090667   -0.423469
      6         11           0        0.257132    0.481898    2.099708
      7         11           0       -2.472595    1.539807   -0.047442
 ---------------------------------------------------------------------

 SCF Done:  E(UB3LYP) =  -1136.13878874     A.U. after   20 cycles

 The electronic state is 2-A.
 Alpha  occ. eigenvalues --  -38.43742 -38.43725 -38.43712 -38.43612 -38.43599
 Alpha  occ. eigenvalues --  -38.43546 -38.42999  -2.19581  -2.19576  -2.19552
 Alpha  occ. eigenvalues --   -2.19482  -2.19432  -2.19422  -2.19006  -1.13306
 Alpha  occ. eigenvalues --   -1.13267  -1.13258  -1.13250  -1.13232  -1.13224
 Alpha  occ. eigenvalues --   -1.13215  -1.13199  -1.13173  -1.13172  -1.13140
 Alpha  occ. eigenvalues --   -1.13111  -1.13102  -1.13091  -1.13075  -1.13067
 Alpha  occ. eigenvalues --   -1.13046  -1.13027  -1.12688  -1.12645  -1.12629
 Alpha  occ. eigenvalues --   -0.18618  -0.12961  -0.12595  -0.10632
 Alpha virt. eigenvalues --   -0.05337  -0.05202  -0.05037  -0.03083  -0.02968
 Alpha virt. eigenvalues --   -0.02459  -0.01340  -0.01265  -0.00450  -0.00354
 Alpha virt. eigenvalues --   -0.00006   0.00358   0.00837   0.00863   0.00884

  Beta  occ. eigenvalues --  -38.43741 -38.43721 -38.43706 -38.43600 -38.43594
  Beta  occ. eigenvalues --  -38.43450 -38.42943  -2.19577  -2.19574  -2.19548
  Beta  occ. eigenvalues --   -2.19464  -2.19425  -2.19244  -2.18906  -1.13301
  Beta  occ. eigenvalues --   -1.13259  -1.13248  -1.13244  -1.13218  -1.13212
  Beta  occ. eigenvalues --   -1.13199  -1.13193  -1.13173  -1.13154  -1.13111
  Beta  occ. eigenvalues --   -1.13096  -1.13084  -1.13076  -1.13060  -1.12963
  Beta  occ. eigenvalues --   -1.12924  -1.12906  -1.12616  -1.12571  -1.12555
  Beta  occ. eigenvalues --   -0.17902  -0.12728  -0.12387
  Beta virt. eigenvalues --   -0.06709  -0.05336  -0.05191  -0.04935  -0.02304
  Beta virt. eigenvalues --   -0.02229  -0.01406  -0.01260  -0.01185  -0.00482
  Beta virt. eigenvalues --   -0.00399   0.00151   0.00392   0.00857   0.00883

 Mulliken charges and spin densities:
               1          2
     1  Na   0.209849  -0.037830
     2  Na   0.023572   0.007789
     3  Na  -0.197904   0.333246
     4  Na   0.120002  -0.032581
     5  Na   0.224097  -0.005699
     6  Na  -0.596220   0.777231
     7  Na   0.216603  -0.042156
 Sum of Mulliken charges =  -0.00000   1.00000

 Dipole moment (field-independent basis, Debye):
    X=             -0.0725    Y=             -0.0288    Z=              0.1705  Tot=              0.1876
 Quadrupole moment (field-independent basis, Debye-Ang):
   XX=            -59.8035   YY=            -58.5065   ZZ=            -74.8877
   XY=              0.5213   XZ=             -1.0306   YZ=             -1.7602

 Normal termination of Gaussian 16 at Thu Dec  7 20:36:42 2023.
