 Gaussian 16, Revision B.01,
 Gaussian 16:  ES64L-G16RevB.01 20-Dec-2017

 -------------------------
 #P B3LYP/6-311+g(d) force
 -------------------------

 -----
 DPGEN
 -----
 Symbolic Z-matrix:
 Charge =  0 Multiplicity = 2

                         Standard orientation:
 ---------------------------------------------------------------------
 Center     Atomic      Atomic             Coordinates (Angstroms)
 Number     Number       Type             X           Y           Z
 ---------------------------------------------------------------------
      1         11           0        0.657522   -2.843801    0.298926
      2         11           0        3.193373   -0.590843   -0.329772
      3         11           0       -0.009458   -0.006523    1.982258
      4         11           0       -2.891162    2.055500    0.046710
      5         11           0        1.829009    2.952060    0.021800
      6         11           0       -2.736886   -1.571211   -0.328380
      7         11           0       -0.042398    0.004817   -1.691542
 ---------------------------------------------------------------------

 SCF Done:  E(UB3LYP) =  -1136.13196009     A.U. after   21 cycles

 The electronic state is 2-A.
 Alpha  occ. eigenvalues --  -38.44582 -38.44320 -38.44095 -38.44055 -38.43574
 Alpha  occ. eigenvalues --  -38.43569 -38.43083  -2.20332  -2.20127  -2.19874
 Alpha  occ. eigenvalues --   -2.19843  -2.19467  -2.19434  -2.18949  -1.14010
 Alpha  occ. eigenvalues --   -1.13985  -1.13978  -1.13807  -1.13788  -1.13760
 Alpha  occ. eigenvalues --   -1.13564  -1.13534  -1.13522  -1.13501  -1.13499
 Alpha  occ. eigenvalues --   -1.13488  -1.13169  -1.13107  -1.13098  -1.13090
 Alpha  occ. eigenvalues --   -1.13059  -1.13052  -1.12627  -1.12607  -1.12589
 Alpha  occ. eigenvalues --   -0.18010  -0.12962  -0.12010  -0.10436
 Alpha virt. eigenvalues --   -0.06216  -0.05510  -0.04741  -0.03122  -0.02719
 Alpha virt. eigenvalues --   -0.02423  -0.01806  -0.01424  -0.00912  -0.00549
 Alpha virt. eigenvalues --   -0.00028   0.00321   0.00687   0.00748   0.00809

  Beta  occ. eigenvalues --  -38.44585 -38.44311 -38.44098 -38.44046 -38.43513
  Beta  occ. eigenvalues --  -38.43474 -38.43074  -2.20338  -2.20114  -2.19860
  Beta  occ. eigenvalues --   -2.19851  -2.19356  -2.19261  -2.18936  -1.14005
  Beta  occ. eigenvalues --   -1.13987  -1.13982  -1.13788  -1.13770  -1.13754
  Beta  occ. eigenvalues --   -1.13545  -1.13519  -1.13512  -1.13503  -1.13494
  Beta  occ. eigenvalues --   -1.13493  -1.13090  -1.13018  -1.13006  -1.12993
  Beta  occ. eigenvalues --   -1.12933  -1.12929  -1.12617  -1.12585  -1.12567
  Beta  occ. eigenvalues --   -0.17281  -0.12754  -0.11822
  Beta virt. eigenvalues --   -0.06559  -0.06224  -0.05395  -0.04703  -0.02414
  Beta virt. eigenvalues --   -0.02011  -0.01714  -0.01487  -0.01245  -0.00948
  Beta virt. eigenvalues --   -0.00578   0.00118   0.00361   0.00702   0.00809

 Mulliken charges and spin densities:
               1          2
     1  Na   0.206871   0.041528
     2  Na   0.103987  -0.016394
     3  Na  -0.255955   0.753698
     4  Na  -0.119934  -0.126154
     5  Na  -0.160376  -0.136006
     6  Na   0.177185   0.000238
     7  Na   0.048222   0.483090
 Sum of Mulliken charges =  -0.00000   1.00000

 Dipole moment (field-independent basis, Debye):
    X=             -0.1758    Y=              0.2572    Z=             -0.0384  Tot=              0.3139
 Quadrupole moment (field-independent basis, Debye-Ang):
   XX=            -55.0314   YY=            -61.0435   ZZ=            -76.4221
   XY=             -0.9250   XZ=             -0.2428   YZ=              0.3304

 Normal termination of Gaussian 16 at Fri Dec  8 03:14:27 2023.
