 Gaussian 16, Revision B.01,
 Gaussian 16:  ES64L-G16RevB.01 20-Dec-2017

 -------------------------
 #P B3LYP/6-311+g(d) force
 -------------------------

 -----
 DPGEN
 -----
 Symbolic Z-matrix:
 Charge =  0 Multiplicity = 2

                         Standard orientation:
 ---------------------------------------------------------------------
 Center     Atomic      Atomic             Coordinates (Angstroms)
 Number     Number       Type             X           Y           Z
 ---------------------------------------------------------------------
      1         11           0        2.742131   -0.146071   -0.229726
      2         11           0        0.096364   -0.028170    1.821697
      3         11           0        0.983085    2.418024    0.077029
      4         11           0       -2.011233    1.848943   -0.141514
      5         11           0       -2.356986   -1.242168   -0.055213
      6         11           0        0.084458   -0.356068   -1.705932
      7         11           0        0.462181   -2.494491    0.233658
 ---------------------------------------------------------------------

 SCF Done:  E(UB3LYP) =  -1136.12448740     A.U. after   19 cycles

 The electronic state is 2-A.
 Alpha  occ. eigenvalues --  -38.43472 -38.43417 -38.43400 -38.43348 -38.43323
 Alpha  occ. eigenvalues --  -38.43318 -38.43248  -2.19557  -2.19528  -2.19388
 Alpha  occ. eigenvalues --   -2.19364  -2.19339  -2.19267  -2.19224  -1.13404
 Alpha  occ. eigenvalues --   -1.13297  -1.13278  -1.13245  -1.13182  -1.13168
 Alpha  occ. eigenvalues --   -1.13081  -1.13080  -1.13032  -1.13021  -1.13011
 Alpha  occ. eigenvalues --   -1.12998  -1.12971  -1.12960  -1.12950  -1.12903
 Alpha  occ. eigenvalues --   -1.12901  -1.12869  -1.12860  -1.12851  -1.12789
 Alpha  occ. eigenvalues --   -0.20351  -0.13288  -0.13127  -0.11454
 Alpha virt. eigenvalues --   -0.04923  -0.04706  -0.04668  -0.03268  -0.03194
 Alpha virt. eigenvalues --   -0.02657  -0.01052  -0.00840  -0.00023   0.00345
 Alpha virt. eigenvalues --    0.00353   0.00391   0.00992   0.01033   0.01064

  Beta  occ. eigenvalues --  -38.43407 -38.43381 -38.43339 -38.43319 -38.43313
  Beta  occ. eigenvalues --  -38.43308 -38.43241  -2.19395  -2.19388  -2.19371
  Beta  occ. eigenvalues --   -2.19337  -2.19327  -2.19261  -2.19215  -1.13342
  Beta  occ. eigenvalues --   -1.13214  -1.13193  -1.13158  -1.13095  -1.13082
  Beta  occ. eigenvalues --   -1.13076  -1.13056  -1.13002  -1.12984  -1.12976
  Beta  occ. eigenvalues --   -1.12962  -1.12921  -1.12901  -1.12897  -1.12886
  Beta  occ. eigenvalues --   -1.12863  -1.12856  -1.12852  -1.12815  -1.12788
  Beta  occ. eigenvalues --   -0.19574  -0.12970  -0.12816
  Beta virt. eigenvalues --   -0.07390  -0.04929  -0.04696  -0.04671  -0.02378
  Beta virt. eigenvalues --   -0.02319  -0.01551  -0.00986  -0.00784   0.00104
  Beta virt. eigenvalues --    0.00298   0.00326   0.00378   0.01021   0.01029

 Mulliken charges and spin densities:
               1          2
     1  Na   0.366677  -0.038849
     2  Na  -0.792816   0.573654
     3  Na   0.251315  -0.013639
     4  Na   0.037452  -0.056704
     5  Na   0.335800  -0.021270
     6  Na  -0.878900   0.558391
     7  Na   0.680474  -0.001582
 Sum of Mulliken charges =  -0.00000   1.00000

 Dipole moment (field-independent basis, Debye):
    X=              0.0318    Y=              0.0572    Z=              0.0513  Tot=              0.0832
 Quadrupole moment (field-independent basis, Debye-Ang):
   XX=            -60.5592   YY=            -63.6043   ZZ=            -71.4736
   XY=             -0.0615   XZ=             -0.0441   YZ=             -0.6104

 Normal termination of Gaussian 16 at Thu Dec  7 14:10:42 2023.
