 Gaussian 16, Revision B.01,
 Gaussian 16:  ES64L-G16RevB.01 20-Dec-2017

 -------------------------
 #P B3LYP/6-311+g(d) force
 -------------------------

 -----
 DPGEN
 -----
 Symbolic Z-matrix:
 Charge =  0 Multiplicity = 2

                         Standard orientation:
 ---------------------------------------------------------------------
 Center     Atomic      Atomic             Coordinates (Angstroms)
 Number     Number       Type             X           Y           Z
 ---------------------------------------------------------------------
      1         11           0       -0.021785   -0.064607   -1.577927
      2         11           0        0.206832   -2.783596   -0.264842
      3         11           0       -2.820149   -1.257476    0.403515
      4         11           0        1.338952    2.704077   -0.062353
      5         11           0        0.457332    0.190408    1.912952
      6         11           0        3.059083   -0.755865   -0.103476
      7         11           0       -2.220267    1.967059   -0.307869
 ---------------------------------------------------------------------

 SCF Done:  E(UB3LYP) =  -1136.13827033     A.U. after   18 cycles

 The electronic state is 2-A.
 Alpha  occ. eigenvalues --  -38.44057 -38.43662 -38.43646 -38.43604 -38.43344
 Alpha  occ. eigenvalues --  -38.43332 -38.42981  -2.19896  -2.19504  -2.19502
 Alpha  occ. eigenvalues --   -2.19450  -2.19267  -2.19228  -2.19008  -1.13573
 Alpha  occ. eigenvalues --   -1.13564  -1.13530  -1.13219  -1.13189  -1.13166
 Alpha  occ. eigenvalues --   -1.13162  -1.13155  -1.13137  -1.13124  -1.13107
 Alpha  occ. eigenvalues --   -1.13069  -1.12999  -1.12941  -1.12895  -1.12881
 Alpha  occ. eigenvalues --   -1.12867  -1.12836  -1.12678  -1.12630  -1.12614
 Alpha  occ. eigenvalues --   -0.18860  -0.13012  -0.12656  -0.10602
 Alpha virt. eigenvalues --   -0.05604  -0.05159  -0.04700  -0.03125  -0.02903
 Alpha virt. eigenvalues --   -0.02332  -0.01526  -0.01168  -0.00342  -0.00254
 Alpha virt. eigenvalues --    0.00028   0.00358   0.00841   0.00869   0.00915

  Beta  occ. eigenvalues --  -38.44052 -38.43655 -38.43639 -38.43599 -38.43323
  Beta  occ. eigenvalues --  -38.43259 -38.42914  -2.19891  -2.19493  -2.19492
  Beta  occ. eigenvalues --   -2.19445  -2.19215  -2.19111  -2.18886  -1.13565
  Beta  occ. eigenvalues --   -1.13547  -1.13523  -1.13214  -1.13172  -1.13157
  Beta  occ. eigenvalues --   -1.13145  -1.13135  -1.13125  -1.13103  -1.13101
  Beta  occ. eigenvalues --   -1.13065  -1.12975  -1.12855  -1.12833  -1.12829
  Beta  occ. eigenvalues --   -1.12780  -1.12766  -1.12593  -1.12544  -1.12529
  Beta  occ. eigenvalues --   -0.18146  -0.12774  -0.12380
  Beta virt. eigenvalues --   -0.06719  -0.05594  -0.05099  -0.04676  -0.02359
  Beta virt. eigenvalues --   -0.02115  -0.01447  -0.01299  -0.01091  -0.00381
  Beta virt. eigenvalues --   -0.00293   0.00153   0.00382   0.00856   0.00879

 Mulliken charges and spin densities:
               1          2
     1  Na  -0.187598   0.429521
     2  Na   0.236167   0.003605
     3  Na  -0.014230   0.045223
     4  Na   0.096198  -0.133069
     5  Na  -0.425103   0.795249
     6  Na   0.168253  -0.107744
     7  Na   0.126314  -0.032785
 Sum of Mulliken charges =  -0.00000   1.00000

 Dipole moment (field-independent basis, Debye):
    X=              0.2489    Y=              0.1100    Z=              0.1459  Tot=              0.3088
 Quadrupole moment (field-independent basis, Debye-Ang):
   XX=            -55.9439   YY=            -61.5553   ZZ=            -75.0978
   XY=              0.0917   XZ=             -1.2383   YZ=             -0.8103

 Normal termination of Gaussian 16 at Tue Dec  5 11:17:55 2023.
