 Gaussian 16, Revision B.01,
 Gaussian 16:  ES64L-G16RevB.01 20-Dec-2017

 -------------------------
 #P B3LYP/6-311+g(d) force
 -------------------------

 -----
 DPGEN
 -----
 Symbolic Z-matrix:
 Charge =  0 Multiplicity = 2

                         Standard orientation:
 ---------------------------------------------------------------------
 Center     Atomic      Atomic             Coordinates (Angstroms)
 Number     Number       Type             X           Y           Z
 ---------------------------------------------------------------------
      1         11           0        1.892542    0.469525   -1.455924
      2         11           0       -0.997170   -2.106381   -0.862945
      3         11           0        4.490601   -0.160909    0.045717
      4         11           0        1.664008   -0.637176    1.522943
      5         11           0       -3.978637   -0.837792   -0.368000
      6         11           0       -1.285275    2.607629   -0.622071
      7         11           0       -1.786070    0.665103    1.740280
 ---------------------------------------------------------------------

 SCF Done:  E(UB3LYP) =  -1136.10824905     A.U. after   29 cycles

 The electronic state is 2-A.
 Alpha  occ. eigenvalues --  -38.46001 -38.44792 -38.44642 -38.44005 -38.43907
 Alpha  occ. eigenvalues --  -38.43859 -38.42547  -2.21841  -2.20677  -2.20449
 Alpha  occ. eigenvalues --   -2.19916  -2.19745  -2.19714  -2.18366  -1.15524
 Alpha  occ. eigenvalues --   -1.15503  -1.15477  -1.14371  -1.14350  -1.14274
 Alpha  occ. eigenvalues --   -1.14133  -1.14103  -1.14085  -1.13601  -1.13554
 Alpha  occ. eigenvalues --   -1.13527  -1.13420  -1.13413  -1.13392  -1.13377
 Alpha  occ. eigenvalues --   -1.13364  -1.13344  -1.12044  -1.12024  -1.12006
 Alpha  occ. eigenvalues --   -0.18023  -0.14651  -0.10830  -0.10780
 Alpha virt. eigenvalues --   -0.08094  -0.05116  -0.04389  -0.03813  -0.03028
 Alpha virt. eigenvalues --   -0.02375  -0.02169  -0.01318  -0.01043  -0.00687
 Alpha virt. eigenvalues --   -0.00081   0.00148   0.00194   0.00710   0.00773

  Beta  occ. eigenvalues --  -38.45997 -38.44753 -38.44639 -38.43929 -38.43889
  Beta  occ. eigenvalues --  -38.43826 -38.42544  -2.21835  -2.20606  -2.20444
  Beta  occ. eigenvalues --   -2.19776  -2.19689  -2.19682  -2.18361  -1.15514
  Beta  occ. eigenvalues --   -1.15487  -1.15474  -1.14311  -1.14300  -1.14226
  Beta  occ. eigenvalues --   -1.14128  -1.14098  -1.14081  -1.13508  -1.13455
  Beta  occ. eigenvalues --   -1.13419  -1.13387  -1.13373  -1.13348  -1.13341
  Beta  occ. eigenvalues --   -1.13326  -1.13322  -1.12040  -1.12015  -1.12003
  Beta  occ. eigenvalues --   -0.17365  -0.14506  -0.10654
  Beta virt. eigenvalues --   -0.07887  -0.07018  -0.04481  -0.04220  -0.03647
  Beta virt. eigenvalues --   -0.02799  -0.01867  -0.01599  -0.01047  -0.00716
  Beta virt. eigenvalues --   -0.00569   0.00045   0.00182   0.00349   0.00807

 Mulliken charges and spin densities:
               1          2
     1  Na  -0.427417   0.247072
     2  Na  -0.188994   0.198787
     3  Na   0.578678   0.011945
     4  Na  -0.097440   0.432854
     5  Na   0.350783   0.005110
     6  Na  -0.121686   0.152826
     7  Na  -0.093924  -0.048593
 Sum of Mulliken charges =  -0.00000   1.00000

 Dipole moment (field-independent basis, Debye):
    X=              1.7337    Y=             -0.2090    Z=              0.1735  Tot=              1.7549
 Quadrupole moment (field-independent basis, Debye-Ang):
   XX=            -41.8380   YY=            -81.8822   ZZ=            -70.7811
   XY=             -3.8924   XZ=             -0.4772   YZ=             -0.9287

 Normal termination of Gaussian 16 at Sun Dec  3 13:59:29 2023.
