 Gaussian 16, Revision B.01,
 Gaussian 16:  ES64L-G16RevB.01 20-Dec-2017

 -------------------------
 #P B3LYP/6-311+g(d) force
 -------------------------

 -----
 DPGEN
 -----
 Symbolic Z-matrix:
 Charge =  0 Multiplicity = 2

                         Standard orientation:
 ---------------------------------------------------------------------
 Center     Atomic      Atomic             Coordinates (Angstroms)
 Number     Number       Type             X           Y           Z
 ---------------------------------------------------------------------
      1         11           0        3.030139    0.623937   -0.150421
      2         11           0        0.402303    2.755345   -0.052110
      3         11           0       -0.113072    0.025608    1.771460
      4         11           0       -2.554216   -2.143659   -0.143318
      5         11           0        1.628396   -2.496643    0.194868
      6         11           0        0.243815   -0.398385   -1.485543
      7         11           0       -2.637365    1.633796   -0.134935
 ---------------------------------------------------------------------

 SCF Done:  E(UB3LYP) =  -1136.13501393     A.U. after   20 cycles

 The electronic state is 2-A.
 Alpha  occ. eigenvalues --  -38.44163 -38.43996 -38.43906 -38.43894 -38.43076
 Alpha  occ. eigenvalues --  -38.42926 -38.42925  -2.19945  -2.19833  -2.19782
 Alpha  occ. eigenvalues --   -2.19773  -2.18983  -2.18953  -2.18891  -1.13623
 Alpha  occ. eigenvalues --   -1.13598  -1.13589  -1.13515  -1.13511  -1.13501
 Alpha  occ. eigenvalues --   -1.13467  -1.13465  -1.13443  -1.13435  -1.13423
 Alpha  occ. eigenvalues --   -1.13366  -1.12709  -1.12659  -1.12649  -1.12624
 Alpha  occ. eigenvalues --   -1.12588  -1.12560  -1.12547  -1.12502  -1.12495
 Alpha  occ. eigenvalues --   -0.18920  -0.13177  -0.12590  -0.10230
 Alpha virt. eigenvalues --   -0.05823  -0.05445  -0.04660  -0.03003  -0.02680
 Alpha virt. eigenvalues --   -0.01985  -0.01674  -0.01348  -0.00538  -0.00317
 Alpha virt. eigenvalues --    0.00038   0.00338   0.00770   0.00832   0.00889

  Beta  occ. eigenvalues --  -38.44161 -38.43993 -38.43898 -38.43884 -38.43068
  Beta  occ. eigenvalues --  -38.42867 -38.42838  -2.19944  -2.19830  -2.19771
  Beta  occ. eigenvalues --   -2.19760  -2.18973  -2.18848  -2.18732  -1.13606
  Beta  occ. eigenvalues --   -1.13599  -1.13589  -1.13512  -1.13505  -1.13481
  Beta  occ. eigenvalues --   -1.13465  -1.13454  -1.13433  -1.13405  -1.13389
  Beta  occ. eigenvalues --   -1.13362  -1.12681  -1.12626  -1.12602  -1.12590
  Beta  occ. eigenvalues --   -1.12517  -1.12475  -1.12453  -1.12388  -1.12383
  Beta  occ. eigenvalues --   -0.18202  -0.12930  -0.12337
  Beta virt. eigenvalues --   -0.06351  -0.05809  -0.05393  -0.04652  -0.02222
  Beta virt. eigenvalues --   -0.01941  -0.01598  -0.01284  -0.00976  -0.00583
  Beta virt. eigenvalues --   -0.00358   0.00178   0.00378   0.00792   0.00858

 Mulliken charges and spin densities:
               1          2
     1  Na   0.431302   0.051800
     2  Na   0.187615  -0.006996
     3  Na  -0.355949   0.670075
     4  Na   0.012392  -0.105363
     5  Na   0.285998  -0.081382
     6  Na  -0.594496   0.525187
     7  Na   0.033137  -0.053321
 Sum of Mulliken charges =  -0.00000   1.00000

 Dipole moment (field-independent basis, Debye):
    X=             -0.1587    Y=             -0.3016    Z=              0.0990  Tot=              0.3549
 Quadrupole moment (field-independent basis, Debye-Ang):
   XX=            -53.8032   YY=            -60.2891   ZZ=            -77.1410
   XY=              0.1304   XZ=              0.7207   YZ=             -0.9343

 Normal termination of Gaussian 16 at Tue Nov 28 18:50:06 2023.
