 Gaussian 16, Revision B.01,
 Gaussian 16:  ES64L-G16RevB.01 20-Dec-2017

 -------------------------
 #P B3LYP/6-311+g(d) force
 -------------------------

 -----
 DPGEN
 -----
 Symbolic Z-matrix:
 Charge =  0 Multiplicity = 2

                         Standard orientation:
 ---------------------------------------------------------------------
 Center     Atomic      Atomic             Coordinates (Angstroms)
 Number     Number       Type             X           Y           Z
 ---------------------------------------------------------------------
      1         11           0        0.357899   -0.034289   -1.689712
      2         11           0        1.350842   -2.916444   -0.318235
      3         11           0       -2.529884    1.414770    0.854802
      4         11           0        0.801599    2.933322   -0.734166
      5         11           0       -2.832384   -1.242351   -0.881658
      6         11           0        3.073099    0.493791    0.577036
      7         11           0       -0.221172   -0.648798    2.191934
 ---------------------------------------------------------------------

 SCF Done:  E(UB3LYP) =  -1136.13107382     A.U. after   19 cycles

 The electronic state is 2-A.
 Alpha  occ. eigenvalues --  -38.44550 -38.44287 -38.44274 -38.43741 -38.43473
 Alpha  occ. eigenvalues --  -38.43445 -38.43042  -2.20345  -2.20117  -2.20108
 Alpha  occ. eigenvalues --   -2.19587  -2.19389  -2.19274  -2.18872  -1.14030
 Alpha  occ. eigenvalues --   -1.14007  -1.13963  -1.13790  -1.13784  -1.13770
 Alpha  occ. eigenvalues --   -1.13752  -1.13740  -1.13734  -1.13265  -1.13241
 Alpha  occ. eigenvalues --   -1.13213  -1.13074  -1.13065  -1.13023  -1.12947
 Alpha  occ. eigenvalues --   -1.12925  -1.12908  -1.12565  -1.12517  -1.12496
 Alpha  occ. eigenvalues --   -0.18049  -0.12995  -0.11904  -0.11351
 Alpha virt. eigenvalues --   -0.05856  -0.05063  -0.04430  -0.03615  -0.03039
 Alpha virt. eigenvalues --   -0.02957  -0.01550  -0.01080  -0.00447  -0.00123
 Alpha virt. eigenvalues --    0.00025   0.00404   0.00618   0.00779   0.00805

  Beta  occ. eigenvalues --  -38.44542 -38.44269 -38.44188 -38.43726 -38.43473
  Beta  occ. eigenvalues --  -38.43385 -38.43035  -2.20330  -2.20076  -2.19957
  Beta  occ. eigenvalues --   -2.19561  -2.19280  -2.19276  -2.18861  -1.14009
  Beta  occ. eigenvalues --   -1.13998  -1.13954  -1.13768  -1.13732  -1.13723
  Beta  occ. eigenvalues --   -1.13679  -1.13640  -1.13616  -1.13236  -1.13221
  Beta  occ. eigenvalues --   -1.13191  -1.13010  -1.12995  -1.12944  -1.12933
  Beta  occ. eigenvalues --   -1.12913  -1.12904  -1.12547  -1.12507  -1.12491
  Beta  occ. eigenvalues --   -0.17312  -0.12810  -0.11695
  Beta virt. eigenvalues --   -0.07459  -0.05690  -0.04871  -0.04350  -0.02968
  Beta virt. eigenvalues --   -0.02425  -0.02012  -0.01430  -0.00985  -0.00343
  Beta virt. eigenvalues --   -0.00098   0.00105   0.00441   0.00741   0.00815

 Mulliken charges and spin densities:
               1          2
     1  Na   0.353838   0.351328
     2  Na  -0.161474  -0.058068
     3  Na  -0.028389   0.169789
     4  Na   0.042543  -0.027874
     5  Na  -0.056579   0.002117
     6  Na  -0.074738   0.070956
     7  Na  -0.075201   0.491752
 Sum of Mulliken charges =  -0.00000   1.00000

 Dipole moment (field-independent basis, Debye):
    X=              0.0833    Y=             -0.2967    Z=              0.3368  Tot=              0.4565
 Quadrupole moment (field-independent basis, Debye-Ang):
   XX=            -58.7929   YY=            -65.4697   ZZ=            -70.7429
   XY=             -0.0810   XZ=              2.6086   YZ=              2.1253

 Normal termination of Gaussian 16 at Mon Dec  4 03:11:26 2023.
