 Gaussian 16, Revision B.01,
 Gaussian 16:  ES64L-G16RevB.01 20-Dec-2017

 -------------------------
 #P B3LYP/6-311+g(d) force
 -------------------------

 -----
 DPGEN
 -----
 Symbolic Z-matrix:
 Charge =  0 Multiplicity = 2

                         Standard orientation:
 ---------------------------------------------------------------------
 Center     Atomic      Atomic             Coordinates (Angstroms)
 Number     Number       Type             X           Y           Z
 ---------------------------------------------------------------------
      1         11           0       -1.317693    1.353388   -1.540762
      2         11           0       -0.204648   -0.689487    1.634809
      3         11           0        3.690233   -0.691015    0.579096
      4         11           0       -2.366884   -2.289170   -0.540567
      5         11           0       -3.219607    1.425312    1.074467
      6         11           0        2.232112    2.205254   -0.211023
      7         11           0        1.186486   -1.314283   -0.996020
 ---------------------------------------------------------------------

 SCF Done:  E(UB3LYP) =  -1136.12113834     A.U. after   24 cycles

 The electronic state is 2-A.
 Alpha  occ. eigenvalues --  -38.44802 -38.44331 -38.44195 -38.44175 -38.43967
 Alpha  occ. eigenvalues --  -38.43411 -38.43156  -2.20662  -2.20209  -2.19991
 Alpha  occ. eigenvalues --   -2.19970  -2.19785  -2.19371  -2.19011  -1.14372
 Alpha  occ. eigenvalues --   -1.14297  -1.14289  -1.13954  -1.13844  -1.13822
 Alpha  occ. eigenvalues --   -1.13669  -1.13653  -1.13643  -1.13629  -1.13616
 Alpha  occ. eigenvalues --   -1.13610  -1.13452  -1.13435  -1.13415  -1.13092
 Alpha  occ. eigenvalues --   -1.13033  -1.12956  -1.12686  -1.12668  -1.12640
 Alpha  occ. eigenvalues --   -0.18207  -0.14077  -0.11270  -0.10602
 Alpha virt. eigenvalues --   -0.06588  -0.05946  -0.04330  -0.03202  -0.02714
 Alpha virt. eigenvalues --   -0.02263  -0.02091  -0.01502  -0.00682  -0.00412
 Alpha virt. eigenvalues --    0.00117   0.00172   0.00328   0.00566   0.00689

  Beta  occ. eigenvalues --  -38.44786 -38.44297 -38.44189 -38.44166 -38.43928
  Beta  occ. eigenvalues --  -38.43383 -38.43119  -2.20633  -2.20147  -2.19982
  Beta  occ. eigenvalues --   -2.19956  -2.19712  -2.19324  -2.18944  -1.14354
  Beta  occ. eigenvalues --   -1.14277  -1.14265  -1.13900  -1.13804  -1.13774
  Beta  occ. eigenvalues --   -1.13661  -1.13643  -1.13622  -1.13615  -1.13608
  Beta  occ. eigenvalues --   -1.13594  -1.13405  -1.13384  -1.13361  -1.13065
  Beta  occ. eigenvalues --   -1.12963  -1.12926  -1.12643  -1.12605  -1.12591
  Beta  occ. eigenvalues --   -0.17571  -0.13802  -0.11048
  Beta virt. eigenvalues --   -0.06919  -0.06336  -0.05924  -0.03677  -0.03088
  Beta virt. eigenvalues --   -0.02367  -0.01853  -0.01411  -0.01307  -0.00425
  Beta virt. eigenvalues --   -0.00275   0.00129   0.00204   0.00453   0.00646

 Mulliken charges and spin densities:
               1          2
     1  Na  -0.157401   0.112580
     2  Na  -0.308615   0.308096
     3  Na   0.702587   0.122273
     4  Na   0.155356  -0.016080
     5  Na  -0.005520   0.129734
     6  Na  -0.284598   0.006493
     7  Na  -0.101808   0.336903
 Sum of Mulliken charges =  -0.00000   1.00000

 Dipole moment (field-independent basis, Debye):
    X=              0.5481    Y=             -0.4442    Z=              0.2139  Tot=              0.7372
 Quadrupole moment (field-independent basis, Debye-Ang):
   XX=            -49.8726   YY=            -72.7189   ZZ=            -71.3235
   XY=              2.3950   XZ=              2.1546   YZ=              2.2272

 Normal termination of Gaussian 16 at Tue Dec  5 20:02:41 2023.
