 Gaussian 16, Revision B.01,
 Gaussian 16:  ES64L-G16RevB.01 20-Dec-2017

 -------------------------
 #P B3LYP/6-311+g(d) force
 -------------------------

 -----
 DPGEN
 -----
 Symbolic Z-matrix:
 Charge =  0 Multiplicity = 2

                         Standard orientation:
 ---------------------------------------------------------------------
 Center     Atomic      Atomic             Coordinates (Angstroms)
 Number     Number       Type             X           Y           Z
 ---------------------------------------------------------------------
      1         11           0        1.306371    2.574399   -0.309301
      2         11           0       -2.736920   -1.260453   -0.489249
      3         11           0       -0.103386   -2.706421    0.778918
      4         11           0       -0.089406    0.838684    2.276298
      5         11           0        3.147841   -0.842960   -0.133862
      6         11           0        0.558194   -0.551025   -1.761036
      7         11           0       -2.082694    1.947776   -0.361767
 ---------------------------------------------------------------------

 SCF Done:  E(UB3LYP) =  -1136.13586403     A.U. after   18 cycles

 The electronic state is 2-A.
 Alpha  occ. eigenvalues --  -38.44150 -38.43961 -38.43634 -38.43633 -38.43559
 Alpha  occ. eigenvalues --  -38.43498 -38.43399  -2.19999  -2.19783  -2.19496
 Alpha  occ. eigenvalues --   -2.19482  -2.19476  -2.19357  -2.19257  -1.13651
 Alpha  occ. eigenvalues --   -1.13638  -1.13619  -1.13519  -1.13432  -1.13410
 Alpha  occ. eigenvalues --   -1.13199  -1.13182  -1.13153  -1.13147  -1.13141
 Alpha  occ. eigenvalues --   -1.13128  -1.13119  -1.13104  -1.13090  -1.13049
 Alpha  occ. eigenvalues --   -1.13024  -1.12996  -1.12915  -1.12902  -1.12889
 Alpha  occ. eigenvalues --   -0.18397  -0.12738  -0.12608  -0.11232
 Alpha virt. eigenvalues --   -0.05519  -0.04931  -0.04666  -0.03550  -0.03228
 Alpha virt. eigenvalues --   -0.02931  -0.01317  -0.00958  -0.00244  -0.00145
 Alpha virt. eigenvalues --   -0.00047   0.00375   0.00806   0.00881   0.00933

  Beta  occ. eigenvalues --  -38.44057 -38.43961 -38.43628 -38.43613 -38.43508
  Beta  occ. eigenvalues --  -38.43489 -38.43392  -2.19827  -2.19785  -2.19470
  Beta  occ. eigenvalues --   -2.19447  -2.19402  -2.19344  -2.19247  -1.13539
  Beta  occ. eigenvalues --   -1.13520  -1.13509  -1.13493  -1.13426  -1.13411
  Beta  occ. eigenvalues --   -1.13166  -1.13164  -1.13131  -1.13112  -1.13103
  Beta  occ. eigenvalues --   -1.13099  -1.13083  -1.13058  -1.13041  -1.13036
  Beta  occ. eigenvalues --   -1.12998  -1.12983  -1.12900  -1.12889  -1.12880
  Beta  occ. eigenvalues --   -0.17674  -0.12507  -0.12427
  Beta virt. eigenvalues --   -0.07326  -0.05473  -0.04883  -0.04431  -0.02851
  Beta virt. eigenvalues --   -0.02528  -0.01923  -0.01237  -0.00907  -0.00194
  Beta virt. eigenvalues --   -0.00136   0.00075   0.00416   0.00873   0.00906

 Mulliken charges and spin densities:
               1          2
     1  Na   0.179960  -0.066707
     2  Na   0.151332  -0.048279
     3  Na  -0.057526   0.211656
     4  Na  -0.495687   0.548362
     5  Na   0.225357  -0.059750
     6  Na  -0.119653   0.348071
     7  Na   0.116217   0.066645
 Sum of Mulliken charges =  -0.00000   1.00000

 Dipole moment (field-independent basis, Debye):
    X=              0.3644    Y=              0.0790    Z=              0.2008  Tot=              0.4235
 Quadrupole moment (field-independent basis, Debye-Ang):
   XX=            -60.6089   YY=            -65.0370   ZZ=            -70.3372
   XY=              0.0047   XZ=              1.6016   YZ=             -2.2114

 Normal termination of Gaussian 16 at Tue Dec  5 10:49:56 2023.
