 Gaussian 16, Revision B.01,
 Gaussian 16:  ES64L-G16RevB.01 20-Dec-2017

 -------------------------
 #P B3LYP/6-311+g(d) force
 -------------------------

 -----
 DPGEN
 -----
 Symbolic Z-matrix:
 Charge =  0 Multiplicity = 2

                         Standard orientation:
 ---------------------------------------------------------------------
 Center     Atomic      Atomic             Coordinates (Angstroms)
 Number     Number       Type             X           Y           Z
 ---------------------------------------------------------------------
      1         11           0       -2.160489   -2.004615    0.279079
      2         11           0        3.113832    0.554601   -0.047000
      3         11           0        0.142860    0.098269   -1.476859
      4         11           0        1.344711   -2.670655   -0.493862
      5         11           0        0.333089    3.053913    0.213563
      6         11           0        0.026156   -0.278090    2.060533
      7         11           0       -2.800159    1.246577   -0.535453
 ---------------------------------------------------------------------

 SCF Done:  E(UB3LYP) =  -1136.13879110     A.U. after   20 cycles

 The electronic state is 2-A.
 Alpha  occ. eigenvalues --  -38.44006 -38.43674 -38.43608 -38.43594 -38.43592
 Alpha  occ. eigenvalues --  -38.43496 -38.42931  -2.19825  -2.19491  -2.19486
 Alpha  occ. eigenvalues --   -2.19450  -2.19444  -2.19361  -2.18951  -1.13513
 Alpha  occ. eigenvalues --   -1.13488  -1.13453  -1.13180  -1.13173  -1.13163
 Alpha  occ. eigenvalues --   -1.13156  -1.13144  -1.13126  -1.13122  -1.13112
 Alpha  occ. eigenvalues --   -1.13105  -1.13085  -1.13081  -1.13066  -1.13021
 Alpha  occ. eigenvalues --   -1.13013  -1.12982  -1.12636  -1.12585  -1.12577
 Alpha  occ. eigenvalues --   -0.18622  -0.12849  -0.12580  -0.10724
 Alpha virt. eigenvalues --   -0.05505  -0.05008  -0.04958  -0.03076  -0.02934
 Alpha virt. eigenvalues --   -0.02487  -0.01434  -0.01248  -0.00423  -0.00330
 Alpha virt. eigenvalues --    0.00017   0.00353   0.00831   0.00874   0.00887

  Beta  occ. eigenvalues --  -38.44004 -38.43671 -38.43596 -38.43578 -38.43497
  Beta  occ. eigenvalues --  -38.43487 -38.42876  -2.19824  -2.19487  -2.19430
  Beta  occ. eigenvalues --   -2.19423  -2.19351  -2.19309  -2.18854  -1.13507
  Beta  occ. eigenvalues --   -1.13482  -1.13449  -1.13168  -1.13149  -1.13138
  Beta  occ. eigenvalues --   -1.13129  -1.13119  -1.13091  -1.13077  -1.13070
  Beta  occ. eigenvalues --   -1.13067  -1.13048  -1.13015  -1.12995  -1.12983
  Beta  occ. eigenvalues --   -1.12978  -1.12947  -1.12565  -1.12512  -1.12507
  Beta  occ. eigenvalues --   -0.17916  -0.12594  -0.12330
  Beta virt. eigenvalues --   -0.06826  -0.05508  -0.04953  -0.04879  -0.02309
  Beta virt. eigenvalues --   -0.02213  -0.01439  -0.01350  -0.01161  -0.00435
  Beta virt. eigenvalues --   -0.00366   0.00146   0.00386   0.00841   0.00890

 Mulliken charges and spin densities:
               1          2
     1  Na   0.279952   0.071885
     2  Na   0.057495  -0.049368
     3  Na  -0.215233   0.275609
     4  Na   0.172934  -0.011061
     5  Na   0.004546   0.009753
     6  Na  -0.376933   0.700802
     7  Na   0.077239   0.002380
 Sum of Mulliken charges =  -0.00000   1.00000

 Dipole moment (field-independent basis, Debye):
    X=              0.2490    Y=              0.0660    Z=              0.1947  Tot=              0.3229
 Quadrupole moment (field-independent basis, Debye-Ang):
   XX=            -57.7889   YY=            -60.2456   ZZ=            -74.6421
   XY=              0.2230   XZ=              0.5176   YZ=              0.9265

 Normal termination of Gaussian 16 at Thu Dec  7 06:13:07 2023.
