 Gaussian 16, Revision B.01,
 Gaussian 16:  ES64L-G16RevB.01 20-Dec-2017

 -------------------------
 #P B3LYP/6-311+g(d) force
 -------------------------

 -----
 DPGEN
 -----
 Symbolic Z-matrix:
 Charge =  0 Multiplicity = 2

                         Standard orientation:
 ---------------------------------------------------------------------
 Center     Atomic      Atomic             Coordinates (Angstroms)
 Number     Number       Type             X           Y           Z
 ---------------------------------------------------------------------
      1         11           0        0.061803    2.499627    0.687208
      2         11           0        4.605951   -1.313033   -0.691990
      3         11           0       -3.645942    1.605290   -0.382597
      4         11           0        2.839442    1.668301   -0.753317
      5         11           0       -1.614231   -0.712031    0.790416
      6         11           0       -4.266434   -2.136342   -0.709122
      7         11           0        2.019412   -1.611812    1.059401
 ---------------------------------------------------------------------

 SCF Done:  E(UB3LYP) =  -1136.11804914     A.U. after   27 cycles

 The electronic state is 2-A.
 Alpha  occ. eigenvalues --  -38.45701 -38.44603 -38.44563 -38.43819 -38.43722
 Alpha  occ. eigenvalues --  -38.43628 -38.42663  -2.21485  -2.20388  -2.20374
 Alpha  occ. eigenvalues --   -2.19663  -2.19560  -2.19517  -2.18483  -1.15172
 Alpha  occ. eigenvalues --   -1.15159  -1.15074  -1.14069  -1.14057  -1.14056
 Alpha  occ. eigenvalues --   -1.14047  -1.14003  -1.14001  -1.13363  -1.13334
 Alpha  occ. eigenvalues --   -1.13312  -1.13210  -1.13209  -1.13201  -1.13186
 Alpha  occ. eigenvalues --   -1.13167  -1.13130  -1.12167  -1.12141  -1.12132
 Alpha  occ. eigenvalues --   -0.16824  -0.14578  -0.11524  -0.10729
 Alpha virt. eigenvalues --   -0.07338  -0.04861  -0.04287  -0.03934  -0.02992
 Alpha virt. eigenvalues --   -0.02378  -0.01997  -0.01572  -0.00980  -0.00595
 Alpha virt. eigenvalues --   -0.00089   0.00060   0.00270   0.00417   0.00588

  Beta  occ. eigenvalues --  -38.45675 -38.44613 -38.44521 -38.43765 -38.43700
  Beta  occ. eigenvalues --  -38.43582 -38.42658  -2.21436  -2.20393  -2.20312
  Beta  occ. eigenvalues --   -2.19567  -2.19519  -2.19435  -2.18475  -1.15138
  Beta  occ. eigenvalues --   -1.15127  -1.15039  -1.14068  -1.14060  -1.14018
  Beta  occ. eigenvalues --   -1.14009  -1.14002  -1.13942  -1.13303  -1.13266
  Beta  occ. eigenvalues --   -1.13250  -1.13181  -1.13160  -1.13159  -1.13131
  Beta  occ. eigenvalues --   -1.13118  -1.13042  -1.12161  -1.12133  -1.12119
  Beta  occ. eigenvalues --   -0.16176  -0.14260  -0.11425
  Beta virt. eigenvalues --   -0.07204  -0.06888  -0.04372  -0.04037  -0.03735
  Beta virt. eigenvalues --   -0.02481  -0.02259  -0.01580  -0.01222  -0.00947
  Beta virt. eigenvalues --   -0.00398  -0.00009   0.00310   0.00406   0.00509

 Mulliken charges and spin densities:
               1          2
     1  Na  -0.399419  -0.010604
     2  Na   0.641499   0.110478
     3  Na   0.890620   0.222401
     4  Na  -0.141929   0.266863
     5  Na  -1.538871   0.133267
     6  Na   1.059043   0.090416
     7  Na  -0.510944   0.187178
 Sum of Mulliken charges =  -0.00000   1.00000

 Dipole moment (field-independent basis, Debye):
    X=             -1.2168    Y=             -0.1194    Z=             -0.7905  Tot=              1.4559
 Quadrupole moment (field-independent basis, Debye-Ang):
   XX=            -55.8301   YY=            -66.1983   ZZ=            -70.7420
   XY=             -2.1981   XZ=              0.7061   YZ=              0.8549

 Normal termination of Gaussian 16 at Mon Dec  4 02:48:33 2023.
