 Gaussian 16, Revision B.01,
 Gaussian 16:  ES64L-G16RevB.01 20-Dec-2017

 -------------------------
 #P B3LYP/6-311+g(d) force
 -------------------------

 -----
 DPGEN
 -----
 Symbolic Z-matrix:
 Charge =  0 Multiplicity = 2

                         Standard orientation:
 ---------------------------------------------------------------------
 Center     Atomic      Atomic             Coordinates (Angstroms)
 Number     Number       Type             X           Y           Z
 ---------------------------------------------------------------------
      1         11           0       -2.247572    2.334260    0.542521
      2         11           0       -3.782930   -0.428964   -1.292566
      3         11           0        1.225855    0.221757    2.307294
      4         11           0       -2.050281   -2.020819    0.888892
      5         11           0        1.583186   -1.821398   -0.753274
      6         11           0        1.022432    1.610244   -1.149663
      7         11           0        4.249310    0.104920   -0.543204
 ---------------------------------------------------------------------

 SCF Done:  E(UB3LYP) =  -1136.11580867     A.U. after   26 cycles

 The electronic state is 2-A.
 Alpha  occ. eigenvalues --  -38.45381 -38.44855 -38.44475 -38.44352 -38.44097
 Alpha  occ. eigenvalues --  -38.43383 -38.43315  -2.21195  -2.20665  -2.20281
 Alpha  occ. eigenvalues --   -2.20178  -2.19905  -2.19145  -2.19108  -1.14856
 Alpha  occ. eigenvalues --   -1.14849  -1.14818  -1.14315  -1.14298  -1.14278
 Alpha  occ. eigenvalues --   -1.13947  -1.13935  -1.13905  -1.13888  -1.13845
 Alpha  occ. eigenvalues --   -1.13792  -1.13618  -1.13580  -1.13500  -1.12825
 Alpha  occ. eigenvalues --   -1.12809  -1.12787  -1.12786  -1.12772  -1.12757
 Alpha  occ. eigenvalues --   -0.17456  -0.14033  -0.11130  -0.10772
 Alpha virt. eigenvalues --   -0.06940  -0.05540  -0.05008  -0.03022  -0.02960
 Alpha virt. eigenvalues --   -0.02607  -0.02469  -0.01241  -0.01119  -0.00379
 Alpha virt. eigenvalues --   -0.00051   0.00024   0.00259   0.00454   0.00571

  Beta  occ. eigenvalues --  -38.45346 -38.44750 -38.44439 -38.44344 -38.44092
  Beta  occ. eigenvalues --  -38.43388 -38.43315  -2.21131  -2.20471  -2.20213
  Beta  occ. eigenvalues --   -2.20167  -2.19896  -2.19155  -2.19110  -1.14807
  Beta  occ. eigenvalues --   -1.14798  -1.14779  -1.14181  -1.14168  -1.14137
  Beta  occ. eigenvalues --   -1.13903  -1.13889  -1.13885  -1.13858  -1.13831
  Beta  occ. eigenvalues --   -1.13766  -1.13615  -1.13566  -1.13487  -1.12828
  Beta  occ. eigenvalues --   -1.12818  -1.12788  -1.12787  -1.12774  -1.12740
  Beta  occ. eigenvalues --   -0.16811  -0.13622  -0.10682
  Beta virt. eigenvalues --   -0.07476  -0.06602  -0.05427  -0.04465  -0.02933
  Beta virt. eigenvalues --   -0.02531  -0.02045  -0.01900  -0.01153  -0.00653
  Beta virt. eigenvalues --   -0.00292   0.00009   0.00081   0.00376   0.00583

 Mulliken charges and spin densities:
               1          2
     1  Na  -0.025506   0.063089
     2  Na   0.091362   0.160590
     3  Na  -0.235570   0.493373
     4  Na  -0.080555   0.040924
     5  Na  -0.102369   0.078205
     6  Na  -0.313970   0.051295
     7  Na   0.666607   0.112525
 Sum of Mulliken charges =  -0.00000   1.00000

 Dipole moment (field-independent basis, Debye):
    X=              1.6802    Y=              0.1656    Z=             -0.0568  Tot=              1.6893
 Quadrupole moment (field-independent basis, Debye-Ang):
   XX=            -50.5364   YY=            -80.4690   ZZ=            -65.8411
   XY=             -0.0876   XZ=              3.2085   YZ=              1.3937

 Normal termination of Gaussian 16 at Thu Dec  7 17:02:55 2023.
