 Gaussian 16, Revision B.01,
 Gaussian 16:  ES64L-G16RevB.01 20-Dec-2017

 -------------------------
 #P B3LYP/6-311+g(d) force
 -------------------------

 -----
 DPGEN
 -----
 Symbolic Z-matrix:
 Charge =  0 Multiplicity = 2

                         Standard orientation:
 ---------------------------------------------------------------------
 Center     Atomic      Atomic             Coordinates (Angstroms)
 Number     Number       Type             X           Y           Z
 ---------------------------------------------------------------------
      1         11           0        3.382057    1.078801   -0.004105
      2         11           0       -1.310134   -2.606482   -0.546377
      3         11           0       -0.165128   -0.308347    1.819262
      4         11           0       -3.217318   -0.043509    0.051391
      5         11           0       -1.142696    3.075673    0.110654
      6         11           0        2.180985   -1.788666    0.146575
      7         11           0        0.272235    0.592529   -1.577400
 ---------------------------------------------------------------------

 SCF Done:  E(UB3LYP) =  -1136.13170151     A.U. after   21 cycles

 The electronic state is 2-A.
 Alpha  occ. eigenvalues --  -38.44839 -38.44696 -38.43623 -38.43506 -38.43308
 Alpha  occ. eigenvalues --  -38.43194 -38.43056  -2.20652  -2.20523  -2.19531
 Alpha  occ. eigenvalues --   -2.19304  -2.19232  -2.19118  -2.18925  -1.14339
 Alpha  occ. eigenvalues --   -1.14308  -1.14290  -1.14199  -1.14197  -1.14150
 Alpha  occ. eigenvalues --   -1.13236  -1.13188  -1.13167  -1.12996  -1.12966
 Alpha  occ. eigenvalues --   -1.12943  -1.12920  -1.12855  -1.12845  -1.12808
 Alpha  occ. eigenvalues --   -1.12750  -1.12733  -1.12594  -1.12578  -1.12569
 Alpha  occ. eigenvalues --   -0.18503  -0.13512  -0.12107  -0.10277
 Alpha virt. eigenvalues --   -0.06497  -0.05131  -0.04568  -0.03286  -0.02663
 Alpha virt. eigenvalues --   -0.02107  -0.02060  -0.01160  -0.00717  -0.00300
 Alpha virt. eigenvalues --   -0.00005   0.00318   0.00721   0.00758   0.00810

  Beta  occ. eigenvalues --  -38.44840 -38.44691 -38.43611 -38.43506 -38.43225
  Beta  occ. eigenvalues --  -38.43136 -38.43040  -2.20656  -2.20518  -2.19515
  Beta  occ. eigenvalues --   -2.19307  -2.19080  -2.19013  -2.18897  -1.14344
  Beta  occ. eigenvalues --   -1.14295  -1.14291  -1.14197  -1.14170  -1.14150
  Beta  occ. eigenvalues --   -1.13220  -1.13163  -1.13143  -1.12991  -1.12960
  Beta  occ. eigenvalues --   -1.12942  -1.12821  -1.12746  -1.12743  -1.12728
  Beta  occ. eigenvalues --   -1.12671  -1.12659  -1.12577  -1.12559  -1.12528
  Beta  occ. eigenvalues --   -0.17793  -0.13292  -0.11890
  Beta virt. eigenvalues --   -0.06457  -0.06422  -0.05075  -0.04516  -0.02528
  Beta virt. eigenvalues --   -0.02018  -0.01948  -0.01184  -0.01024  -0.00725
  Beta virt. eigenvalues --   -0.00315   0.00153   0.00355   0.00766   0.00815

 Mulliken charges and spin densities:
               1          2
     1  Na   0.059888  -0.092934
     2  Na  -0.110912   0.094864
     3  Na  -0.129801   0.537885
     4  Na   0.137630  -0.012835
     5  Na  -0.137766  -0.109806
     6  Na   0.319242   0.167009
     7  Na  -0.138281   0.415817
 Sum of Mulliken charges =  -0.00000   1.00000

 Dipole moment (field-independent basis, Debye):
    X=              0.2148    Y=              0.3681    Z=              0.1073  Tot=              0.4395
 Quadrupole moment (field-independent basis, Debye-Ang):
   XX=            -51.3667   YY=            -63.9183   ZZ=            -76.7618
   XY=              1.4807   XZ=              0.4898   YZ=              2.0047

 Normal termination of Gaussian 16 at Tue Dec  5 23:43:01 2023.
