 Gaussian 16, Revision B.01,
 Gaussian 16:  ES64L-G16RevB.01 20-Dec-2017

 -------------------------
 #P B3LYP/6-311+g(d) force
 -------------------------

 -----
 DPGEN
 -----
 Symbolic Z-matrix:
 Charge =  0 Multiplicity = 2

                         Standard orientation:
 ---------------------------------------------------------------------
 Center     Atomic      Atomic             Coordinates (Angstroms)
 Number     Number       Type             X           Y           Z
 ---------------------------------------------------------------------
      1         11           0       -4.371726   -0.562016    0.862108
      2         11           0       -2.854000    2.431916   -0.354262
      3         11           0        0.991941    3.883740    0.019389
      4         11           0       -2.347832   -2.505560   -0.623114
      5         11           0        1.260887   -3.152045   -0.300197
      6         11           0        3.381692    1.612482   -0.168632
      7         11           0        3.939038   -1.708517    0.564709
 ---------------------------------------------------------------------

 SCF Done:  E(UB3LYP) =  -1136.10852788     A.U. after   24 cycles

 The electronic state is 2-A.
 Alpha  occ. eigenvalues --  -38.45656 -38.45083 -38.44932 -38.44857 -38.44086
 Alpha  occ. eigenvalues --  -38.43593 -38.43536  -2.21398  -2.20870  -2.20731
 Alpha  occ. eigenvalues --   -2.20643  -2.19904  -2.19382  -2.19380  -1.15077
 Alpha  occ. eigenvalues --   -1.15060  -1.15008  -1.14551  -1.14539  -1.14506
 Alpha  occ. eigenvalues --   -1.14418  -1.14397  -1.14367  -1.14326  -1.14315
 Alpha  occ. eigenvalues --   -1.14294  -1.13569  -1.13555  -1.13529  -1.13042
 Alpha  occ. eigenvalues --   -1.13040  -1.13039  -1.13020  -1.13019  -1.13017
 Alpha  occ. eigenvalues --   -0.15707  -0.14295  -0.13215  -0.10624
 Alpha virt. eigenvalues --   -0.07818  -0.05001  -0.04238  -0.03657  -0.03262
 Alpha virt. eigenvalues --   -0.02649  -0.02119  -0.02066  -0.01352  -0.00804
 Alpha virt. eigenvalues --   -0.00231   0.00036   0.00068   0.00367   0.00599

  Beta  occ. eigenvalues --  -38.45615 -38.45058 -38.44932 -38.44843 -38.44035
  Beta  occ. eigenvalues --  -38.43562 -38.43489  -2.21324  -2.20829  -2.20734
  Beta  occ. eigenvalues --   -2.20623  -2.19810  -2.19326  -2.19293  -1.15027
  Beta  occ. eigenvalues --   -1.15012  -1.14948  -1.14529  -1.14516  -1.14439
  Beta  occ. eigenvalues --   -1.14421  -1.14402  -1.14349  -1.14317  -1.14307
  Beta  occ. eigenvalues --   -1.14236  -1.13509  -1.13491  -1.13457  -1.13005
  Beta  occ. eigenvalues --   -1.13001  -1.12983  -1.12978  -1.12960  -1.12958
  Beta  occ. eigenvalues --   -0.15171  -0.13751  -0.12480
  Beta virt. eigenvalues --   -0.07926  -0.07339  -0.04677  -0.03712  -0.03487
  Beta virt. eigenvalues --   -0.02792  -0.02431  -0.01986  -0.01888  -0.01226
  Beta virt. eigenvalues --   -0.00504  -0.00001   0.00201   0.00320   0.00350

 Mulliken charges and spin densities:
               1          2
     1  Na   0.203126   0.031883
     2  Na  -0.146538   0.219005
     3  Na   0.110688   0.104017
     4  Na  -0.140336   0.180351
     5  Na   0.136155   0.060418
     6  Na  -0.340098   0.162050
     7  Na   0.177003   0.242276
 Sum of Mulliken charges =  -0.00000   1.00000

 Dipole moment (field-independent basis, Debye):
    X=             -0.9185    Y=              0.0931    Z=              0.1554  Tot=              0.9362
 Quadrupole moment (field-independent basis, Debye-Ang):
   XX=            -59.3689   YY=            -69.2988   ZZ=            -71.4956
   XY=             -0.7508   XZ=             -1.5190   YZ=             -1.2889

 Normal termination of Gaussian 16 at Sun Dec  3 21:46:59 2023.
