 Gaussian 16, Revision B.01,
 Gaussian 16:  ES64L-G16RevB.01 20-Dec-2017

 -------------------------
 #P B3LYP/6-311+g(d) force
 -------------------------

 -----
 DPGEN
 -----
 Symbolic Z-matrix:
 Charge =  0 Multiplicity = 2

                         Standard orientation:
 ---------------------------------------------------------------------
 Center     Atomic      Atomic             Coordinates (Angstroms)
 Number     Number       Type             X           Y           Z
 ---------------------------------------------------------------------
      1         11           0       -1.642621    3.249384   -0.431804
      2         11           0        3.829706    0.788206   -0.719231
      3         11           0        1.634457    3.627345    0.736498
      4         11           0        3.832892   -2.724466    0.070419
      5         11           0       -0.121500   -3.022157    0.555981
      6         11           0       -3.516641   -2.479621   -0.424050
      7         11           0       -4.016293    0.561309    0.212188
 ---------------------------------------------------------------------

 SCF Done:  E(UB3LYP) =  -1136.10601279     A.U. after   25 cycles

 The electronic state is 2-A.
 Alpha  occ. eigenvalues --  -38.45976 -38.45714 -38.44752 -38.44387 -38.44246
 Alpha  occ. eigenvalues --  -38.43937 -38.43674  -2.21703  -2.21453  -2.20508
 Alpha  occ. eigenvalues --   -2.20195  -2.20060  -2.19713  -2.19460  -1.15395
 Alpha  occ. eigenvalues --   -1.15375  -1.15319  -1.15137  -1.15128  -1.15051
 Alpha  occ. eigenvalues --   -1.14196  -1.14189  -1.14136  -1.13911  -1.13860
 Alpha  occ. eigenvalues --   -1.13836  -1.13720  -1.13708  -1.13671  -1.13376
 Alpha  occ. eigenvalues --   -1.13358  -1.13350  -1.13121  -1.13105  -1.13095
 Alpha  occ. eigenvalues --   -0.15442  -0.13871  -0.13252  -0.10558
 Alpha virt. eigenvalues --   -0.07871  -0.05095  -0.04644  -0.03369  -0.03234
 Alpha virt. eigenvalues --   -0.02550  -0.02347  -0.02173  -0.01583  -0.00487
 Alpha virt. eigenvalues --   -0.00342  -0.00128   0.00011   0.00321   0.00387

  Beta  occ. eigenvalues --  -38.45958 -38.45671 -38.44747 -38.44383 -38.44205
  Beta  occ. eigenvalues --  -38.43896 -38.43630  -2.21674  -2.21378  -2.20503
  Beta  occ. eigenvalues --   -2.20190  -2.19986  -2.19638  -2.19376  -1.15381
  Beta  occ. eigenvalues --   -1.15361  -1.15266  -1.15088  -1.15080  -1.14981
  Beta  occ. eigenvalues --   -1.14198  -1.14189  -1.14102  -1.13905  -1.13858
  Beta  occ. eigenvalues --   -1.13815  -1.13671  -1.13657  -1.13619  -1.13325
  Beta  occ. eigenvalues --   -1.13307  -1.13298  -1.13063  -1.13052  -1.13039
  Beta  occ. eigenvalues --   -0.14938  -0.13309  -0.12635
  Beta virt. eigenvalues --   -0.07979  -0.07295  -0.04654  -0.04266  -0.03076
  Beta virt. eigenvalues --   -0.02867  -0.02339  -0.02150  -0.01999  -0.01400
  Beta virt. eigenvalues --   -0.00335  -0.00102   0.00135   0.00181   0.00286

 Mulliken charges and spin densities:
               1          2
     1  Na  -0.051980   0.000444
     2  Na  -0.125445   0.119351
     3  Na  -0.007518   0.212711
     4  Na   0.335054   0.236218
     5  Na  -0.246337   0.259176
     6  Na   0.189991  -0.041201
     7  Na  -0.093765   0.213301
 Sum of Mulliken charges =  -0.00000   1.00000

 Dipole moment (field-independent basis, Debye):
    X=              0.1601    Y=             -0.6355    Z=             -0.1587  Tot=              0.6743
 Quadrupole moment (field-independent basis, Debye-Ang):
   XX=            -62.1216   YY=            -67.6602   ZZ=            -71.3688
   XY=              2.6850   XZ=             -0.0531   YZ=             -1.1244

 Normal termination of Gaussian 16 at Mon Dec  4 03:48:58 2023.
