 Gaussian 16, Revision B.01,
 Gaussian 16:  ES64L-G16RevB.01 20-Dec-2017

 -------------------------
 #P B3LYP/6-311+g(d) force
 -------------------------

 -----
 DPGEN
 -----
 Symbolic Z-matrix:
 Charge =  0 Multiplicity = 2

                         Standard orientation:
 ---------------------------------------------------------------------
 Center     Atomic      Atomic             Coordinates (Angstroms)
 Number     Number       Type             X           Y           Z
 ---------------------------------------------------------------------
      1         11           0       -2.361085   -1.365051   -0.852644
      2         11           0       -5.724432   -0.523180    0.875459
      3         11           0       -3.323035    2.262777   -0.212835
      4         11           0        0.076766    1.208008   -0.379368
      5         11           0        1.022827   -2.187707   -0.037194
      6         11           0        3.138333    0.221470    0.493842
      7         11           0        7.170626    0.383682    0.112739
 ---------------------------------------------------------------------

 SCF Done:  E(UB3LYP) =  -1136.10847930     A.U. after   33 cycles

 The electronic state is 2-A.
 Alpha  occ. eigenvalues --  -38.44966 -38.44932 -38.44763 -38.44622 -38.44501
 Alpha  occ. eigenvalues --  -38.44431 -38.43921  -2.20729  -2.20718  -2.20560
 Alpha  occ. eigenvalues --   -2.20500  -2.20348  -2.20165  -2.19728  -1.14437
 Alpha  occ. eigenvalues --   -1.14422  -1.14389  -1.14379  -1.14341  -1.14321
 Alpha  occ. eigenvalues --   -1.14241  -1.14231  -1.14181  -1.14171  -1.14156
 Alpha  occ. eigenvalues --   -1.14110  -1.14013  -1.14007  -1.13965  -1.13824
 Alpha  occ. eigenvalues --   -1.13824  -1.13776  -1.13442  -1.13412  -1.13340
 Alpha  occ. eigenvalues --   -0.17194  -0.14056  -0.11591  -0.11324
 Alpha virt. eigenvalues --   -0.07619  -0.05861  -0.04286  -0.03985  -0.03233
 Alpha virt. eigenvalues --   -0.02432  -0.02231  -0.01627  -0.01142  -0.00913
 Alpha virt. eigenvalues --   -0.00708  -0.00388  -0.00211   0.00151   0.00501

  Beta  occ. eigenvalues --  -38.44938 -38.44929 -38.44719 -38.44566 -38.44474
  Beta  occ. eigenvalues --  -38.44378 -38.43944  -2.20723  -2.20667  -2.20482
  Beta  occ. eigenvalues --   -2.20397  -2.20295  -2.20064  -2.19773  -1.14429
  Beta  occ. eigenvalues --   -1.14406  -1.14354  -1.14342  -1.14330  -1.14303
  Beta  occ. eigenvalues --   -1.14191  -1.14173  -1.14118  -1.14108  -1.14089
  Beta  occ. eigenvalues --   -1.14015  -1.13977  -1.13974  -1.13932  -1.13756
  Beta  occ. eigenvalues --   -1.13756  -1.13710  -1.13466  -1.13445  -1.13361
  Beta  occ. eigenvalues --   -0.16748  -0.13855  -0.10879
  Beta virt. eigenvalues --   -0.07946  -0.07283  -0.05355  -0.04098  -0.03819
  Beta virt. eigenvalues --   -0.02692  -0.02195  -0.01985  -0.01455  -0.00819
  Beta virt. eigenvalues --   -0.00752  -0.00355  -0.00170  -0.00036   0.00259

 Mulliken charges and spin densities:
               1          2
     1  Na  -0.422800   0.143882
     2  Na   0.208705   0.092862
     3  Na   0.288337  -0.050889
     4  Na  -0.888023   0.547364
     5  Na   0.287831   0.105623
     6  Na   0.381152  -0.080581
     7  Na   0.144798   0.241738
 Sum of Mulliken charges =  -0.00000   1.00000

 Dipole moment (field-independent basis, Debye):
    X=             -2.3623    Y=             -0.6054    Z=             -0.0164  Tot=              2.4387
 Quadrupole moment (field-independent basis, Debye-Ang):
   XX=            -64.2669   YY=            -66.8094   ZZ=            -72.1310
   XY=             -2.7160   XZ=             -3.3753   YZ=             -0.4836

 Normal termination of Gaussian 16 at Wed Nov 29 03:55:31 2023.
