 Gaussian 16, Revision B.01,
 Gaussian 16:  ES64L-G16RevB.01 20-Dec-2017

 -------------------------
 #P B3LYP/6-311+g(d) force
 -------------------------

 -----
 DPGEN
 -----
 Symbolic Z-matrix:
 Charge =  0 Multiplicity = 2

                         Standard orientation:
 ---------------------------------------------------------------------
 Center     Atomic      Atomic             Coordinates (Angstroms)
 Number     Number       Type             X           Y           Z
 ---------------------------------------------------------------------
      1         11           0       -3.030135   -0.039250   -0.182397
      2         11           0       -1.059222   -2.414655    0.283425
      3         11           0       -0.085095   -0.212306   -1.754624
      4         11           0        2.828992    1.404112   -0.118864
      5         11           0       -0.880012    2.817364   -0.070990
      6         11           0        2.240453   -1.866985   -0.044503
      7         11           0       -0.014982    0.311720    1.887953
 ---------------------------------------------------------------------

 SCF Done:  E(UB3LYP) =  -1136.13780239     A.U. after   19 cycles

 The electronic state is 2-A.
 Alpha  occ. eigenvalues --  -38.44071 -38.43939 -38.43455 -38.43395 -38.43317
 Alpha  occ. eigenvalues --  -38.43282 -38.42979  -2.19889  -2.19826  -2.19341
 Alpha  occ. eigenvalues --   -2.19272  -2.19264  -2.19235  -2.18935  -1.13563
 Alpha  occ. eigenvalues --   -1.13558  -1.13527  -1.13523  -1.13491  -1.13457
 Alpha  occ. eigenvalues --   -1.13052  -1.13004  -1.12983  -1.12981  -1.12958
 Alpha  occ. eigenvalues --   -1.12934  -1.12921  -1.12886  -1.12882  -1.12873
 Alpha  occ. eigenvalues --   -1.12859  -1.12854  -1.12609  -1.12580  -1.12566
 Alpha  occ. eigenvalues --   -0.19096  -0.13216  -0.12465  -0.10857
 Alpha virt. eigenvalues --   -0.05711  -0.05031  -0.04475  -0.03235  -0.02928
 Alpha virt. eigenvalues --   -0.02503  -0.01529  -0.01020  -0.00300  -0.00087
 Alpha virt. eigenvalues --    0.00013   0.00369   0.00828   0.00906   0.00945

  Beta  occ. eigenvalues --  -38.44070 -38.43932 -38.43450 -38.43391 -38.43231
  Beta  occ. eigenvalues --  -38.43208 -38.42966  -2.19889  -2.19817  -2.19335
  Beta  occ. eigenvalues --   -2.19231  -2.19136  -2.19107  -2.18917  -1.13563
  Beta  occ. eigenvalues --   -1.13542  -1.13528  -1.13520  -1.13465  -1.13444
  Beta  occ. eigenvalues --   -1.13035  -1.12984  -1.12971  -1.12939  -1.12890
  Beta  occ. eigenvalues --   -1.12884  -1.12862  -1.12832  -1.12802  -1.12782
  Beta  occ. eigenvalues --   -1.12769  -1.12763  -1.12595  -1.12559  -1.12524
  Beta  occ. eigenvalues --   -0.18338  -0.12966  -0.12211
  Beta virt. eigenvalues --   -0.06907  -0.05693  -0.05018  -0.04459  -0.02429
  Beta virt. eigenvalues --   -0.02122  -0.01476  -0.01411  -0.00955  -0.00354
  Beta virt. eigenvalues --   -0.00119   0.00131   0.00389   0.00861   0.00917

 Mulliken charges and spin densities:
               1          2
     1  Na   0.267850  -0.024130
     2  Na   0.354684   0.061278
     3  Na  -0.394000   0.622844
     4  Na   0.001680  -0.131259
     5  Na   0.014729  -0.161264
     6  Na   0.181009  -0.040361
     7  Na  -0.425951   0.672893
 Sum of Mulliken charges =  -0.00000   1.00000

 Dipole moment (field-independent basis, Debye):
    X=              0.1347    Y=              0.3110    Z=             -0.0033  Tot=              0.3390
 Quadrupole moment (field-independent basis, Debye-Ang):
   XX=            -56.0459   YY=            -63.7320   ZZ=            -73.7758
   XY=              0.1657   XZ=             -0.0133   YZ=             -1.1981

 Normal termination of Gaussian 16 at Thu Dec  7 16:01:43 2023.
