 Gaussian 16, Revision B.01,
 Gaussian 16:  ES64L-G16RevB.01 20-Dec-2017

 -------------------------
 #P B3LYP/6-311+g(d) force
 -------------------------

 -----
 DPGEN
 -----
 Symbolic Z-matrix:
 Charge =  0 Multiplicity = 2

                         Standard orientation:
 ---------------------------------------------------------------------
 Center     Atomic      Atomic             Coordinates (Angstroms)
 Number     Number       Type             X           Y           Z
 ---------------------------------------------------------------------
      1         11           0       -0.013360    0.067508    1.819376
      2         11           0        0.037112   -0.110104   -1.725800
      3         11           0        2.615345   -0.629796    0.010937
      4         11           0        1.296294    1.932582   -0.106692
      5         11           0        0.184050   -2.095592    0.076731
      6         11           0       -1.605262    1.796612   -0.003852
      7         11           0       -2.514179   -0.961209   -0.070699
 ---------------------------------------------------------------------

 SCF Done:  E(UB3LYP) =  -1136.09196173     A.U. after   19 cycles

 The electronic state is 2-A.
 Alpha  occ. eigenvalues --  -38.44020 -38.44004 -38.43825 -38.43691 -38.43412
 Alpha  occ. eigenvalues --  -38.43316 -38.43261  -2.20268  -2.20197  -2.19887
 Alpha  occ. eigenvalues --   -2.19731  -2.19601  -2.19419  -2.19376  -1.14168
 Alpha  occ. eigenvalues --   -1.14019  -1.13956  -1.13907  -1.13882  -1.13809
 Alpha  occ. eigenvalues --   -1.13660  -1.13603  -1.13488  -1.13476  -1.13460
 Alpha  occ. eigenvalues --   -1.13346  -1.13221  -1.13191  -1.13185  -1.13081
 Alpha  occ. eigenvalues --   -1.13041  -1.13019  -1.13013  -1.12995  -1.12876
 Alpha  occ. eigenvalues --   -0.21449  -0.13922  -0.12860  -0.12093
 Alpha virt. eigenvalues --   -0.05245  -0.04381  -0.04032  -0.03642  -0.03130
 Alpha virt. eigenvalues --   -0.02784  -0.01223  -0.00502  -0.00069   0.00351
 Alpha virt. eigenvalues --    0.00687   0.00742   0.01005   0.01126   0.01176

  Beta  occ. eigenvalues --  -38.43928 -38.43907 -38.43816 -38.43683 -38.43393
  Beta  occ. eigenvalues --  -38.43304 -38.43246  -2.20104  -2.20023  -2.19876
  Beta  occ. eigenvalues --   -2.19721  -2.19575  -2.19403  -2.19358  -1.14079
  Beta  occ. eigenvalues --   -1.13907  -1.13843  -1.13807  -1.13767  -1.13691
  Beta  occ. eigenvalues --   -1.13648  -1.13582  -1.13473  -1.13448  -1.13433
  Beta  occ. eigenvalues --   -1.13298  -1.13210  -1.13166  -1.13099  -1.13074
  Beta  occ. eigenvalues --   -1.13016  -1.13004  -1.12975  -1.12927  -1.12872
  Beta  occ. eigenvalues --   -0.20626  -0.13558  -0.12491
  Beta virt. eigenvalues --   -0.07917  -0.05276  -0.04368  -0.04010  -0.02682
  Beta virt. eigenvalues --   -0.02198  -0.01696  -0.01146  -0.00461   0.00073
  Beta virt. eigenvalues --    0.00380   0.00661   0.00717   0.01033   0.01139

 Mulliken charges and spin densities:
               1          2
     1  Na  -0.358996   0.493687
     2  Na  -0.331974   0.440701
     3  Na   0.060099  -0.049919
     4  Na   0.219012   0.050998
     5  Na   0.217233   0.079459
     6  Na   0.177830   0.034447
     7  Na   0.016795  -0.049373
 Sum of Mulliken charges =  -0.00000   1.00000

 Dipole moment (field-independent basis, Debye):
    X=             -0.0593    Y=              0.0408    Z=              0.1064  Tot=              0.1285
 Quadrupole moment (field-independent basis, Debye-Ang):
   XX=            -58.2126   YY=            -69.6801   ZZ=            -69.2074
   XY=              0.1304   XZ=              0.1533   YZ=             -0.2596

 Normal termination of Gaussian 16 at Fri Dec  8 18:48:22 2023.
