 Gaussian 16, Revision B.01,
 Gaussian 16:  ES64L-G16RevB.01 20-Dec-2017

 -------------------------
 #P B3LYP/6-311+g(d) force
 -------------------------

 -----
 DPGEN
 -----
 Symbolic Z-matrix:
 Charge =  0 Multiplicity = 2

                         Standard orientation:
 ---------------------------------------------------------------------
 Center     Atomic      Atomic             Coordinates (Angstroms)
 Number     Number       Type             X           Y           Z
 ---------------------------------------------------------------------
      1         11           0        1.423706   -3.436785   -0.662382
      2         11           0       -4.583217   -0.709891   -0.742495
      3         11           0        3.322421    2.301968   -0.331124
      4         11           0       -1.467464   -2.403547    1.241211
      5         11           0       -3.205692    2.086231    0.078623
      6         11           0        3.882070   -1.292655    0.138974
      7         11           0        0.628176    3.454679    0.277192
 ---------------------------------------------------------------------

 SCF Done:  E(UB3LYP) =  -1136.10712411     A.U. after   21 cycles

 The electronic state is 2-A.
 Alpha  occ. eigenvalues --  -38.45262 -38.44999 -38.44801 -38.44482 -38.44369
 Alpha  occ. eigenvalues --  -38.43890 -38.43646  -2.21033  -2.20764  -2.20593
 Alpha  occ. eigenvalues --   -2.20287  -2.20136  -2.19696  -2.19467  -1.14710
 Alpha  occ. eigenvalues --   -1.14691  -1.14680  -1.14428  -1.14414  -1.14368
 Alpha  occ. eigenvalues --   -1.14252  -1.14239  -1.14226  -1.14004  -1.13953
 Alpha  occ. eigenvalues --   -1.13934  -1.13818  -1.13814  -1.13787  -1.13351
 Alpha  occ. eigenvalues --   -1.13338  -1.13320  -1.13127  -1.13108  -1.13097
 Alpha  occ. eigenvalues --   -0.15532  -0.13953  -0.13201  -0.10529
 Alpha virt. eigenvalues --   -0.07535  -0.05529  -0.03973  -0.03600  -0.03058
 Alpha virt. eigenvalues --   -0.02795  -0.02323  -0.01954  -0.01212  -0.00762
 Alpha virt. eigenvalues --   -0.00353  -0.00007   0.00065   0.00429   0.00491

  Beta  occ. eigenvalues --  -38.45245 -38.44924 -38.44772 -38.44487 -38.44384
  Beta  occ. eigenvalues --  -38.43823 -38.43607  -2.21004  -2.20626  -2.20541
  Beta  occ. eigenvalues --   -2.20302  -2.20167  -2.19570  -2.19394  -1.14691
  Beta  occ. eigenvalues --   -1.14677  -1.14635  -1.14334  -1.14322  -1.14271
  Beta  occ. eigenvalues --   -1.14218  -1.14197  -1.14188  -1.14000  -1.13967
  Beta  occ. eigenvalues --   -1.13925  -1.13844  -1.13838  -1.13776  -1.13265
  Beta  occ. eigenvalues --   -1.13254  -1.13240  -1.13084  -1.13058  -1.13047
  Beta  occ. eigenvalues --   -0.15007  -0.13349  -0.12678
  Beta virt. eigenvalues --   -0.07495  -0.07316  -0.05091  -0.03574  -0.03379
  Beta virt. eigenvalues --   -0.02721  -0.02475  -0.02089  -0.01814  -0.01128
  Beta virt. eigenvalues --   -0.00486  -0.00206   0.00260   0.00301   0.00392

 Mulliken charges and spin densities:
               1          2
     1  Na   0.048771  -0.075644
     2  Na   0.231404   0.088883
     3  Na   0.135805   0.012710
     4  Na  -0.243213   0.385949
     5  Na  -0.106191   0.108325
     6  Na  -0.042264   0.355470
     7  Na  -0.024313   0.124305
 Sum of Mulliken charges =  -0.00000   1.00000

 Dipole moment (field-independent basis, Debye):
    X=             -1.4014    Y=             -0.4153    Z=             -0.1395  Tot=              1.4683
 Quadrupole moment (field-independent basis, Debye-Ang):
   XX=            -63.5292   YY=            -67.7044   ZZ=            -70.2582
   XY=              2.4201   XZ=             -0.1273   YZ=              3.0432

 Normal termination of Gaussian 16 at Mon Dec  4 02:02:32 2023.
