 Gaussian 16, Revision B.01,
 Gaussian 16:  ES64L-G16RevB.01 20-Dec-2017

 -------------------------
 #P B3LYP/6-311+g(d) force
 -------------------------

 -----
 DPGEN
 -----
 Symbolic Z-matrix:
 Charge =  0 Multiplicity = 2

                         Standard orientation:
 ---------------------------------------------------------------------
 Center     Atomic      Atomic             Coordinates (Angstroms)
 Number     Number       Type             X           Y           Z
 ---------------------------------------------------------------------
      1         11           0        0.287335   -2.520430    0.246213
      2         11           0        1.174374    2.348576    0.045585
      3         11           0        2.751839   -0.573963   -0.044853
      4         11           0        0.390889   -0.047344   -1.619278
      5         11           0       -0.024976    0.222141    1.656499
      6         11           0       -2.005937    1.830811   -0.101880
      7         11           0       -2.573525   -1.259790   -0.182285
 ---------------------------------------------------------------------

 SCF Done:  E(UB3LYP) =  -1136.12383530     A.U. after   19 cycles

 The electronic state is 2-A.
 Alpha  occ. eigenvalues --  -38.43666 -38.43544 -38.43419 -38.43297 -38.43171
 Alpha  occ. eigenvalues --  -38.43153 -38.43117  -2.19654  -2.19465  -2.19380
 Alpha  occ. eigenvalues --   -2.19324  -2.19305  -2.19252  -2.19153  -1.13475
 Alpha  occ. eigenvalues --   -1.13309  -1.13292  -1.13220  -1.13187  -1.13166
 Alpha  occ. eigenvalues --   -1.13115  -1.13082  -1.13065  -1.13025  -1.13022
 Alpha  occ. eigenvalues --   -1.12990  -1.12932  -1.12896  -1.12880  -1.12865
 Alpha  occ. eigenvalues --   -1.12845  -1.12809  -1.12774  -1.12759  -1.12752
 Alpha  occ. eigenvalues --   -0.20297  -0.13466  -0.13064  -0.11058
 Alpha virt. eigenvalues --   -0.05203  -0.04894  -0.04559  -0.03180  -0.02985
 Alpha virt. eigenvalues --   -0.02252  -0.01246  -0.00905   0.00024   0.00210
 Alpha virt. eigenvalues --    0.00248   0.00361   0.00938   0.01005   0.01025

  Beta  occ. eigenvalues --  -38.43656 -38.43539 -38.43411 -38.43285 -38.43141
  Beta  occ. eigenvalues --  -38.43093 -38.43033  -2.19641  -2.19460  -2.19370
  Beta  occ. eigenvalues --   -2.19294  -2.19177  -2.19136  -2.19102  -1.13451
  Beta  occ. eigenvalues --   -1.13288  -1.13260  -1.13202  -1.13172  -1.13161
  Beta  occ. eigenvalues --   -1.13083  -1.13050  -1.13014  -1.12990  -1.12973
  Beta  occ. eigenvalues --   -1.12960  -1.12875  -1.12846  -1.12816  -1.12790
  Beta  occ. eigenvalues --   -1.12764  -1.12754  -1.12722  -1.12713  -1.12678
  Beta  occ. eigenvalues --   -0.19543  -0.13162  -0.12747
  Beta virt. eigenvalues --   -0.07019  -0.05188  -0.04883  -0.04569  -0.02322
  Beta virt. eigenvalues --   -0.02116  -0.01213  -0.01157  -0.00852   0.00135
  Beta virt. eigenvalues --    0.00165   0.00207   0.00384   0.00968   0.01004

 Mulliken charges and spin densities:
               1          2
     1  Na   0.325762   0.003548
     2  Na   0.481788  -0.067458
     3  Na   0.538598  -0.028367
     4  Na  -0.823034   0.620348
     5  Na  -0.681286   0.565901
     6  Na   0.190369  -0.042868
     7  Na  -0.032196  -0.051104
 Sum of Mulliken charges =  -0.00000   1.00000

 Dipole moment (field-independent basis, Debye):
    X=             -0.0799    Y=              0.0001    Z=             -0.0105  Tot=              0.0806
 Quadrupole moment (field-independent basis, Debye-Ang):
   XX=            -57.6061   YY=            -63.0186   ZZ=            -73.5439
   XY=              0.0403   XZ=              0.9504   YZ=             -0.5234

 Normal termination of Gaussian 16 at Thu Dec  7 09:06:07 2023.
