 Gaussian 16, Revision B.01,
 Gaussian 16:  ES64L-G16RevB.01 20-Dec-2017

 -------------------------
 #P B3LYP/6-311+g(d) force
 -------------------------

 -----
 DPGEN
 -----
 Symbolic Z-matrix:
 Charge =  0 Multiplicity = 2

                         Standard orientation:
 ---------------------------------------------------------------------
 Center     Atomic      Atomic             Coordinates (Angstroms)
 Number     Number       Type             X           Y           Z
 ---------------------------------------------------------------------
      1         11           0        2.378918   -1.875437   -0.330580
      2         11           0       -0.050176   -0.035221   -1.547257
      3         11           0        2.622813    1.759586   -0.388433
      4         11           0       -0.724933   -2.765915    0.318765
      5         11           0       -3.581060   -0.161531   -0.381963
      6         11           0       -0.974722    2.877714    0.134937
      7         11           0        0.329159    0.200804    2.194531
 ---------------------------------------------------------------------

 SCF Done:  E(UB3LYP) =  -1136.13590511     A.U. after   20 cycles

 The electronic state is 2-A.
 Alpha  occ. eigenvalues --  -38.44239 -38.43902 -38.43835 -38.43805 -38.43568
 Alpha  occ. eigenvalues --  -38.43441 -38.43280  -2.19993  -2.19701  -2.19664
 Alpha  occ. eigenvalues --   -2.19654  -2.19435  -2.19292  -2.19237  -1.13671
 Alpha  occ. eigenvalues --   -1.13643  -1.13633  -1.13386  -1.13385  -1.13338
 Alpha  occ. eigenvalues --   -1.13327  -1.13321  -1.13316  -1.13291  -1.13282
 Alpha  occ. eigenvalues --   -1.13272  -1.13145  -1.13095  -1.13077  -1.12986
 Alpha  occ. eigenvalues --   -1.12959  -1.12921  -1.12908  -1.12871  -1.12848
 Alpha  occ. eigenvalues --   -0.18276  -0.12597  -0.12497  -0.10784
 Alpha virt. eigenvalues --   -0.05832  -0.05134  -0.04834  -0.03080  -0.02888
 Alpha virt. eigenvalues --   -0.02649  -0.01685  -0.01221  -0.00574  -0.00375
 Alpha virt. eigenvalues --   -0.00059   0.00313   0.00765   0.00801   0.00874

  Beta  occ. eigenvalues --  -38.44235 -38.43898 -38.43826 -38.43700 -38.43560
  Beta  occ. eigenvalues --  -38.43434 -38.43230  -2.19987  -2.19697  -2.19642
  Beta  occ. eigenvalues --   -2.19470  -2.19425  -2.19282  -2.19147  -1.13659
  Beta  occ. eigenvalues --   -1.13641  -1.13630  -1.13382  -1.13361  -1.13326
  Beta  occ. eigenvalues --   -1.13316  -1.13306  -1.13270  -1.13193  -1.13162
  Beta  occ. eigenvalues --   -1.13138  -1.13130  -1.13074  -1.13063  -1.12974
  Beta  occ. eigenvalues --   -1.12930  -1.12903  -1.12861  -1.12813  -1.12777
  Beta  occ. eigenvalues --   -0.17562  -0.12378  -0.12269
  Beta virt. eigenvalues --   -0.06878  -0.05759  -0.05107  -0.04748  -0.02284
  Beta virt. eigenvalues --   -0.02256  -0.01656  -0.01522  -0.01158  -0.00594
  Beta virt. eigenvalues --   -0.00398   0.00103   0.00356   0.00799   0.00842

 Mulliken charges and spin densities:
               1          2
     1  Na   0.237065   0.007853
     2  Na  -0.112209   0.337444
     3  Na   0.146561  -0.029093
     4  Na   0.104512   0.079822
     5  Na  -0.024048  -0.024464
     6  Na   0.026063  -0.035003
     7  Na  -0.377945   0.663441
 Sum of Mulliken charges =  -0.00000   1.00000

 Dipole moment (field-independent basis, Debye):
    X=             -0.0328    Y=              0.2155    Z=              0.1463  Tot=              0.2626
 Quadrupole moment (field-independent basis, Debye-Ang):
   XX=            -56.7086   YY=            -62.1158   ZZ=            -74.3661
   XY=              0.0538   XZ=             -0.7385   YZ=             -0.5086

 Normal termination of Gaussian 16 at Thu Dec  7 04:33:09 2023.
