 Gaussian 16, Revision B.01,
 Gaussian 16:  ES64L-G16RevB.01 20-Dec-2017

 -------------------------
 #P B3LYP/6-311+g(d) force
 -------------------------

 -----
 DPGEN
 -----
 Symbolic Z-matrix:
 Charge =  0 Multiplicity = 2

                         Standard orientation:
 ---------------------------------------------------------------------
 Center     Atomic      Atomic             Coordinates (Angstroms)
 Number     Number       Type             X           Y           Z
 ---------------------------------------------------------------------
      1         11           0       -0.019007    0.130580   -1.495665
      2         11           0        2.741925   -1.666417   -0.122342
      3         11           0        2.759703    1.530877   -0.060469
      4         11           0       -0.817218    2.739641   -0.026811
      5         11           0       -0.212459   -0.438388    2.253998
      6         11           0       -1.366880   -2.672115   -0.443512
      7         11           0       -3.086063    0.375823   -0.105198
 ---------------------------------------------------------------------

 SCF Done:  E(UB3LYP) =  -1136.13471996     A.U. after   19 cycles

 The electronic state is 2-A.
 Alpha  occ. eigenvalues --  -38.44229 -38.44157 -38.43951 -38.43829 -38.43355
 Alpha  occ. eigenvalues --  -38.43137 -38.43040  -2.20090  -2.19974  -2.19788
 Alpha  occ. eigenvalues --   -2.19671  -2.19192  -2.19145  -2.18917  -1.13772
 Alpha  occ. eigenvalues --   -1.13754  -1.13726  -1.13672  -1.13642  -1.13614
 Alpha  occ. eigenvalues --   -1.13459  -1.13442  -1.13418  -1.13325  -1.13294
 Alpha  occ. eigenvalues --   -1.13292  -1.12913  -1.12867  -1.12844  -1.12826
 Alpha  occ. eigenvalues --   -1.12790  -1.12759  -1.12586  -1.12563  -1.12545
 Alpha  occ. eigenvalues --   -0.18517  -0.13329  -0.12148  -0.10756
 Alpha virt. eigenvalues --   -0.05868  -0.05343  -0.04431  -0.03260  -0.02891
 Alpha virt. eigenvalues --   -0.02548  -0.01676  -0.01122  -0.00502  -0.00333
 Alpha virt. eigenvalues --   -0.00035   0.00345   0.00746   0.00849   0.00881

  Beta  occ. eigenvalues --  -38.44223 -38.44156 -38.43950 -38.43722 -38.43345
  Beta  occ. eigenvalues --  -38.43085 -38.43036  -2.20084  -2.19975  -2.19788
  Beta  occ. eigenvalues --   -2.19473  -2.19177  -2.19053  -2.18912  -1.13768
  Beta  occ. eigenvalues --   -1.13728  -1.13723  -1.13675  -1.13627  -1.13614
  Beta  occ. eigenvalues --   -1.13453  -1.13433  -1.13422  -1.13192  -1.13156
  Beta  occ. eigenvalues --   -1.13151  -1.12887  -1.12825  -1.12814  -1.12804
  Beta  occ. eigenvalues --   -1.12732  -1.12693  -1.12572  -1.12545  -1.12538
  Beta  occ. eigenvalues --   -0.17813  -0.13138  -0.11926
  Beta virt. eigenvalues --   -0.06771  -0.05814  -0.05343  -0.04393  -0.02512
  Beta virt. eigenvalues --   -0.02049  -0.01603  -0.01502  -0.01057  -0.00555
  Beta virt. eigenvalues --   -0.00370   0.00145   0.00384   0.00818   0.00851

 Mulliken charges and spin densities:
               1          2
     1  Na  -0.296780   0.148939
     2  Na   0.159345  -0.036669
     3  Na   0.136526   0.021091
     4  Na   0.164726   0.048343
     5  Na  -0.691249   0.747847
     6  Na   0.159126  -0.008383
     7  Na   0.368306   0.078832
 Sum of Mulliken charges =  -0.00000   1.00000

 Dipole moment (field-independent basis, Debye):
    X=              0.1275    Y=             -0.1573    Z=              0.1919  Tot=              0.2789
 Quadrupole moment (field-independent basis, Debye-Ang):
   XX=            -54.9731   YY=            -64.0952   ZZ=            -74.7517
   XY=             -0.2101   XZ=              0.3234   YZ=              1.2322

 Normal termination of Gaussian 16 at Thu Dec  7 22:44:58 2023.
