 Gaussian 16, Revision B.01,
 Gaussian 16:  ES64L-G16RevB.01 20-Dec-2017

 -------------------------
 #P B3LYP/6-311+g(d) force
 -------------------------

 -----
 DPGEN
 -----
 Symbolic Z-matrix:
 Charge =  0 Multiplicity = 2

                         Standard orientation:
 ---------------------------------------------------------------------
 Center     Atomic      Atomic             Coordinates (Angstroms)
 Number     Number       Type             X           Y           Z
 ---------------------------------------------------------------------
      1         11           0        0.547101    2.407856   -1.582601
      2         11           0        2.464789    0.566129    1.228195
      3         11           0       -3.264599   -1.516500   -0.952350
      4         11           0        2.611187   -1.560597   -1.267277
      5         11           0        0.035394   -1.832767    1.794006
      6         11           0       -0.653187   -0.141479   -0.613390
      7         11           0       -1.740685    2.077357    1.393416
 ---------------------------------------------------------------------

 SCF Done:  E(UB3LYP) =  -1136.11871494     A.U. after   21 cycles

 The electronic state is 2-A.
 Alpha  occ. eigenvalues --  -38.44420 -38.44378 -38.44196 -38.44044 -38.43936
 Alpha  occ. eigenvalues --  -38.43333 -38.42206  -2.20222  -2.20188  -2.20045
 Alpha  occ. eigenvalues --   -2.19856  -2.19790  -2.19176  -2.18349  -1.13908
 Alpha  occ. eigenvalues --   -1.13870  -1.13865  -1.13851  -1.13832  -1.13815
 Alpha  occ. eigenvalues --   -1.13729  -1.13693  -1.13663  -1.13574  -1.13529
 Alpha  occ. eigenvalues --   -1.13482  -1.13469  -1.13427  -1.13376  -1.12934
 Alpha  occ. eigenvalues --   -1.12805  -1.12774  -1.12074  -1.11993  -1.11970
 Alpha  occ. eigenvalues --   -0.18196  -0.12752  -0.11636  -0.11154
 Alpha virt. eigenvalues --   -0.05642  -0.05608  -0.04045  -0.03279  -0.02765
 Alpha virt. eigenvalues --   -0.02441  -0.01615  -0.01360  -0.00605   0.00140
 Alpha virt. eigenvalues --    0.00264   0.00375   0.00403   0.00605   0.00772

  Beta  occ. eigenvalues --  -38.44389 -38.44353 -38.44179 -38.44017 -38.43895
  Beta  occ. eigenvalues --  -38.43313 -38.42179  -2.20165  -2.20140  -2.20017
  Beta  occ. eigenvalues --   -2.19807  -2.19718  -2.19141  -2.18306  -1.13870
  Beta  occ. eigenvalues --   -1.13836  -1.13820  -1.13815  -1.13795  -1.13778
  Beta  occ. eigenvalues --   -1.13699  -1.13657  -1.13648  -1.13536  -1.13484
  Beta  occ. eigenvalues --   -1.13448  -1.13437  -1.13357  -1.13329  -1.12905
  Beta  occ. eigenvalues --   -1.12783  -1.12743  -1.12002  -1.11965  -1.11936
  Beta  occ. eigenvalues --   -0.17450  -0.12501  -0.11423
  Beta virt. eigenvalues --   -0.07471  -0.05388  -0.05180  -0.03839  -0.02888
  Beta virt. eigenvalues --   -0.02435  -0.01629  -0.01495  -0.01076  -0.00384
  Beta virt. eigenvalues --    0.00232   0.00341   0.00456   0.00496   0.00624

 Mulliken charges and spin densities:
               1          2
     1  Na   0.476212   0.126038
     2  Na   0.592633   0.217803
     3  Na   0.365038  -0.079306
     4  Na  -0.162031   0.146642
     5  Na  -0.271092   0.353529
     6  Na  -1.019878  -0.031107
     7  Na   0.019118   0.266402
 Sum of Mulliken charges =  -0.00000   1.00000

 Dipole moment (field-independent basis, Debye):
    X=              0.3302    Y=              0.0365    Z=              0.4293  Tot=              0.5428
 Quadrupole moment (field-independent basis, Debye-Ang):
   XX=            -58.3850   YY=            -67.8704   ZZ=            -64.3896
   XY=             -0.8025   XZ=             -1.8804   YZ=              3.1984

 Normal termination of Gaussian 16 at Fri Dec  8 03:31:04 2023.
