 Gaussian 16, Revision B.01,
 Gaussian 16:  ES64L-G16RevB.01 20-Dec-2017

 -------------------------
 #P B3LYP/6-311+g(d) force
 -------------------------

 -----
 DPGEN
 -----
 Symbolic Z-matrix:
 Charge =  0 Multiplicity = 2

                         Standard orientation:
 ---------------------------------------------------------------------
 Center     Atomic      Atomic             Coordinates (Angstroms)
 Number     Number       Type             X           Y           Z
 ---------------------------------------------------------------------
      1         11           0        3.160953   -1.314851   -0.347628
      2         11           0        6.101112    0.335849   -0.043642
      3         11           0       -3.979926    0.776261   -0.078404
      4         11           0        0.768901    1.567559    0.429099
      5         11           0       -3.748790   -2.421544   -0.166604
      6         11           0       -0.505999   -2.471155    0.364815
      7         11           0       -1.796252    3.527881   -0.157636
 ---------------------------------------------------------------------

 SCF Done:  E(UB3LYP) =  -1136.11951503     A.U. after   20 cycles

 The electronic state is 2-A.
 Alpha  occ. eigenvalues --  -38.44984 -38.44858 -38.44837 -38.44410 -38.44099
 Alpha  occ. eigenvalues --  -38.43631 -38.43401  -2.20781  -2.20642  -2.20633
 Alpha  occ. eigenvalues --   -2.20201  -2.19881  -2.19463  -2.19208  -1.14416
 Alpha  occ. eigenvalues --   -1.14416  -1.14396  -1.14324  -1.14318  -1.14304
 Alpha  occ. eigenvalues --   -1.14300  -1.14268  -1.14240  -1.13881  -1.13866
 Alpha  occ. eigenvalues --   -1.13818  -1.13572  -1.13558  -1.13528  -1.13134
 Alpha  occ. eigenvalues --   -1.13117  -1.13111  -1.12875  -1.12870  -1.12859
 Alpha  occ. eigenvalues --   -0.16163  -0.14130  -0.12525  -0.11531
 Alpha virt. eigenvalues --   -0.06298  -0.05811  -0.04485  -0.03735  -0.02869
 Alpha virt. eigenvalues --   -0.02456  -0.02008  -0.01508  -0.01129  -0.01051
 Alpha virt. eigenvalues --   -0.00729  -0.00190   0.00071   0.00348   0.00781

  Beta  occ. eigenvalues --  -38.44879 -38.44833 -38.44793 -38.44371 -38.44103
  Beta  occ. eigenvalues --  -38.43626 -38.43404  -2.20587  -2.20585  -2.20561
  Beta  occ. eigenvalues --   -2.20128  -2.19896  -2.19457  -2.19216  -1.14292
  Beta  occ. eigenvalues --   -1.14284  -1.14283  -1.14269  -1.14268  -1.14264
  Beta  occ. eigenvalues --   -1.14248  -1.14212  -1.14206  -1.13833  -1.13818
  Beta  occ. eigenvalues --   -1.13766  -1.13590  -1.13577  -1.13479  -1.13122
  Beta  occ. eigenvalues --   -1.13114  -1.13104  -1.12876  -1.12872  -1.12865
  Beta  occ. eigenvalues --   -0.15615  -0.13281  -0.12464
  Beta virt. eigenvalues --   -0.08123  -0.05871  -0.05319  -0.04175  -0.03551
  Beta virt. eigenvalues --   -0.02544  -0.02179  -0.01641  -0.01420  -0.01085
  Beta virt. eigenvalues --   -0.00692  -0.00271   0.00064   0.00237   0.00425

 Mulliken charges and spin densities:
               1          2
     1  Na  -0.141018   0.199241
     2  Na   0.728127   0.368759
     3  Na  -0.440976   0.319822
     4  Na  -0.499326   0.038746
     5  Na   0.710054   0.009500
     6  Na  -0.922117   0.071549
     7  Na   0.565255  -0.007617
 Sum of Mulliken charges =  -0.00000   1.00000

 Dipole moment (field-independent basis, Debye):
    X=              0.2666    Y=              0.2676    Z=              0.0341  Tot=              0.3792
 Quadrupole moment (field-independent basis, Debye-Ang):
   XX=            -57.4556   YY=            -64.9924   ZZ=            -73.4986
   XY=              2.0661   XZ=              1.4081   YZ=              0.2739

 Normal termination of Gaussian 16 at Mon Dec  4 01:38:06 2023.
