 Gaussian 16, Revision B.01,
 Gaussian 16:  ES64L-G16RevB.01 20-Dec-2017

 -------------------------
 #P B3LYP/6-311+g(d) force
 -------------------------

 -----
 DPGEN
 -----
 Symbolic Z-matrix:
 Charge =  0 Multiplicity = 2

                         Standard orientation:
 ---------------------------------------------------------------------
 Center     Atomic      Atomic             Coordinates (Angstroms)
 Number     Number       Type             X           Y           Z
 ---------------------------------------------------------------------
      1         11           0        0.103871   -0.299364   -1.921116
      2         11           0       -0.029504    0.166247    1.923882
      3         11           0        2.172697    1.298509   -0.065558
      4         11           0        1.939824   -1.543887    0.172214
      5         11           0       -0.618361    2.232386   -0.172932
      6         11           0       -0.999161   -2.020948    0.077013
      7         11           0       -2.569366    0.167056   -0.013503
 ---------------------------------------------------------------------

 SCF Done:  E(UB3LYP) =  -1136.10078837     A.U. after   22 cycles

 The electronic state is 2-A.
 Alpha  occ. eigenvalues --  -38.44132 -38.44082 -38.43845 -38.43453 -38.43377
 Alpha  occ. eigenvalues --  -38.43369 -38.43112  -2.20263  -2.20214  -2.19926
 Alpha  occ. eigenvalues --   -2.19519  -2.19508  -2.19433  -2.19194  -1.14047
 Alpha  occ. eigenvalues --   -1.13947  -1.13913  -1.13893  -1.13874  -1.13856
 Alpha  occ. eigenvalues --   -1.13791  -1.13634  -1.13510  -1.13354  -1.13257
 Alpha  occ. eigenvalues --   -1.13224  -1.13139  -1.13122  -1.13085  -1.13057
 Alpha  occ. eigenvalues --   -1.13001  -1.12939  -1.12850  -1.12820  -1.12778
 Alpha  occ. eigenvalues --   -0.21244  -0.13644  -0.12882  -0.12377
 Alpha virt. eigenvalues --   -0.05008  -0.04348  -0.04076  -0.03756  -0.03334
 Alpha virt. eigenvalues --   -0.03186  -0.00906  -0.00513  -0.00157   0.00334
 Alpha virt. eigenvalues --    0.00766   0.00800   0.01036   0.01064   0.01146

  Beta  occ. eigenvalues --  -38.44038 -38.43987 -38.43835 -38.43444 -38.43362
  Beta  occ. eigenvalues --  -38.43358 -38.43100  -2.20093  -2.20041  -2.19915
  Beta  occ. eigenvalues --   -2.19499  -2.19496  -2.19418  -2.19177  -1.13959
  Beta  occ. eigenvalues --   -1.13853  -1.13818  -1.13778  -1.13761  -1.13739
  Beta  occ. eigenvalues --   -1.13725  -1.13614  -1.13453  -1.13351  -1.13248
  Beta  occ. eigenvalues --   -1.13218  -1.13083  -1.13080  -1.13047  -1.13000
  Beta  occ. eigenvalues --   -1.12994  -1.12936  -1.12844  -1.12775  -1.12758
  Beta  occ. eigenvalues --   -0.20377  -0.13285  -0.12535
  Beta virt. eigenvalues --   -0.08211  -0.05027  -0.04345  -0.04057  -0.02790
  Beta virt. eigenvalues --   -0.02442  -0.02069  -0.00840  -0.00470   0.00010
  Beta virt. eigenvalues --    0.00341   0.00729   0.00769   0.01099   0.01127

 Mulliken charges and spin densities:
               1          2
     1  Na  -1.659960   0.359861
     2  Na  -1.637878   0.356109
     3  Na   0.448973   0.023268
     4  Na   0.688227   0.041363
     5  Na   0.857907   0.105952
     6  Na   1.117057   0.129393
     7  Na   0.185675  -0.015947
 Sum of Mulliken charges =  -0.00000   1.00000

 Dipole moment (field-independent basis, Debye):
    X=              0.1214    Y=              0.0909    Z=             -0.0041  Tot=              0.1517
 Quadrupole moment (field-independent basis, Debye-Ang):
   XX=            -62.4216   YY=            -69.1130   ZZ=            -66.8247
   XY=             -0.2351   XZ=              0.2188   YZ=             -0.8437

 Normal termination of Gaussian 16 at Sat Dec  9 06:12:49 2023.
