 Gaussian 16, Revision B.01,
 Gaussian 16:  ES64L-G16RevB.01 20-Dec-2017

 -------------------------
 #P B3LYP/6-311+g(d) force
 -------------------------

 -----
 DPGEN
 -----
 Symbolic Z-matrix:
 Charge =  0 Multiplicity = 2

                         Standard orientation:
 ---------------------------------------------------------------------
 Center     Atomic      Atomic             Coordinates (Angstroms)
 Number     Number       Type             X           Y           Z
 ---------------------------------------------------------------------
      1         11           0        3.682060   -2.279470    0.639603
      2         11           0        0.703622    2.849257   -0.876590
      3         11           0       -2.518348    1.783994    0.050269
      4         11           0       -4.334125   -0.551940    1.182762
      5         11           0        3.306070    1.596939    0.897145
      6         11           0       -1.712158   -2.389140   -0.851465
      7         11           0        0.872880   -1.009640   -1.041725
 ---------------------------------------------------------------------

 SCF Done:  E(UB3LYP) =  -1136.11671792     A.U. after   21 cycles

 The electronic state is 2-A.
 Alpha  occ. eigenvalues --  -38.45249 -38.44538 -38.44517 -38.44327 -38.44285
 Alpha  occ. eigenvalues --  -38.43591 -38.43077  -2.21016  -2.20340  -2.20285
 Alpha  occ. eigenvalues --   -2.20165  -2.20113  -2.19476  -2.18897  -1.14703
 Alpha  occ. eigenvalues --   -1.14676  -1.14635  -1.14039  -1.14008  -1.14000
 Alpha  occ. eigenvalues --   -1.13954  -1.13934  -1.13924  -1.13917  -1.13808
 Alpha  occ. eigenvalues --   -1.13761  -1.13757  -1.13752  -1.13719  -1.13163
 Alpha  occ. eigenvalues --   -1.13119  -1.13095  -1.12561  -1.12555  -1.12548
 Alpha  occ. eigenvalues --   -0.16720  -0.14052  -0.12266  -0.11004
 Alpha virt. eigenvalues --   -0.06947  -0.04705  -0.04473  -0.03949  -0.03396
 Alpha virt. eigenvalues --   -0.02020  -0.01756  -0.01542  -0.01232  -0.00581
 Alpha virt. eigenvalues --   -0.00280  -0.00061   0.00293   0.00505   0.00621

  Beta  occ. eigenvalues --  -38.45232 -38.44525 -38.44485 -38.44280 -38.44221
  Beta  occ. eigenvalues --  -38.43549 -38.43064  -2.20985  -2.20321  -2.20226
  Beta  occ. eigenvalues --   -2.20084  -2.19995  -2.19404  -2.18872  -1.14683
  Beta  occ. eigenvalues --   -1.14656  -1.14604  -1.14021  -1.13995  -1.13959
  Beta  occ. eigenvalues --   -1.13914  -1.13898  -1.13869  -1.13845  -1.13755
  Beta  occ. eigenvalues --   -1.13705  -1.13677  -1.13669  -1.13646  -1.13115
  Beta  occ. eigenvalues --   -1.13050  -1.13041  -1.12542  -1.12537  -1.12534
  Beta  occ. eigenvalues --   -0.16131  -0.13377  -0.11875
  Beta virt. eigenvalues --   -0.07619  -0.06889  -0.04327  -0.04145  -0.03690
  Beta virt. eigenvalues --   -0.02865  -0.01838  -0.01293  -0.01236  -0.01156
  Beta virt. eigenvalues --   -0.00448  -0.00090   0.00152   0.00410   0.00616

 Mulliken charges and spin densities:
               1          2
     1  Na   0.494018   0.226019
     2  Na   0.122562   0.007557
     3  Na  -0.479668   0.175016
     4  Na   0.592160   0.245735
     5  Na   0.284424   0.124020
     6  Na   0.104825   0.128630
     7  Na  -1.118321   0.093024
 Sum of Mulliken charges =  -0.00000   1.00000

 Dipole moment (field-independent basis, Debye):
    X=              0.2161    Y=             -0.3662    Z=              0.6918  Tot=              0.8120
 Quadrupole moment (field-independent basis, Debye-Ang):
   XX=            -59.6780   YY=            -65.6235   ZZ=            -70.3044
   XY=              4.0203   XZ=              1.6846   YZ=             -1.4331

 Normal termination of Gaussian 16 at Sun Dec  3 16:25:22 2023.
