 Gaussian 16, Revision B.01,
 Gaussian 16:  ES64L-G16RevB.01 20-Dec-2017

 -------------------------
 #P B3LYP/6-311+g(d) force
 -------------------------

 -----
 DPGEN
 -----
 Symbolic Z-matrix:
 Charge =  0 Multiplicity = 2

                         Standard orientation:
 ---------------------------------------------------------------------
 Center     Atomic      Atomic             Coordinates (Angstroms)
 Number     Number       Type             X           Y           Z
 ---------------------------------------------------------------------
      1         11           0        2.887381    0.258098    1.013491
      2         11           0        0.396252   -2.642595    0.565505
      3         11           0        2.999563    3.470766   -0.592083
      4         11           0       -0.121869    2.172812    0.253197
      5         11           0       -3.199793   -0.889732   -0.263865
      6         11           0        3.194619   -2.917097   -0.876697
      7         11           0       -6.156153    0.547748   -0.099548
 ---------------------------------------------------------------------

 SCF Done:  E(UB3LYP) =  -1136.11703223     A.U. after   19 cycles

 The electronic state is 2-A.
 Alpha  occ. eigenvalues --  -38.45240 -38.45020 -38.44911 -38.44303 -38.44200
 Alpha  occ. eigenvalues --  -38.43423 -38.43017  -2.21036  -2.20796  -2.20693
 Alpha  occ. eigenvalues --   -2.20117  -2.20017  -2.19228  -2.18790  -1.14748
 Alpha  occ. eigenvalues --   -1.14728  -1.14620  -1.14489  -1.14471  -1.14397
 Alpha  occ. eigenvalues --   -1.14362  -1.14354  -1.14304  -1.13824  -1.13773
 Alpha  occ. eigenvalues --   -1.13753  -1.13698  -1.13672  -1.13606  -1.12867
 Alpha  occ. eigenvalues --   -1.12866  -1.12858  -1.12481  -1.12470  -1.12434
 Alpha  occ. eigenvalues --   -0.16464  -0.13305  -0.12971  -0.10226
 Alpha virt. eigenvalues --   -0.06518  -0.06088  -0.04801  -0.03629  -0.02913
 Alpha virt. eigenvalues --   -0.02308  -0.01979  -0.01513  -0.01182  -0.01046
 Alpha virt. eigenvalues --   -0.00384  -0.00246  -0.00052   0.00323   0.00481

  Beta  occ. eigenvalues --  -38.45224 -38.44990 -38.44903 -38.44282 -38.44176
  Beta  occ. eigenvalues --  -38.43336 -38.43024  -2.21009  -2.20739  -2.20679
  Beta  occ. eigenvalues --   -2.20079  -2.19972  -2.19066  -2.18810  -1.14717
  Beta  occ. eigenvalues --   -1.14703  -1.14603  -1.14450  -1.14431  -1.14366
  Beta  occ. eigenvalues --   -1.14352  -1.14336  -1.14290  -1.13797  -1.13747
  Beta  occ. eigenvalues --   -1.13723  -1.13669  -1.13642  -1.13565  -1.12758
  Beta  occ. eigenvalues --   -1.12755  -1.12754  -1.12501  -1.12490  -1.12395
  Beta  occ. eigenvalues --   -0.16012  -0.13164  -0.12236
  Beta virt. eigenvalues --   -0.07077  -0.06379  -0.05523  -0.04317  -0.03372
  Beta virt. eigenvalues --   -0.02826  -0.02014  -0.01815  -0.01377  -0.00906
  Beta virt. eigenvalues --   -0.00704  -0.00195   0.00090   0.00193   0.00462

 Mulliken charges and spin densities:
               1          2
     1  Na  -0.103586   0.324415
     2  Na  -0.174553  -0.104190
     3  Na   0.589651   0.093874
     4  Na  -0.487795  -0.038548
     5  Na  -0.584154   0.268541
     6  Na   0.389737   0.139191
     7  Na   0.370699   0.316716
 Sum of Mulliken charges =  -0.00000   1.00000

 Dipole moment (field-independent basis, Debye):
    X=              3.1509    Y=              1.0736    Z=             -0.2909  Tot=              3.3414
 Quadrupole moment (field-independent basis, Debye-Ang):
   XX=            -72.3815   YY=            -58.5833   ZZ=            -69.2812
   XY=              0.5487   XZ=             -3.6343   YZ=             -0.5580

 Normal termination of Gaussian 16 at Mon Dec  4 05:29:41 2023.
