 Gaussian 16, Revision B.01,
 Gaussian 16:  ES64L-G16RevB.01 20-Dec-2017

 -------------------------
 #P B3LYP/6-311+g(d) force
 -------------------------

 -----
 DPGEN
 -----
 Symbolic Z-matrix:
 Charge =  0 Multiplicity = 2

                         Standard orientation:
 ---------------------------------------------------------------------
 Center     Atomic      Atomic             Coordinates (Angstroms)
 Number     Number       Type             X           Y           Z
 ---------------------------------------------------------------------
      1         11           0        4.699336   -1.136892   -0.137189
      2         11           0       -0.493201    3.113964   -0.297830
      3         11           0        2.917767    2.700059    0.870598
      4         11           0        1.753866   -2.025237   -0.756475
      5         11           0       -3.524337    2.110512   -0.605512
      6         11           0       -1.506894   -3.559652    0.305088
      7         11           0       -3.846536   -1.202754    0.621320
 ---------------------------------------------------------------------

 SCF Done:  E(UB3LYP) =  -1136.10902998     A.U. after   22 cycles

 The electronic state is 2-A.
 Alpha  occ. eigenvalues --  -38.45197 -38.45042 -38.44933 -38.44528 -38.44372
 Alpha  occ. eigenvalues --  -38.43793 -38.43713  -2.20961  -2.20811  -2.20715
 Alpha  occ. eigenvalues --   -2.20333  -2.20148  -2.19592  -2.19540  -1.14647
 Alpha  occ. eigenvalues --   -1.14629  -1.14609  -1.14468  -1.14449  -1.14426
 Alpha  occ. eigenvalues --   -1.14399  -1.14381  -1.14371  -1.13981  -1.13980
 Alpha  occ. eigenvalues --   -1.13958  -1.13835  -1.13830  -1.13805  -1.13247
 Alpha  occ. eigenvalues --   -1.13239  -1.13234  -1.13188  -1.13185  -1.13175
 Alpha  occ. eigenvalues --   -0.15590  -0.13933  -0.13333  -0.10933
 Alpha virt. eigenvalues --   -0.07551  -0.04855  -0.04381  -0.03672  -0.03477
 Alpha virt. eigenvalues --   -0.02472  -0.02168  -0.01669  -0.01368  -0.00923
 Alpha virt. eigenvalues --   -0.00654  -0.00460   0.00293   0.00425   0.00604

  Beta  occ. eigenvalues --  -38.45198 -38.44958 -38.44920 -38.44485 -38.44377
  Beta  occ. eigenvalues --  -38.43754 -38.43664  -2.20968  -2.20695  -2.20658
  Beta  occ. eigenvalues --   -2.20254  -2.20163  -2.19519  -2.19448  -1.14656
  Beta  occ. eigenvalues --   -1.14638  -1.14582  -1.14385  -1.14370  -1.14365
  Beta  occ. eigenvalues --   -1.14345  -1.14335  -1.14315  -1.13927  -1.13919
  Beta  occ. eigenvalues --   -1.13906  -1.13851  -1.13845  -1.13773  -1.13198
  Beta  occ. eigenvalues --   -1.13192  -1.13185  -1.13135  -1.13123  -1.13113
  Beta  occ. eigenvalues --   -0.15121  -0.13253  -0.12544
  Beta virt. eigenvalues --   -0.07782  -0.07597  -0.04499  -0.03869  -0.03523
  Beta virt. eigenvalues --   -0.03122  -0.02236  -0.01970  -0.01428  -0.01074
  Beta virt. eigenvalues --   -0.00608  -0.00444  -0.00236   0.00359   0.00477

 Mulliken charges and spin densities:
               1          2
     1  Na   0.504082   0.120690
     2  Na  -0.213044  -0.023995
     3  Na   0.317158   0.286955
     4  Na  -0.973765   0.122155
     5  Na   0.159601   0.302605
     6  Na   0.522576   0.170667
     7  Na  -0.316608   0.020923
 Sum of Mulliken charges =  -0.00000   1.00000

 Dipole moment (field-independent basis, Debye):
    X=              0.7091    Y=             -0.1944    Z=              0.2400  Tot=              0.7735
 Quadrupole moment (field-independent basis, Debye-Ang):
   XX=            -53.4844   YY=            -72.8060   ZZ=            -72.3450
   XY=              2.6151   XZ=              1.4773   YZ=             -0.0338

 Normal termination of Gaussian 16 at Sun Dec  3 23:57:47 2023.
