 Gaussian 16, Revision B.01,
 Gaussian 16:  ES64L-G16RevB.01 20-Dec-2017

 -------------------------
 #P B3LYP/6-311+g(d) force
 -------------------------

 -----
 DPGEN
 -----
 Symbolic Z-matrix:
 Charge =  0 Multiplicity = 2

                         Standard orientation:
 ---------------------------------------------------------------------
 Center     Atomic      Atomic             Coordinates (Angstroms)
 Number     Number       Type             X           Y           Z
 ---------------------------------------------------------------------
      1         11           0        0.593682   -0.381324    1.915997
      2         11           0        1.300397   -0.924686   -1.551903
      3         11           0       -2.144168   -1.985780    0.891151
      4         11           0        4.262788   -0.300375    0.201613
      5         11           0        0.798227    2.207728   -0.495437
      6         11           0       -2.412501   -0.684312   -1.528666
      7         11           0       -2.398425    2.068749    0.567245
 ---------------------------------------------------------------------

 SCF Done:  E(UB3LYP) =  -1136.11837906     A.U. after   24 cycles

 The electronic state is 2-A.
 Alpha  occ. eigenvalues --  -38.45757 -38.44379 -38.44345 -38.44105 -38.43503
 Alpha  occ. eigenvalues --  -38.43433 -38.43098  -2.21501  -2.20244  -2.20201
 Alpha  occ. eigenvalues --   -2.20022  -2.19336  -2.19322  -2.18946  -1.15179
 Alpha  occ. eigenvalues --   -1.15171  -1.15125  -1.13937  -1.13897  -1.13879
 Alpha  occ. eigenvalues --   -1.13866  -1.13847  -1.13844  -1.13797  -1.13651
 Alpha  occ. eigenvalues --   -1.13624  -1.12998  -1.12994  -1.12977  -1.12971
 Alpha  occ. eigenvalues --   -1.12966  -1.12940  -1.12650  -1.12624  -1.12544
 Alpha  occ. eigenvalues --   -0.18294  -0.13746  -0.11337  -0.11182
 Alpha virt. eigenvalues --   -0.07169  -0.04748  -0.04597  -0.03241  -0.02835
 Alpha virt. eigenvalues --   -0.02767  -0.02525  -0.01033  -0.00728  -0.00138
 Alpha virt. eigenvalues --    0.00099   0.00247   0.00278   0.00726   0.00781

  Beta  occ. eigenvalues --  -38.45766 -38.44297 -38.44291 -38.44073 -38.43496
  Beta  occ. eigenvalues --  -38.43420 -38.43094  -2.21519  -2.20114  -2.20083
  Beta  occ. eigenvalues --   -2.19961  -2.19317  -2.19309  -2.18940  -1.15188
  Beta  occ. eigenvalues --   -1.15180  -1.15138  -1.13855  -1.13819  -1.13811
  Beta  occ. eigenvalues --   -1.13789  -1.13760  -1.13737  -1.13726  -1.13599
  Beta  occ. eigenvalues --   -1.13582  -1.12983  -1.12973  -1.12963  -1.12958
  Beta  occ. eigenvalues --   -1.12949  -1.12919  -1.12647  -1.12599  -1.12543
  Beta  occ. eigenvalues --   -0.17515  -0.13680  -0.11034
  Beta virt. eigenvalues --   -0.07319  -0.07003  -0.04696  -0.03932  -0.03063
  Beta virt. eigenvalues --   -0.02702  -0.01913  -0.01830  -0.00949  -0.00431
  Beta virt. eigenvalues --   -0.00122   0.00126   0.00287   0.00425   0.00776

 Mulliken charges and spin densities:
               1          2
     1  Na  -0.226300   0.567413
     2  Na  -0.283644   0.217589
     3  Na   0.028576  -0.065536
     4  Na   0.523972  -0.081292
     5  Na  -0.232927   0.012644
     6  Na   0.290975   0.368924
     7  Na  -0.100652  -0.019744
 Sum of Mulliken charges =  -0.00000   1.00000

 Dipole moment (field-independent basis, Debye):
    X=              1.7403    Y=              0.0725    Z=              0.1634  Tot=              1.7495
 Quadrupole moment (field-independent basis, Debye-Ang):
   XX=            -46.6326   YY=            -77.9176   ZZ=            -69.3823
   XY=             -0.8342   XZ=              0.9384   YZ=             -0.3979

 Normal termination of Gaussian 16 at Tue Dec  5 15:35:09 2023.
