 Gaussian 16, Revision B.01,
 Gaussian 16:  ES64L-G16RevB.01 20-Dec-2017

 -------------------------
 #P B3LYP/6-311+g(d) force
 -------------------------

 -----
 DPGEN
 -----
 Symbolic Z-matrix:
 Charge =  0 Multiplicity = 2

                         Standard orientation:
 ---------------------------------------------------------------------
 Center     Atomic      Atomic             Coordinates (Angstroms)
 Number     Number       Type             X           Y           Z
 ---------------------------------------------------------------------
      1         11           0       -2.915514    0.820408   -1.046072
      2         11           0       -0.028067   -1.064785   -1.178479
      3         11           0        0.685005    2.813440   -0.687016
      4         11           0        3.037251    0.796242    0.649868
      5         11           0       -0.704297    0.704089    1.995145
      6         11           0        4.039059   -2.235743   -0.255687
      7         11           0       -4.113436   -1.833651    0.522241
 ---------------------------------------------------------------------

 SCF Done:  E(UB3LYP) =  -1136.11668801     A.U. after   24 cycles

 The electronic state is 2-A.
 Alpha  occ. eigenvalues --  -38.45283 -38.44735 -38.44690 -38.44477 -38.44061
 Alpha  occ. eigenvalues --  -38.43714 -38.43330  -2.21075  -2.20512  -2.20500
 Alpha  occ. eigenvalues --   -2.20324  -2.19896  -2.19523  -2.19102  -1.14783
 Alpha  occ. eigenvalues --   -1.14728  -1.14674  -1.14195  -1.14192  -1.14164
 Alpha  occ. eigenvalues --   -1.14153  -1.14145  -1.14085  -1.14002  -1.13987
 Alpha  occ. eigenvalues --   -1.13936  -1.13597  -1.13568  -1.13515  -1.13212
 Alpha  occ. eigenvalues --   -1.13176  -1.13161  -1.12773  -1.12770  -1.12742
 Alpha  occ. eigenvalues --   -0.17604  -0.13768  -0.11409  -0.10449
 Alpha virt. eigenvalues --   -0.07116  -0.06083  -0.04621  -0.03214  -0.02765
 Alpha virt. eigenvalues --   -0.02480  -0.02282  -0.01806  -0.00993  -0.00583
 Alpha virt. eigenvalues --   -0.00252  -0.00009   0.00277   0.00387   0.00518

  Beta  occ. eigenvalues --  -38.45233 -38.44712 -38.44621 -38.44452 -38.44054
  Beta  occ. eigenvalues --  -38.43716 -38.43337  -2.20985  -2.20469  -2.20372
  Beta  occ. eigenvalues --   -2.20282  -2.19882  -2.19529  -2.19116  -1.14714
  Beta  occ. eigenvalues --   -1.14660  -1.14607  -1.14165  -1.14129  -1.14118
  Beta  occ. eigenvalues --   -1.14107  -1.14061  -1.13992  -1.13965  -1.13954
  Beta  occ. eigenvalues --   -1.13891  -1.13585  -1.13559  -1.13504  -1.13219
  Beta  occ. eigenvalues --   -1.13167  -1.13155  -1.12783  -1.12778  -1.12750
  Beta  occ. eigenvalues --   -0.16920  -0.13603  -0.11311
  Beta virt. eigenvalues --   -0.06946  -0.06642  -0.05889  -0.04302  -0.02850
  Beta virt. eigenvalues --   -0.02608  -0.02021  -0.01777  -0.01436  -0.00825
  Beta virt. eigenvalues --   -0.00350  -0.00125   0.00039   0.00418   0.00503

 Mulliken charges and spin densities:
               1          2
     1  Na   0.619437   0.170107
     2  Na  -0.737038   0.271585
     3  Na   0.154508   0.019632
     4  Na  -0.093333   0.062055
     5  Na  -0.272789   0.406907
     6  Na   0.248066  -0.085472
     7  Na   0.081148   0.155184
 Sum of Mulliken charges =  -0.00000   1.00000

 Dipole moment (field-independent basis, Debye):
    X=             -1.2126    Y=              0.3414    Z=             -0.2157  Tot=              1.2781
 Quadrupole moment (field-independent basis, Debye-Ang):
   XX=            -60.2751   YY=            -63.9836   ZZ=            -74.5884
   XY=              3.2850   XZ=              0.6031   YZ=             -2.6357

 Normal termination of Gaussian 16 at Thu Dec  7 14:47:06 2023.
