 Gaussian 16, Revision B.01,
 Gaussian 16:  ES64L-G16RevB.01 20-Dec-2017

 -------------------------
 #P B3LYP/6-311+g(d) force
 -------------------------

 -----
 DPGEN
 -----
 Symbolic Z-matrix:
 Charge =  0 Multiplicity = 2

                         Standard orientation:
 ---------------------------------------------------------------------
 Center     Atomic      Atomic             Coordinates (Angstroms)
 Number     Number       Type             X           Y           Z
 ---------------------------------------------------------------------
      1         11           0       -0.028751    0.049078   -1.458716
      2         11           0       -2.383416    2.045401   -0.016203
      3         11           0        3.201884   -0.085695   -0.277993
      4         11           0        0.955768    2.775367   -0.053664
      5         11           0       -2.770578   -1.739308   -0.173626
      6         11           0        0.798951   -2.849283   -0.118740
      7         11           0        0.226142   -0.195559    2.098941
 ---------------------------------------------------------------------

 SCF Done:  E(UB3LYP) =  -1136.13875983     A.U. after   19 cycles

 The electronic state is 2-A.
 Alpha  occ. eigenvalues --  -38.43981 -38.43903 -38.43806 -38.43705 -38.43488
 Alpha  occ. eigenvalues --  -38.43431 -38.42921  -2.19772  -2.19726  -2.19627
 Alpha  occ. eigenvalues --   -2.19551  -2.19351  -2.19308  -2.18928  -1.13451
 Alpha  occ. eigenvalues --   -1.13430  -1.13414  -1.13402  -1.13382  -1.13369
 Alpha  occ. eigenvalues --   -1.13310  -1.13291  -1.13266  -1.13246  -1.13225
 Alpha  occ. eigenvalues --   -1.13165  -1.13057  -1.13013  -1.12973  -1.12971
 Alpha  occ. eigenvalues --   -1.12927  -1.12922  -1.12620  -1.12571  -1.12544
 Alpha  occ. eigenvalues --   -0.18500  -0.12770  -0.12642  -0.10464
 Alpha virt. eigenvalues --   -0.05591  -0.05327  -0.04942  -0.02925  -0.02815
 Alpha virt. eigenvalues --   -0.02401  -0.01571  -0.01286  -0.00571  -0.00491
 Alpha virt. eigenvalues --   -0.00005   0.00336   0.00785   0.00839   0.00860

  Beta  occ. eigenvalues --  -38.43979 -38.43896 -38.43804 -38.43699 -38.43483
  Beta  occ. eigenvalues --  -38.43328 -38.42869  -2.19771  -2.19716  -2.19628
  Beta  occ. eigenvalues --   -2.19542  -2.19345  -2.19117  -2.18835  -1.13438
  Beta  occ. eigenvalues --   -1.13427  -1.13415  -1.13387  -1.13368  -1.13361
  Beta  occ. eigenvalues --   -1.13307  -1.13277  -1.13270  -1.13239  -1.13192
  Beta  occ. eigenvalues --   -1.13164  -1.13049  -1.12985  -1.12971  -1.12847
  Beta  occ. eigenvalues --   -1.12791  -1.12788  -1.12549  -1.12504  -1.12473
  Beta  occ. eigenvalues --   -0.17789  -0.12552  -0.12420
  Beta virt. eigenvalues --   -0.06530  -0.05581  -0.05317  -0.04887  -0.02157
  Beta virt. eigenvalues --   -0.02087  -0.01493  -0.01304  -0.01216  -0.00620
  Beta virt. eigenvalues --   -0.00543   0.00153   0.00375   0.00822   0.00858

 Mulliken charges and spin densities:
               1          2
     1  Na  -0.415582   0.339946
     2  Na   0.104670  -0.039375
     3  Na   0.261074  -0.000068
     4  Na   0.252113   0.000755
     5  Na   0.083769  -0.059471
     6  Na   0.240664  -0.037027
     7  Na  -0.526708   0.795239
 Sum of Mulliken charges =  -0.00000   1.00000

 Dipole moment (field-independent basis, Debye):
    X=             -0.0451    Y=             -0.1017    Z=              0.1280  Tot=              0.1696
 Quadrupole moment (field-independent basis, Debye-Ang):
   XX=            -55.8288   YY=            -60.0994   ZZ=            -76.1904
   XY=              0.0053   XZ=             -0.6796   YZ=              0.6041

 Normal termination of Gaussian 16 at Fri Dec  8 02:16:14 2023.
