 Gaussian 16, Revision B.01,
 Gaussian 16:  ES64L-G16RevB.01 20-Dec-2017

 -------------------------
 #P B3LYP/6-311+g(d) force
 -------------------------

 -----
 DPGEN
 -----
 Symbolic Z-matrix:
 Charge =  0 Multiplicity = 2

                         Standard orientation:
 ---------------------------------------------------------------------
 Center     Atomic      Atomic             Coordinates (Angstroms)
 Number     Number       Type             X           Y           Z
 ---------------------------------------------------------------------
      1         11           0       -2.695743   -1.289632   -0.026743
      2         11           0        0.201117   -0.195010    1.874433
      3         11           0        0.643951   -2.509940   -0.034405
      4         11           0        3.448874   -0.078177   -0.123385
      5         11           0        0.157357    0.078177   -1.825238
      6         11           0        1.035019    2.505096    0.173440
      7         11           0       -2.790575    1.489486   -0.038100
 ---------------------------------------------------------------------

 SCF Done:  E(UB3LYP) =  -1136.12786427     A.U. after   19 cycles

 The electronic state is 2-A.
 Alpha  occ. eigenvalues --  -38.45234 -38.44154 -38.44056 -38.43567 -38.43470
 Alpha  occ. eigenvalues --  -38.43041 -38.42657  -2.21026  -2.20035  -2.19960
 Alpha  occ. eigenvalues --   -2.19521  -2.19433  -2.18910  -2.18581  -1.14702
 Alpha  occ. eigenvalues --   -1.14673  -1.14667  -1.13994  -1.13674  -1.13650
 Alpha  occ. eigenvalues --   -1.13590  -1.13572  -1.13491  -1.13216  -1.13177
 Alpha  occ. eigenvalues --   -1.13128  -1.13122  -1.13086  -1.13031  -1.12603
 Alpha  occ. eigenvalues --   -1.12585  -1.12518  -1.12284  -1.12254  -1.12176
 Alpha  occ. eigenvalues --   -0.19006  -0.13646  -0.11948  -0.10861
 Alpha virt. eigenvalues --   -0.06576  -0.04840  -0.03942  -0.03491  -0.02675
 Alpha virt. eigenvalues --   -0.02552  -0.02291  -0.00877  -0.00182  -0.00077
 Alpha virt. eigenvalues --   -0.00062   0.00317   0.00735   0.00809   0.00918

  Beta  occ. eigenvalues --  -38.45232 -38.44153 -38.44052 -38.43489 -38.43383
  Beta  occ. eigenvalues --  -38.43032 -38.42647  -2.21025  -2.20036  -2.19957
  Beta  occ. eigenvalues --   -2.19379  -2.19272  -2.18898  -2.18568  -1.14680
  Beta  occ. eigenvalues --   -1.14677  -1.14668  -1.13999  -1.13656  -1.13648
  Beta  occ. eigenvalues --   -1.13574  -1.13560  -1.13494  -1.13123  -1.13074
  Beta  occ. eigenvalues --   -1.13022  -1.13018  -1.12970  -1.12918  -1.12596
  Beta  occ. eigenvalues --   -1.12544  -1.12514  -1.12277  -1.12204  -1.12172
  Beta  occ. eigenvalues --   -0.18252  -0.13429  -0.11670
  Beta virt. eigenvalues --   -0.06927  -0.06517  -0.04863  -0.03939  -0.02698
  Beta virt. eigenvalues --   -0.02186  -0.01858  -0.01478  -0.00837  -0.00220
  Beta virt. eigenvalues --   -0.00123   0.00084   0.00336   0.00844   0.00903

 Mulliken charges and spin densities:
               1          2
     1  Na   0.265213  -0.012625
     2  Na  -0.422514   0.713084
     3  Na   0.299195  -0.111560
     4  Na   0.169961  -0.093885
     5  Na  -0.436824   0.712107
     6  Na   0.059601  -0.132882
     7  Na   0.065369  -0.074237
 Sum of Mulliken charges =  -0.00000   1.00000

 Dipole moment (field-independent basis, Debye):
    X=              0.6831    Y=              0.0584    Z=             -0.0384  Tot=              0.6866
 Quadrupole moment (field-independent basis, Debye-Ang):
   XX=            -50.1352   YY=            -69.1916   ZZ=            -73.9522
   XY=             -0.5842   XZ=             -0.2736   YZ=              0.5884

 Normal termination of Gaussian 16 at Sat Dec  9 06:40:21 2023.
