 Gaussian 16, Revision B.01,
 Gaussian 16:  ES64L-G16RevB.01 20-Dec-2017

 -------------------------
 #P B3LYP/6-311+g(d) force
 -------------------------

 -----
 DPGEN
 -----
 Symbolic Z-matrix:
 Charge =  0 Multiplicity = 2

                         Standard orientation:
 ---------------------------------------------------------------------
 Center     Atomic      Atomic             Coordinates (Angstroms)
 Number     Number       Type             X           Y           Z
 ---------------------------------------------------------------------
      1         11           0       -1.745053    2.269871   -0.962061
      2         11           0       -1.685213   -1.875429   -1.406971
      3         11           0        3.821391   -0.163000    0.844646
      4         11           0       -0.388644   -0.066766    1.944236
      5         11           0        1.801901   -1.764786   -0.829174
      6         11           0        1.760443    1.930713   -0.670152
      7         11           0       -3.564826   -0.330604    1.079476
 ---------------------------------------------------------------------

 SCF Done:  E(UB3LYP) =  -1136.12220689     A.U. after   23 cycles

 The electronic state is 2-A.
 Alpha  occ. eigenvalues --  -38.45250 -38.45038 -38.44842 -38.43637 -38.43586
 Alpha  occ. eigenvalues --  -38.43336 -38.43260  -2.21062  -2.20890  -2.20671
 Alpha  occ. eigenvalues --   -2.19500  -2.19404  -2.19172  -2.19057  -1.14733
 Alpha  occ. eigenvalues --   -1.14708  -1.14698  -1.14571  -1.14539  -1.14523
 Alpha  occ. eigenvalues --   -1.14339  -1.14310  -1.14306  -1.13179  -1.13169
 Alpha  occ. eigenvalues --   -1.13145  -1.13066  -1.13052  -1.13036  -1.12860
 Alpha  occ. eigenvalues --   -1.12848  -1.12804  -1.12729  -1.12707  -1.12691
 Alpha  occ. eigenvalues --   -0.17846  -0.14344  -0.11323  -0.10932
 Alpha virt. eigenvalues --   -0.06942  -0.05366  -0.04974  -0.03412  -0.02771
 Alpha virt. eigenvalues --   -0.02613  -0.02131  -0.01119  -0.01015  -0.00332
 Alpha virt. eigenvalues --    0.00109   0.00172   0.00208   0.00498   0.00695

  Beta  occ. eigenvalues --  -38.45193 -38.45024 -38.44815 -38.43620 -38.43543
  Beta  occ. eigenvalues --  -38.43329 -38.43237  -2.20958  -2.20863  -2.20624
  Beta  occ. eigenvalues --   -2.19471  -2.19325  -2.19161  -2.19015  -1.14658
  Beta  occ. eigenvalues --   -1.14635  -1.14621  -1.14558  -1.14522  -1.14501
  Beta  occ. eigenvalues --   -1.14289  -1.14281  -1.14277  -1.13158  -1.13141
  Beta  occ. eigenvalues --   -1.13112  -1.13010  -1.12996  -1.12979  -1.12849
  Beta  occ. eigenvalues --   -1.12837  -1.12790  -1.12691  -1.12682  -1.12662
  Beta  occ. eigenvalues --   -0.17277  -0.14126  -0.10864
  Beta virt. eigenvalues --   -0.07371  -0.06696  -0.05425  -0.04296  -0.03093
  Beta virt. eigenvalues --   -0.02507  -0.02123  -0.01480  -0.00953  -0.00684
  Beta virt. eigenvalues --   -0.00281   0.00150   0.00218   0.00357   0.00603

 Mulliken charges and spin densities:
               1          2
     1  Na  -0.232844   0.162020
     2  Na  -0.356786   0.192872
     3  Na   1.086525   0.104529
     4  Na  -0.914925   0.311072
     5  Na  -0.297811   0.078648
     6  Na  -0.395172   0.041700
     7  Na   1.111015   0.109158
 Sum of Mulliken charges =  -0.00000   1.00000

 Dipole moment (field-independent basis, Debye):
    X=              0.2103    Y=             -0.1280    Z=              0.7967  Tot=              0.8339
 Quadrupole moment (field-independent basis, Debye-Ang):
   XX=            -45.6734   YY=            -80.0765   ZZ=            -70.1849
   XY=              0.0924   XZ=              2.7850   YZ=              0.0482

 Normal termination of Gaussian 16 at Sun Dec  3 18:14:04 2023.
