 Gaussian 16, Revision B.01,
 Gaussian 16:  ES64L-G16RevB.01 20-Dec-2017

 -------------------------
 #P B3LYP/6-311+g(d) force
 -------------------------

 -----
 DPGEN
 -----
 Symbolic Z-matrix:
 Charge =  0 Multiplicity = 2

                         Standard orientation:
 ---------------------------------------------------------------------
 Center     Atomic      Atomic             Coordinates (Angstroms)
 Number     Number       Type             X           Y           Z
 ---------------------------------------------------------------------
      1         11           0       -3.354175   -0.572168    0.243937
      2         11           0        2.985616   -1.539906   -0.139260
      3         11           0       -0.641585   -1.858545   -1.392171
      4         11           0        0.642342    1.246690   -0.351561
      5         11           0       -3.357357    2.382018   -0.031564
      6         11           0        3.955605    2.092970    0.202011
      7         11           0       -0.230446   -1.751058    1.468609
 ---------------------------------------------------------------------

 SCF Done:  E(UB3LYP) =  -1136.11228770     A.U. after   28 cycles

 The electronic state is 2-A.
 Alpha  occ. eigenvalues --  -38.45390 -38.44391 -38.44339 -38.44004 -38.43948
 Alpha  occ. eigenvalues --  -38.43750 -38.43632  -2.21181  -2.20194  -2.20111
 Alpha  occ. eigenvalues --   -2.19890  -2.19866  -2.19610  -2.19575  -1.14874
 Alpha  occ. eigenvalues --   -1.14845  -1.14792  -1.13952  -1.13846  -1.13825
 Alpha  occ. eigenvalues --   -1.13783  -1.13777  -1.13743  -1.13655  -1.13558
 Alpha  occ. eigenvalues --   -1.13539  -1.13527  -1.13513  -1.13460  -1.13321
 Alpha  occ. eigenvalues --   -1.13280  -1.13215  -1.13208  -1.13191  -1.13177
 Alpha  occ. eigenvalues --   -0.18106  -0.14005  -0.12052  -0.09628
 Alpha virt. eigenvalues --   -0.07057  -0.06664  -0.04235  -0.03184  -0.02748
 Alpha virt. eigenvalues --   -0.02457  -0.01969  -0.01501  -0.01467  -0.00348
 Alpha virt. eigenvalues --   -0.00104   0.00099   0.00305   0.00365   0.00569

  Beta  occ. eigenvalues --  -38.45375 -38.44393 -38.44334 -38.43982 -38.43914
  Beta  occ. eigenvalues --  -38.43707 -38.43586  -2.21154  -2.20200  -2.20102
  Beta  occ. eigenvalues --   -2.19851  -2.19803  -2.19534  -2.19495  -1.14849
  Beta  occ. eigenvalues --   -1.14816  -1.14773  -1.13951  -1.13851  -1.13818
  Beta  occ. eigenvalues --   -1.13777  -1.13765  -1.13737  -1.13605  -1.13522
  Beta  occ. eigenvalues --   -1.13505  -1.13485  -1.13484  -1.13414  -1.13267
  Beta  occ. eigenvalues --   -1.13215  -1.13163  -1.13151  -1.13137  -1.13097
  Beta  occ. eigenvalues --   -0.17471  -0.13730  -0.11914
  Beta virt. eigenvalues --   -0.06919  -0.06420  -0.05962  -0.04087  -0.02657
  Beta virt. eigenvalues --   -0.02592  -0.02091  -0.01810  -0.01375  -0.00847
  Beta virt. eigenvalues --   -0.00259   0.00158   0.00218   0.00413   0.00454

 Mulliken charges and spin densities:
               1          2
     1  Na  -0.161671   0.219610
     2  Na   0.311557   0.209877
     3  Na   0.565243   0.190447
     4  Na  -1.606805   0.022100
     5  Na   0.614772  -0.072397
     6  Na   0.301437   0.111765
     7  Na  -0.024533   0.318598
 Sum of Mulliken charges =  -0.00000   1.00000

 Dipole moment (field-independent basis, Debye):
    X=              0.9237    Y=             -0.0829    Z=             -0.6910  Tot=              1.1565
 Quadrupole moment (field-independent basis, Debye-Ang):
   XX=            -59.6451   YY=            -63.3873   ZZ=            -74.6502
   XY=             -1.4379   XZ=              1.2159   YZ=              4.8824

 Normal termination of Gaussian 16 at Thu Dec  7 11:40:53 2023.
