 Gaussian 16, Revision B.01,
 Gaussian 16:  ES64L-G16RevB.01 20-Dec-2017

 -------------------------
 #P B3LYP/6-311+g(d) force
 -------------------------

 -----
 DPGEN
 -----
 Symbolic Z-matrix:
 Charge =  0 Multiplicity = 2

                         Standard orientation:
 ---------------------------------------------------------------------
 Center     Atomic      Atomic             Coordinates (Angstroms)
 Number     Number       Type             X           Y           Z
 ---------------------------------------------------------------------
      1         11           0       -0.582025   -1.971890   -1.354865
      2         11           0        0.974869    1.654560    0.869248
      3         11           0       -1.924959    2.377036   -0.370388
      4         11           0        3.807386    1.204879   -0.685657
      5         11           0        2.229132   -2.046140    0.256758
      6         11           0       -1.190675   -1.059273    1.859155
      7         11           0       -3.313728   -0.159173   -0.574251
 ---------------------------------------------------------------------

 SCF Done:  E(UB3LYP) =  -1136.12177419     A.U. after   21 cycles

 The electronic state is 2-A.
 Alpha  occ. eigenvalues --  -38.44434 -38.44310 -38.44261 -38.44152 -38.43997
 Alpha  occ. eigenvalues --  -38.43799 -38.43255  -2.20230  -2.20183  -2.20119
 Alpha  occ. eigenvalues --   -2.20018  -2.19883  -2.19660  -2.19127  -1.13992
 Alpha  occ. eigenvalues --   -1.13893  -1.13886  -1.13863  -1.13833  -1.13828
 Alpha  occ. eigenvalues --   -1.13820  -1.13786  -1.13739  -1.13680  -1.13647
 Alpha  occ. eigenvalues --   -1.13605  -1.13549  -1.13537  -1.13490  -1.13327
 Alpha  occ. eigenvalues --   -1.13307  -1.13297  -1.12816  -1.12785  -1.12764
 Alpha  occ. eigenvalues --   -0.18148  -0.13878  -0.12190  -0.10635
 Alpha virt. eigenvalues --   -0.06680  -0.05860  -0.03924  -0.03646  -0.02911
 Alpha virt. eigenvalues --   -0.02239  -0.02023  -0.01345  -0.00766  -0.00449
 Alpha virt. eigenvalues --   -0.00061   0.00268   0.00357   0.00661   0.00704

  Beta  occ. eigenvalues --  -38.44408 -38.44310 -38.44228 -38.44145 -38.43923
  Beta  occ. eigenvalues --  -38.43778 -38.43232  -2.20180  -2.20124  -2.20120
  Beta  occ. eigenvalues --   -2.20007  -2.19749  -2.19622  -2.19088  -1.13960
  Beta  occ. eigenvalues --   -1.13862  -1.13852  -1.13831  -1.13827  -1.13784
  Beta  occ. eigenvalues --   -1.13775  -1.13771  -1.13733  -1.13671  -1.13620
  Beta  occ. eigenvalues --   -1.13589  -1.13458  -1.13438  -1.13395  -1.13302
  Beta  occ. eigenvalues --   -1.13281  -1.13257  -1.12796  -1.12751  -1.12717
  Beta  occ. eigenvalues --   -0.17503  -0.13509  -0.12039
  Beta virt. eigenvalues --   -0.06965  -0.06459  -0.05643  -0.03666  -0.03255
  Beta virt. eigenvalues --   -0.02373  -0.01873  -0.01389  -0.01254  -0.00651
  Beta virt. eigenvalues --   -0.00143   0.00007   0.00322   0.00509   0.00714

 Mulliken charges and spin densities:
               1          2
     1  Na  -0.269384   0.089165
     2  Na  -0.768574   0.156481
     3  Na   0.079845  -0.126609
     4  Na   0.306890   0.098878
     5  Na   0.209718   0.116217
     6  Na   0.009958   0.288439
     7  Na   0.431547   0.377429
 Sum of Mulliken charges =  -0.00000   1.00000

 Dipole moment (field-independent basis, Debye):
    X=              0.2514    Y=             -0.3833    Z=             -0.0267  Tot=              0.4592
 Quadrupole moment (field-independent basis, Debye-Ang):
   XX=            -56.7469   YY=            -69.9078   ZZ=            -70.7354
   XY=             -0.7694   XZ=             -2.5095   YZ=             -2.6839

 Normal termination of Gaussian 16 at Sun Dec  3 23:57:06 2023.
