 Gaussian 16, Revision B.01,
 Gaussian 16:  ES64L-G16RevB.01 20-Dec-2017

 -------------------------
 #P B3LYP/6-311+g(d) force
 -------------------------

 -----
 DPGEN
 -----
 Symbolic Z-matrix:
 Charge =  0 Multiplicity = 2

                         Standard orientation:
 ---------------------------------------------------------------------
 Center     Atomic      Atomic             Coordinates (Angstroms)
 Number     Number       Type             X           Y           Z
 ---------------------------------------------------------------------
      1         11           0        2.745267    1.186333    0.085954
      2         11           0       -0.180009    3.239264   -0.039585
      3         11           0        0.759106   -1.593044    1.632560
      4         11           0       -2.974387    1.009999    0.716232
      5         11           0       -3.691760   -2.101586   -0.517541
      6         11           0        3.617788   -1.720522   -0.457368
      7         11           0       -0.276005   -0.020444   -1.420253
 ---------------------------------------------------------------------

 SCF Done:  E(UB3LYP) =  -1136.11953197     A.U. after   26 cycles

 The electronic state is 2-A.
 Alpha  occ. eigenvalues --  -38.45722 -38.45003 -38.44310 -38.44083 -38.43733
 Alpha  occ. eigenvalues --  -38.43185 -38.42939  -2.21535  -2.20801  -2.20150
 Alpha  occ. eigenvalues --   -2.19962  -2.19520  -2.19037  -2.18758  -1.15246
 Alpha  occ. eigenvalues --   -1.15188  -1.15158  -1.14486  -1.14471  -1.14426
 Alpha  occ. eigenvalues --   -1.13880  -1.13804  -1.13776  -1.13639  -1.13621
 Alpha  occ. eigenvalues --   -1.13567  -1.13185  -1.13174  -1.13144  -1.12690
 Alpha  occ. eigenvalues --   -1.12683  -1.12636  -1.12430  -1.12416  -1.12409
 Alpha  occ. eigenvalues --   -0.17639  -0.13994  -0.11961  -0.09690
 Alpha virt. eigenvalues --   -0.06918  -0.06113  -0.04658  -0.03263  -0.02679
 Alpha virt. eigenvalues --   -0.02550  -0.01849  -0.01542  -0.01175  -0.00489
 Alpha virt. eigenvalues --   -0.00221   0.00052   0.00402   0.00490   0.00599

  Beta  occ. eigenvalues --  -38.45718 -38.45004 -38.44288 -38.44061 -38.43699
  Beta  occ. eigenvalues --  -38.43086 -38.42944  -2.21530  -2.20804  -2.20114
  Beta  occ. eigenvalues --   -2.19924  -2.19456  -2.18853  -2.18766  -1.15222
  Beta  occ. eigenvalues --   -1.15189  -1.15158  -1.14486  -1.14472  -1.14416
  Beta  occ. eigenvalues --   -1.13852  -1.13780  -1.13730  -1.13613  -1.13573
  Beta  occ. eigenvalues --   -1.13540  -1.13142  -1.13125  -1.13104  -1.12566
  Beta  occ. eigenvalues --   -1.12556  -1.12514  -1.12436  -1.12422  -1.12411
  Beta  occ. eigenvalues --   -0.17159  -0.13606  -0.11694
  Beta virt. eigenvalues --   -0.06779  -0.06211  -0.05812  -0.04466  -0.02989
  Beta virt. eigenvalues --   -0.02373  -0.02038  -0.01720  -0.01158  -0.01004
  Beta virt. eigenvalues --   -0.00235   0.00003   0.00243   0.00586   0.00625

 Mulliken charges and spin densities:
               1          2
     1  Na   0.050124   0.347196
     2  Na   0.047124  -0.039542
     3  Na  -0.379915   0.415522
     4  Na   0.181307   0.092194
     5  Na   0.111298   0.178897
     6  Na   0.450530   0.060031
     7  Na  -0.460469  -0.054297
 Sum of Mulliken charges =  -0.00000   1.00000

 Dipole moment (field-independent basis, Debye):
    X=             -0.1103    Y=             -0.0390    Z=              0.1430  Tot=              0.1847
 Quadrupole moment (field-independent basis, Debye-Ang):
   XX=            -64.6019   YY=            -65.3910   ZZ=            -71.1060
   XY=             -4.5597   XZ=             -1.8844   YZ=              5.5878

 Normal termination of Gaussian 16 at Thu Dec  7 19:55:23 2023.
