 Gaussian 16, Revision B.01,
 Gaussian 16:  ES64L-G16RevB.01 20-Dec-2017

 -------------------------
 #P B3LYP/6-311+g(d) force
 -------------------------

 -----
 DPGEN
 -----
 Symbolic Z-matrix:
 Charge =  0 Multiplicity = 2

                         Standard orientation:
 ---------------------------------------------------------------------
 Center     Atomic      Atomic             Coordinates (Angstroms)
 Number     Number       Type             X           Y           Z
 ---------------------------------------------------------------------
      1         11           0        0.462472   -1.018680    2.002605
      2         11           0       -0.300126    1.570371   -1.611302
      3         11           0        0.833317   -1.679305   -1.928827
      4         11           0       -2.853852   -0.985758   -1.073270
      5         11           0        2.727552   -2.210673    0.774076
      6         11           0       -3.231507    0.832316    1.665334
      7         11           0        2.362144    3.491729    0.171384
 ---------------------------------------------------------------------

 SCF Done:  E(UB3LYP) =  -1136.11316158     A.U. after   22 cycles

 The electronic state is 2-A.
 Alpha  occ. eigenvalues --  -38.44703 -38.44551 -38.44545 -38.44334 -38.44208
 Alpha  occ. eigenvalues --  -38.43781 -38.43449  -2.20545  -2.20396  -2.20356
 Alpha  occ. eigenvalues --   -2.20091  -2.19994  -2.19658  -2.19234  -1.14208
 Alpha  occ. eigenvalues --   -1.14203  -1.14163  -1.14137  -1.14044  -1.14034
 Alpha  occ. eigenvalues --   -1.14030  -1.14017  -1.13994  -1.13744  -1.13739
 Alpha  occ. eigenvalues --   -1.13701  -1.13653  -1.13645  -1.13627  -1.13332
 Alpha  occ. eigenvalues --   -1.13286  -1.13277  -1.12939  -1.12922  -1.12861
 Alpha  occ. eigenvalues --   -0.17241  -0.13128  -0.11853  -0.11762
 Alpha virt. eigenvalues --   -0.05828  -0.05683  -0.05110  -0.03391  -0.03166
 Alpha virt. eigenvalues --   -0.02670  -0.01633  -0.01548  -0.00923  -0.00283
 Alpha virt. eigenvalues --   -0.00232   0.00108   0.00280   0.00443   0.00717

  Beta  occ. eigenvalues --  -38.44640 -38.44531 -38.44519 -38.44261 -38.44187
  Beta  occ. eigenvalues --  -38.43780 -38.43464  -2.20430  -2.20336  -2.20332
  Beta  occ. eigenvalues --   -2.19955  -2.19954  -2.19658  -2.19267  -1.14132
  Beta  occ. eigenvalues --   -1.14126  -1.14098  -1.14075  -1.14020  -1.14004
  Beta  occ. eigenvalues --   -1.14002  -1.13987  -1.13958  -1.13650  -1.13646
  Beta  occ. eigenvalues --   -1.13626  -1.13615  -1.13613  -1.13603  -1.13322
  Beta  occ. eigenvalues --   -1.13283  -1.13280  -1.12965  -1.12936  -1.12861
  Beta  occ. eigenvalues --   -0.16628  -0.13056  -0.11226
  Beta virt. eigenvalues --   -0.08299  -0.05500  -0.05152  -0.04714  -0.03085
  Beta virt. eigenvalues --   -0.02852  -0.02364  -0.01524  -0.01161  -0.00658
  Beta virt. eigenvalues --   -0.00136   0.00026   0.00244   0.00390   0.00570

 Mulliken charges and spin densities:
               1          2
     1  Na  -0.833970   0.365183
     2  Na  -0.098276  -0.101586
     3  Na  -0.308342   0.352302
     4  Na   0.531844  -0.023167
     5  Na   0.855926  -0.076230
     6  Na  -0.147620   0.122297
     7  Na   0.000437   0.361200
 Sum of Mulliken charges =  -0.00000   1.00000

 Dipole moment (field-independent basis, Debye):
    X=             -0.1224    Y=             -0.7261    Z=              0.1443  Tot=              0.7503
 Quadrupole moment (field-independent basis, Debye-Ang):
   XX=            -61.3460   YY=            -69.3379   ZZ=            -69.0037
   XY=             -1.9001   XZ=              1.8358   YZ=              8.7808

 Normal termination of Gaussian 16 at Mon Dec  4 01:08:00 2023.
