 Gaussian 16, Revision B.01,
 Gaussian 16:  ES64L-G16RevB.01 20-Dec-2017

 -------------------------
 #P B3LYP/6-311+g(d) force
 -------------------------

 -----
 DPGEN
 -----
 Symbolic Z-matrix:
 Charge =  0 Multiplicity = 2

                         Standard orientation:
 ---------------------------------------------------------------------
 Center     Atomic      Atomic             Coordinates (Angstroms)
 Number     Number       Type             X           Y           Z
 ---------------------------------------------------------------------
      1         11           0       -2.478318    1.271579   -0.581634
      2         11           0        1.191417    0.508136    0.444919
      3         11           0        2.102585   -2.766277   -0.296124
      4         11           0       -1.019749   -2.090290   -0.376551
      5         11           0       -4.532395   -0.803801    0.672545
      6         11           0        4.368746    0.290083    0.316168
      7         11           0        0.367713    3.590570   -0.179323
 ---------------------------------------------------------------------

 SCF Done:  E(UB3LYP) =  -1136.12819044     A.U. after   19 cycles

 The electronic state is 2-A.
 Alpha  occ. eigenvalues --  -38.44357 -38.44032 -38.44018 -38.43980 -38.43702
 Alpha  occ. eigenvalues --  -38.43470 -38.43337  -2.20190  -2.19869  -2.19847
 Alpha  occ. eigenvalues --   -2.19821  -2.19564  -2.19273  -2.19265  -1.13850
 Alpha  occ. eigenvalues --   -1.13824  -1.13792  -1.13570  -1.13562  -1.13539
 Alpha  occ. eigenvalues --   -1.13515  -1.13505  -1.13503  -1.13485  -1.13465
 Alpha  occ. eigenvalues --   -1.13384  -1.13258  -1.13244  -1.13154  -1.12986
 Alpha  occ. eigenvalues --   -1.12967  -1.12960  -1.12933  -1.12910  -1.12834
 Alpha  occ. eigenvalues --   -0.17192  -0.14136  -0.12546  -0.10834
 Alpha virt. eigenvalues --   -0.05723  -0.05313  -0.04706  -0.03776  -0.02563
 Alpha virt. eigenvalues --   -0.02158  -0.01743  -0.01440  -0.01121  -0.00698
 Alpha virt. eigenvalues --   -0.00262   0.00023   0.00554   0.00628   0.00741

  Beta  occ. eigenvalues --  -38.44258 -38.44021 -38.43973 -38.43953 -38.43670
  Beta  occ. eigenvalues --  -38.43465 -38.43330  -2.20005  -2.19855  -2.19814
  Beta  occ. eigenvalues --   -2.19726  -2.19509  -2.19265  -2.19257  -1.13727
  Beta  occ. eigenvalues --   -1.13698  -1.13669  -1.13536  -1.13535  -1.13531
  Beta  occ. eigenvalues --   -1.13512  -1.13475  -1.13468  -1.13405  -1.13389
  Beta  occ. eigenvalues --   -1.13333  -1.13220  -1.13210  -1.13099  -1.12984
  Beta  occ. eigenvalues --   -1.12960  -1.12928  -1.12922  -1.12900  -1.12833
  Beta  occ. eigenvalues --   -0.16710  -0.13332  -0.12127
  Beta virt. eigenvalues --   -0.07449  -0.05607  -0.05085  -0.04358  -0.03279
  Beta virt. eigenvalues --   -0.02202  -0.01822  -0.01499  -0.01238  -0.00926
  Beta virt. eigenvalues --   -0.00392   0.00077   0.00212   0.00636   0.00707

 Mulliken charges and spin densities:
               1          2
     1  Na  -0.053683   0.210366
     2  Na  -1.974572   0.056357
     3  Na   0.200769  -0.029372
     4  Na  -0.184158   0.044118
     5  Na   0.704222   0.333477
     6  Na   0.692031   0.384454
     7  Na   0.615392   0.000600
 Sum of Mulliken charges =  -0.00000   1.00000

 Dipole moment (field-independent basis, Debye):
    X=              0.1651    Y=             -0.3533    Z=             -0.1288  Tot=              0.4107
 Quadrupole moment (field-independent basis, Debye-Ang):
   XX=            -61.3499   YY=            -61.8835   ZZ=            -71.0527
   XY=             -0.8975   XZ=             -2.0506   YZ=             -0.9981

 Normal termination of Gaussian 16 at Wed Nov 29 01:12:21 2023.
