 Gaussian 16, Revision B.01,
 Gaussian 16:  ES64L-G16RevB.01 20-Dec-2017

 -------------------------
 #P B3LYP/6-311+g(d) force
 -------------------------

 -----
 DPGEN
 -----
 Symbolic Z-matrix:
 Charge =  0 Multiplicity = 2

                         Standard orientation:
 ---------------------------------------------------------------------
 Center     Atomic      Atomic             Coordinates (Angstroms)
 Number     Number       Type             X           Y           Z
 ---------------------------------------------------------------------
      1         11           0       -0.606951   -1.120933    0.575806
      2         11           0        3.673624   -0.246867    1.148247
      3         11           0        1.306458    2.537625   -0.482786
      4         11           0       -4.932630    0.064768    1.213187
      5         11           0       -3.374205   -1.869681   -1.355313
      6         11           0        5.940768   -0.981815   -0.507428
      7         11           0       -2.007065    1.616905   -0.591713
 ---------------------------------------------------------------------

 SCF Done:  E(UB3LYP) =  -1136.11117712     A.U. after   22 cycles

 The electronic state is 2-A.
 Alpha  occ. eigenvalues --  -38.45054 -38.44746 -38.44431 -38.44200 -38.43867
 Alpha  occ. eigenvalues --  -38.43801 -38.43681  -2.20883  -2.20556  -2.20234
 Alpha  occ. eigenvalues --   -2.20050  -2.19642  -2.19617  -2.19512  -1.14563
 Alpha  occ. eigenvalues --   -1.14557  -1.14471  -1.14237  -1.14210  -1.14183
 Alpha  occ. eigenvalues --   -1.13893  -1.13883  -1.13839  -1.13756  -1.13740
 Alpha  occ. eigenvalues --   -1.13633  -1.13440  -1.13320  -1.13295  -1.13270
 Alpha  occ. eigenvalues --   -1.13260  -1.13258  -1.13166  -1.13148  -1.13073
 Alpha  occ. eigenvalues --   -0.16979  -0.13898  -0.11611  -0.10816
 Alpha virt. eigenvalues --   -0.06854  -0.06063  -0.04478  -0.03372  -0.03023
 Alpha virt. eigenvalues --   -0.02206  -0.01934  -0.01750  -0.01346  -0.00886
 Alpha virt. eigenvalues --   -0.00676  -0.00015   0.00180   0.00355   0.00523

  Beta  occ. eigenvalues --  -38.44988 -38.44725 -38.44357 -38.44177 -38.43860
  Beta  occ. eigenvalues --  -38.43802 -38.43680  -2.20762  -2.20522  -2.20097
  Beta  occ. eigenvalues --   -2.20010  -2.19629  -2.19619  -2.19511  -1.14484
  Beta  occ. eigenvalues --   -1.14467  -1.14381  -1.14218  -1.14174  -1.14144
  Beta  occ. eigenvalues --   -1.13800  -1.13780  -1.13753  -1.13732  -1.13696
  Beta  occ. eigenvalues --   -1.13603  -1.13441  -1.13312  -1.13283  -1.13263
  Beta  occ. eigenvalues --   -1.13261  -1.13260  -1.13163  -1.13148  -1.13074
  Beta  occ. eigenvalues --   -0.16316  -0.13778  -0.11404
  Beta virt. eigenvalues --   -0.07089  -0.06332  -0.05952  -0.04242  -0.03046
  Beta virt. eigenvalues --   -0.02799  -0.01943  -0.01497  -0.01395  -0.01051
  Beta virt. eigenvalues --   -0.00697  -0.00358   0.00149   0.00244   0.00425

 Mulliken charges and spin densities:
               1          2
     1  Na  -0.649090   0.445135
     2  Na  -0.380640   0.032286
     3  Na   0.133569   0.025645
     4  Na   0.278798   0.365830
     5  Na   0.997276  -0.089867
     6  Na   0.091313  -0.011435
     7  Na  -0.471225   0.232406
 Sum of Mulliken charges =  -0.00000   1.00000

 Dipole moment (field-independent basis, Debye):
    X=             -0.9917    Y=             -0.5044    Z=             -0.5170  Tot=              1.2269
 Quadrupole moment (field-independent basis, Debye-Ang):
   XX=            -66.9291   YY=            -72.0006   ZZ=            -63.5863
   XY=              4.8533   XZ=             -3.0225   YZ=              0.2387

 Normal termination of Gaussian 16 at Sun Dec  3 16:16:43 2023.
