 Gaussian 16, Revision B.01,
 Gaussian 16:  ES64L-G16RevB.01 20-Dec-2017

 -------------------------
 #P B3LYP/6-311+g(d) force
 -------------------------

 -----
 DPGEN
 -----
 Symbolic Z-matrix:
 Charge =  0 Multiplicity = 2

                         Standard orientation:
 ---------------------------------------------------------------------
 Center     Atomic      Atomic             Coordinates (Angstroms)
 Number     Number       Type             X           Y           Z
 ---------------------------------------------------------------------
      1         11           0       -1.358397   -0.085900    1.727120
      2         11           0        3.711187   -1.618264   -0.212910
      3         11           0       -3.432737   -1.978262   -0.912449
      4         11           0        0.603969   -2.762896    0.027099
      5         11           0        0.443844    3.237737   -0.557227
      6         11           0        3.424672    1.497922   -0.001173
      7         11           0       -3.392538    1.709663   -0.070460
 ---------------------------------------------------------------------

 SCF Done:  E(UB3LYP) =  -1136.11131225     A.U. after   26 cycles

 The electronic state is 2-A.
 Alpha  occ. eigenvalues --  -38.45389 -38.44716 -38.44491 -38.44426 -38.44383
 Alpha  occ. eigenvalues --  -38.43961 -38.43780  -2.21172  -2.20527  -2.20280
 Alpha  occ. eigenvalues --   -2.20206  -2.20164  -2.19776  -2.19574  -1.14873
 Alpha  occ. eigenvalues --   -1.14839  -1.14787  -1.14195  -1.14186  -1.14156
 Alpha  occ. eigenvalues --   -1.13945  -1.13912  -1.13903  -1.13898  -1.13866
 Alpha  occ. eigenvalues --   -1.13854  -1.13853  -1.13839  -1.13798  -1.13439
 Alpha  occ. eigenvalues --   -1.13432  -1.13406  -1.13243  -1.13233  -1.13207
 Alpha  occ. eigenvalues --   -0.16561  -0.14108  -0.12348  -0.10088
 Alpha virt. eigenvalues --   -0.07338  -0.06506  -0.03726  -0.03336  -0.03163
 Alpha virt. eigenvalues --   -0.02592  -0.02419  -0.01783  -0.01293  -0.00820
 Alpha virt. eigenvalues --   -0.00054   0.00132   0.00320   0.00402   0.00485

  Beta  occ. eigenvalues --  -38.45375 -38.44679 -38.44437 -38.44409 -38.44373
  Beta  occ. eigenvalues --  -38.43936 -38.43753  -2.21150  -2.20459  -2.20190
  Beta  occ. eigenvalues --   -2.20186  -2.20129  -2.19729  -2.19524  -1.14862
  Beta  occ. eigenvalues --   -1.14828  -1.14740  -1.14149  -1.14134  -1.14100
  Beta  occ. eigenvalues --   -1.13884  -1.13867  -1.13859  -1.13856  -1.13844
  Beta  occ. eigenvalues --   -1.13830  -1.13808  -1.13800  -1.13792  -1.13408
  Beta  occ. eigenvalues --   -1.13402  -1.13369  -1.13207  -1.13195  -1.13175
  Beta  occ. eigenvalues --   -0.16022  -0.13575  -0.12223
  Beta virt. eigenvalues --   -0.07243  -0.06630  -0.06120  -0.03599  -0.02934
  Beta virt. eigenvalues --   -0.02750  -0.02207  -0.02111  -0.01598  -0.00871
  Beta virt. eigenvalues --   -0.00779   0.00091   0.00286   0.00435   0.00521

 Mulliken charges and spin densities:
               1          2
     1  Na   0.372498  -0.004593
     2  Na   0.609596   0.080771
     3  Na  -0.001362   0.513047
     4  Na  -0.520198   0.063703
     5  Na   0.044853  -0.055426
     6  Na  -0.516733   0.183443
     7  Na   0.011346   0.219055
 Sum of Mulliken charges =  -0.00000   1.00000

 Dipole moment (field-independent basis, Debye):
    X=             -0.5765    Y=              0.3280    Z=              0.0909  Tot=              0.6695
 Quadrupole moment (field-independent basis, Debye-Ang):
   XX=            -67.6760   YY=            -64.4712   ZZ=            -70.8282
   XY=             -6.4351   XZ=             -1.0266   YZ=              0.5599

 Normal termination of Gaussian 16 at Sun Dec  3 23:51:32 2023.
