 Gaussian 16, Revision B.01,
 Gaussian 16:  ES64L-G16RevB.01 20-Dec-2017

 -------------------------
 #P B3LYP/6-311+g(d) force
 -------------------------

 -----
 DPGEN
 -----
 Symbolic Z-matrix:
 Charge =  0 Multiplicity = 2

                         Standard orientation:
 ---------------------------------------------------------------------
 Center     Atomic      Atomic             Coordinates (Angstroms)
 Number     Number       Type             X           Y           Z
 ---------------------------------------------------------------------
      1         11           0        2.911189   -2.098681   -0.976535
      2         11           0        2.843657    1.456909   -0.184394
      3         11           0       -3.123137    0.693342   -1.652388
      4         11           0        0.406554   -0.394704    2.074259
      5         11           0       -0.171272   -0.578904   -0.830695
      6         11           0       -0.238467    2.768563    0.563650
      7         11           0       -2.628524   -1.846525    1.006102
 ---------------------------------------------------------------------

 SCF Done:  E(UB3LYP) =  -1136.12637529     A.U. after   22 cycles

 The electronic state is 2-A.
 Alpha  occ. eigenvalues --  -38.44503 -38.44388 -38.44292 -38.44236 -38.43300
 Alpha  occ. eigenvalues --  -38.43213 -38.42661  -2.20412  -2.20204  -2.20111
 Alpha  occ. eigenvalues --   -2.20057  -2.19219  -2.19102  -2.18490  -1.14167
 Alpha  occ. eigenvalues --   -1.14022  -1.13993  -1.13881  -1.13831  -1.13821
 Alpha  occ. eigenvalues --   -1.13808  -1.13774  -1.13730  -1.13724  -1.13719
 Alpha  occ. eigenvalues --   -1.13684  -1.12989  -1.12856  -1.12833  -1.12766
 Alpha  occ. eigenvalues --   -1.12752  -1.12725  -1.12168  -1.12163  -1.12123
 Alpha  occ. eigenvalues --   -0.18128  -0.13445  -0.11580  -0.11233
 Alpha virt. eigenvalues --   -0.05852  -0.05197  -0.04619  -0.03228  -0.02993
 Alpha virt. eigenvalues --   -0.02286  -0.01973  -0.01153  -0.00705  -0.00138
 Alpha virt. eigenvalues --    0.00187   0.00292   0.00446   0.00562   0.00801

  Beta  occ. eigenvalues --  -38.44419 -38.44322 -38.44289 -38.44216 -38.43281
  Beta  occ. eigenvalues --  -38.43198 -38.42661  -2.20259  -2.20107  -2.20082
  Beta  occ. eigenvalues --   -2.20024  -2.19196  -2.19068  -2.18493  -1.14069
  Beta  occ. eigenvalues --   -1.13917  -1.13872  -1.13801  -1.13791  -1.13770
  Beta  occ. eigenvalues --   -1.13752  -1.13741  -1.13716  -1.13710  -1.13690
  Beta  occ. eigenvalues --   -1.13642  -1.12930  -1.12842  -1.12822  -1.12742
  Beta  occ. eigenvalues --   -1.12726  -1.12707  -1.12168  -1.12160  -1.12119
  Beta  occ. eigenvalues --   -0.17466  -0.13033  -0.11230
  Beta virt. eigenvalues --   -0.07628  -0.05747  -0.04805  -0.04268  -0.03006
  Beta virt. eigenvalues --   -0.02271  -0.01867  -0.01631  -0.00996  -0.00452
  Beta virt. eigenvalues --   -0.00033   0.00244   0.00347   0.00621   0.00701

 Mulliken charges and spin densities:
               1          2
     1  Na   0.127592   0.211559
     2  Na   0.325439   0.006657
     3  Na   0.970653   0.115227
     4  Na   0.591610   0.470358
     5  Na  -1.546026   0.176619
     6  Na  -0.345206  -0.056679
     7  Na  -0.124062   0.076258
 Sum of Mulliken charges =  -0.00000   1.00000

 Dipole moment (field-independent basis, Debye):
    X=             -0.3530    Y=              0.0032    Z=              0.4205  Tot=              0.5490
 Quadrupole moment (field-independent basis, Debye-Ang):
   XX=            -54.4179   YY=            -69.7563   ZZ=            -68.5371
   XY=              1.8417   XZ=              0.1578   YZ=             -2.4390

 Normal termination of Gaussian 16 at Tue Dec  5 17:41:35 2023.
