 Gaussian 16, Revision B.01,
 Gaussian 16:  ES64L-G16RevB.01 20-Dec-2017

 -------------------------
 #P B3LYP/6-311+g(d) force
 -------------------------

 -----
 DPGEN
 -----
 Symbolic Z-matrix:
 Charge =  0 Multiplicity = 2

                         Standard orientation:
 ---------------------------------------------------------------------
 Center     Atomic      Atomic             Coordinates (Angstroms)
 Number     Number       Type             X           Y           Z
 ---------------------------------------------------------------------
      1         11           0       -3.809156   -2.273938    0.111607
      2         11           0       -2.877969    1.737158   -1.431444
      3         11           0       -0.433072    2.455927    0.788953
      4         11           0       -2.610842   -0.372022    1.553537
      5         11           0        0.458618   -0.443779   -1.001232
      6         11           0        3.543874   -1.352196   -0.588226
      7         11           0        5.728548    0.248849    0.566805
 ---------------------------------------------------------------------

 SCF Done:  E(UB3LYP) =  -1136.10264326     A.U. after   23 cycles

 The electronic state is 2-A.
 Alpha  occ. eigenvalues --  -38.46119 -38.44632 -38.44606 -38.43872 -38.43783
 Alpha  occ. eigenvalues --  -38.43347 -38.43190  -2.21918  -2.20566  -2.20426
 Alpha  occ. eigenvalues --   -2.19739  -2.19627  -2.19221  -2.19051  -1.15598
 Alpha  occ. eigenvalues --   -1.15553  -1.15532  -1.14407  -1.14197  -1.14166
 Alpha  occ. eigenvalues --   -1.14112  -1.14083  -1.14057  -1.13412  -1.13372
 Alpha  occ. eigenvalues --   -1.13357  -1.13335  -1.13247  -1.13244  -1.12919
 Alpha  occ. eigenvalues --   -1.12831  -1.12826  -1.12726  -1.12701  -1.12701
 Alpha  occ. eigenvalues --   -0.17498  -0.14013  -0.11930  -0.10632
 Alpha virt. eigenvalues --   -0.07581  -0.05093  -0.04636  -0.03022  -0.02871
 Alpha virt. eigenvalues --   -0.02794  -0.02230  -0.01504  -0.01353  -0.00854
 Alpha virt. eigenvalues --   -0.00456  -0.00056   0.00171   0.00444   0.00663

  Beta  occ. eigenvalues --  -38.46082 -38.44625 -38.44612 -38.43782 -38.43699
  Beta  occ. eigenvalues --  -38.43349 -38.43189  -2.21849  -2.20555  -2.20440
  Beta  occ. eigenvalues --   -2.19575  -2.19471  -2.19226  -2.19060  -1.15541
  Beta  occ. eigenvalues --   -1.15507  -1.15487  -1.14405  -1.14175  -1.14160
  Beta  occ. eigenvalues --   -1.14122  -1.14081  -1.14059  -1.13300  -1.13263
  Beta  occ. eigenvalues --   -1.13247  -1.13235  -1.13140  -1.13137  -1.12921
  Beta  occ. eigenvalues --   -1.12835  -1.12824  -1.12716  -1.12715  -1.12655
  Beta  occ. eigenvalues --   -0.17039  -0.13256  -0.11751
  Beta virt. eigenvalues --   -0.07415  -0.07119  -0.04726  -0.04347  -0.02801
  Beta virt. eigenvalues --   -0.02647  -0.02524  -0.01842  -0.01143  -0.00993
  Beta virt. eigenvalues --   -0.00748  -0.00250   0.00108   0.00246   0.00538

 Mulliken charges and spin densities:
               1          2
     1  Na   0.034429  -0.079974
     2  Na   0.794265   0.294882
     3  Na   0.471480   0.074311
     4  Na  -0.069487   0.085066
     5  Na  -0.519041   0.321528
     6  Na  -0.620168  -0.061490
     7  Na  -0.091478   0.365676
 Sum of Mulliken charges =  -0.00000   1.00000

 Dipole moment (field-independent basis, Debye):
    X=             -1.8199    Y=              1.7770    Z=             -0.3992  Tot=              2.5747
 Quadrupole moment (field-independent basis, Debye-Ang):
   XX=            -75.3257   YY=            -71.1715   ZZ=            -61.8041
   XY=              0.7358   XZ=              9.3629   YZ=              4.2064

 Normal termination of Gaussian 16 at Fri Dec  8 19:24:11 2023.
