 Gaussian 16, Revision B.01,
 Gaussian 16:  ES64L-G16RevB.01 20-Dec-2017

 -------------------------
 #P B3LYP/6-311+g(d) force
 -------------------------

 -----
 DPGEN
 -----
 Symbolic Z-matrix:
 Charge =  0 Multiplicity = 2

                         Standard orientation:
 ---------------------------------------------------------------------
 Center     Atomic      Atomic             Coordinates (Angstroms)
 Number     Number       Type             X           Y           Z
 ---------------------------------------------------------------------
      1         11           0        2.762542    0.472455    1.301661
      2         11           0        0.896243    2.991397   -0.629703
      3         11           0        2.178867   -2.870914   -0.596882
      4         11           0       -0.668004    0.765564    1.634386
      5         11           0        0.837710   -0.530280   -1.272573
      6         11           0       -2.646085    0.616463   -1.456517
      7         11           0       -3.361272   -1.444686    1.019627
 ---------------------------------------------------------------------

 SCF Done:  E(UB3LYP) =  -1136.12449782     A.U. after   20 cycles

 The electronic state is 2-A.
 Alpha  occ. eigenvalues --  -38.44505 -38.44367 -38.44237 -38.43940 -38.43556
 Alpha  occ. eigenvalues --  -38.43093 -38.43062  -2.20349  -2.20195  -2.20047
 Alpha  occ. eigenvalues --   -2.19827  -2.19371  -2.19093  -2.18917  -1.14041
 Alpha  occ. eigenvalues --   -1.14018  -1.13936  -1.13872  -1.13852  -1.13839
 Alpha  occ. eigenvalues --   -1.13709  -1.13695  -1.13668  -1.13531  -1.13495
 Alpha  occ. eigenvalues --   -1.13417  -1.13057  -1.13029  -1.13002  -1.12977
 Alpha  occ. eigenvalues --   -1.12760  -1.12722  -1.12538  -1.12526  -1.12468
 Alpha  occ. eigenvalues --   -0.18033  -0.13526  -0.11700  -0.11061
 Alpha virt. eigenvalues --   -0.05802  -0.05442  -0.04680  -0.03280  -0.02736
 Alpha virt. eigenvalues --   -0.02576  -0.01809  -0.01260  -0.00638  -0.00039
 Alpha virt. eigenvalues --    0.00079   0.00278   0.00342   0.00707   0.00795

  Beta  occ. eigenvalues --  -38.44471 -38.44338 -38.44213 -38.43894 -38.43547
  Beta  occ. eigenvalues --  -38.43060 -38.43055  -2.20286  -2.20142  -2.20002
  Beta  occ. eigenvalues --   -2.19745  -2.19357  -2.19027  -2.18912  -1.13990
  Beta  occ. eigenvalues --   -1.13974  -1.13895  -1.13835  -1.13818  -1.13789
  Beta  occ. eigenvalues --   -1.13669  -1.13663  -1.13640  -1.13479  -1.13421
  Beta  occ. eigenvalues --   -1.13354  -1.13045  -1.13017  -1.12979  -1.12940
  Beta  occ. eigenvalues --   -1.12712  -1.12676  -1.12535  -1.12517  -1.12444
  Beta  occ. eigenvalues --   -0.17343  -0.13296  -0.11527
  Beta virt. eigenvalues --   -0.07329  -0.05617  -0.04859  -0.04507  -0.03034
  Beta virt. eigenvalues --   -0.02243  -0.01805  -0.01672  -0.01047  -0.00419
  Beta virt. eigenvalues --   -0.00002   0.00259   0.00331   0.00518   0.00787

 Mulliken charges and spin densities:
               1          2
     1  Na   0.183138   0.138074
     2  Na  -0.050082   0.022968
     3  Na   0.265052  -0.027667
     4  Na  -0.179362   0.385749
     5  Na  -0.243399   0.221424
     6  Na  -0.077549   0.151124
     7  Na   0.102201   0.108327
 Sum of Mulliken charges =  -0.00000   1.00000

 Dipole moment (field-independent basis, Debye):
    X=             -0.4380    Y=              0.4200    Z=              0.4481  Tot=              0.7543
 Quadrupole moment (field-independent basis, Debye-Ang):
   XX=            -58.1927   YY=            -65.7448   ZZ=            -69.7695
   XY=              3.5628   XZ=              3.9013   YZ=             -4.5063

 Normal termination of Gaussian 16 at Wed Dec  6 00:24:34 2023.
