 Gaussian 16, Revision B.01,
 Gaussian 16:  ES64L-G16RevB.01 20-Dec-2017

 -------------------------
 #P B3LYP/6-311+g(d) force
 -------------------------

 -----
 DPGEN
 -----
 Symbolic Z-matrix:
 Charge =  0 Multiplicity = 2

                         Standard orientation:
 ---------------------------------------------------------------------
 Center     Atomic      Atomic             Coordinates (Angstroms)
 Number     Number       Type             X           Y           Z
 ---------------------------------------------------------------------
      1         11           0        3.390614   -0.124696    0.426266
      2         11           0       -0.136034   -0.233363   -1.693972
      3         11           0       -2.830823    1.509404    0.459923
      4         11           0       -0.038450    0.556564    1.913217
      5         11           0        1.047821   -2.725146   -0.001966
      6         11           0       -2.423468   -1.913805   -0.232776
      7         11           0        0.990340    2.931041   -0.870693
 ---------------------------------------------------------------------

 SCF Done:  E(UB3LYP) =  -1136.13455482     A.U. after   19 cycles

 The electronic state is 2-A.
 Alpha  occ. eigenvalues --  -38.44328 -38.43971 -38.43831 -38.43760 -38.43636
 Alpha  occ. eigenvalues --  -38.43370 -38.43318  -2.20106  -2.19795  -2.19698
 Alpha  occ. eigenvalues --   -2.19556  -2.19489  -2.19320  -2.19168  -1.13781
 Alpha  occ. eigenvalues --   -1.13760  -1.13745  -1.13499  -1.13448  -1.13431
 Alpha  occ. eigenvalues --   -1.13372  -1.13332  -1.13307  -1.13239  -1.13209
 Alpha  occ. eigenvalues --   -1.13196  -1.13188  -1.13150  -1.13111  -1.13012
 Alpha  occ. eigenvalues --   -1.12966  -1.12933  -1.12841  -1.12833  -1.12782
 Alpha  occ. eigenvalues --   -0.18200  -0.12891  -0.12356  -0.10790
 Alpha virt. eigenvalues --   -0.05827  -0.05165  -0.04761  -0.03136  -0.03057
 Alpha virt. eigenvalues --   -0.02448  -0.01715  -0.01228  -0.00587  -0.00334
 Alpha virt. eigenvalues --   -0.00023   0.00323   0.00761   0.00789   0.00827

  Beta  occ. eigenvalues --  -38.44319 -38.43959 -38.43765 -38.43724 -38.43632
  Beta  occ. eigenvalues --  -38.43317 -38.43303  -2.20093  -2.19775  -2.19577
  Beta  occ. eigenvalues --   -2.19493  -2.19485  -2.19199  -2.19168  -1.13763
  Beta  occ. eigenvalues --   -1.13749  -1.13736  -1.13468  -1.13432  -1.13413
  Beta  occ. eigenvalues --   -1.13293  -1.13252  -1.13217  -1.13195  -1.13180
  Beta  occ. eigenvalues --   -1.13151  -1.13148  -1.13144  -1.13102  -1.12944
  Beta  occ. eigenvalues --   -1.12895  -1.12850  -1.12832  -1.12809  -1.12769
  Beta  occ. eigenvalues --   -0.17550  -0.12624  -0.12032
  Beta virt. eigenvalues --   -0.07044  -0.05702  -0.05114  -0.04623  -0.02506
  Beta virt. eigenvalues --   -0.02386  -0.01575  -0.01515  -0.01111  -0.00551
  Beta virt. eigenvalues --   -0.00353   0.00099   0.00372   0.00816   0.00821

 Mulliken charges and spin densities:
               1          2
     1  Na   0.017575   0.013532
     2  Na   0.098891   0.400712
     3  Na   0.239909   0.043890
     4  Na  -0.283110   0.528087
     5  Na  -0.062805  -0.023045
     6  Na   0.079974  -0.050049
     7  Na  -0.090435   0.086872
 Sum of Mulliken charges =  -0.00000   1.00000

 Dipole moment (field-independent basis, Debye):
    X=              0.0410    Y=              0.1419    Z=              0.1993  Tot=              0.2481
 Quadrupole moment (field-independent basis, Debye-Ang):
   XX=            -55.8691   YY=            -63.6318   ZZ=            -74.0809
   XY=              0.3373   XZ=              0.3385   YZ=             -1.5553

 Normal termination of Gaussian 16 at Thu Dec  7 22:22:03 2023.
