 Gaussian 16, Revision B.01,
 Gaussian 16:  ES64L-G16RevB.01 20-Dec-2017

 -------------------------
 #P B3LYP/6-311+g(d) force
 -------------------------

 -----
 DPGEN
 -----
 Symbolic Z-matrix:
 Charge =  0 Multiplicity = 2

                         Standard orientation:
 ---------------------------------------------------------------------
 Center     Atomic      Atomic             Coordinates (Angstroms)
 Number     Number       Type             X           Y           Z
 ---------------------------------------------------------------------
      1         11           0        1.613128   -1.551680   -1.459350
      2         11           0       -1.964519   -0.028027    1.897004
      3         11           0       -3.509211    1.129085   -0.962872
      4         11           0       -1.456035   -1.647274   -0.886930
      5         11           0        1.476774   -1.186106    1.748906
      6         11           0        3.756573    1.494519   -0.311491
      7         11           0        0.083291    1.789482   -0.025266
 ---------------------------------------------------------------------

 SCF Done:  E(UB3LYP) =  -1136.12612766     A.U. after   24 cycles

 The electronic state is 2-A.
 Alpha  occ. eigenvalues --  -38.44444 -38.44351 -38.44329 -38.43884 -38.43767
 Alpha  occ. eigenvalues --  -38.43485 -38.43059  -2.20271  -2.20239  -2.20203
 Alpha  occ. eigenvalues --   -2.19713  -2.19534  -2.19374  -2.18981  -1.13939
 Alpha  occ. eigenvalues --   -1.13937  -1.13931  -1.13908  -1.13897  -1.13877
 Alpha  occ. eigenvalues --   -1.13874  -1.13820  -1.13805  -1.13431  -1.13410
 Alpha  occ. eigenvalues --   -1.13298  -1.13211  -1.13197  -1.13162  -1.13084
 Alpha  occ. eigenvalues --   -1.13033  -1.12977  -1.12675  -1.12650  -1.12578
 Alpha  occ. eigenvalues --   -0.18481  -0.13810  -0.11543  -0.11089
 Alpha virt. eigenvalues --   -0.06352  -0.05410  -0.04742  -0.03263  -0.02561
 Alpha virt. eigenvalues --   -0.02434  -0.02202  -0.01335  -0.00676  -0.00112
 Alpha virt. eigenvalues --    0.00152   0.00297   0.00419   0.00458   0.00631

  Beta  occ. eigenvalues --  -38.44419 -38.44310 -38.44269 -38.43877 -38.43765
  Beta  occ. eigenvalues --  -38.43454 -38.43031  -2.20224  -2.20133  -2.20128
  Beta  occ. eigenvalues --   -2.19703  -2.19531  -2.19316  -2.18933  -1.13903
  Beta  occ. eigenvalues --   -1.13894  -1.13877  -1.13855  -1.13832  -1.13829
  Beta  occ. eigenvalues --   -1.13802  -1.13761  -1.13724  -1.13410  -1.13390
  Beta  occ. eigenvalues --   -1.13298  -1.13206  -1.13196  -1.13161  -1.13040
  Beta  occ. eigenvalues --   -1.12996  -1.12934  -1.12635  -1.12606  -1.12540
  Beta  occ. eigenvalues --   -0.17750  -0.13631  -0.10907
  Beta virt. eigenvalues --   -0.07561  -0.06144  -0.05251  -0.04172  -0.02941
  Beta virt. eigenvalues --   -0.02224  -0.01961  -0.01742  -0.01099  -0.00307
  Beta virt. eigenvalues --   -0.00011   0.00208   0.00323   0.00548   0.00616

 Mulliken charges and spin densities:
               1          2
     1  Na   0.385391   0.126378
     2  Na   0.467776   0.263872
     3  Na   0.703052   0.012329
     4  Na  -0.653739   0.356044
     5  Na  -0.063289   0.128108
     6  Na   0.132815  -0.026549
     7  Na  -0.972006   0.139818
 Sum of Mulliken charges =  -0.00000   1.00000

 Dipole moment (field-independent basis, Debye):
    X=             -0.5367    Y=             -0.1342    Z=              0.2754  Tot=              0.6179
 Quadrupole moment (field-independent basis, Debye-Ang):
   XX=            -51.7647   YY=            -77.1151   ZZ=            -66.2019
   XY=             -3.1932   XZ=              1.2098   YZ=             -2.4730

 Normal termination of Gaussian 16 at Wed Nov 29 16:51:11 2023.
