 Gaussian 16, Revision B.01,
 Gaussian 16:  ES64L-G16RevB.01 20-Dec-2017

 -------------------------
 #P B3LYP/6-311+g(d) force
 -------------------------

 -----
 DPGEN
 -----
 Symbolic Z-matrix:
 Charge =  0 Multiplicity = 2

                         Standard orientation:
 ---------------------------------------------------------------------
 Center     Atomic      Atomic             Coordinates (Angstroms)
 Number     Number       Type             X           Y           Z
 ---------------------------------------------------------------------
      1         11           0        1.716042    2.065732    0.030634
      2         11           0       -0.629799    0.589226    1.234883
      3         11           0       -1.687172   -3.018031   -0.056771
      4         11           0        1.689262   -1.295118   -0.737092
      5         11           0        4.808733   -0.758167    0.175827
      6         11           0       -4.384618   -0.425638   -0.017315
      7         11           0       -1.512448    2.841996   -0.630166
 ---------------------------------------------------------------------

 SCF Done:  E(UB3LYP) =  -1136.12069196     A.U. after   20 cycles

 The electronic state is 2-A.
 Alpha  occ. eigenvalues --  -38.44562 -38.44451 -38.44410 -38.43966 -38.43754
 Alpha  occ. eigenvalues --  -38.43725 -38.43560  -2.20499  -2.20301  -2.20288
 Alpha  occ. eigenvalues --   -2.19743  -2.19540  -2.19523  -2.19417  -1.14264
 Alpha  occ. eigenvalues --   -1.14220  -1.14129  -1.13993  -1.13970  -1.13953
 Alpha  occ. eigenvalues --   -1.13939  -1.13908  -1.13840  -1.13410  -1.13381
 Alpha  occ. eigenvalues --   -1.13362  -1.13207  -1.13205  -1.13184  -1.13174
 Alpha  occ. eigenvalues --   -1.13161  -1.13160  -1.13110  -1.13101  -1.13014
 Alpha  occ. eigenvalues --   -0.17535  -0.13570  -0.12595  -0.10302
 Alpha virt. eigenvalues --   -0.06113  -0.05685  -0.05223  -0.03360  -0.02628
 Alpha virt. eigenvalues --   -0.02292  -0.01976  -0.01323  -0.00888  -0.00714
 Alpha virt. eigenvalues --   -0.00397  -0.00203   0.00477   0.00579   0.00623

  Beta  occ. eigenvalues --  -38.44543 -38.44451 -38.44407 -38.43896 -38.43741
  Beta  occ. eigenvalues --  -38.43649 -38.43549  -2.20468  -2.20297  -2.20290
  Beta  occ. eigenvalues --   -2.19612  -2.19501  -2.19401  -2.19396  -1.14243
  Beta  occ. eigenvalues --   -1.14191  -1.14104  -1.13990  -1.13958  -1.13955
  Beta  occ. eigenvalues --   -1.13937  -1.13899  -1.13837  -1.13320  -1.13289
  Beta  occ. eigenvalues --   -1.13276  -1.13194  -1.13156  -1.13133  -1.13127
  Beta  occ. eigenvalues --   -1.13097  -1.13090  -1.13081  -1.13064  -1.12961
  Beta  occ. eigenvalues --   -0.17148  -0.12884  -0.12307
  Beta virt. eigenvalues --   -0.06946  -0.05913  -0.05568  -0.04688  -0.02911
  Beta virt. eigenvalues --   -0.02366  -0.02126  -0.01614  -0.01132  -0.00679
  Beta virt. eigenvalues --   -0.00492  -0.00114   0.00079   0.00614   0.00662

 Mulliken charges and spin densities:
               1          2
     1  Na   0.092175  -0.074649
     2  Na   0.542131  -0.115329
     3  Na   0.042343   0.045551
     4  Na  -0.725317   0.114593
     5  Na   0.363279   0.385976
     6  Na  -0.074192   0.488438
     7  Na  -0.240420   0.155420
 Sum of Mulliken charges =  -0.00000   1.00000

 Dipole moment (field-independent basis, Debye):
    X=              0.0507    Y=              0.9363    Z=             -0.0934  Tot=              0.9423
 Quadrupole moment (field-independent basis, Debye-Ang):
   XX=            -71.3092   YY=            -64.2382   ZZ=            -67.6435
   XY=              2.2850   XZ=              2.4863   YZ=             -1.4941

 Normal termination of Gaussian 16 at Wed Nov 29 01:02:18 2023.
