 Gaussian 16, Revision B.01,
 Gaussian 16:  ES64L-G16RevB.01 20-Dec-2017

 -------------------------
 #P B3LYP/6-311+g(d) force
 -------------------------

 -----
 DPGEN
 -----
 Symbolic Z-matrix:
 Charge =  0 Multiplicity = 2

                         Standard orientation:
 ---------------------------------------------------------------------
 Center     Atomic      Atomic             Coordinates (Angstroms)
 Number     Number       Type             X           Y           Z
 ---------------------------------------------------------------------
      1         11           0       -2.228099   -0.142238    0.711177
      2         11           0       -4.010754   -2.575981   -0.520281
      3         11           0        3.068143   -0.179884    0.882965
      4         11           0       -3.738465    2.520522   -0.458025
      5         11           0        6.067946   -0.159216   -0.825805
      6         11           0        0.404406   -1.785368    0.132646
      7         11           0        0.436823    2.322165    0.077322
 ---------------------------------------------------------------------

 SCF Done:  E(UB3LYP) =  -1136.11159877     A.U. after   23 cycles

 The electronic state is 2-A.
 Alpha  occ. eigenvalues --  -38.45377 -38.44613 -38.44519 -38.44273 -38.44124
 Alpha  occ. eigenvalues --  -38.43995 -38.43223  -2.21175  -2.20455  -2.20277
 Alpha  occ. eigenvalues --   -2.20054  -2.19898  -2.19827  -2.19150  -1.14804
 Alpha  occ. eigenvalues --   -1.14803  -1.14787  -1.14159  -1.14122  -1.14062
 Alpha  occ. eigenvalues --   -1.13975  -1.13956  -1.13882  -1.13729  -1.13713
 Alpha  occ. eigenvalues --   -1.13660  -1.13569  -1.13560  -1.13523  -1.13520
 Alpha  occ. eigenvalues --   -1.13498  -1.13472  -1.12883  -1.12838  -1.12733
 Alpha  occ. eigenvalues --   -0.16821  -0.14217  -0.11763  -0.11312
 Alpha virt. eigenvalues --   -0.06344  -0.05733  -0.04603  -0.03461  -0.02698
 Alpha virt. eigenvalues --   -0.02564  -0.02368  -0.01240  -0.01034  -0.00771
 Alpha virt. eigenvalues --   -0.00713  -0.00074   0.00018   0.00208   0.00697

  Beta  occ. eigenvalues --  -38.45253 -38.44579 -38.44517 -38.44236 -38.44105
  Beta  occ. eigenvalues --  -38.43997 -38.43219  -2.20944  -2.20394  -2.20274
  Beta  occ. eigenvalues --   -2.19984  -2.19863  -2.19840  -2.19146  -1.14647
  Beta  occ. eigenvalues --   -1.14646  -1.14634  -1.14121  -1.14081  -1.14014
  Beta  occ. eigenvalues --   -1.13974  -1.13951  -1.13879  -1.13679  -1.13666
  Beta  occ. eigenvalues --   -1.13616  -1.13543  -1.13536  -1.13532  -1.13513
  Beta  occ. eigenvalues --   -1.13501  -1.13425  -1.12854  -1.12828  -1.12736
  Beta  occ. eigenvalues --   -0.16306  -0.13258  -0.11213
  Beta virt. eigenvalues --   -0.08259  -0.06104  -0.05121  -0.04491  -0.03258
  Beta virt. eigenvalues --   -0.02358  -0.02291  -0.01766  -0.01085  -0.00850
  Beta virt. eigenvalues --   -0.00391  -0.00321  -0.00008   0.00122   0.00346

 Mulliken charges and spin densities:
               1          2
     1  Na  -1.093022  -0.109026
     2  Na   0.486462   0.157936
     3  Na   0.173648  -0.330370
     4  Na   0.472935   0.250707
     5  Na  -0.077702   0.620375
     6  Na   0.034639   0.301353
     7  Na   0.003038   0.109024
 Sum of Mulliken charges =  -0.00000   1.00000

 Dipole moment (field-independent basis, Debye):
    X=              0.5781    Y=              0.1483    Z=             -0.8401  Tot=              1.0306
 Quadrupole moment (field-independent basis, Debye-Ang):
   XX=            -52.8093   YY=            -70.1694   ZZ=            -70.0748
   XY=              0.9753   XZ=              1.0102   YZ=              0.5442

 Normal termination of Gaussian 16 at Tue Nov 28 21:50:29 2023.
