 Gaussian 16, Revision B.01,
 Gaussian 16:  ES64L-G16RevB.01 20-Dec-2017

 -------------------------
 #P B3LYP/6-311+g(d) force
 -------------------------

 -----
 DPGEN
 -----
 Symbolic Z-matrix:
 Charge =  0 Multiplicity = 2

                         Standard orientation:
 ---------------------------------------------------------------------
 Center     Atomic      Atomic             Coordinates (Angstroms)
 Number     Number       Type             X           Y           Z
 ---------------------------------------------------------------------
      1         11           0       -0.837071    1.673222   -0.274697
      2         11           0       -1.131744   -1.820792    0.519677
      3         11           0       -2.620336    0.531241    1.680911
      4         11           0       -2.597297   -0.302275   -1.504510
      5         11           0        0.989011   -0.484339   -0.973453
      6         11           0        3.388560   -1.217798    0.460849
      7         11           0        2.808879    1.620742    0.091223
 ---------------------------------------------------------------------

 SCF Done:  E(UB3LYP) =  -1136.09067162     A.U. after   27 cycles

 The electronic state is 2-A.
 Alpha  occ. eigenvalues --  -38.45304 -38.45022 -38.44397 -38.44285 -38.43709
 Alpha  occ. eigenvalues --  -38.43278 -38.42830  -2.21309  -2.20936  -2.20392
 Alpha  occ. eigenvalues --   -2.20207  -2.19873  -2.19303  -2.18900  -1.15025
 Alpha  occ. eigenvalues --   -1.14975  -1.14923  -1.14702  -1.14600  -1.14545
 Alpha  occ. eigenvalues --   -1.14102  -1.14027  -1.13997  -1.13947  -1.13851
 Alpha  occ. eigenvalues --   -1.13822  -1.13654  -1.13521  -1.13470  -1.12975
 Alpha  occ. eigenvalues --   -1.12946  -1.12918  -1.12587  -1.12554  -1.12513
 Alpha  occ. eigenvalues --   -0.19864  -0.15418  -0.11371  -0.11010
 Alpha virt. eigenvalues --   -0.07024  -0.05502  -0.04311  -0.03056  -0.02489
 Alpha virt. eigenvalues --   -0.02246  -0.02037  -0.00840  -0.00755  -0.00060
 Alpha virt. eigenvalues --    0.00228   0.00304   0.00495   0.00727   0.00787

  Beta  occ. eigenvalues --  -38.45262 -38.45011 -38.44308 -38.44289 -38.43674
  Beta  occ. eigenvalues --  -38.43256 -38.42800  -2.21239  -2.20916  -2.20227
  Beta  occ. eigenvalues --   -2.20215  -2.19814  -2.19269  -2.18855  -1.14985
  Beta  occ. eigenvalues --   -1.14917  -1.14834  -1.14690  -1.14586  -1.14532
  Beta  occ. eigenvalues --   -1.13999  -1.13950  -1.13899  -1.13886  -1.13849
  Beta  occ. eigenvalues --   -1.13824  -1.13618  -1.13473  -1.13407  -1.12956
  Beta  occ. eigenvalues --   -1.12916  -1.12855  -1.12549  -1.12498  -1.12463
  Beta  occ. eigenvalues --   -0.19089  -0.15123  -0.10815
  Beta virt. eigenvalues --   -0.07268  -0.06746  -0.05388  -0.03824  -0.02966
  Beta virt. eigenvalues --   -0.02388  -0.01465  -0.01233  -0.00798  -0.00229
  Beta virt. eigenvalues --   -0.00013   0.00273   0.00323   0.00678   0.00784

 Mulliken charges and spin densities:
               1          2
     1  Na  -0.057202   0.117608
     2  Na  -0.290590   0.256926
     3  Na  -0.482088   0.303863
     4  Na   0.721147   0.067618
     5  Na  -0.332331   0.247328
     6  Na   0.592320   0.057409
     7  Na  -0.151256  -0.050752
 Sum of Mulliken charges =  -0.00000   1.00000

 Dipole moment (field-independent basis, Debye):
    X=              0.3944    Y=             -0.0972    Z=              0.0193  Tot=              0.4066
 Quadrupole moment (field-independent basis, Debye-Ang):
   XX=            -47.5485   YY=            -77.9935   ZZ=            -68.4693
   XY=              0.3438   XZ=              5.3914   YZ=              0.0140

 Normal termination of Gaussian 16 at Tue Dec  5 14:31:08 2023.
