 Gaussian 16, Revision B.01,
 Gaussian 16:  ES64L-G16RevB.01 20-Dec-2017

 -------------------------
 #P B3LYP/6-311+g(d) force
 -------------------------

 -----
 DPGEN
 -----
 Symbolic Z-matrix:
 Charge =  0 Multiplicity = 2

                         Standard orientation:
 ---------------------------------------------------------------------
 Center     Atomic      Atomic             Coordinates (Angstroms)
 Number     Number       Type             X           Y           Z
 ---------------------------------------------------------------------
      1         11           0        3.733414   -0.775106   -0.644144
      2         11           0       -4.052008   -2.072229   -0.631685
      3         11           0       -2.043966    1.364297   -1.218887
      4         11           0       -0.901059   -0.700143    1.462244
      5         11           0        2.045585   -2.846965    0.440682
      6         11           0       -0.475062    2.784854    1.490638
      7         11           0        1.693096    2.245293   -0.898848
 ---------------------------------------------------------------------

 SCF Done:  E(UB3LYP) =  -1136.11627321     A.U. after   21 cycles

 The electronic state is 2-A.
 Alpha  occ. eigenvalues --  -38.45204 -38.44244 -38.44219 -38.44211 -38.44051
 Alpha  occ. eigenvalues --  -38.44028 -38.44025  -2.20999  -2.20083  -2.20040
 Alpha  occ. eigenvalues --   -2.19989  -2.19888  -2.19847  -2.19840  -1.14706
 Alpha  occ. eigenvalues --   -1.14682  -1.14583  -1.13867  -1.13760  -1.13737
 Alpha  occ. eigenvalues --   -1.13721  -1.13684  -1.13674  -1.13658  -1.13648
 Alpha  occ. eigenvalues --   -1.13605  -1.13532  -1.13529  -1.13528  -1.13526
 Alpha  occ. eigenvalues --   -1.13501  -1.13490  -1.13473  -1.13460  -1.13451
 Alpha  occ. eigenvalues --   -0.17182  -0.13548  -0.12366  -0.10597
 Alpha virt. eigenvalues --   -0.06565  -0.05804  -0.05174  -0.03176  -0.02993
 Alpha virt. eigenvalues --   -0.02230  -0.01874  -0.01461  -0.01204  -0.00604
 Alpha virt. eigenvalues --   -0.00333   0.00001   0.00264   0.00412   0.00632

  Beta  occ. eigenvalues --  -38.45188 -38.44209 -38.44203 -38.44188 -38.44041
  Beta  occ. eigenvalues --  -38.43996 -38.43977  -2.20970  -2.20027  -2.20025
  Beta  occ. eigenvalues --   -2.19923  -2.19870  -2.19788  -2.19754  -1.14685
  Beta  occ. eigenvalues --   -1.14654  -1.14563  -1.13859  -1.13724  -1.13694
  Beta  occ. eigenvalues --   -1.13674  -1.13670  -1.13657  -1.13613  -1.13599
  Beta  occ. eigenvalues --   -1.13562  -1.13520  -1.13507  -1.13485  -1.13473
  Beta  occ. eigenvalues --   -1.13467  -1.13456  -1.13422  -1.13408  -1.13393
  Beta  occ. eigenvalues --   -0.16646  -0.13370  -0.11958
  Beta virt. eigenvalues --   -0.07271  -0.06162  -0.05373  -0.04790  -0.02836
  Beta virt. eigenvalues --   -0.02710  -0.01925  -0.01599  -0.01175  -0.01030
  Beta virt. eigenvalues --   -0.00429  -0.00081   0.00167   0.00337   0.00583

 Mulliken charges and spin densities:
               1          2
     1  Na  -0.037196   0.000435
     2  Na   0.079260   0.192544
     3  Na  -0.126372   0.101556
     4  Na  -0.521868   0.254662
     5  Na   0.201711   0.079316
     6  Na   0.613644   0.078531
     7  Na  -0.209179   0.292956
 Sum of Mulliken charges =  -0.00000   1.00000

 Dipole moment (field-independent basis, Debye):
    X=             -0.2475    Y=              0.5214    Z=              0.1436  Tot=              0.5947
 Quadrupole moment (field-independent basis, Debye-Ang):
   XX=            -66.1834   YY=            -61.7155   ZZ=            -70.9770
   XY=             -0.7076   XZ=              0.0121   YZ=              1.2038

 Normal termination of Gaussian 16 at Mon Dec  4 01:26:06 2023.
