 Gaussian 16, Revision B.01,
 Gaussian 16:  ES64L-G16RevB.01 20-Dec-2017

 -------------------------
 #P B3LYP/6-311+g(d) force
 -------------------------

 -----
 DPGEN
 -----
 Symbolic Z-matrix:
 Charge =  0 Multiplicity = 2

                         Standard orientation:
 ---------------------------------------------------------------------
 Center     Atomic      Atomic             Coordinates (Angstroms)
 Number     Number       Type             X           Y           Z
 ---------------------------------------------------------------------
      1         11           0        2.741498   -2.664544   -0.513046
      2         11           0       -1.827935    1.914283   -1.354951
      3         11           0       -0.338631   -1.607681   -1.532679
      4         11           0       -3.196729   -1.749670    0.727149
      5         11           0        2.399922    0.540933    1.360265
      6         11           0       -1.032115    0.483084    1.826735
      7         11           0        1.253990    3.083595   -0.513473
 ---------------------------------------------------------------------

 SCF Done:  E(UB3LYP) =  -1136.12665467     A.U. after   19 cycles

 The electronic state is 2-A.
 Alpha  occ. eigenvalues --  -38.44376 -38.44331 -38.44278 -38.44072 -38.43945
 Alpha  occ. eigenvalues --  -38.43803 -38.43526  -2.20175  -2.20155  -2.20143
 Alpha  occ. eigenvalues --   -2.19873  -2.19758  -2.19631  -2.19302  -1.13874
 Alpha  occ. eigenvalues --   -1.13835  -1.13830  -1.13827  -1.13819  -1.13809
 Alpha  occ. eigenvalues --   -1.13782  -1.13765  -1.13730  -1.13551  -1.13538
 Alpha  occ. eigenvalues --   -1.13517  -1.13437  -1.13428  -1.13372  -1.13320
 Alpha  occ. eigenvalues --   -1.13289  -1.13234  -1.12970  -1.12963  -1.12943
 Alpha  occ. eigenvalues --   -0.17517  -0.12874  -0.12384  -0.11292
 Alpha virt. eigenvalues --   -0.05980  -0.05529  -0.04749  -0.03394  -0.03174
 Alpha virt. eigenvalues --   -0.02650  -0.01809  -0.01265  -0.00417  -0.00246
 Alpha virt. eigenvalues --   -0.00175   0.00265   0.00326   0.00540   0.00718

  Beta  occ. eigenvalues --  -38.44360 -38.44276 -38.44217 -38.44072 -38.43907
  Beta  occ. eigenvalues --  -38.43769 -38.43525  -2.20148  -2.20054  -2.20032
  Beta  occ. eigenvalues --   -2.19877  -2.19688  -2.19569  -2.19302  -1.13835
  Beta  occ. eigenvalues --   -1.13813  -1.13791  -1.13761  -1.13750  -1.13744
  Beta  occ. eigenvalues --   -1.13710  -1.13691  -1.13655  -1.13556  -1.13523
  Beta  occ. eigenvalues --   -1.13514  -1.13390  -1.13375  -1.13324  -1.13269
  Beta  occ. eigenvalues --   -1.13252  -1.13193  -1.12970  -1.12956  -1.12946
  Beta  occ. eigenvalues --   -0.16839  -0.12637  -0.12048
  Beta virt. eigenvalues --   -0.07660  -0.05889  -0.05141  -0.04335  -0.02950
  Beta virt. eigenvalues --   -0.02710  -0.01977  -0.01706  -0.01069  -0.00249
  Beta virt. eigenvalues --   -0.00115  -0.00047   0.00354   0.00423   0.00636

 Mulliken charges and spin densities:
               1          2
     1  Na   0.040605  -0.092864
     2  Na   0.032662   0.334092
     3  Na  -0.310248   0.355942
     4  Na   0.325115  -0.048658
     5  Na   0.293203   0.249766
     6  Na  -0.238383   0.317431
     7  Na  -0.142953  -0.115709
 Sum of Mulliken charges =  -0.00000   1.00000

 Dipole moment (field-independent basis, Debye):
    X=             -0.6965    Y=              0.1474    Z=              0.0031  Tot=              0.7120
 Quadrupole moment (field-independent basis, Debye-Ang):
   XX=            -59.6641   YY=            -65.5435   ZZ=            -70.7409
   XY=              3.2241   XZ=              0.8687   YZ=             -1.7281

 Normal termination of Gaussian 16 at Sun Dec  3 16:57:02 2023.
