 Gaussian 16, Revision B.01,
 Gaussian 16:  ES64L-G16RevB.01 20-Dec-2017

 -------------------------
 #P B3LYP/6-311+g(d) force
 -------------------------

 -----
 DPGEN
 -----
 Symbolic Z-matrix:
 Charge =  0 Multiplicity = 2

                         Standard orientation:
 ---------------------------------------------------------------------
 Center     Atomic      Atomic             Coordinates (Angstroms)
 Number     Number       Type             X           Y           Z
 ---------------------------------------------------------------------
      1         11           0        2.263684    1.498226    1.236968
      2         11           0       -1.006294    0.821187    2.296424
      3         11           0        3.996672   -1.329553   -0.759809
      4         11           0        0.832898   -1.964581   -0.327391
      5         11           0       -3.142235   -1.924961    0.736192
      6         11           0       -2.428162    0.086776   -1.825461
      7         11           0       -0.516563    2.812906   -1.356923
 ---------------------------------------------------------------------

 SCF Done:  E(UB3LYP) =  -1136.12315097     A.U. after   21 cycles

 The electronic state is 2-A.
 Alpha  occ. eigenvalues --  -38.44597 -38.44367 -38.44277 -38.44202 -38.43976
 Alpha  occ. eigenvalues --  -38.43957 -38.43773  -2.20400  -2.20202  -2.20055
 Alpha  occ. eigenvalues --   -2.19984  -2.19778  -2.19747  -2.19567  -1.14081
 Alpha  occ. eigenvalues --   -1.14037  -1.14009  -1.13881  -1.13860  -1.13829
 Alpha  occ. eigenvalues --   -1.13751  -1.13723  -1.13688  -1.13667  -1.13662
 Alpha  occ. eigenvalues --   -1.13599  -1.13445  -1.13435  -1.13420  -1.13413
 Alpha  occ. eigenvalues --   -1.13411  -1.13356  -1.13230  -1.13224  -1.13199
 Alpha  occ. eigenvalues --   -0.17083  -0.13290  -0.11916  -0.11567
 Alpha virt. eigenvalues --   -0.05956  -0.05579  -0.04841  -0.03433  -0.03217
 Alpha virt. eigenvalues --   -0.02693  -0.02008  -0.01196  -0.00750  -0.00289
 Alpha virt. eigenvalues --   -0.00149   0.00055   0.00241   0.00460   0.00651

  Beta  occ. eigenvalues --  -38.44521 -38.44315 -38.44265 -38.44199 -38.43962
  Beta  occ. eigenvalues --  -38.43913 -38.43768  -2.20260  -2.20109  -2.20035
  Beta  occ. eigenvalues --   -2.19979  -2.19752  -2.19668  -2.19557  -1.13983
  Beta  occ. eigenvalues --   -1.13944  -1.13906  -1.13815  -1.13801  -1.13748
  Beta  occ. eigenvalues --   -1.13726  -1.13712  -1.13678  -1.13662  -1.13650
  Beta  occ. eigenvalues --   -1.13597  -1.13427  -1.13406  -1.13398  -1.13363
  Beta  occ. eigenvalues --   -1.13357  -1.13295  -1.13221  -1.13217  -1.13194
  Beta  occ. eigenvalues --   -0.16410  -0.13047  -0.11503
  Beta virt. eigenvalues --   -0.07880  -0.05885  -0.05186  -0.04392  -0.03100
  Beta virt. eigenvalues --   -0.02747  -0.02102  -0.01949  -0.01019  -0.00404
  Beta virt. eigenvalues --   -0.00213   0.00019   0.00239   0.00300   0.00593

 Mulliken charges and spin densities:
               1          2
     1  Na  -0.150976   0.143389
     2  Na  -0.094723   0.283196
     3  Na   0.728613  -0.148479
     4  Na  -1.118906   0.158374
     5  Na   0.599716   0.277989
     6  Na   0.070166   0.076886
     7  Na  -0.033890   0.208645
 Sum of Mulliken charges =  -0.00000   1.00000

 Dipole moment (field-independent basis, Debye):
    X=              0.0070    Y=              0.1368    Z=              0.1529  Tot=              0.2053
 Quadrupole moment (field-independent basis, Debye-Ang):
   XX=            -57.2887   YY=            -71.7960   ZZ=            -68.2902
   XY=              4.4965   XZ=             -1.8955   YZ=             -1.3531

 Normal termination of Gaussian 16 at Mon Dec  4 00:38:10 2023.
