 Gaussian 16, Revision B.01,
 Gaussian 16:  ES64L-G16RevB.01 20-Dec-2017

 -------------------------
 #P B3LYP/6-311+g(d) force
 -------------------------

 -----
 DPGEN
 -----
 Symbolic Z-matrix:
 Charge =  0 Multiplicity = 2

                         Standard orientation:
 ---------------------------------------------------------------------
 Center     Atomic      Atomic             Coordinates (Angstroms)
 Number     Number       Type             X           Y           Z
 ---------------------------------------------------------------------
      1         11           0        1.252372   -2.567961   -0.477866
      2         11           0       -0.093247   -0.323574    2.018808
      3         11           0       -2.667487    1.503613    0.149378
      4         11           0        3.508874   -0.037641    0.220372
      5         11           0       -0.196239    0.309483   -1.682730
      6         11           0       -2.814922   -1.636770   -0.081580
      7         11           0        1.010650    2.752850   -0.146383
 ---------------------------------------------------------------------

 SCF Done:  E(UB3LYP) =  -1136.13262537     A.U. after   21 cycles

 The electronic state is 2-A.
 Alpha  occ. eigenvalues --  -38.44965 -38.44108 -38.44076 -38.43838 -38.43287
 Alpha  occ. eigenvalues --  -38.43208 -38.43021  -2.20738  -2.19949  -2.19940
 Alpha  occ. eigenvalues --   -2.19698  -2.19170  -2.19117  -2.18856  -1.14414
 Alpha  occ. eigenvalues --   -1.14390  -1.14380  -1.13706  -1.13619  -1.13605
 Alpha  occ. eigenvalues --   -1.13596  -1.13579  -1.13527  -1.13373  -1.13332
 Alpha  occ. eigenvalues --   -1.13309  -1.12867  -1.12846  -1.12808  -1.12779
 Alpha  occ. eigenvalues --   -1.12770  -1.12744  -1.12540  -1.12512  -1.12476
 Alpha  occ. eigenvalues --   -0.18400  -0.13379  -0.11915  -0.10625
 Alpha virt. eigenvalues --   -0.06389  -0.05277  -0.04251  -0.03384  -0.02705
 Alpha virt. eigenvalues --   -0.02454  -0.02055  -0.01151  -0.00504  -0.00302
 Alpha virt. eigenvalues --   -0.00050   0.00325   0.00696   0.00747   0.00848

  Beta  occ. eigenvalues --  -38.44966 -38.44105 -38.44069 -38.43752 -38.43274
  Beta  occ. eigenvalues --  -38.43138 -38.43018  -2.20740  -2.19944  -2.19935
  Beta  occ. eigenvalues --   -2.19540  -2.19098  -2.19043  -2.18854  -1.14402
  Beta  occ. eigenvalues --   -1.14395  -1.14383  -1.13708  -1.13603  -1.13587
  Beta  occ. eigenvalues --   -1.13578  -1.13567  -1.13526  -1.13267  -1.13220
  Beta  occ. eigenvalues --   -1.13194  -1.12802  -1.12781  -1.12752  -1.12737
  Beta  occ. eigenvalues --   -1.12724  -1.12697  -1.12523  -1.12497  -1.12476
  Beta  occ. eigenvalues --   -0.17669  -0.13199  -0.11676
  Beta virt. eigenvalues --   -0.06757  -0.06271  -0.05293  -0.04188  -0.02649
  Beta virt. eigenvalues --   -0.01959  -0.01939  -0.01437  -0.01098  -0.00526
  Beta virt. eigenvalues --   -0.00332   0.00104   0.00348   0.00765   0.00840

 Mulliken charges and spin densities:
               1          2
     1  Na   0.009532  -0.057673
     2  Na  -0.413842   0.686920
     3  Na   0.222017  -0.001448
     4  Na  -0.007194  -0.019325
     5  Na  -0.001223   0.537079
     6  Na   0.174894  -0.051431
     7  Na   0.015817  -0.094121
 Sum of Mulliken charges =  -0.00000   1.00000

 Dipole moment (field-independent basis, Debye):
    X=              0.1469    Y=             -0.0973    Z=              0.2434  Tot=              0.3005
 Quadrupole moment (field-independent basis, Debye-Ang):
   XX=            -50.9302   YY=            -66.8502   ZZ=            -75.0776
   XY=              0.7664   XZ=              0.4507   YZ=              1.6422

 Normal termination of Gaussian 16 at Thu Dec  7 07:32:45 2023.
