 Gaussian 16, Revision B.01,
 Gaussian 16:  ES64L-G16RevB.01 20-Dec-2017

 -------------------------
 #P B3LYP/6-311+g(d) force
 -------------------------

 -----
 DPGEN
 -----
 Symbolic Z-matrix:
 Charge =  0 Multiplicity = 2

                         Standard orientation:
 ---------------------------------------------------------------------
 Center     Atomic      Atomic             Coordinates (Angstroms)
 Number     Number       Type             X           Y           Z
 ---------------------------------------------------------------------
      1         11           0        1.472336   -0.212925    1.751788
      2         11           0       -5.114598   -0.718545    0.232414
      3         11           0        4.532722    0.900549    0.508558
      4         11           0       -1.279690   -1.474630    0.187524
      5         11           0       -3.393983    1.820112   -0.362152
      6         11           0        1.125312    1.511869   -0.963425
      7         11           0        2.657902   -1.826430   -1.354707
 ---------------------------------------------------------------------

 SCF Done:  E(UB3LYP) =  -1136.10733369     A.U. after   26 cycles

 The electronic state is 2-A.
 Alpha  occ. eigenvalues --  -38.45311 -38.45159 -38.44970 -38.44530 -38.43695
 Alpha  occ. eigenvalues --  -38.42792 -38.42746  -2.21188  -2.20964  -2.20820
 Alpha  occ. eigenvalues --   -2.20317  -2.19515  -2.18613  -2.18557  -1.14905
 Alpha  occ. eigenvalues --   -1.14856  -1.14790  -1.14661  -1.14595  -1.14551
 Alpha  occ. eigenvalues --   -1.14515  -1.14463  -1.14402  -1.13998  -1.13989
 Alpha  occ. eigenvalues --   -1.13962  -1.13166  -1.13164  -1.13152  -1.12321
 Alpha  occ. eigenvalues --   -1.12291  -1.12249  -1.12217  -1.12213  -1.12198
 Alpha  occ. eigenvalues --   -0.17472  -0.14198  -0.10697  -0.10477
 Alpha virt. eigenvalues --   -0.07708  -0.05705  -0.04509  -0.03211  -0.02885
 Alpha virt. eigenvalues --   -0.02218  -0.02053  -0.01612  -0.01389  -0.00983
 Alpha virt. eigenvalues --   -0.00585   0.00058   0.00223   0.00459   0.00567

  Beta  occ. eigenvalues --  -38.45306 -38.45081 -38.44902 -38.44535 -38.43668
  Beta  occ. eigenvalues --  -38.42790 -38.42751  -2.21181  -2.20819  -2.20696
  Beta  occ. eigenvalues --   -2.20330  -2.19462  -2.18610  -2.18568  -1.14885
  Beta  occ. eigenvalues --   -1.14835  -1.14795  -1.14560  -1.14499  -1.14444
  Beta  occ. eigenvalues --   -1.14422  -1.14375  -1.14310  -1.14008  -1.13991
  Beta  occ. eigenvalues --   -1.13959  -1.13131  -1.13129  -1.13117  -1.12320
  Beta  occ. eigenvalues --   -1.12277  -1.12261  -1.12215  -1.12207  -1.12204
  Beta  occ. eigenvalues --   -0.16831  -0.13954  -0.10368
  Beta virt. eigenvalues --   -0.07308  -0.07089  -0.05279  -0.04349  -0.03023
  Beta virt. eigenvalues --   -0.02422  -0.01847  -0.01584  -0.01245  -0.01183
  Beta virt. eigenvalues --   -0.00751  -0.00328   0.00171   0.00292   0.00544

 Mulliken charges and spin densities:
               1          2
     1  Na   0.287878   0.166880
     2  Na   0.271631   0.133918
     3  Na   0.249245   0.003754
     4  Na  -0.459753  -0.069809
     5  Na  -0.135713  -0.018431
     6  Na  -0.209812   0.359205
     7  Na  -0.003476   0.424483
 Sum of Mulliken charges =  -0.00000   1.00000

 Dipole moment (field-independent basis, Debye):
    X=             -0.0598    Y=             -0.2125    Z=             -0.0498  Tot=              0.2263
 Quadrupole moment (field-independent basis, Debye-Ang):
   XX=            -76.4920   YY=            -70.7147   ZZ=            -61.1531
   XY=              0.1506   XZ=             -0.8287   YZ=             -1.7065

 Normal termination of Gaussian 16 at Thu Dec  7 04:20:18 2023.
