 Gaussian 16, Revision B.01,
 Gaussian 16:  ES64L-G16RevB.01 20-Dec-2017

 -------------------------
 #P B3LYP/6-311+g(d) force
 -------------------------

 -----
 DPGEN
 -----
 Symbolic Z-matrix:
 Charge =  0 Multiplicity = 2

                         Standard orientation:
 ---------------------------------------------------------------------
 Center     Atomic      Atomic             Coordinates (Angstroms)
 Number     Number       Type             X           Y           Z
 ---------------------------------------------------------------------
      1         11           0        0.023134   -0.071603   -1.909521
      2         11           0       -3.140155   -0.336274   -0.257129
      3         11           0       -0.264921   -2.953746   -0.172204
      4         11           0       -1.292941    2.520422    0.152403
      5         11           0        2.657296   -1.353551    0.078849
      6         11           0        2.124239    2.354580   -0.267411
      7         11           0       -0.106652   -0.159827    2.375013
 ---------------------------------------------------------------------

 SCF Done:  E(UB3LYP) =  -1136.13884503     A.U. after   18 cycles

 The electronic state is 2-A.
 Alpha  occ. eigenvalues --  -38.44445 -38.43802 -38.43669 -38.43602 -38.43570
 Alpha  occ. eigenvalues --  -38.43452 -38.43429  -2.20271  -2.19711  -2.19501
 Alpha  occ. eigenvalues --   -2.19415  -2.19411  -2.19302  -2.19237  -1.13918
 Alpha  occ. eigenvalues --   -1.13899  -1.13893  -1.13395  -1.13356  -1.13339
 Alpha  occ. eigenvalues --   -1.13183  -1.13172  -1.13147  -1.13089  -1.13087
 Alpha  occ. eigenvalues --   -1.13079  -1.13072  -1.13059  -1.13030  -1.12982
 Alpha  occ. eigenvalues --   -1.12976  -1.12940  -1.12908  -1.12887  -1.12873
 Alpha  occ. eigenvalues --   -0.18271  -0.12713  -0.12329  -0.11308
 Alpha virt. eigenvalues --   -0.05248  -0.05032  -0.04973  -0.03371  -0.03215
 Alpha virt. eigenvalues --   -0.03066  -0.01222  -0.01100  -0.00309  -0.00262
 Alpha virt. eigenvalues --   -0.00107   0.00388   0.00795   0.00838   0.00884

  Beta  occ. eigenvalues --  -38.44338 -38.43734 -38.43666 -38.43601 -38.43566
  Beta  occ. eigenvalues --  -38.43448 -38.43428  -2.20074  -2.19587  -2.19499
  Beta  occ. eigenvalues --   -2.19414  -2.19407  -2.19297  -2.19238  -1.13787
  Beta  occ. eigenvalues --   -1.13761  -1.13751  -1.13317  -1.13270  -1.13249
  Beta  occ. eigenvalues --   -1.13181  -1.13152  -1.13143  -1.13088  -1.13076
  Beta  occ. eigenvalues --   -1.13064  -1.13061  -1.13052  -1.13030  -1.12981
  Beta  occ. eigenvalues --   -1.12947  -1.12942  -1.12894  -1.12888  -1.12875
  Beta  occ. eigenvalues --   -0.17510  -0.12521  -0.12138
  Beta virt. eigenvalues --   -0.07335  -0.05262  -0.05050  -0.04741  -0.02540
  Beta virt. eigenvalues --   -0.02347  -0.02180  -0.01143  -0.01025  -0.00371
  Beta virt. eigenvalues --   -0.00305   0.00062   0.00414   0.00869   0.00900

 Mulliken charges and spin densities:
               1          2
     1  Na  -0.080082   0.496521
     2  Na   0.133271  -0.072532
     3  Na   0.202540  -0.056209
     4  Na   0.086594   0.025359
     5  Na   0.103062  -0.009893
     6  Na   0.058873  -0.058355
     7  Na  -0.504257   0.675109
 Sum of Mulliken charges =  -0.00000   1.00000

 Dipole moment (field-independent basis, Debye):
    X=             -0.0116    Y=             -0.1886    Z=              0.1633  Tot=              0.2498
 Quadrupole moment (field-independent basis, Debye-Ang):
   XX=            -61.5526   YY=            -63.4957   ZZ=            -70.8033
   XY=              0.5766   XZ=              0.2927   YZ=              0.1512

 Normal termination of Gaussian 16 at Thu Dec  7 13:45:39 2023.
