 Gaussian 16, Revision B.01,
 Gaussian 16:  ES64L-G16RevB.01 20-Dec-2017

 -------------------------
 #P B3LYP/6-311+g(d) force
 -------------------------

 -----
 DPGEN
 -----
 Symbolic Z-matrix:
 Charge =  0 Multiplicity = 2

                         Standard orientation:
 ---------------------------------------------------------------------
 Center     Atomic      Atomic             Coordinates (Angstroms)
 Number     Number       Type             X           Y           Z
 ---------------------------------------------------------------------
      1         11           0        1.444960   -1.840431    0.075672
      2         11           0        4.721733   -1.007238   -0.459660
      3         11           0        2.334934    1.290951   -1.037592
      4         11           0       -0.751472    2.493117   -0.315611
      5         11           0       -2.207249   -0.905332    0.550197
      6         11           0        0.040137    0.729612    2.149681
      7         11           0       -5.583043   -0.760679   -0.962687
 ---------------------------------------------------------------------

 SCF Done:  E(UB3LYP) =  -1136.11805091     A.U. after   22 cycles

 The electronic state is 2-A.
 Alpha  occ. eigenvalues --  -38.44898 -38.44521 -38.44494 -38.44038 -38.44026
 Alpha  occ. eigenvalues --  -38.43682 -38.43199  -2.20797  -2.20340  -2.20331
 Alpha  occ. eigenvalues --   -2.19895  -2.19810  -2.19549  -2.19027  -1.14484
 Alpha  occ. eigenvalues --   -1.14451  -1.14421  -1.14039  -1.14025  -1.14001
 Alpha  occ. eigenvalues --   -1.13991  -1.13984  -1.13904  -1.13600  -1.13567
 Alpha  occ. eigenvalues --   -1.13487  -1.13455  -1.13455  -1.13419  -1.13217
 Alpha  occ. eigenvalues --   -1.13200  -1.13169  -1.12735  -1.12708  -1.12665
 Alpha  occ. eigenvalues --   -0.17884  -0.13809  -0.11828  -0.11292
 Alpha virt. eigenvalues --   -0.06538  -0.05656  -0.04858  -0.03250  -0.02912
 Alpha virt. eigenvalues --   -0.02191  -0.02098  -0.01620  -0.01239  -0.00583
 Alpha virt. eigenvalues --   -0.00258  -0.00021   0.00354   0.00410   0.00497

  Beta  occ. eigenvalues --  -38.44870 -38.44514 -38.44461 -38.43996 -38.43951
  Beta  occ. eigenvalues --  -38.43659 -38.43207  -2.20748  -2.20319  -2.20281
  Beta  occ. eigenvalues --   -2.19838  -2.19648  -2.19505  -2.19049  -1.14457
  Beta  occ. eigenvalues --   -1.14415  -1.14370  -1.14002  -1.13995  -1.13987
  Beta  occ. eigenvalues --   -1.13979  -1.13963  -1.13859  -1.13562  -1.13530
  Beta  occ. eigenvalues --   -1.13442  -1.13345  -1.13344  -1.13313  -1.13186
  Beta  occ. eigenvalues --   -1.13173  -1.13139  -1.12757  -1.12731  -1.12626
  Beta  occ. eigenvalues --   -0.17377  -0.13569  -0.11071
  Beta virt. eigenvalues --   -0.07888  -0.06348  -0.05276  -0.04453  -0.02922
  Beta virt. eigenvalues --   -0.02832  -0.01970  -0.01669  -0.01332  -0.00857
  Beta virt. eigenvalues --   -0.00329  -0.00142   0.00132   0.00450   0.00525

 Mulliken charges and spin densities:
               1          2
     1  Na  -0.018184   0.093386
     2  Na   0.387847   0.040162
     3  Na  -0.274327   0.200150
     4  Na   0.198764   0.136759
     5  Na  -0.610907  -0.085487
     6  Na   0.251195   0.178330
     7  Na   0.065611   0.436700
 Sum of Mulliken charges =  -0.00000   1.00000

 Dipole moment (field-independent basis, Debye):
    X=              2.2640    Y=              0.4713    Z=              0.5648  Tot=              2.3805
 Quadrupole moment (field-independent basis, Debye-Ang):
   XX=            -59.8665   YY=            -73.7151   ZZ=            -66.1974
   XY=             -6.1753   XZ=              2.3018   YZ=              1.4407

 Normal termination of Gaussian 16 at Tue Nov 28 19:17:05 2023.
