 Gaussian 16, Revision B.01,
 Gaussian 16:  ES64L-G16RevB.01 20-Dec-2017

 -------------------------
 #P B3LYP/6-311+g(d) force
 -------------------------

 -----
 DPGEN
 -----
 Symbolic Z-matrix:
 Charge =  0 Multiplicity = 2

                         Standard orientation:
 ---------------------------------------------------------------------
 Center     Atomic      Atomic             Coordinates (Angstroms)
 Number     Number       Type             X           Y           Z
 ---------------------------------------------------------------------
      1         11           0        0.003706   -0.354056    1.786180
      2         11           0       -1.490870   -0.625034   -1.457200
      3         11           0        1.878195   -2.262632   -0.883522
      4         11           0        3.821079    0.623772    1.050307
      5         11           0        1.517063    1.222415   -1.058911
      6         11           0       -1.866883    2.240710   -0.376633
      7         11           0       -3.862289   -0.845176    0.939778
 ---------------------------------------------------------------------

 SCF Done:  E(UB3LYP) =  -1136.11928781     A.U. after   32 cycles

 The electronic state is 2-A.
 Alpha  occ. eigenvalues --  -38.45308 -38.45099 -38.44341 -38.43942 -38.43858
 Alpha  occ. eigenvalues --  -38.42923 -38.42808  -2.21113  -2.20915  -2.20123
 Alpha  occ. eigenvalues --   -2.19798  -2.19765  -2.18782  -2.18728  -1.14818
 Alpha  occ. eigenvalues --   -1.14774  -1.14711  -1.14593  -1.14559  -1.14520
 Alpha  occ. eigenvalues --   -1.13809  -1.13780  -1.13762  -1.13495  -1.13469
 Alpha  occ. eigenvalues --   -1.13432  -1.13416  -1.13410  -1.13384  -1.12480
 Alpha  occ. eigenvalues --   -1.12454  -1.12425  -1.12417  -1.12393  -1.12328
 Alpha  occ. eigenvalues --   -0.18337  -0.14123  -0.11381  -0.10629
 Alpha virt. eigenvalues --   -0.07092  -0.05066  -0.04902  -0.03077  -0.02870
 Alpha virt. eigenvalues --   -0.02352  -0.02152  -0.01355  -0.01037  -0.00180
 Alpha virt. eigenvalues --    0.00011   0.00135   0.00239   0.00575   0.00686

  Beta  occ. eigenvalues --  -38.45271 -38.45046 -38.44345 -38.43888 -38.43818
  Beta  occ. eigenvalues --  -38.42928 -38.42792  -2.21046  -2.20816  -2.20131
  Beta  occ. eigenvalues --   -2.19729  -2.19667  -2.18794  -2.18703  -1.14766
  Beta  occ. eigenvalues --   -1.14726  -1.14661  -1.14524  -1.14486  -1.14457
  Beta  occ. eigenvalues --   -1.13817  -1.13784  -1.13763  -1.13457  -1.13394
  Beta  occ. eigenvalues --   -1.13360  -1.13354  -1.13349  -1.13310  -1.12482
  Beta  occ. eigenvalues --   -1.12462  -1.12415  -1.12397  -1.12351  -1.12327
  Beta  occ. eigenvalues --   -0.17653  -0.13832  -0.10448
  Beta virt. eigenvalues --   -0.07608  -0.06796  -0.04912  -0.04402  -0.02761
  Beta virt. eigenvalues --   -0.02613  -0.01799  -0.01534  -0.01082  -0.00808
  Beta virt. eigenvalues --   -0.00138   0.00082   0.00189   0.00332   0.00667

 Mulliken charges and spin densities:
               1          2
     1  Na  -0.480362   0.392192
     2  Na   0.124841   0.130461
     3  Na  -0.086687   0.146051
     4  Na   0.465915   0.105982
     5  Na  -0.286090   0.178859
     6  Na   0.015801   0.019948
     7  Na   0.246582   0.026507
 Sum of Mulliken charges =  -0.00000   1.00000

 Dipole moment (field-independent basis, Debye):
    X=              0.4662    Y=             -0.1090    Z=              0.5578  Tot=              0.7351
 Quadrupole moment (field-independent basis, Debye-Ang):
   XX=            -49.5622   YY=            -76.0616   ZZ=            -69.0631
   XY=             -1.5930   XZ=              0.9648   YZ=              5.2646

 Normal termination of Gaussian 16 at Tue Dec  5 20:52:25 2023.
