 Gaussian 16, Revision B.01,
 Gaussian 16:  ES64L-G16RevB.01 20-Dec-2017

 -------------------------
 #P B3LYP/6-311+g(d) force
 -------------------------

 -----
 DPGEN
 -----
 Symbolic Z-matrix:
 Charge =  0 Multiplicity = 2

                         Standard orientation:
 ---------------------------------------------------------------------
 Center     Atomic      Atomic             Coordinates (Angstroms)
 Number     Number       Type             X           Y           Z
 ---------------------------------------------------------------------
      1         11           0        2.478590    1.834051    0.194011
      2         11           0       -0.422032    0.024159    1.997635
      3         11           0       -2.540553   -2.028848    0.253199
      4         11           0        0.939589   -2.286763    0.398178
      5         11           0        3.575722   -1.035897   -1.273176
      6         11           0       -3.166388    0.354519   -1.662445
      7         11           0       -0.864927    3.138780    0.092598
 ---------------------------------------------------------------------

 SCF Done:  E(UB3LYP) =  -1136.12492605     A.U. after   20 cycles

 The electronic state is 2-A.
 Alpha  occ. eigenvalues --  -38.44555 -38.44374 -38.44312 -38.43907 -38.43851
 Alpha  occ. eigenvalues --  -38.43762 -38.43609  -2.20375  -2.20264  -2.20102
 Alpha  occ. eigenvalues --   -2.19767  -2.19676  -2.19625  -2.19385  -1.14051
 Alpha  occ. eigenvalues --   -1.14018  -1.13982  -1.13973  -1.13909  -1.13857
 Alpha  occ. eigenvalues --   -1.13798  -1.13774  -1.13728  -1.13443  -1.13434
 Alpha  occ. eigenvalues --   -1.13410  -1.13345  -1.13329  -1.13324  -1.13312
 Alpha  occ. eigenvalues --   -1.13289  -1.13209  -1.13065  -1.13047  -1.13024
 Alpha  occ. eigenvalues --   -0.17424  -0.13765  -0.12331  -0.11200
 Alpha virt. eigenvalues --   -0.06043  -0.05236  -0.04793  -0.03824  -0.03302
 Alpha virt. eigenvalues --   -0.02310  -0.01495  -0.00869  -0.00838  -0.00607
 Alpha virt. eigenvalues --   -0.00293   0.00288   0.00354   0.00511   0.00631

  Beta  occ. eigenvalues --  -38.44474 -38.44309 -38.44298 -38.43901 -38.43805
  Beta  occ. eigenvalues --  -38.43750 -38.43611  -2.20224  -2.20125  -2.20099
  Beta  occ. eigenvalues --   -2.19763  -2.19608  -2.19589  -2.19391  -1.13951
  Beta  occ. eigenvalues --   -1.13915  -1.13879  -1.13879  -1.13823  -1.13795
  Beta  occ. eigenvalues --   -1.13776  -1.13748  -1.13710  -1.13441  -1.13437
  Beta  occ. eigenvalues --   -1.13364  -1.13307  -1.13294  -1.13279  -1.13263
  Beta  occ. eigenvalues --   -1.13254  -1.13179  -1.13068  -1.13053  -1.13021
  Beta  occ. eigenvalues --   -0.16797  -0.13051  -0.12137
  Beta virt. eigenvalues --   -0.07740  -0.05951  -0.04961  -0.04288  -0.03556
  Beta virt. eigenvalues --   -0.02627  -0.01796  -0.01388  -0.00862  -0.00725
  Beta virt. eigenvalues --   -0.00456   0.00003   0.00450   0.00524   0.00677

 Mulliken charges and spin densities:
               1          2
     1  Na  -0.356231  -0.034555
     2  Na   0.733766   0.152918
     3  Na   0.079177   0.195239
     4  Na  -0.697555  -0.071086
     5  Na   0.618311   0.341587
     6  Na  -0.197599   0.340823
     7  Na  -0.179870   0.075074
 Sum of Mulliken charges =  -0.00000   1.00000

 Dipole moment (field-independent basis, Debye):
    X=             -0.0461    Y=              0.0091    Z=             -0.1322  Tot=              0.1403
 Quadrupole moment (field-independent basis, Debye-Ang):
   XX=            -64.7648   YY=            -66.6283   ZZ=            -68.1536
   XY=              0.8317   XZ=             -1.1163   YZ=             -0.3032

 Normal termination of Gaussian 16 at Tue Nov 28 23:54:26 2023.
