 Gaussian 16, Revision B.01,
 Gaussian 16:  ES64L-G16RevB.01 20-Dec-2017

 -------------------------
 #P B3LYP/6-311+g(d) force
 -------------------------

 -----
 DPGEN
 -----
 Symbolic Z-matrix:
 Charge =  0 Multiplicity = 2

                         Standard orientation:
 ---------------------------------------------------------------------
 Center     Atomic      Atomic             Coordinates (Angstroms)
 Number     Number       Type             X           Y           Z
 ---------------------------------------------------------------------
      1         11           0        1.325079   -1.642906    1.607083
      2         11           0        3.129493    1.940725    0.879756
      3         11           0        2.601423   -0.679652   -1.761827
      4         11           0       -0.015149    1.288164   -0.188761
      5         11           0       -2.635809   -0.825973    1.600925
      6         11           0       -0.998211   -1.893122   -1.396471
      7         11           0       -3.406826    1.812764   -0.740705
 ---------------------------------------------------------------------

 SCF Done:  E(UB3LYP) =  -1136.12730335     A.U. after   22 cycles

 The electronic state is 2-A.
 Alpha  occ. eigenvalues --  -38.44644 -38.44623 -38.44093 -38.43759 -38.43661
 Alpha  occ. eigenvalues --  -38.43646 -38.43332  -2.20449  -2.20437  -2.19900
 Alpha  occ. eigenvalues --   -2.19549  -2.19481  -2.19447  -2.19223  -1.14133
 Alpha  occ. eigenvalues --   -1.14120  -1.14104  -1.14083  -1.14058  -1.14045
 Alpha  occ. eigenvalues --   -1.13588  -1.13548  -1.13512  -1.13221  -1.13211
 Alpha  occ. eigenvalues --   -1.13184  -1.13180  -1.13128  -1.13124  -1.13105
 Alpha  occ. eigenvalues --   -1.13103  -1.13080  -1.12941  -1.12902  -1.12822
 Alpha  occ. eigenvalues --   -0.17792  -0.13589  -0.11173  -0.10971
 Alpha virt. eigenvalues --   -0.05986  -0.05748  -0.05062  -0.03148  -0.02673
 Alpha virt. eigenvalues --   -0.02278  -0.02086  -0.01189  -0.00984  -0.00287
 Alpha virt. eigenvalues --   -0.00061   0.00200   0.00298   0.00331   0.00610

  Beta  occ. eigenvalues --  -38.44614 -38.44578 -38.44050 -38.43753 -38.43639
  Beta  occ. eigenvalues --  -38.43633 -38.43318  -2.20392  -2.20353  -2.19822
  Beta  occ. eigenvalues --   -2.19538  -2.19443  -2.19423  -2.19202  -1.14092
  Beta  occ. eigenvalues --   -1.14070  -1.14055  -1.14032  -1.14012  -1.13979
  Beta  occ. eigenvalues --   -1.13533  -1.13486  -1.13457  -1.13209  -1.13202
  Beta  occ. eigenvalues --   -1.13177  -1.13154  -1.13107  -1.13087  -1.13080
  Beta  occ. eigenvalues --   -1.13076  -1.13066  -1.12897  -1.12888  -1.12811
  Beta  occ. eigenvalues --   -0.17141  -0.13402  -0.10910
  Beta virt. eigenvalues --   -0.07307  -0.05785  -0.05542  -0.04536  -0.02857
  Beta virt. eigenvalues --   -0.02205  -0.02017  -0.01611  -0.01006  -0.00518
  Beta virt. eigenvalues --   -0.00185   0.00065   0.00243   0.00372   0.00393

 Mulliken charges and spin densities:
               1          2
     1  Na  -0.129943   0.375187
     2  Na   0.782425  -0.041306
     3  Na   0.303122   0.104114
     4  Na  -1.784354   0.317941
     5  Na   0.346644   0.089019
     6  Na   0.104665   0.193201
     7  Na   0.377440  -0.038156
 Sum of Mulliken charges =  -0.00000   1.00000

 Dipole moment (field-independent basis, Debye):
    X=              0.0528    Y=             -0.6338    Z=              0.0357  Tot=              0.6370
 Quadrupole moment (field-independent basis, Debye-Ang):
   XX=            -52.0737   YY=            -74.5259   ZZ=            -66.6476
   XY=              0.1978   XZ=             -0.7363   YZ=             -0.1682

 Normal termination of Gaussian 16 at Fri Dec  8 05:18:25 2023.
