 Gaussian 16, Revision B.01,
 Gaussian 16:  ES64L-G16RevB.01 20-Dec-2017

 -------------------------
 #P B3LYP/6-311+g(d) force
 -------------------------

 -----
 DPGEN
 -----
 Symbolic Z-matrix:
 Charge =  0 Multiplicity = 2

                         Standard orientation:
 ---------------------------------------------------------------------
 Center     Atomic      Atomic             Coordinates (Angstroms)
 Number     Number       Type             X           Y           Z
 ---------------------------------------------------------------------
      1         11           0        0.281435   -0.076235    2.202121
      2         11           0       -2.872185   -0.625612    0.030879
      3         11           0        2.965179   -0.827926   -0.104357
      4         11           0        1.755675    2.320090   -0.311830
      5         11           0       -0.226873   -2.894004   -0.136140
      6         11           0       -1.731234    2.365602   -0.003773
      7         11           0       -0.171998   -0.261916   -1.676899
 ---------------------------------------------------------------------

 SCF Done:  E(UB3LYP) =  -1136.13877237     A.U. after   19 cycles

 The electronic state is 2-A.
 Alpha  occ. eigenvalues --  -38.43912 -38.43890 -38.43684 -38.43452 -38.43371
 Alpha  occ. eigenvalues --  -38.43287 -38.43272  -2.19776  -2.19724  -2.19571
 Alpha  occ. eigenvalues --   -2.19303  -2.19278  -2.19244  -2.19152  -1.13436
 Alpha  occ. eigenvalues --   -1.13411  -1.13401  -1.13399  -1.13375  -1.13362
 Alpha  occ. eigenvalues --   -1.13284  -1.13231  -1.13216  -1.13064  -1.12994
 Alpha  occ. eigenvalues --   -1.12965  -1.12944  -1.12934  -1.12896  -1.12891
 Alpha  occ. eigenvalues --   -1.12855  -1.12843  -1.12813  -1.12808  -1.12790
 Alpha  occ. eigenvalues --   -0.18810  -0.13020  -0.12521  -0.11030
 Alpha virt. eigenvalues --   -0.05459  -0.04977  -0.04728  -0.03299  -0.02982
 Alpha virt. eigenvalues --   -0.02838  -0.01332  -0.01024  -0.00249  -0.00191
 Alpha virt. eigenvalues --   -0.00042   0.00375   0.00846   0.00915   0.00922

  Beta  occ. eigenvalues --  -38.43887 -38.43810 -38.43680 -38.43446 -38.43365
  Beta  occ. eigenvalues --  -38.43285 -38.43209  -2.19722  -2.19587  -2.19567
  Beta  occ. eigenvalues --   -2.19294  -2.19239  -2.19161  -2.19151  -1.13399
  Beta  occ. eigenvalues --   -1.13371  -1.13367  -1.13306  -1.13278  -1.13267
  Beta  occ. eigenvalues --   -1.13259  -1.13221  -1.13199  -1.13024  -1.12978
  Beta  occ. eigenvalues --   -1.12944  -1.12939  -1.12880  -1.12860  -1.12858
  Beta  occ. eigenvalues --   -1.12822  -1.12803  -1.12794  -1.12787  -1.12769
  Beta  occ. eigenvalues --   -0.18069  -0.12797  -0.12287
  Beta virt. eigenvalues --   -0.07063  -0.05440  -0.04981  -0.04662  -0.02476
  Beta virt. eigenvalues --   -0.02193  -0.01747  -0.01252  -0.00958  -0.00310
  Beta virt. eigenvalues --   -0.00245   0.00115   0.00397   0.00884   0.00913

 Mulliken charges and spin densities:
               1          2
     1  Na  -0.683624   0.757006
     2  Na   0.269939   0.022273
     3  Na   0.211439  -0.053811
     4  Na   0.108358  -0.022123
     5  Na   0.324091  -0.044704
     6  Na   0.068727  -0.018643
     7  Na  -0.298930   0.360003
 Sum of Mulliken charges =  -0.00000   1.00000

 Dipole moment (field-independent basis, Debye):
    X=              0.1819    Y=             -0.1338    Z=              0.2217  Tot=              0.3164
 Quadrupole moment (field-independent basis, Debye-Ang):
   XX=            -58.9385   YY=            -62.9470   ZZ=            -72.8037
   XY=             -0.2474   XZ=             -0.9386   YZ=             -0.4542

 Normal termination of Gaussian 16 at Fri Dec  8 06:13:18 2023.
