 Gaussian 16, Revision B.01,
 Gaussian 16:  ES64L-G16RevB.01 20-Dec-2017

 -------------------------
 #P B3LYP/6-311+g(d) force
 -------------------------

 -----
 DPGEN
 -----
 Symbolic Z-matrix:
 Charge =  0 Multiplicity = 2

                         Standard orientation:
 ---------------------------------------------------------------------
 Center     Atomic      Atomic             Coordinates (Angstroms)
 Number     Number       Type             X           Y           Z
 ---------------------------------------------------------------------
      1         11           0        0.186386   -0.181675    1.991250
      2         11           0       -3.150621    0.182725   -0.046688
      3         11           0        3.013694   -1.574263    0.189019
      4         11           0       -1.097865    2.866486    0.045576
      5         11           0        0.379889   -0.341875   -1.728416
      6         11           0        2.295921    1.805225   -0.284142
      7         11           0       -1.627405   -2.756623   -0.166599
 ---------------------------------------------------------------------

 SCF Done:  E(UB3LYP) =  -1136.13561745     A.U. after   20 cycles

 The electronic state is 2-A.
 Alpha  occ. eigenvalues --  -38.44401 -38.44184 -38.43874 -38.43696 -38.43621
 Alpha  occ. eigenvalues --  -38.43472 -38.43069  -2.20211  -2.20011  -2.19740
 Alpha  occ. eigenvalues --   -2.19562  -2.19440  -2.19389  -2.18890  -1.13878
 Alpha  occ. eigenvalues --   -1.13865  -1.13863  -1.13684  -1.13674  -1.13664
 Alpha  occ. eigenvalues --   -1.13453  -1.13403  -1.13355  -1.13235  -1.13192
 Alpha  occ. eigenvalues --   -1.13177  -1.13117  -1.13097  -1.13087  -1.13065
 Alpha  occ. eigenvalues --   -1.13017  -1.13006  -1.12561  -1.12553  -1.12540
 Alpha  occ. eigenvalues --   -0.18307  -0.13323  -0.12118  -0.10595
 Alpha virt. eigenvalues --   -0.06018  -0.05412  -0.04605  -0.03334  -0.02682
 Alpha virt. eigenvalues --   -0.02529  -0.01764  -0.01222  -0.00634  -0.00376
 Alpha virt. eigenvalues --   -0.00029   0.00339   0.00735   0.00791   0.00850

  Beta  occ. eigenvalues --  -38.44396 -38.44184 -38.43862 -38.43618 -38.43606
  Beta  occ. eigenvalues --  -38.43404 -38.43069  -2.20205  -2.20013  -2.19723
  Beta  occ. eigenvalues --   -2.19438  -2.19395  -2.19265  -2.18893  -1.13866
  Beta  occ. eigenvalues --   -1.13864  -1.13844  -1.13680  -1.13674  -1.13660
  Beta  occ. eigenvalues --   -1.13433  -1.13367  -1.13348  -1.13126  -1.13105
  Beta  occ. eigenvalues --   -1.13093  -1.13084  -1.13067  -1.13054  -1.12982
  Beta  occ. eigenvalues --   -1.12929  -1.12918  -1.12565  -1.12548  -1.12535
  Beta  occ. eigenvalues --   -0.17588  -0.13118  -0.11910
  Beta virt. eigenvalues --   -0.06709  -0.05969  -0.05348  -0.04576  -0.02565
  Beta virt. eigenvalues --   -0.01982  -0.01660  -0.01493  -0.01121  -0.00696
  Beta virt. eigenvalues --   -0.00409   0.00126   0.00372   0.00786   0.00815

 Mulliken charges and spin densities:
               1          2
     1  Na  -0.299815   0.726594
     2  Na  -0.024507  -0.015485
     3  Na   0.153362  -0.075023
     4  Na  -0.136897  -0.062504
     5  Na  -0.026038   0.451910
     6  Na   0.195057   0.067977
     7  Na   0.138839  -0.093469
 Sum of Mulliken charges =  -0.00000   1.00000

 Dipole moment (field-independent basis, Debye):
    X=              0.3633    Y=             -0.3985    Z=              0.0678  Tot=              0.5435
 Quadrupole moment (field-independent basis, Debye-Ang):
   XX=            -54.9913   YY=            -63.3764   ZZ=            -75.3968
   XY=             -0.9645   XZ=              0.2660   YZ=             -0.3971

 Normal termination of Gaussian 16 at Thu Dec  7 23:51:53 2023.
