 Gaussian 16, Revision B.01,
 Gaussian 16:  ES64L-G16RevB.01 20-Dec-2017

 -------------------------
 #P B3LYP/6-311+g(d) force
 -------------------------

 -----
 DPGEN
 -----
 Symbolic Z-matrix:
 Charge =  0 Multiplicity = 2

                         Standard orientation:
 ---------------------------------------------------------------------
 Center     Atomic      Atomic             Coordinates (Angstroms)
 Number     Number       Type             X           Y           Z
 ---------------------------------------------------------------------
      1         11           0        1.790006    1.741672   -1.042612
      2         11           0       -3.742895   -0.170158    1.074832
      3         11           0       -1.914693    2.014641   -0.828355
      4         11           0        3.778450    0.006679    1.219425
      5         11           0       -1.314034   -1.928104   -1.222735
      6         11           0       -0.197937   -0.116456    1.773739
      7         11           0        1.601104   -1.548274   -0.974294
 ---------------------------------------------------------------------

 SCF Done:  E(UB3LYP) =  -1136.12241026     A.U. after   25 cycles

 The electronic state is 2-A.
 Alpha  occ. eigenvalues --  -38.45407 -38.44869 -38.44747 -38.44022 -38.43893
 Alpha  occ. eigenvalues --  -38.42679 -38.42412  -2.21225  -2.20678  -2.20563
 Alpha  occ. eigenvalues --   -2.19872  -2.19709  -2.18628  -2.18293  -1.14924
 Alpha  occ. eigenvalues --   -1.14876  -1.14841  -1.14350  -1.14319  -1.14312
 Alpha  occ. eigenvalues --   -1.14226  -1.14215  -1.14188  -1.13559  -1.13536
 Alpha  occ. eigenvalues --   -1.13486  -1.13380  -1.13375  -1.13335  -1.12377
 Alpha  occ. eigenvalues --   -1.12291  -1.12269  -1.11953  -1.11936  -1.11913
 Alpha  occ. eigenvalues --   -0.18217  -0.14185  -0.11366  -0.10945
 Alpha virt. eigenvalues --   -0.06900  -0.05457  -0.04634  -0.03303  -0.02782
 Alpha virt. eigenvalues --   -0.02528  -0.02204  -0.01355  -0.00698  -0.00284
 Alpha virt. eigenvalues --    0.00073   0.00194   0.00405   0.00453   0.00700

  Beta  occ. eigenvalues --  -38.45372 -38.44847 -38.44713 -38.43983 -38.43861
  Beta  occ. eigenvalues --  -38.42666 -38.42404  -2.21159  -2.20638  -2.20500
  Beta  occ. eigenvalues --   -2.19802  -2.19652  -2.18607  -2.18281  -1.14869
  Beta  occ. eigenvalues --   -1.14837  -1.14788  -1.14317  -1.14295  -1.14285
  Beta  occ. eigenvalues --   -1.14181  -1.14169  -1.14148  -1.13510  -1.13489
  Beta  occ. eigenvalues --   -1.13418  -1.13343  -1.13335  -1.13279  -1.12361
  Beta  occ. eigenvalues --   -1.12273  -1.12244  -1.11941  -1.11925  -1.11900
  Beta  occ. eigenvalues --   -0.17576  -0.13979  -0.10734
  Beta virt. eigenvalues --   -0.07611  -0.06642  -0.04857  -0.04522  -0.02989
  Beta virt. eigenvalues --   -0.02523  -0.02008  -0.01552  -0.00919  -0.00653
  Beta virt. eigenvalues --   -0.00165   0.00122   0.00314   0.00421   0.00590

 Mulliken charges and spin densities:
               1          2
     1  Na  -0.301966   0.106757
     2  Na   1.001154   0.054156
     3  Na  -0.225131   0.120471
     4  Na   0.978484   0.189526
     5  Na  -0.302616   0.027935
     6  Na  -1.015888   0.281589
     7  Na  -0.134036   0.219566
 Sum of Mulliken charges =  -0.00000   1.00000

 Dipole moment (field-independent basis, Debye):
    X=             -0.1512    Y=              0.0967    Z=              0.8591  Tot=              0.8776
 Quadrupole moment (field-independent basis, Debye-Ang):
   XX=            -47.8484   YY=            -79.3784   ZZ=            -68.3434
   XY=              1.0570   XZ=              0.8426   YZ=             -4.2355

 Normal termination of Gaussian 16 at Wed Dec  6 00:43:23 2023.
