 Gaussian 16, Revision B.01,
 Gaussian 16:  ES64L-G16RevB.01 20-Dec-2017

 -------------------------
 #P B3LYP/6-311+g(d) force
 -------------------------

 -----
 DPGEN
 -----
 Symbolic Z-matrix:
 Charge =  0 Multiplicity = 2

                         Standard orientation:
 ---------------------------------------------------------------------
 Center     Atomic      Atomic             Coordinates (Angstroms)
 Number     Number       Type             X           Y           Z
 ---------------------------------------------------------------------
      1         11           0        2.812313   -1.010985    0.088254
      2         11           0       -0.687222   -2.805671   -0.741241
      3         11           0       -3.005863    2.699099    0.143642
      4         11           0        0.363401    0.821922   -0.840924
      5         11           0        3.282673    1.955286   -0.209235
      6         11           0       -2.570582   -0.836661   -0.408392
      7         11           0       -0.194721   -0.822989    1.967895
 ---------------------------------------------------------------------

 SCF Done:  E(UB3LYP) =  -1136.11665144     A.U. after   22 cycles

 The electronic state is 2-A.
 Alpha  occ. eigenvalues --  -38.44575 -38.44524 -38.43965 -38.43838 -38.43806
 Alpha  occ. eigenvalues --  -38.43470 -38.43369  -2.20480  -2.20389  -2.19919
 Alpha  occ. eigenvalues --   -2.19818  -2.19560  -2.19400  -2.19312  -1.14239
 Alpha  occ. eigenvalues --   -1.14166  -1.14128  -1.14057  -1.14017  -1.13968
 Alpha  occ. eigenvalues --   -1.13670  -1.13640  -1.13587  -1.13535  -1.13467
 Alpha  occ. eigenvalues --   -1.13439  -1.13233  -1.13231  -1.13188  -1.13074
 Alpha  occ. eigenvalues --   -1.13032  -1.13003  -1.12943  -1.12930  -1.12887
 Alpha  occ. eigenvalues --   -0.18696  -0.14190  -0.11888  -0.10329
 Alpha virt. eigenvalues --   -0.06237  -0.06102  -0.04340  -0.03335  -0.02332
 Alpha virt. eigenvalues --   -0.02223  -0.01990  -0.01530  -0.00908  -0.00262
 Alpha virt. eigenvalues --   -0.00086   0.00215   0.00532   0.00626   0.00755

  Beta  occ. eigenvalues --  -38.44565 -38.44515 -38.43949 -38.43811 -38.43809
  Beta  occ. eigenvalues --  -38.43378 -38.43332  -2.20465  -2.20373  -2.19893
  Beta  occ. eigenvalues --   -2.19770  -2.19568  -2.19247  -2.19229  -1.14233
  Beta  occ. eigenvalues --   -1.14162  -1.14086  -1.14045  -1.13998  -1.13957
  Beta  occ. eigenvalues --   -1.13634  -1.13596  -1.13566  -1.13516  -1.13420
  Beta  occ. eigenvalues --   -1.13395  -1.13239  -1.13233  -1.13193  -1.12961
  Beta  occ. eigenvalues --   -1.12924  -1.12897  -1.12887  -1.12877  -1.12815
  Beta  occ. eigenvalues --   -0.18052  -0.13864  -0.11727
  Beta virt. eigenvalues --   -0.06491  -0.05997  -0.05980  -0.04242  -0.02687
  Beta virt. eigenvalues --   -0.02108  -0.01840  -0.01604  -0.00992  -0.00822
  Beta virt. eigenvalues --   -0.00183   0.00143   0.00302   0.00665   0.00677

 Mulliken charges and spin densities:
               1          2
     1  Na   0.577036   0.085143
     2  Na  -0.065058   0.153355
     3  Na   0.143074  -0.016024
     4  Na  -1.357003   0.093637
     5  Na   0.353307  -0.019746
     6  Na   0.714020   0.250279
     7  Na  -0.365376   0.453357
 Sum of Mulliken charges =  -0.00000   1.00000

 Dipole moment (field-independent basis, Debye):
    X=              1.2980    Y=              0.2813    Z=              0.4928  Tot=              1.4166
 Quadrupole moment (field-independent basis, Debye-Ang):
   XX=            -56.4070   YY=            -62.8812   ZZ=            -75.2728
   XY=             -0.2612   XZ=             -0.8877   YZ=              1.3566

 Normal termination of Gaussian 16 at Tue Dec  5 13:13:31 2023.
