 Gaussian 16, Revision B.01,
 Gaussian 16:  ES64L-G16RevB.01 20-Dec-2017

 -------------------------
 #P B3LYP/6-311+g(d) force
 -------------------------

 -----
 DPGEN
 -----
 Symbolic Z-matrix:
 Charge =  0 Multiplicity = 2

                         Standard orientation:
 ---------------------------------------------------------------------
 Center     Atomic      Atomic             Coordinates (Angstroms)
 Number     Number       Type             X           Y           Z
 ---------------------------------------------------------------------
      1         11           0       -2.007558   -1.535479    1.753175
      2         11           0       -1.818845    2.427917    0.079041
      3         11           0       -2.578999   -0.746192   -1.357241
      4         11           0        0.196506   -0.234162    0.203298
      5         11           0        1.299971    2.811732   -0.336660
      6         11           0        3.383106   -0.023741    0.582558
      7         11           0        1.525819   -2.700074   -0.924171
 ---------------------------------------------------------------------

 SCF Done:  E(UB3LYP) =  -1136.12178454     A.U. after   20 cycles

 The electronic state is 2-A.
 Alpha  occ. eigenvalues --  -38.44452 -38.44178 -38.44134 -38.43939 -38.43611
 Alpha  occ. eigenvalues --  -38.43437 -38.42514  -2.20272  -2.20008  -2.20001
 Alpha  occ. eigenvalues --   -2.19795  -2.19462  -2.19338  -2.18673  -1.13962
 Alpha  occ. eigenvalues --   -1.13933  -1.13898  -1.13723  -1.13689  -1.13658
 Alpha  occ. eigenvalues --   -1.13651  -1.13629  -1.13608  -1.13496  -1.13452
 Alpha  occ. eigenvalues --   -1.13432  -1.13149  -1.13117  -1.13088  -1.13058
 Alpha  occ. eigenvalues --   -1.12952  -1.12938  -1.12377  -1.12331  -1.12315
 Alpha  occ. eigenvalues --   -0.18238  -0.13508  -0.12686  -0.09887
 Alpha virt. eigenvalues --   -0.06167  -0.05472  -0.04913  -0.03094  -0.02565
 Alpha virt. eigenvalues --   -0.01878  -0.01567  -0.01254  -0.00857  -0.00560
 Alpha virt. eigenvalues --   -0.00066   0.00326   0.00602   0.00703   0.00784

  Beta  occ. eigenvalues --  -38.44450 -38.44145 -38.44105 -38.43933 -38.43613
  Beta  occ. eigenvalues --  -38.43354 -38.42491  -2.20269  -2.19950  -2.19948
  Beta  occ. eigenvalues --   -2.19786  -2.19467  -2.19185  -2.18640  -1.13958
  Beta  occ. eigenvalues --   -1.13929  -1.13890  -1.13684  -1.13657  -1.13603
  Beta  occ. eigenvalues --   -1.13602  -1.13593  -1.13568  -1.13493  -1.13432
  Beta  occ. eigenvalues --   -1.13423  -1.13152  -1.13118  -1.13085  -1.12954
  Beta  occ. eigenvalues --   -1.12846  -1.12833  -1.12317  -1.12305  -1.12280
  Beta  occ. eigenvalues --   -0.17691  -0.13252  -0.12457
  Beta virt. eigenvalues --   -0.06348  -0.05785  -0.05368  -0.04629  -0.02665
  Beta virt. eigenvalues --   -0.02070  -0.01712  -0.01253  -0.00857  -0.00690
  Beta virt. eigenvalues --   -0.00385   0.00188   0.00431   0.00705   0.00771

 Mulliken charges and spin densities:
               1          2
     1  Na   0.501085   0.156473
     2  Na   0.760232   0.241499
     3  Na   0.592276   0.180861
     4  Na  -2.231381   0.681124
     5  Na   0.082760  -0.219354
     6  Na   0.055544  -0.111848
     7  Na   0.239484   0.071245
 Sum of Mulliken charges =  -0.00000   1.00000

 Dipole moment (field-independent basis, Debye):
    X=              0.4766    Y=              0.0851    Z=             -0.2781  Tot=              0.5583
 Quadrupole moment (field-independent basis, Debye-Ang):
   XX=            -54.2492   YY=            -62.8129   ZZ=            -74.4057
   XY=             -0.2534   XZ=              1.9228   YZ=              1.4927

 Normal termination of Gaussian 16 at Tue Dec  5 23:44:30 2023.
