 Gaussian 16, Revision B.01,
 Gaussian 16:  ES64L-G16RevB.01 20-Dec-2017

 -------------------------
 #P B3LYP/6-311+g(d) force
 -------------------------

 -----
 DPGEN
 -----
 Symbolic Z-matrix:
 Charge =  0 Multiplicity = 2

                         Standard orientation:
 ---------------------------------------------------------------------
 Center     Atomic      Atomic             Coordinates (Angstroms)
 Number     Number       Type             X           Y           Z
 ---------------------------------------------------------------------
      1         11           0        2.020190    2.044174    0.349065
      2         11           0        2.936687   -0.841393   -0.338481
      3         11           0       -2.885517   -0.960139   -0.059705
      4         11           0       -0.069560   -2.729742    0.210516
      5         11           0       -1.882645    2.452070   -0.202754
      6         11           0       -0.130438    0.021922    1.770945
      7         11           0        0.011283    0.013109   -1.729587
 ---------------------------------------------------------------------

 SCF Done:  E(UB3LYP) =  -1136.13808295     A.U. after   19 cycles

 The electronic state is 2-A.
 Alpha  occ. eigenvalues --  -38.44002 -38.43824 -38.43593 -38.43496 -38.43192
 Alpha  occ. eigenvalues --  -38.43182 -38.42962  -2.19870  -2.19706  -2.19481
 Alpha  occ. eigenvalues --   -2.19324  -2.19177  -2.19173  -2.18874  -1.13545
 Alpha  occ. eigenvalues --   -1.13543  -1.13502  -1.13421  -1.13373  -1.13343
 Alpha  occ. eigenvalues --   -1.13170  -1.13131  -1.13098  -1.13006  -1.12990
 Alpha  occ. eigenvalues --   -1.12961  -1.12896  -1.12840  -1.12812  -1.12804
 Alpha  occ. eigenvalues --   -1.12792  -1.12783  -1.12550  -1.12531  -1.12493
 Alpha  occ. eigenvalues --   -0.19113  -0.13358  -0.12386  -0.10772
 Alpha virt. eigenvalues --   -0.05592  -0.05200  -0.04437  -0.03291  -0.02790
 Alpha virt. eigenvalues --   -0.02396  -0.01560  -0.01096  -0.00258  -0.00122
 Alpha virt. eigenvalues --    0.00034   0.00363   0.00810   0.00899   0.00929

  Beta  occ. eigenvalues --  -38.43997 -38.43815 -38.43583 -38.43492 -38.43118
  Beta  occ. eigenvalues --  -38.43100 -38.42953  -2.19865  -2.19695  -2.19465
  Beta  occ. eigenvalues --   -2.19321  -2.19042  -2.19023  -2.18862  -1.13544
  Beta  occ. eigenvalues --   -1.13521  -1.13495  -1.13417  -1.13350  -1.13326
  Beta  occ. eigenvalues --   -1.13151  -1.13099  -1.13093  -1.12995  -1.12979
  Beta  occ. eigenvalues --   -1.12956  -1.12806  -1.12743  -1.12716  -1.12702
  Beta  occ. eigenvalues --   -1.12690  -1.12678  -1.12535  -1.12500  -1.12476
  Beta  occ. eigenvalues --   -0.18380  -0.13094  -0.12111
  Beta virt. eigenvalues --   -0.06851  -0.05563  -0.05180  -0.04430  -0.02478
  Beta virt. eigenvalues --   -0.02015  -0.01464  -0.01353  -0.01025  -0.00289
  Beta virt. eigenvalues --   -0.00164   0.00143   0.00384   0.00868   0.00889

 Mulliken charges and spin densities:
               1          2
     1  Na   0.129633  -0.049777
     2  Na   0.173235   0.013130
     3  Na   0.099348  -0.089189
     4  Na   0.212909  -0.035709
     5  Na  -0.033883  -0.109960
     6  Na  -0.247723   0.616175
     7  Na  -0.333518   0.655330
 Sum of Mulliken charges =  -0.00000   1.00000

 Dipole moment (field-independent basis, Debye):
    X=             -0.1456    Y=              0.0755    Z=             -0.0475  Tot=              0.1707
 Quadrupole moment (field-independent basis, Debye-Ang):
   XX=            -55.3336   YY=            -63.2523   ZZ=            -74.4527
   XY=             -0.2332   XZ=              0.1217   YZ=              0.2299

 Normal termination of Gaussian 16 at Thu Dec  7 11:23:07 2023.
