 Gaussian 16, Revision B.01,
 Gaussian 16:  ES64L-G16RevB.01 20-Dec-2017

 -------------------------
 #P B3LYP/6-311+g(d) force
 -------------------------

 -----
 DPGEN
 -----
 Symbolic Z-matrix:
 Charge =  0 Multiplicity = 2

                         Standard orientation:
 ---------------------------------------------------------------------
 Center     Atomic      Atomic             Coordinates (Angstroms)
 Number     Number       Type             X           Y           Z
 ---------------------------------------------------------------------
      1         11           0       -1.105020    2.912804   -0.012219
      2         11           0        2.586195   -1.733492    0.042627
      3         11           0        2.740567    1.755753   -0.284293
      4         11           0       -0.661280   -2.885460    0.030027
      5         11           0       -0.073678    0.294748    2.041877
      6         11           0       -0.276146   -0.034717   -1.707730
      7         11           0       -3.210638   -0.309636   -0.110288
 ---------------------------------------------------------------------

 SCF Done:  E(UB3LYP) =  -1136.13839945     A.U. after   19 cycles

 The electronic state is 2-A.
 Alpha  occ. eigenvalues --  -38.44198 -38.44039 -38.43833 -38.43697 -38.43545
 Alpha  occ. eigenvalues --  -38.43370 -38.43311  -2.20014  -2.19825  -2.19642
 Alpha  occ. eigenvalues --   -2.19517  -2.19412  -2.19241  -2.19216  -1.13698
 Alpha  occ. eigenvalues --   -1.13674  -1.13646  -1.13500  -1.13486  -1.13465
 Alpha  occ. eigenvalues --   -1.13323  -1.13317  -1.13271  -1.13188  -1.13184
 Alpha  occ. eigenvalues --   -1.13163  -1.13079  -1.13035  -1.13032  -1.12949
 Alpha  occ. eigenvalues --   -1.12907  -1.12877  -1.12866  -1.12852  -1.12840
 Alpha  occ. eigenvalues --   -0.18265  -0.12819  -0.12454  -0.10547
 Alpha virt. eigenvalues --   -0.05810  -0.05257  -0.04901  -0.03042  -0.02933
 Alpha virt. eigenvalues --   -0.02493  -0.01595  -0.01242  -0.00658  -0.00486
 Alpha virt. eigenvalues --   -0.00021   0.00354   0.00784   0.00811   0.00867

  Beta  occ. eigenvalues --  -38.44194 -38.44034 -38.43829 -38.43696 -38.43450
  Beta  occ. eigenvalues --  -38.43366 -38.43247  -2.20009  -2.19819  -2.19638
  Beta  occ. eigenvalues --   -2.19517  -2.19238  -2.19212  -2.19124  -1.13684
  Beta  occ. eigenvalues --   -1.13660  -1.13645  -1.13485  -1.13480  -1.13463
  Beta  occ. eigenvalues --   -1.13317  -1.13292  -1.13272  -1.13186  -1.13172
  Beta  occ. eigenvalues --   -1.13163  -1.12965  -1.12918  -1.12911  -1.12906
  Beta  occ. eigenvalues --   -1.12858  -1.12847  -1.12835  -1.12783  -1.12772
  Beta  occ. eigenvalues --   -0.17547  -0.12610  -0.12231
  Beta virt. eigenvalues --   -0.06670  -0.05796  -0.05230  -0.04827  -0.02303
  Beta virt. eigenvalues --   -0.02156  -0.01505  -0.01455  -0.01160  -0.00719
  Beta virt. eigenvalues --   -0.00541   0.00124   0.00382   0.00798   0.00841

 Mulliken charges and spin densities:
               1          2
     1  Na   0.091025  -0.141453
     2  Na   0.017349  -0.053887
     3  Na   0.026622  -0.073790
     4  Na   0.102359  -0.055347
     5  Na  -0.377826   0.798634
     6  Na  -0.120499   0.606563
     7  Na   0.260970  -0.080721
 Sum of Mulliken charges =  -0.00000   1.00000

 Dipole moment (field-independent basis, Debye):
    X=             -0.1974    Y=              0.2262    Z=              0.0435  Tot=              0.3034
 Quadrupole moment (field-independent basis, Debye-Ang):
   XX=            -56.4936   YY=            -61.1029   ZZ=            -75.4655
   XY=              0.1820   XZ=             -0.4056   YZ=             -0.9048

 Normal termination of Gaussian 16 at Thu Dec  7 12:29:59 2023.
