 Gaussian 16, Revision B.01,
 Gaussian 16:  ES64L-G16RevB.01 20-Dec-2017

 -------------------------
 #P B3LYP/6-311+g(d) force
 -------------------------

 -----
 DPGEN
 -----
 Symbolic Z-matrix:
 Charge =  0 Multiplicity = 2

                         Standard orientation:
 ---------------------------------------------------------------------
 Center     Atomic      Atomic             Coordinates (Angstroms)
 Number     Number       Type             X           Y           Z
 ---------------------------------------------------------------------
      1         11           0        0.023327   -0.868239    1.223831
      2         11           0        6.263322   -0.074572    0.144242
      3         11           0        3.299892   -0.911180   -0.998183
      4         11           0        1.206026    2.187872   -0.175398
      5         11           0       -2.333592    1.236340    0.573444
      6         11           0       -3.107306   -2.077515   -0.088268
      7         11           0       -5.351669    0.507294   -0.679667
 ---------------------------------------------------------------------

 SCF Done:  E(UB3LYP) =  -1136.11885514     A.U. after   20 cycles

 The electronic state is 2-A.
 Alpha  occ. eigenvalues --  -38.44407 -38.44400 -38.44129 -38.44055 -38.43985
 Alpha  occ. eigenvalues --  -38.43855 -38.43720  -2.20242  -2.20201  -2.20018
 Alpha  occ. eigenvalues --   -2.19849  -2.19745  -2.19725  -2.19545  -1.13919
 Alpha  occ. eigenvalues --   -1.13915  -1.13876  -1.13852  -1.13844  -1.13819
 Alpha  occ. eigenvalues --   -1.13740  -1.13710  -1.13610  -1.13535  -1.13523
 Alpha  occ. eigenvalues --   -1.13489  -1.13411  -1.13410  -1.13408  -1.13391
 Alpha  occ. eigenvalues --   -1.13362  -1.13323  -1.13206  -1.13199  -1.13164
 Alpha  occ. eigenvalues --   -0.17069  -0.14069  -0.11538  -0.11067
 Alpha virt. eigenvalues --   -0.06516  -0.05745  -0.04480  -0.03495  -0.02928
 Alpha virt. eigenvalues --   -0.02562  -0.02024  -0.01355  -0.01096  -0.00666
 Alpha virt. eigenvalues --   -0.00412  -0.00099   0.00227   0.00380   0.00641

  Beta  occ. eigenvalues --  -38.44362 -38.44357 -38.44103 -38.44051 -38.43994
  Beta  occ. eigenvalues --  -38.43815 -38.43686  -2.20161  -2.20120  -2.19974
  Beta  occ. eigenvalues --   -2.19841  -2.19761  -2.19655  -2.19481  -1.13869
  Beta  occ. eigenvalues --   -1.13861  -1.13821  -1.13788  -1.13773  -1.13762
  Beta  occ. eigenvalues --   -1.13688  -1.13679  -1.13574  -1.13526  -1.13516
  Beta  occ. eigenvalues --   -1.13490  -1.13422  -1.13421  -1.13371  -1.13363
  Beta  occ. eigenvalues --   -1.13345  -1.13245  -1.13156  -1.13153  -1.13129
  Beta  occ. eigenvalues --   -0.16375  -0.13897  -0.11385
  Beta virt. eigenvalues --   -0.07262  -0.06457  -0.05071  -0.04295  -0.03327
  Beta virt. eigenvalues --   -0.02435  -0.02055  -0.01797  -0.01301  -0.00789
  Beta virt. eigenvalues --   -0.00530  -0.00117   0.00048   0.00408   0.00448

 Mulliken charges and spin densities:
               1          2
     1  Na  -0.120403   0.502865
     2  Na   0.278783  -0.024699
     3  Na  -0.362235  -0.032638
     4  Na   0.274075   0.217250
     5  Na  -0.631028   0.153070
     6  Na   0.115260   0.026449
     7  Na   0.445548   0.157703
 Sum of Mulliken charges =  -0.00000   1.00000

 Dipole moment (field-independent basis, Debye):
    X=             -0.4682    Y=              0.2292    Z=             -0.0423  Tot=              0.5230
 Quadrupole moment (field-independent basis, Debye-Ang):
   XX=            -63.4894   YY=            -67.0280   ZZ=            -69.6270
   XY=              5.3452   XZ=              4.9174   YZ=              1.0361

 Normal termination of Gaussian 16 at Wed Nov 29 01:38:06 2023.
