 Gaussian 16, Revision B.01,
 Gaussian 16:  ES64L-G16RevB.01 20-Dec-2017

 -------------------------
 #P B3LYP/6-311+g(d) force
 -------------------------

 -----
 DPGEN
 -----
 Symbolic Z-matrix:
 Charge =  0 Multiplicity = 2

                         Standard orientation:
 ---------------------------------------------------------------------
 Center     Atomic      Atomic             Coordinates (Angstroms)
 Number     Number       Type             X           Y           Z
 ---------------------------------------------------------------------
      1         11           0       -1.752319   -1.741856    0.902571
      2         11           0       -4.785592   -2.099136   -0.522926
      3         11           0       -3.601768    0.884188   -0.930353
      4         11           0       -0.906822    3.008552   -0.628521
      5         11           0        0.842824    1.782390    1.905196
      6         11           0        4.075924   -1.243701    0.974244
      7         11           0        6.127753   -0.590436   -1.700212
 ---------------------------------------------------------------------

 SCF Done:  E(UB3LYP) =  -1136.11040803     A.U. after   20 cycles

 The electronic state is 2-A.
 Alpha  occ. eigenvalues --  -38.45472 -38.44619 -38.44427 -38.44407 -38.44105
 Alpha  occ. eigenvalues --  -38.44076 -38.43665  -2.21259  -2.20442  -2.20282
 Alpha  occ. eigenvalues --   -2.20177  -2.19867  -2.19808  -2.19478  -1.14937
 Alpha  occ. eigenvalues --   -1.14918  -1.14859  -1.14131  -1.14101  -1.14083
 Alpha  occ. eigenvalues --   -1.13955  -1.13944  -1.13877  -1.13846  -1.13830
 Alpha  occ. eigenvalues --   -1.13817  -1.13526  -1.13525  -1.13509  -1.13495
 Alpha  occ. eigenvalues --   -1.13480  -1.13424  -1.13144  -1.13140  -1.13115
 Alpha  occ. eigenvalues --   -0.16376  -0.13327  -0.12360  -0.10959
 Alpha virt. eigenvalues --   -0.06545  -0.05948  -0.04825  -0.03741  -0.02874
 Alpha virt. eigenvalues --   -0.02409  -0.02241  -0.01674  -0.01158  -0.00940
 Alpha virt. eigenvalues --   -0.00581  -0.00352  -0.00098   0.00174   0.00482

  Beta  occ. eigenvalues --  -38.45414 -38.44620 -38.44384 -38.44368 -38.44093
  Beta  occ. eigenvalues --  -38.44066 -38.43645  -2.21150  -2.20445  -2.20172
  Beta  occ. eigenvalues --   -2.20132  -2.19844  -2.19794  -2.19443  -1.14864
  Beta  occ. eigenvalues --   -1.14844  -1.14777  -1.14122  -1.14104  -1.14077
  Beta  occ. eigenvalues --   -1.13883  -1.13872  -1.13817  -1.13796  -1.13792
  Beta  occ. eigenvalues --   -1.13789  -1.13522  -1.13512  -1.13480  -1.13475
  Beta  occ. eigenvalues --   -1.13474  -1.13409  -1.13122  -1.13112  -1.13081
  Beta  occ. eigenvalues --   -0.15734  -0.13186  -0.11997
  Beta virt. eigenvalues --   -0.07584  -0.06012  -0.05596  -0.04405  -0.03529
  Beta virt. eigenvalues --   -0.02352  -0.02272  -0.02112  -0.01531  -0.01000
  Beta virt. eigenvalues --   -0.00555  -0.00290  -0.00109   0.00085   0.00279

 Mulliken charges and spin densities:
               1          2
     1  Na  -0.513644   0.379450
     2  Na   1.164394  -0.020963
     3  Na  -0.238949   0.291151
     4  Na  -0.138604   0.142880
     5  Na  -0.238626   0.116917
     6  Na  -0.239400  -0.107157
     7  Na   0.204830   0.197722
 Sum of Mulliken charges =  -0.00000   1.00000

 Dipole moment (field-independent basis, Debye):
    X=             -1.8705    Y=             -0.6464    Z=             -0.2562  Tot=              1.9956
 Quadrupole moment (field-independent basis, Debye-Ang):
   XX=            -63.1440   YY=            -68.3045   ZZ=            -66.4005
   XY=              9.7631   XZ=             -1.1219   YZ=             -0.9661

 Normal termination of Gaussian 16 at Tue Nov 28 19:05:54 2023.
