 Gaussian 16, Revision B.01,
 Gaussian 16:  ES64L-G16RevB.01 20-Dec-2017

 -------------------------
 #P B3LYP/6-311+g(d) force
 -------------------------

 -----
 DPGEN
 -----
 Symbolic Z-matrix:
 Charge =  0 Multiplicity = 2

                         Standard orientation:
 ---------------------------------------------------------------------
 Center     Atomic      Atomic             Coordinates (Angstroms)
 Number     Number       Type             X           Y           Z
 ---------------------------------------------------------------------
      1         11           0       -1.411290    2.553603   -0.772001
      2         11           0        1.772863   -2.674309   -0.915805
      3         11           0        3.718484   -0.154040    0.638984
      4         11           0        1.667628    2.931987   -0.511196
      5         11           0       -3.604186    0.207016    0.685654
      6         11           0       -0.110158   -0.545706    1.694908
      7         11           0       -2.033340   -2.318549   -0.820543
 ---------------------------------------------------------------------

 SCF Done:  E(UB3LYP) =  -1136.12155656     A.U. after   20 cycles

 The electronic state is 2-A.
 Alpha  occ. eigenvalues --  -38.45269 -38.44434 -38.44399 -38.44245 -38.44150
 Alpha  occ. eigenvalues --  -38.43646 -38.43583  -2.21052  -2.20232  -2.20215
 Alpha  occ. eigenvalues --   -2.20061  -2.19936  -2.19451  -2.19411  -1.14745
 Alpha  occ. eigenvalues --   -1.14722  -1.14656  -1.13904  -1.13886  -1.13885
 Alpha  occ. eigenvalues --   -1.13871  -1.13863  -1.13851  -1.13733  -1.13725
 Alpha  occ. eigenvalues --   -1.13680  -1.13614  -1.13593  -1.13561  -1.13208
 Alpha  occ. eigenvalues --   -1.13116  -1.13087  -1.13070  -1.13054  -1.13006
 Alpha  occ. eigenvalues --   -0.17111  -0.13574  -0.12788  -0.10001
 Alpha virt. eigenvalues --   -0.06779  -0.06267  -0.04295  -0.03676  -0.02983
 Alpha virt. eigenvalues --   -0.02502  -0.01635  -0.01536  -0.01088  -0.00575
 Alpha virt. eigenvalues --   -0.00356   0.00235   0.00297   0.00346   0.00676

  Beta  occ. eigenvalues --  -38.45235 -38.44406 -38.44377 -38.44215 -38.44120
  Beta  occ. eigenvalues --  -38.43628 -38.43562  -2.20989  -2.20192  -2.20164
  Beta  occ. eigenvalues --   -2.20007  -2.19883  -2.19422  -2.19375  -1.14699
  Beta  occ. eigenvalues --   -1.14680  -1.14606  -1.13878  -1.13860  -1.13847
  Beta  occ. eigenvalues --   -1.13838  -1.13832  -1.13817  -1.13698  -1.13691
  Beta  occ. eigenvalues --   -1.13620  -1.13580  -1.13561  -1.13502  -1.13178
  Beta  occ. eigenvalues --   -1.13097  -1.13059  -1.13045  -1.13030  -1.12967
  Beta  occ. eigenvalues --   -0.16673  -0.13364  -0.12111
  Beta virt. eigenvalues --   -0.06740  -0.06514  -0.06282  -0.03846  -0.03278
  Beta virt. eigenvalues --   -0.02387  -0.02290  -0.01522  -0.01159  -0.00987
  Beta virt. eigenvalues --   -0.00443  -0.00022   0.00279   0.00466   0.00512

 Mulliken charges and spin densities:
               1          2
     1  Na  -0.216649   0.089314
     2  Na  -0.121913   0.153131
     3  Na   0.402985   0.127180
     4  Na  -0.104524   0.054102
     5  Na   0.770110   0.177591
     6  Na  -0.616237   0.224139
     7  Na  -0.113772   0.174545
 Sum of Mulliken charges =  -0.00000   1.00000

 Dipole moment (field-independent basis, Debye):
    X=             -0.2336    Y=             -0.4450    Z=              0.2920  Tot=              0.5813
 Quadrupole moment (field-independent basis, Debye-Ang):
   XX=            -50.9042   YY=            -74.8045   ZZ=            -73.0854
   XY=              0.0231   XZ=             -0.2293   YZ=              1.2638

 Normal termination of Gaussian 16 at Sun Dec  3 20:53:51 2023.
