 Gaussian 16, Revision B.01,
 Gaussian 16:  ES64L-G16RevB.01 20-Dec-2017

 -------------------------
 #P B3LYP/6-311+g(d) force
 -------------------------

 -----
 DPGEN
 -----
 Symbolic Z-matrix:
 Charge =  0 Multiplicity = 2

                         Standard orientation:
 ---------------------------------------------------------------------
 Center     Atomic      Atomic             Coordinates (Angstroms)
 Number     Number       Type             X           Y           Z
 ---------------------------------------------------------------------
      1         11           0        0.306960    2.981131    0.512877
      2         11           0       -0.098072   -0.569910    2.301795
      3         11           0        3.111138   -1.608379    0.455668
      4         11           0        2.306764    0.872443   -1.328626
      5         11           0       -3.119813   -1.727407   -0.298508
      6         11           0        0.070397   -1.221578   -1.303344
      7         11           0       -2.577374    1.273700   -0.339863
 ---------------------------------------------------------------------

 SCF Done:  E(UB3LYP) =  -1136.12672756     A.U. after   19 cycles

 The electronic state is 2-A.
 Alpha  occ. eigenvalues --  -38.44617 -38.44489 -38.44188 -38.43930 -38.43929
 Alpha  occ. eigenvalues --  -38.43812 -38.42465  -2.20433  -2.20315  -2.20045
 Alpha  occ. eigenvalues --   -2.19847  -2.19837  -2.19667  -2.18282  -1.14089
 Alpha  occ. eigenvalues --   -1.14059  -1.14046  -1.14009  -1.13964  -1.13960
 Alpha  occ. eigenvalues --   -1.13742  -1.13720  -1.13695  -1.13654  -1.13528
 Alpha  occ. eigenvalues --   -1.13487  -1.13477  -1.13444  -1.13407  -1.13328
 Alpha  occ. eigenvalues --   -1.13308  -1.13292  -1.11949  -1.11941  -1.11939
 Alpha  occ. eigenvalues --   -0.18202  -0.13790  -0.11670  -0.11274
 Alpha virt. eigenvalues --   -0.06207  -0.05251  -0.04331  -0.03575  -0.03163
 Alpha virt. eigenvalues --   -0.02663  -0.02018  -0.01067  -0.00402  -0.00190
 Alpha virt. eigenvalues --    0.00175   0.00246   0.00507   0.00657   0.00797

  Beta  occ. eigenvalues --  -38.44505 -38.44486 -38.44185 -38.43899 -38.43893
  Beta  occ. eigenvalues --  -38.43808 -38.42465  -2.20312  -2.20226  -2.20040
  Beta  occ. eigenvalues --   -2.19790  -2.19774  -2.19662  -2.18283  -1.14008
  Beta  occ. eigenvalues --   -1.13966  -1.13952  -1.13937  -1.13916  -1.13894
  Beta  occ. eigenvalues --   -1.13743  -1.13710  -1.13683  -1.13605  -1.13477
  Beta  occ. eigenvalues --   -1.13439  -1.13434  -1.13402  -1.13369  -1.13326
  Beta  occ. eigenvalues --   -1.13291  -1.13286  -1.11952  -1.11943  -1.11927
  Beta  occ. eigenvalues --   -0.17504  -0.13578  -0.11522
  Beta virt. eigenvalues --   -0.07293  -0.06045  -0.05181  -0.04035  -0.03103
  Beta virt. eigenvalues --   -0.02220  -0.01969  -0.01857  -0.00967  -0.00382
  Beta virt. eigenvalues --   -0.00025   0.00214   0.00316   0.00701   0.00774

 Mulliken charges and spin densities:
               1          2
     1  Na  -0.096076   0.032551
     2  Na  -0.460178   0.697301
     3  Na   0.137049  -0.040630
     4  Na   0.480972   0.005717
     5  Na   0.713835   0.020172
     6  Na  -0.516597   0.334699
     7  Na  -0.259005  -0.049809
 Sum of Mulliken charges =  -0.00000   1.00000

 Dipole moment (field-independent basis, Debye):
    X=              0.1216    Y=             -0.7907    Z=              0.2535  Tot=              0.8392
 Quadrupole moment (field-independent basis, Debye-Ang):
   XX=            -54.3444   YY=            -70.8217   ZZ=            -70.9994
   XY=             -0.3681   XZ=              0.5701   YZ=             -1.5423

 Normal termination of Gaussian 16 at Thu Dec  7 15:29:08 2023.
