 Gaussian 16, Revision B.01,
 Gaussian 16:  ES64L-G16RevB.01 20-Dec-2017

 -------------------------
 #P B3LYP/6-311+g(d) force
 -------------------------

 -----
 DPGEN
 -----
 Symbolic Z-matrix:
 Charge =  0 Multiplicity = 2

                         Standard orientation:
 ---------------------------------------------------------------------
 Center     Atomic      Atomic             Coordinates (Angstroms)
 Number     Number       Type             X           Y           Z
 ---------------------------------------------------------------------
      1         11           0        1.751602   -1.429165    1.736135
      2         11           0        4.472923   -0.096989   -1.201307
      3         11           0       -0.261419   -0.010174   -1.489536
      4         11           0       -1.168016   -2.635641    0.204094
      5         11           0        1.502099    2.059493    0.808131
      6         11           0       -2.126137    2.725640    0.355776
      7         11           0       -4.171052   -0.613165   -0.413292
 ---------------------------------------------------------------------

 SCF Done:  E(UB3LYP) =  -1136.11717679     A.U. after   23 cycles

 The electronic state is 2-A.
 Alpha  occ. eigenvalues --  -38.46009 -38.44686 -38.44361 -38.44329 -38.43820
 Alpha  occ. eigenvalues --  -38.43770 -38.43233  -2.21808  -2.20452  -2.20146
 Alpha  occ. eigenvalues --   -2.20126  -2.19623  -2.19531  -2.19066  -1.15512
 Alpha  occ. eigenvalues --   -1.15465  -1.15432  -1.14130  -1.14090  -1.14077
 Alpha  occ. eigenvalues --   -1.13804  -1.13791  -1.13784  -1.13774  -1.13759
 Alpha  occ. eigenvalues --   -1.13740  -1.13316  -1.13307  -1.13232  -1.13220
 Alpha  occ. eigenvalues --   -1.13190  -1.13166  -1.12773  -1.12738  -1.12678
 Alpha  occ. eigenvalues --   -0.17093  -0.13463  -0.11933  -0.10620
 Alpha virt. eigenvalues --   -0.07131  -0.05576  -0.04864  -0.03307  -0.02981
 Alpha virt. eigenvalues --   -0.02495  -0.01941  -0.01618  -0.01040  -0.00550
 Alpha virt. eigenvalues --   -0.00329  -0.00304   0.00224   0.00351   0.00638

  Beta  occ. eigenvalues --  -38.46015 -38.44650 -38.44299 -38.44237 -38.43812
  Beta  occ. eigenvalues --  -38.43776 -38.43230  -2.21819  -2.20382  -2.20073
  Beta  occ. eigenvalues --   -2.19915  -2.19609  -2.19544  -2.19064  -1.15512
  Beta  occ. eigenvalues --   -1.15475  -1.15445  -1.14081  -1.14044  -1.14032
  Beta  occ. eigenvalues --   -1.13761  -1.13739  -1.13719  -1.13633  -1.13627
  Beta  occ. eigenvalues --   -1.13588  -1.13306  -1.13290  -1.13231  -1.13219
  Beta  occ. eigenvalues --   -1.13200  -1.13163  -1.12777  -1.12736  -1.12657
  Beta  occ. eigenvalues --   -0.16799  -0.12827  -0.11691
  Beta virt. eigenvalues --   -0.07024  -0.06943  -0.05344  -0.04481  -0.03092
  Beta virt. eigenvalues --   -0.02641  -0.02300  -0.01446  -0.01251  -0.00705
  Beta virt. eigenvalues --   -0.00436  -0.00304   0.00004   0.00435   0.00588

 Mulliken charges and spin densities:
               1          2
     1  Na   0.172677   0.076967
     2  Na  -0.119464   0.686682
     3  Na   0.387442   0.031199
     4  Na  -0.370210  -0.005019
     5  Na  -0.108758   0.042828
     6  Na  -0.208038  -0.070635
     7  Na   0.246352   0.237978
 Sum of Mulliken charges =  -0.00000   1.00000

 Dipole moment (field-independent basis, Debye):
    X=             -1.0176    Y=             -0.1014    Z=              0.5238  Tot=              1.1490
 Quadrupole moment (field-independent basis, Debye-Ang):
   XX=            -64.8257   YY=            -72.7154   ZZ=            -66.4197
   XY=             -0.8726   XZ=              2.4685   YZ=              0.4967

 Normal termination of Gaussian 16 at Mon Dec  4 02:44:02 2023.
