 Gaussian 16, Revision B.01,
 Gaussian 16:  ES64L-G16RevB.01 20-Dec-2017

 -------------------------
 #P B3LYP/6-311+g(d) force
 -------------------------

 -----
 DPGEN
 -----
 Symbolic Z-matrix:
 Charge =  0 Multiplicity = 2

                         Standard orientation:
 ---------------------------------------------------------------------
 Center     Atomic      Atomic             Coordinates (Angstroms)
 Number     Number       Type             X           Y           Z
 ---------------------------------------------------------------------
      1         11           0        0.723902    0.915529   -1.250432
      2         11           0       -2.219006    2.127210   -0.065993
      3         11           0        2.243566   -2.406452   -0.683426
      4         11           0        3.094919   -0.540358    1.487265
      5         11           0        1.295736    3.217677    0.150467
      6         11           0       -1.090732   -2.182501   -0.351586
      7         11           0       -4.048384   -1.131107    0.713706
 ---------------------------------------------------------------------

 SCF Done:  E(UB3LYP) =  -1136.11930014     A.U. after   20 cycles

 The electronic state is 2-A.
 Alpha  occ. eigenvalues --  -38.45221 -38.44713 -38.43967 -38.43830 -38.43745
 Alpha  occ. eigenvalues --  -38.43714 -38.43528  -2.20998  -2.20575  -2.19927
 Alpha  occ. eigenvalues --   -2.19714  -2.19602  -2.19555  -2.19334  -1.14704
 Alpha  occ. eigenvalues --   -1.14689  -1.14590  -1.14430  -1.14207  -1.14163
 Alpha  occ. eigenvalues --   -1.13594  -1.13584  -1.13506  -1.13492  -1.13380
 Alpha  occ. eigenvalues --   -1.13355  -1.13235  -1.13233  -1.13230  -1.13213
 Alpha  occ. eigenvalues --   -1.13191  -1.13183  -1.12990  -1.12986  -1.12956
 Alpha  occ. eigenvalues --   -0.17563  -0.13653  -0.13162  -0.10124
 Alpha virt. eigenvalues --   -0.06450  -0.05389  -0.04999  -0.03615  -0.03001
 Alpha virt. eigenvalues --   -0.01784  -0.01565  -0.01441  -0.01134  -0.01009
 Alpha virt. eigenvalues --    0.00005   0.00259   0.00477   0.00600   0.00701

  Beta  occ. eigenvalues --  -38.45218 -38.44713 -38.43934 -38.43819 -38.43689
  Beta  occ. eigenvalues --  -38.43664 -38.43492  -2.20995  -2.20576  -2.19869
  Beta  occ. eigenvalues --   -2.19701  -2.19515  -2.19450  -2.19267  -1.14697
  Beta  occ. eigenvalues --   -1.14689  -1.14579  -1.14424  -1.14207  -1.14156
  Beta  occ. eigenvalues --   -1.13555  -1.13535  -1.13469  -1.13447  -1.13373
  Beta  occ. eigenvalues --   -1.13321  -1.13210  -1.13201  -1.13140  -1.13129
  Beta  occ. eigenvalues --   -1.13107  -1.13105  -1.12943  -1.12939  -1.12912
  Beta  occ. eigenvalues --   -0.17048  -0.13214  -0.12811
  Beta virt. eigenvalues --   -0.06641  -0.06380  -0.05179  -0.04704  -0.03028
  Beta virt. eigenvalues --   -0.02506  -0.01655  -0.01482  -0.01088  -0.00971
  Beta virt. eigenvalues --   -0.00741   0.00278   0.00405   0.00592   0.00697

 Mulliken charges and spin densities:
               1          2
     1  Na  -0.159066   0.154496
     2  Na  -0.224626  -0.049182
     3  Na   0.360333   0.004523
     4  Na  -0.284807   0.494483
     5  Na   0.300763   0.106088
     6  Na  -0.711969  -0.082625
     7  Na   0.719373   0.372218
 Sum of Mulliken charges =  -0.00000   1.00000

 Dipole moment (field-independent basis, Debye):
    X=             -0.1880    Y=              1.0877    Z=             -0.1496  Tot=              1.1139
 Quadrupole moment (field-independent basis, Debye-Ang):
   XX=            -68.3880   YY=            -58.8194   ZZ=            -72.2742
   XY=             -1.1788   XZ=             -2.6830   YZ=              2.0873

 Normal termination of Gaussian 16 at Tue Dec  5 15:36:09 2023.
