 Gaussian 16, Revision B.01,
 Gaussian 16:  ES64L-G16RevB.01 20-Dec-2017

 -------------------------
 #P B3LYP/6-311+g(d) force
 -------------------------

 -----
 DPGEN
 -----
 Symbolic Z-matrix:
 Charge =  0 Multiplicity = 2

                         Standard orientation:
 ---------------------------------------------------------------------
 Center     Atomic      Atomic             Coordinates (Angstroms)
 Number     Number       Type             X           Y           Z
 ---------------------------------------------------------------------
      1         11           0        0.251750    0.162248   -1.724350
      2         11           0        0.120997   -0.583788    1.924581
      3         11           0       -3.560756   -0.244140    0.010288
      4         11           0       -0.778292   -2.569501   -0.303567
      5         11           0        3.275349   -1.321591   -0.116101
      6         11           0        2.126431    2.254541    0.191500
      7         11           0       -1.435480    2.302232    0.017649
 ---------------------------------------------------------------------

 SCF Done:  E(UB3LYP) =  -1136.13086611     A.U. after   21 cycles

 The electronic state is 2-A.
 Alpha  occ. eigenvalues --  -38.44987 -38.44878 -38.43674 -38.43497 -38.43309
 Alpha  occ. eigenvalues --  -38.43265 -38.43045  -2.20747  -2.20665  -2.19496
 Alpha  occ. eigenvalues --   -2.19390  -2.19217  -2.19184  -2.18917  -1.14424
 Alpha  occ. eigenvalues --   -1.14401  -1.14385  -1.14342  -1.14329  -1.14299
 Alpha  occ. eigenvalues --   -1.13179  -1.13164  -1.13130  -1.13115  -1.13036
 Alpha  occ. eigenvalues --   -1.12990  -1.12940  -1.12899  -1.12846  -1.12835
 Alpha  occ. eigenvalues --   -1.12808  -1.12776  -1.12603  -1.12579  -1.12542
 Alpha  occ. eigenvalues --   -0.18404  -0.13149  -0.12091  -0.10449
 Alpha virt. eigenvalues --   -0.06635  -0.05308  -0.04080  -0.03164  -0.02749
 Alpha virt. eigenvalues --   -0.02389  -0.02255  -0.01296  -0.00488  -0.00150
 Alpha virt. eigenvalues --   -0.00083   0.00265   0.00698   0.00732   0.00802

  Beta  occ. eigenvalues --  -38.44987 -38.44880 -38.43670 -38.43414 -38.43296
  Beta  occ. eigenvalues --  -38.43192 -38.43039  -2.20749  -2.20671  -2.19491
  Beta  occ. eigenvalues --   -2.19237  -2.19164  -2.19083  -2.18909  -1.14407
  Beta  occ. eigenvalues --   -1.14405  -1.14388  -1.14347  -1.14320  -1.14304
  Beta  occ. eigenvalues --   -1.13172  -1.13143  -1.13130  -1.13027  -1.12931
  Beta  occ. eigenvalues --   -1.12883  -1.12882  -1.12812  -1.12796  -1.12771
  Beta  occ. eigenvalues --   -1.12746  -1.12727  -1.12591  -1.12548  -1.12541
  Beta  occ. eigenvalues --   -0.17674  -0.12982  -0.11842
  Beta virt. eigenvalues --   -0.06581  -0.06551  -0.05313  -0.04043  -0.02459
  Beta virt. eigenvalues --   -0.02226  -0.01960  -0.01296  -0.01239  -0.00525
  Beta virt. eigenvalues --   -0.00180   0.00078   0.00284   0.00740   0.00816

 Mulliken charges and spin densities:
               1          2
     1  Na  -0.178309   0.645152
     2  Na  -0.493419   0.750851
     3  Na   0.054647  -0.030267
     4  Na   0.293544  -0.137885
     5  Na   0.167680  -0.122631
     6  Na   0.035655  -0.054497
     7  Na   0.120201  -0.050723
 Sum of Mulliken charges =  -0.00000   1.00000

 Dipole moment (field-independent basis, Debye):
    X=              0.2454    Y=             -0.2982    Z=              0.0827  Tot=              0.3950
 Quadrupole moment (field-independent basis, Debye-Ang):
   XX=            -47.8579   YY=            -67.5184   ZZ=            -75.8908
   XY=             -0.0861   XZ=              0.1250   YZ=              1.6222

 Normal termination of Gaussian 16 at Fri Dec  8 00:21:10 2023.
