 Gaussian 16, Revision B.01,
 Gaussian 16:  ES64L-G16RevB.01 20-Dec-2017

 -------------------------
 #P B3LYP/6-311+g(d) force
 -------------------------

 -----
 DPGEN
 -----
 Symbolic Z-matrix:
 Charge =  0 Multiplicity = 2

                         Standard orientation:
 ---------------------------------------------------------------------
 Center     Atomic      Atomic             Coordinates (Angstroms)
 Number     Number       Type             X           Y           Z
 ---------------------------------------------------------------------
      1         11           0        3.647316   -0.228815    0.602064
      2         11           0       -2.247621   -2.675679    0.253226
      3         11           0       -1.851890    3.007726    0.368372
      4         11           0       -1.785837    0.003526   -0.969638
      5         11           0       -0.370781    0.091460    1.372366
      6         11           0        1.470099    1.981224   -0.951619
      7         11           0        1.138715   -2.179442   -0.674771
 ---------------------------------------------------------------------

 SCF Done:  E(UB3LYP) =  -1136.12450997     A.U. after   25 cycles

 The electronic state is 2-A.
 Alpha  occ. eigenvalues --  -38.44075 -38.44042 -38.43906 -38.43855 -38.43844
 Alpha  occ. eigenvalues --  -38.43435 -38.43261  -2.19947  -2.19895  -2.19714
 Alpha  occ. eigenvalues --   -2.19690  -2.19680  -2.19484  -2.19280  -1.13693
 Alpha  occ. eigenvalues --   -1.13612  -1.13587  -1.13578  -1.13571  -1.13500
 Alpha  occ. eigenvalues --   -1.13467  -1.13393  -1.13372  -1.13370  -1.13368
 Alpha  occ. eigenvalues --   -1.13352  -1.13348  -1.13345  -1.13323  -1.13272
 Alpha  occ. eigenvalues --   -1.13106  -1.13040  -1.12917  -1.12856  -1.12842
 Alpha  occ. eigenvalues --   -0.18606  -0.13214  -0.12967  -0.09549
 Alpha virt. eigenvalues --   -0.05845  -0.05691  -0.05044  -0.02956  -0.02721
 Alpha virt. eigenvalues --   -0.01814  -0.01707  -0.01407  -0.00598  -0.00485
 Alpha virt. eigenvalues --    0.00148   0.00323   0.00695   0.00796   0.00804

  Beta  occ. eigenvalues --  -38.44073 -38.44027 -38.43898 -38.43850 -38.43812
  Beta  occ. eigenvalues --  -38.43405 -38.43201  -2.19946  -2.19872  -2.19699
  Beta  occ. eigenvalues --   -2.19684  -2.19624  -2.19432  -2.19173  -1.13691
  Beta  occ. eigenvalues --   -1.13602  -1.13577  -1.13561  -1.13526  -1.13488
  Beta  occ. eigenvalues --   -1.13420  -1.13380  -1.13367  -1.13351  -1.13343
  Beta  occ. eigenvalues --   -1.13333  -1.13323  -1.13309  -1.13292  -1.13239
  Beta  occ. eigenvalues --   -1.13042  -1.13007  -1.12832  -1.12783  -1.12766
  Beta  occ. eigenvalues --   -0.17924  -0.13003  -0.12725
  Beta virt. eigenvalues --   -0.05887  -0.05752  -0.05552  -0.04945  -0.02352
  Beta virt. eigenvalues --   -0.02076  -0.01759  -0.01601  -0.00793  -0.00536
  Beta virt. eigenvalues --   -0.00267   0.00268   0.00412   0.00710   0.00810

 Mulliken charges and spin densities:
               1          2
     1  Na   0.250282   0.019789
     2  Na   0.679601  -0.018052
     3  Na   0.494602  -0.031716
     4  Na  -0.015123   0.456039
     5  Na  -0.888376   0.431898
     6  Na  -0.303451   0.108708
     7  Na  -0.217536   0.033333
 Sum of Mulliken charges =  -0.00000   1.00000

 Dipole moment (field-independent basis, Debye):
    X=              0.0057    Y=             -0.1110    Z=             -0.0491  Tot=              0.1215
 Quadrupole moment (field-independent basis, Debye-Ang):
   XX=            -55.8866   YY=            -55.6530   ZZ=            -77.8976
   XY=              0.6852   XZ=              0.1999   YZ=              0.0145

 Normal termination of Gaussian 16 at Tue Dec  5 10:15:10 2023.
