 Gaussian 16, Revision B.01,
 Gaussian 16:  ES64L-G16RevB.01 20-Dec-2017

 -------------------------
 #P B3LYP/6-311+g(d) force
 -------------------------

 -----
 DPGEN
 -----
 Symbolic Z-matrix:
 Charge =  0 Multiplicity = 2

                         Standard orientation:
 ---------------------------------------------------------------------
 Center     Atomic      Atomic             Coordinates (Angstroms)
 Number     Number       Type             X           Y           Z
 ---------------------------------------------------------------------
      1         11           0        1.577074   -2.646767   -0.534925
      2         11           0        0.029863    0.554784   -1.599477
      3         11           0        2.821360   -0.299608    0.448609
      4         11           0        1.408515    3.024695   -0.233677
      5         11           0       -2.645101    1.594503    0.432862
      6         11           0       -2.977316   -1.622408   -0.513413
      7         11           0       -0.214396   -0.605199    2.000021
 ---------------------------------------------------------------------

 SCF Done:  E(UB3LYP) =  -1136.12872367     A.U. after   20 cycles

 The electronic state is 2-A.
 Alpha  occ. eigenvalues --  -38.44486 -38.44373 -38.43948 -38.43749 -38.43724
 Alpha  occ. eigenvalues --  -38.43249 -38.43214  -2.20304  -2.20164  -2.19876
 Alpha  occ. eigenvalues --   -2.19616  -2.19599  -2.19178  -2.19032  -1.13981
 Alpha  occ. eigenvalues --   -1.13977  -1.13939  -1.13829  -1.13816  -1.13797
 Alpha  occ. eigenvalues --   -1.13712  -1.13540  -1.13492  -1.13288  -1.13256
 Alpha  occ. eigenvalues --   -1.13233  -1.13229  -1.13216  -1.13204  -1.12884
 Alpha  occ. eigenvalues --   -1.12847  -1.12816  -1.12687  -1.12675  -1.12663
 Alpha  occ. eigenvalues --   -0.18277  -0.13461  -0.12025  -0.10615
 Alpha virt. eigenvalues --   -0.05741  -0.05639  -0.04584  -0.03558  -0.02764
 Alpha virt. eigenvalues --   -0.02366  -0.01646  -0.01332  -0.00456  -0.00438
 Alpha virt. eigenvalues --   -0.00015   0.00349   0.00730   0.00756   0.00866

  Beta  occ. eigenvalues --  -38.44479 -38.44363 -38.43939 -38.43714 -38.43664
  Beta  occ. eigenvalues --  -38.43215 -38.43198  -2.20292  -2.20148  -2.19863
  Beta  occ. eigenvalues --   -2.19583  -2.19459  -2.19085  -2.19035  -1.13973
  Beta  occ. eigenvalues --   -1.13949  -1.13934  -1.13810  -1.13801  -1.13786
  Beta  occ. eigenvalues --   -1.13707  -1.13518  -1.13470  -1.13215  -1.13213
  Beta  occ. eigenvalues --   -1.13186  -1.13182  -1.13137  -1.13112  -1.12826
  Beta  occ. eigenvalues --   -1.12789  -1.12750  -1.12681  -1.12672  -1.12644
  Beta  occ. eigenvalues --   -0.17566  -0.13261  -0.11851
  Beta virt. eigenvalues --   -0.06782  -0.05645  -0.05501  -0.04501  -0.02819
  Beta virt. eigenvalues --   -0.02143  -0.01569  -0.01435  -0.01210  -0.00456
  Beta virt. eigenvalues --   -0.00370   0.00127   0.00388   0.00772   0.00813

 Mulliken charges and spin densities:
               1          2
     1  Na  -0.155873  -0.024439
     2  Na  -0.133392   0.483739
     3  Na   0.370511   0.123011
     4  Na   0.089640  -0.062907
     5  Na   0.101741  -0.003127
     6  Na  -0.076716  -0.018339
     7  Na  -0.195911   0.502062
 Sum of Mulliken charges =  -0.00000   1.00000

 Dipole moment (field-independent basis, Debye):
    X=             -0.7055    Y=             -0.1302    Z=              0.1599  Tot=              0.7350
 Quadrupole moment (field-independent basis, Debye-Ang):
   XX=            -57.3606   YY=            -62.3114   ZZ=            -74.6954
   XY=              0.3281   XZ=              0.8975   YZ=              3.4509

 Normal termination of Gaussian 16 at Tue Dec  5 23:35:00 2023.
