 Gaussian 16, Revision B.01,
 Gaussian 16:  ES64L-G16RevB.01 20-Dec-2017

 -------------------------
 #P B3LYP/6-311+g(d) force
 -------------------------

 -----
 DPGEN
 -----
 Symbolic Z-matrix:
 Charge =  0 Multiplicity = 2

                         Standard orientation:
 ---------------------------------------------------------------------
 Center     Atomic      Atomic             Coordinates (Angstroms)
 Number     Number       Type             X           Y           Z
 ---------------------------------------------------------------------
      1         11           0       -0.070008   -0.180301   -1.600549
      2         11           0        2.104006    2.918923   -0.518715
      3         11           0       -0.934836    1.730770    1.498589
      4         11           0        1.490187   -0.512740    1.454656
      5         11           0       -3.422348    0.292454   -1.118124
      6         11           0       -2.045380   -1.921179    0.900110
      7         11           0        2.878379   -2.327926   -0.615967
 ---------------------------------------------------------------------

 SCF Done:  E(UB3LYP) =  -1136.12718742     A.U. after   21 cycles

 The electronic state is 2-A.
 Alpha  occ. eigenvalues --  -38.44489 -38.44218 -38.43946 -38.43945 -38.43644
 Alpha  occ. eigenvalues --  -38.43487 -38.43243  -2.20313  -2.20056  -2.19829
 Alpha  occ. eigenvalues --   -2.19699  -2.19493  -2.19301  -2.19172  -1.13984
 Alpha  occ. eigenvalues --   -1.13972  -1.13958  -1.13725  -1.13702  -1.13684
 Alpha  occ. eigenvalues --   -1.13537  -1.13461  -1.13447  -1.13373  -1.13363
 Alpha  occ. eigenvalues --   -1.13321  -1.13211  -1.13151  -1.13083  -1.13038
 Alpha  occ. eigenvalues --   -1.12947  -1.12940  -1.12864  -1.12803  -1.12762
 Alpha  occ. eigenvalues --   -0.18094  -0.13175  -0.11532  -0.11080
 Alpha virt. eigenvalues --   -0.05897  -0.05738  -0.04387  -0.03167  -0.02790
 Alpha virt. eigenvalues --   -0.02545  -0.01820  -0.01481  -0.00796   0.00051
 Alpha virt. eigenvalues --    0.00099   0.00293   0.00382   0.00596   0.00704

  Beta  occ. eigenvalues --  -38.44467 -38.44193 -38.43938 -38.43893 -38.43604
  Beta  occ. eigenvalues --  -38.43486 -38.43208  -2.20275  -2.20010  -2.19733
  Beta  occ. eigenvalues --   -2.19684  -2.19422  -2.19298  -2.19112  -1.13962
  Beta  occ. eigenvalues --   -1.13937  -1.13919  -1.13680  -1.13671  -1.13655
  Beta  occ. eigenvalues --   -1.13466  -1.13395  -1.13374  -1.13359  -1.13349
  Beta  occ. eigenvalues --   -1.13313  -1.13153  -1.13095  -1.13031  -1.13029
  Beta  occ. eigenvalues --   -1.12939  -1.12937  -1.12827  -1.12741  -1.12725
  Beta  occ. eigenvalues --   -0.17315  -0.12986  -0.11398
  Beta virt. eigenvalues --   -0.07223  -0.05693  -0.05543  -0.03996  -0.02873
  Beta virt. eigenvalues --   -0.02340  -0.01852  -0.01512  -0.01319  -0.00485
  Beta virt. eigenvalues --    0.00082   0.00196   0.00336   0.00453   0.00714

 Mulliken charges and spin densities:
               1          2
     1  Na  -0.415257   0.518841
     2  Na  -0.125927  -0.016604
     3  Na  -0.056525   0.240339
     4  Na   0.295524   0.062019
     5  Na   0.313100   0.001388
     6  Na  -0.035060   0.179720
     7  Na   0.024144   0.014297
 Sum of Mulliken charges =  -0.00000   1.00000

 Dipole moment (field-independent basis, Debye):
    X=             -0.6941    Y=              0.0097    Z=             -0.1841  Tot=              0.7181
 Quadrupole moment (field-independent basis, Debye-Ang):
   XX=            -56.0567   YY=            -67.3846   ZZ=            -69.8449
   XY=              0.4563   XZ=             -1.8901   YZ=             -1.6556

 Normal termination of Gaussian 16 at Wed Nov 29 17:24:36 2023.
