 Gaussian 16, Revision B.01,
 Gaussian 16:  ES64L-G16RevB.01 20-Dec-2017

 -------------------------
 #P B3LYP/6-311+g(d) force
 -------------------------

 -----
 DPGEN
 -----
 Symbolic Z-matrix:
 Charge =  0 Multiplicity = 2

                         Standard orientation:
 ---------------------------------------------------------------------
 Center     Atomic      Atomic             Coordinates (Angstroms)
 Number     Number       Type             X           Y           Z
 ---------------------------------------------------------------------
      1         11           0       -0.974333    3.008380   -0.547446
      2         11           0       -3.412843   -1.045535   -1.107368
      3         11           0        0.203125    0.002463   -1.354948
      4         11           0        3.605820   -0.350641   -1.173002
      5         11           0        0.443021   -2.590013    0.606983
      6         11           0       -1.665588   -0.005134    1.879761
      7         11           0        1.800799    0.980480    1.696021
 ---------------------------------------------------------------------

 SCF Done:  E(UB3LYP) =  -1136.12571200     A.U. after   21 cycles

 The electronic state is 2-A.
 Alpha  occ. eigenvalues --  -38.44723 -38.44414 -38.44216 -38.44014 -38.43752
 Alpha  occ. eigenvalues --  -38.43295 -38.42944  -2.20485  -2.20205  -2.20041
 Alpha  occ. eigenvalues --   -2.19867  -2.19562  -2.19249  -2.18732  -1.14163
 Alpha  occ. eigenvalues --   -1.14129  -1.14109  -1.13882  -1.13854  -1.13827
 Alpha  occ. eigenvalues --   -1.13730  -1.13690  -1.13656  -1.13558  -1.13511
 Alpha  occ. eigenvalues --   -1.13481  -1.13281  -1.13234  -1.13160  -1.12955
 Alpha  occ. eigenvalues --   -1.12903  -1.12864  -1.12423  -1.12377  -1.12366
 Alpha  occ. eigenvalues --   -0.17953  -0.12895  -0.11388  -0.11208
 Alpha virt. eigenvalues --   -0.06391  -0.05098  -0.04405  -0.03098  -0.02888
 Alpha virt. eigenvalues --   -0.02544  -0.02096  -0.01204  -0.00807  -0.00030
 Alpha virt. eigenvalues --    0.00055   0.00250   0.00276   0.00549   0.00809

  Beta  occ. eigenvalues --  -38.44697 -38.44389 -38.44176 -38.43966 -38.43740
  Beta  occ. eigenvalues --  -38.43257 -38.42940  -2.20437  -2.20160  -2.19970
  Beta  occ. eigenvalues --   -2.19782  -2.19543  -2.19181  -2.18728  -1.14126
  Beta  occ. eigenvalues --   -1.14094  -1.14078  -1.13842  -1.13825  -1.13800
  Beta  occ. eigenvalues --   -1.13677  -1.13624  -1.13610  -1.13497  -1.13435
  Beta  occ. eigenvalues --   -1.13422  -1.13271  -1.13195  -1.13152  -1.12898
  Beta  occ. eigenvalues --   -1.12858  -1.12812  -1.12413  -1.12376  -1.12360
  Beta  occ. eigenvalues --   -0.17206  -0.12618  -0.11047
  Beta virt. eigenvalues --   -0.07582  -0.06199  -0.04647  -0.04232  -0.02935
  Beta virt. eigenvalues --   -0.02212  -0.01910  -0.01811  -0.00890  -0.00652
  Beta virt. eigenvalues --    0.00075   0.00133   0.00271   0.00351   0.00652

 Mulliken charges and spin densities:
               1          2
     1  Na  -0.150596   0.078326
     2  Na   0.105016   0.084220
     3  Na  -0.355546   0.288414
     4  Na   0.186026   0.039342
     5  Na  -0.109705   0.038590
     6  Na   0.237440   0.269116
     7  Na   0.087364   0.201993
 Sum of Mulliken charges =  -0.00000   1.00000

 Dipole moment (field-independent basis, Debye):
    X=              0.1490    Y=             -0.3403    Z=              0.1239  Tot=              0.3916
 Quadrupole moment (field-independent basis, Debye-Ang):
   XX=            -52.7676   YY=            -72.2904   ZZ=            -66.5843
   XY=              0.3077   XZ=              0.9156   YZ=              0.6035

 Normal termination of Gaussian 16 at Tue Dec  5 18:02:41 2023.
