 Gaussian 16, Revision B.01,
 Gaussian 16:  ES64L-G16RevB.01 20-Dec-2017

 -------------------------
 #P B3LYP/6-311+g(d) force
 -------------------------

 -----
 DPGEN
 -----
 Symbolic Z-matrix:
 Charge =  0 Multiplicity = 2

                         Standard orientation:
 ---------------------------------------------------------------------
 Center     Atomic      Atomic             Coordinates (Angstroms)
 Number     Number       Type             X           Y           Z
 ---------------------------------------------------------------------
      1         11           0        0.048481    0.061097    2.059188
      2         11           0       -2.665339    1.236221   -0.153789
      3         11           0        0.299137    2.835511   -0.276068
      4         11           0        2.774382    0.708754    0.045297
      5         11           0       -2.519567   -2.073800    0.098279
      6         11           0        0.028975   -0.439823   -1.646305
      7         11           0        2.033931   -2.327960   -0.126602
 ---------------------------------------------------------------------

 SCF Done:  E(UB3LYP) =  -1136.13653008     A.U. after   19 cycles

 The electronic state is 2-A.
 Alpha  occ. eigenvalues --  -38.43951 -38.43860 -38.43777 -38.43704 -38.43687
 Alpha  occ. eigenvalues --  -38.43241 -38.42851  -2.19766  -2.19727  -2.19698
 Alpha  occ. eigenvalues --   -2.19580  -2.19574  -2.19215  -2.18731  -1.13460
 Alpha  occ. eigenvalues --   -1.13432  -1.13419  -1.13416  -1.13401  -1.13390
 Alpha  occ. eigenvalues --   -1.13371  -1.13361  -1.13338  -1.13272  -1.13242
 Alpha  occ. eigenvalues --   -1.13215  -1.13196  -1.13192  -1.13191  -1.12893
 Alpha  occ. eigenvalues --   -1.12849  -1.12834  -1.12401  -1.12389  -1.12380
 Alpha  occ. eigenvalues --   -0.18855  -0.13404  -0.12277  -0.10833
 Alpha virt. eigenvalues --   -0.05586  -0.05422  -0.04436  -0.03389  -0.02801
 Alpha virt. eigenvalues --   -0.02582  -0.01486  -0.01150  -0.00402  -0.00137
 Alpha virt. eigenvalues --   -0.00012   0.00364   0.00781   0.00858   0.00914

  Beta  occ. eigenvalues --  -38.43951 -38.43855 -38.43770 -38.43699 -38.43591
  Beta  occ. eigenvalues --  -38.43177 -38.42844  -2.19767  -2.19720  -2.19688
  Beta  occ. eigenvalues --   -2.19572  -2.19400  -2.19100  -2.18722  -1.13462
  Beta  occ. eigenvalues --   -1.13421  -1.13417  -1.13412  -1.13394  -1.13368
  Beta  occ. eigenvalues --   -1.13367  -1.13339  -1.13316  -1.13258  -1.13192
  Beta  occ. eigenvalues --   -1.13191  -1.13125  -1.13074  -1.13066  -1.12816
  Beta  occ. eigenvalues --   -1.12764  -1.12750  -1.12397  -1.12386  -1.12349
  Beta  occ. eigenvalues --   -0.18107  -0.13172  -0.12048
  Beta virt. eigenvalues --   -0.06895  -0.05579  -0.05355  -0.04417  -0.02562
  Beta virt. eigenvalues --   -0.02049  -0.01533  -0.01387  -0.01066  -0.00461
  Beta virt. eigenvalues --   -0.00175   0.00137   0.00389   0.00845   0.00863

 Mulliken charges and spin densities:
               1          2
     1  Na  -0.505489   0.644561
     2  Na   0.101806   0.002359
     3  Na  -0.025049   0.007607
     4  Na   0.321844   0.127965
     5  Na   0.077457  -0.081781
     6  Na  -0.242142   0.366233
     7  Na   0.271573  -0.066944
 Sum of Mulliken charges =  -0.00000   1.00000

 Dipole moment (field-independent basis, Debye):
    X=             -0.1922    Y=             -0.3605    Z=              0.1766  Tot=              0.4451
 Quadrupole moment (field-independent basis, Debye-Ang):
   XX=            -57.3083   YY=            -62.9192   ZZ=            -74.0233
   XY=              0.1194   XZ=             -0.0039   YZ=             -1.1432

 Normal termination of Gaussian 16 at Fri Dec  8 03:01:36 2023.
