 Gaussian 16, Revision B.01,
 Gaussian 16:  ES64L-G16RevB.01 20-Dec-2017

 -------------------------
 #P B3LYP/6-311+g(d) force
 -------------------------

 -----
 DPGEN
 -----
 Symbolic Z-matrix:
 Charge =  0 Multiplicity = 2

                         Standard orientation:
 ---------------------------------------------------------------------
 Center     Atomic      Atomic             Coordinates (Angstroms)
 Number     Number       Type             X           Y           Z
 ---------------------------------------------------------------------
      1         11           0        1.116900    0.252353    1.398996
      2         11           0       -2.155382   -1.716443    1.863359
      3         11           0       -1.366274   -1.463244   -1.664470
      4         11           0        2.285000   -1.876703   -0.919415
      5         11           0        4.029142    0.802212    0.121631
      6         11           0       -3.276848    0.905072   -0.485681
      7         11           0       -0.632538    3.096752   -0.314420
 ---------------------------------------------------------------------

 SCF Done:  E(UB3LYP) =  -1136.11958632     A.U. after   22 cycles

 The electronic state is 2-A.
 Alpha  occ. eigenvalues --  -38.45413 -38.44376 -38.44207 -38.44186 -38.44038
 Alpha  occ. eigenvalues --  -38.43721 -38.43270  -2.21222  -2.20208  -2.20073
 Alpha  occ. eigenvalues --   -2.20017  -2.19854  -2.19550  -2.19034  -1.14897
 Alpha  occ. eigenvalues --   -1.14873  -1.14861  -1.13905  -1.13860  -1.13831
 Alpha  occ. eigenvalues --   -1.13780  -1.13728  -1.13712  -1.13684  -1.13671
 Alpha  occ. eigenvalues --   -1.13627  -1.13504  -1.13501  -1.13470  -1.13220
 Alpha  occ. eigenvalues --   -1.13201  -1.13185  -1.12711  -1.12707  -1.12679
 Alpha  occ. eigenvalues --   -0.17428  -0.14151  -0.11413  -0.10803
 Alpha virt. eigenvalues --   -0.06984  -0.05510  -0.04692  -0.03433  -0.02631
 Alpha virt. eigenvalues --   -0.02485  -0.02344  -0.01359  -0.00775  -0.00488
 Alpha virt. eigenvalues --   -0.00268   0.00166   0.00238   0.00676   0.00723

  Beta  occ. eigenvalues --  -38.45410 -38.44357 -38.44171 -38.44159 -38.43962
  Beta  occ. eigenvalues --  -38.43685 -38.43285  -2.21217  -2.20176  -2.20007
  Beta  occ. eigenvalues --   -2.19968  -2.19713  -2.19485  -2.19062  -1.14887
  Beta  occ. eigenvalues --   -1.14870  -1.14859  -1.13872  -1.13833  -1.13814
  Beta  occ. eigenvalues --   -1.13736  -1.13691  -1.13655  -1.13644  -1.13634
  Beta  occ. eigenvalues --   -1.13588  -1.13408  -1.13399  -1.13378  -1.13177
  Beta  occ. eigenvalues --   -1.13147  -1.13135  -1.12730  -1.12726  -1.12692
  Beta  occ. eigenvalues --   -0.16875  -0.13947  -0.11194
  Beta virt. eigenvalues --   -0.07079  -0.06800  -0.05149  -0.04312  -0.03231
  Beta virt. eigenvalues --   -0.02355  -0.02130  -0.01557  -0.01196  -0.00473
  Beta virt. eigenvalues --   -0.00352  -0.00158   0.00246   0.00366   0.00767

 Mulliken charges and spin densities:
               1          2
     1  Na   0.446030   0.252981
     2  Na  -0.467002   0.227678
     3  Na   0.140482   0.278980
     4  Na  -0.608906   0.114484
     5  Na   0.461323  -0.000440
     6  Na   0.459765   0.244189
     7  Na  -0.431693  -0.117871
 Sum of Mulliken charges =  -0.00000   1.00000

 Dipole moment (field-independent basis, Debye):
    X=              1.3688    Y=             -0.0777    Z=             -0.1368  Tot=              1.3778
 Quadrupole moment (field-independent basis, Debye-Ang):
   XX=            -47.5713   YY=            -73.9458   ZZ=            -73.3194
   XY=              3.6566   XZ=             -1.7153   YZ=             -0.9003

 Normal termination of Gaussian 16 at Tue Nov 28 19:52:48 2023.
