 Gaussian 16, Revision B.01,
 Gaussian 16:  ES64L-G16RevB.01 20-Dec-2017

 -------------------------
 #P B3LYP/6-311+g(d) force
 -------------------------

 -----
 DPGEN
 -----
 Symbolic Z-matrix:
 Charge =  0 Multiplicity = 2

                         Standard orientation:
 ---------------------------------------------------------------------
 Center     Atomic      Atomic             Coordinates (Angstroms)
 Number     Number       Type             X           Y           Z
 ---------------------------------------------------------------------
      1         11           0       -0.201218   -2.710942    0.023672
      2         11           0       -0.339390   -0.060601    1.944937
      3         11           0        0.344821    0.269182   -1.752345
      4         11           0        1.912852    2.458206    0.156312
      5         11           0        2.941987   -1.322849   -0.016879
      6         11           0       -2.907766   -0.799632   -0.343135
      7         11           0       -1.751287    2.166636   -0.012562
 ---------------------------------------------------------------------

 SCF Done:  E(UB3LYP) =  -1136.13864939     A.U. after   19 cycles

 The electronic state is 2-A.
 Alpha  occ. eigenvalues --  -38.44062 -38.43782 -38.43630 -38.43447 -38.43442
 Alpha  occ. eigenvalues --  -38.43245 -38.43144  -2.19869  -2.19601  -2.19516
 Alpha  occ. eigenvalues --   -2.19383  -2.19348  -2.19202  -2.19039  -1.13546
 Alpha  occ. eigenvalues --   -1.13527  -1.13511  -1.13290  -1.13264  -1.13233
 Alpha  occ. eigenvalues --   -1.13218  -1.13184  -1.13168  -1.13085  -1.13052
 Alpha  occ. eigenvalues --   -1.13030  -1.12991  -1.12973  -1.12957  -1.12878
 Alpha  occ. eigenvalues --   -1.12833  -1.12820  -1.12718  -1.12701  -1.12661
 Alpha  occ. eigenvalues --   -0.18886  -0.12985  -0.12593  -0.10794
 Alpha virt. eigenvalues --   -0.05580  -0.05258  -0.04525  -0.03177  -0.02976
 Alpha virt. eigenvalues --   -0.02521  -0.01460  -0.01168  -0.00257  -0.00192
 Alpha virt. eigenvalues --   -0.00011   0.00364   0.00815   0.00873   0.00942

  Beta  occ. eigenvalues --  -38.44062 -38.43780 -38.43621 -38.43432 -38.43358
  Beta  occ. eigenvalues --  -38.43176 -38.43137  -2.19872  -2.19599  -2.19503
  Beta  occ. eigenvalues --   -2.19336  -2.19219  -2.19077  -2.19029  -1.13538
  Beta  occ. eigenvalues --   -1.13523  -1.13516  -1.13283  -1.13250  -1.13235
  Beta  occ. eigenvalues --   -1.13212  -1.13176  -1.13129  -1.13044  -1.12986
  Beta  occ. eigenvalues --   -1.12953  -1.12947  -1.12889  -1.12873  -1.12798
  Beta  occ. eigenvalues --   -1.12751  -1.12726  -1.12704  -1.12664  -1.12658
  Beta  occ. eigenvalues --   -0.18132  -0.12764  -0.12344
  Beta virt. eigenvalues --   -0.06865  -0.05573  -0.05197  -0.04508  -0.02409
  Beta virt. eigenvalues --   -0.02169  -0.01498  -0.01343  -0.01106  -0.00306
  Beta virt. eigenvalues --   -0.00238   0.00127   0.00386   0.00860   0.00872

 Mulliken charges and spin densities:
               1          2
     1  Na   0.204560  -0.037615
     2  Na  -0.432233   0.715196
     3  Na  -0.305645   0.584241
     4  Na   0.043185  -0.138923
     5  Na   0.007045  -0.132210
     6  Na   0.146103   0.027897
     7  Na   0.336984  -0.018587
 Sum of Mulliken charges =  -0.00000   1.00000

 Dipole moment (field-independent basis, Debye):
    X=              0.3419    Y=              0.1091    Z=              0.0658  Tot=              0.3649
 Quadrupole moment (field-independent basis, Debye-Ang):
   XX=            -56.4711   YY=            -63.1894   ZZ=            -73.8529
   XY=              0.4009   XZ=              1.6312   YZ=              0.8665

 Normal termination of Gaussian 16 at Thu Dec  7 13:48:50 2023.
