 Gaussian 16, Revision B.01,
 Gaussian 16:  ES64L-G16RevB.01 20-Dec-2017

 -------------------------
 #P B3LYP/6-311+g(d) force
 -------------------------

 -----
 DPGEN
 -----
 Symbolic Z-matrix:
 Charge =  0 Multiplicity = 2

                         Standard orientation:
 ---------------------------------------------------------------------
 Center     Atomic      Atomic             Coordinates (Angstroms)
 Number     Number       Type             X           Y           Z
 ---------------------------------------------------------------------
      1         11           0       -2.038341   -2.147414    0.036335
      2         11           0       -0.113783    0.329398   -1.700132
      3         11           0       -2.877107    1.169184   -0.041265
      4         11           0        0.198215   -0.393248    2.304040
      5         11           0        1.396516   -2.132107   -0.708159
      6         11           0        3.124399    0.389202    0.092491
      7         11           0        0.310102    2.784986    0.016690
 ---------------------------------------------------------------------

 SCF Done:  E(UB3LYP) =  -1136.13521376     A.U. after   19 cycles

 The electronic state is 2-A.
 Alpha  occ. eigenvalues --  -38.44278 -38.44012 -38.43919 -38.43453 -38.43302
 Alpha  occ. eigenvalues --  -38.43200 -38.43171  -2.20123  -2.19857  -2.19756
 Alpha  occ. eigenvalues --   -2.19469  -2.19151  -2.19128  -2.19036  -1.13774
 Alpha  occ. eigenvalues --   -1.13753  -1.13743  -1.13548  -1.13515  -1.13495
 Alpha  occ. eigenvalues --   -1.13448  -1.13418  -1.13390  -1.13195  -1.13163
 Alpha  occ. eigenvalues --   -1.13075  -1.12825  -1.12817  -1.12809  -1.12802
 Alpha  occ. eigenvalues --   -1.12765  -1.12731  -1.12725  -1.12691  -1.12641
 Alpha  occ. eigenvalues --   -0.18789  -0.13058  -0.12281  -0.11331
 Alpha virt. eigenvalues --   -0.05662  -0.04906  -0.04304  -0.03403  -0.03201
 Alpha virt. eigenvalues --   -0.02963  -0.01496  -0.00884  -0.00154  -0.00107
 Alpha virt. eigenvalues --    0.00026   0.00369   0.00802   0.00912   0.00939

  Beta  occ. eigenvalues --  -38.44176 -38.44010 -38.43918 -38.43390 -38.43300
  Beta  occ. eigenvalues --  -38.43179 -38.43168  -2.19933  -2.19856  -2.19756
  Beta  occ. eigenvalues --   -2.19354  -2.19150  -2.19092  -2.19032  -1.13649
  Beta  occ. eigenvalues --   -1.13621  -1.13606  -1.13548  -1.13498  -1.13491
  Beta  occ. eigenvalues --   -1.13441  -1.13408  -1.13393  -1.13111  -1.13092
  Beta  occ. eigenvalues --   -1.12996  -1.12822  -1.12806  -1.12791  -1.12776
  Beta  occ. eigenvalues --   -1.12730  -1.12711  -1.12705  -1.12674  -1.12640
  Beta  occ. eigenvalues --   -0.18037  -0.12857  -0.12053
  Beta virt. eigenvalues --   -0.07315  -0.05604  -0.04902  -0.04246  -0.02625
  Beta virt. eigenvalues --   -0.02325  -0.01947  -0.01411  -0.00822  -0.00189
  Beta virt. eigenvalues --   -0.00054   0.00102   0.00394   0.00892   0.00904

 Mulliken charges and spin densities:
               1          2
     1  Na   0.139940   0.003527
     2  Na  -0.157239   0.195411
     3  Na   0.104739  -0.031430
     4  Na  -0.744695   0.721724
     5  Na   0.403154   0.074485
     6  Na   0.118724   0.026849
     7  Na   0.135377   0.009434
 Sum of Mulliken charges =  -0.00000   1.00000

 Dipole moment (field-independent basis, Debye):
    X=             -0.0191    Y=              0.1106    Z=              0.4216  Tot=              0.4362
 Quadrupole moment (field-independent basis, Debye-Ang):
   XX=            -57.0431   YY=            -66.9039   ZZ=            -71.1041
   XY=              0.5360   XZ=             -0.2279   YZ=              1.3723

 Normal termination of Gaussian 16 at Thu Dec  7 05:11:15 2023.
