 Gaussian 16, Revision B.01,
 Gaussian 16:  ES64L-G16RevB.01 20-Dec-2017

 -------------------------
 #P B3LYP/6-311+g(d) force
 -------------------------

 -----
 DPGEN
 -----
 Symbolic Z-matrix:
 Charge =  0 Multiplicity = 2

                         Standard orientation:
 ---------------------------------------------------------------------
 Center     Atomic      Atomic             Coordinates (Angstroms)
 Number     Number       Type             X           Y           Z
 ---------------------------------------------------------------------
      1         11           0       -0.750873    0.222711   -0.945011
      2         11           0       -6.068567   -0.238915   -0.920764
      3         11           0       -3.365908    0.050014    0.924898
      4         11           0       -0.403100   -1.560635    1.310134
      5         11           0        2.769835   -0.316756   -0.758387
      6         11           0        1.453506    2.565480    0.617377
      7         11           0        6.365108   -0.721900   -0.228247
 ---------------------------------------------------------------------

 SCF Done:  E(UB3LYP) =  -1136.10413105     A.U. after   26 cycles

 The electronic state is 2-A.
 Alpha  occ. eigenvalues --  -38.45553 -38.45443 -38.44868 -38.43979 -38.43813
 Alpha  occ. eigenvalues --  -38.43685 -38.43634  -2.21383  -2.21370  -2.20772
 Alpha  occ. eigenvalues --   -2.19733  -2.19628  -2.19513  -2.19452  -1.15143
 Alpha  occ. eigenvalues --   -1.15066  -1.15019  -1.15006  -1.14997  -1.14961
 Alpha  occ. eigenvalues --   -1.14425  -1.14396  -1.14379  -1.13392  -1.13390
 Alpha  occ. eigenvalues --   -1.13356  -1.13335  -1.13322  -1.13233  -1.13217
 Alpha  occ. eigenvalues --   -1.13185  -1.13167  -1.13115  -1.13115  -1.13056
 Alpha  occ. eigenvalues --   -0.17980  -0.13853  -0.11489  -0.11247
 Alpha virt. eigenvalues --   -0.07171  -0.06450  -0.04065  -0.03844  -0.02773
 Alpha virt. eigenvalues --   -0.02683  -0.01950  -0.01759  -0.01385  -0.00932
 Alpha virt. eigenvalues --   -0.00653  -0.00128   0.00121   0.00320   0.00350

  Beta  occ. eigenvalues --  -38.45453 -38.45440 -38.44810 -38.43935 -38.43819
  Beta  occ. eigenvalues --  -38.43689 -38.43632  -2.21382  -2.21185  -2.20663
  Beta  occ. eigenvalues --   -2.19651  -2.19643  -2.19509  -2.19458  -1.15122
  Beta  occ. eigenvalues --   -1.15060  -1.14977  -1.14885  -1.14874  -1.14853
  Beta  occ. eigenvalues --   -1.14353  -1.14324  -1.14304  -1.13351  -1.13336
  Beta  occ. eigenvalues --   -1.13334  -1.13314  -1.13301  -1.13234  -1.13216
  Beta  occ. eigenvalues --   -1.13187  -1.13156  -1.13120  -1.13119  -1.13057
  Beta  occ. eigenvalues --   -0.17449  -0.13501  -0.10833
  Beta virt. eigenvalues --   -0.08039  -0.06764  -0.06086  -0.03891  -0.03367
  Beta virt. eigenvalues --   -0.02467  -0.02220  -0.01731  -0.01477  -0.01094
  Beta virt. eigenvalues --   -0.00744  -0.00497   0.00101   0.00290   0.00364

 Mulliken charges and spin densities:
               1          2
     1  Na  -0.232896   0.567522
     2  Na  -0.231057  -0.010426
     3  Na   0.428659  -0.093872
     4  Na   0.325661   0.210867
     5  Na  -0.695940  -0.109737
     6  Na   0.209290   0.362517
     7  Na   0.196282   0.073129
 Sum of Mulliken charges =  -0.00000   1.00000

 Dipole moment (field-independent basis, Debye):
    X=             -0.0863    Y=              0.3681    Z=              0.8526  Tot=              0.9327
 Quadrupole moment (field-independent basis, Debye-Ang):
   XX=            -79.6729   YY=            -70.1724   ZZ=            -63.9831
   XY=              2.5075   XZ=              5.6191   YZ=              1.3634

 Normal termination of Gaussian 16 at Wed Nov 29 03:57:16 2023.
