 Gaussian 16, Revision B.01,
 Gaussian 16:  ES64L-G16RevB.01 20-Dec-2017

 -------------------------
 #P B3LYP/6-311+g(d) force
 -------------------------

 -----
 DPGEN
 -----
 Symbolic Z-matrix:
 Charge =  0 Multiplicity = 2

                         Standard orientation:
 ---------------------------------------------------------------------
 Center     Atomic      Atomic             Coordinates (Angstroms)
 Number     Number       Type             X           Y           Z
 ---------------------------------------------------------------------
      1         11           0       -3.717544   -1.513641    0.399725
      2         11           0       -2.064833    1.566996   -0.915025
      3         11           0       -0.617277    0.451236    2.069023
      4         11           0       -0.121035   -0.830265   -1.341560
      5         11           0        3.199213    0.287808    0.664541
      6         11           0        1.059951    2.679643   -0.472788
      7         11           0        2.261526   -2.641777   -0.403917
 ---------------------------------------------------------------------

 SCF Done:  E(UB3LYP) =  -1136.12553946     A.U. after   22 cycles

 The electronic state is 2-A.
 Alpha  occ. eigenvalues --  -38.44813 -38.44686 -38.44436 -38.43755 -38.43563
 Alpha  occ. eigenvalues --  -38.43307 -38.43003  -2.20564  -2.20508  -2.20264
 Alpha  occ. eigenvalues --   -2.19667  -2.19490  -2.19152  -2.18854  -1.14238
 Alpha  occ. eigenvalues --   -1.14228  -1.14192  -1.14185  -1.14165  -1.14097
 Alpha  occ. eigenvalues --   -1.13943  -1.13919  -1.13904  -1.13423  -1.13324
 Alpha  occ. eigenvalues --   -1.13260  -1.13177  -1.13152  -1.13097  -1.12817
 Alpha  occ. eigenvalues --   -1.12795  -1.12792  -1.12530  -1.12515  -1.12502
 Alpha  occ. eigenvalues --   -0.18132  -0.13502  -0.11861  -0.10810
 Alpha virt. eigenvalues --   -0.06637  -0.05245  -0.04543  -0.03243  -0.02714
 Alpha virt. eigenvalues --   -0.02544  -0.02220  -0.01258  -0.00566  -0.00258
 Alpha virt. eigenvalues --   -0.00097   0.00211   0.00414   0.00705   0.00730

  Beta  occ. eigenvalues --  -38.44804 -38.44614 -38.44423 -38.43721 -38.43511
  Beta  occ. eigenvalues --  -38.43302 -38.42999  -2.20548  -2.20372  -2.20241
  Beta  occ. eigenvalues --   -2.19609  -2.19396  -2.19145  -2.18850  -1.14228
  Beta  occ. eigenvalues --   -1.14208  -1.14178  -1.14098  -1.14073  -1.13995
  Beta  occ. eigenvalues --   -1.13927  -1.13904  -1.13882  -1.13370  -1.13277
  Beta  occ. eigenvalues --   -1.13212  -1.13103  -1.13089  -1.13036  -1.12801
  Beta  occ. eigenvalues --   -1.12793  -1.12784  -1.12531  -1.12509  -1.12475
  Beta  occ. eigenvalues --   -0.17448  -0.13296  -0.11606
  Beta virt. eigenvalues --   -0.07132  -0.06310  -0.05165  -0.04255  -0.02807
  Beta virt. eigenvalues --   -0.02249  -0.01939  -0.01637  -0.01136  -0.00509
  Beta virt. eigenvalues --   -0.00151   0.00018   0.00246   0.00568   0.00752

 Mulliken charges and spin densities:
               1          2
     1  Na   0.022373   0.092981
     2  Na   0.796588   0.126105
     3  Na  -0.435102   0.555968
     4  Na  -0.648478   0.252289
     5  Na   0.008294   0.093044
     6  Na   0.015106  -0.048303
     7  Na   0.241220  -0.072083
 Sum of Mulliken charges =  -0.00000   1.00000

 Dipole moment (field-independent basis, Debye):
    X=             -0.5093    Y=             -0.0754    Z=              0.4132  Tot=              0.6602
 Quadrupole moment (field-independent basis, Debye-Ang):
   XX=            -53.6191   YY=            -67.3443   ZZ=            -73.1889
   XY=              2.4432   XZ=              1.5101   YZ=             -1.8873

 Normal termination of Gaussian 16 at Thu Dec  7 13:05:37 2023.
