 Gaussian 16, Revision B.01,
 Gaussian 16:  ES64L-G16RevB.01 20-Dec-2017

 -------------------------
 #P B3LYP/6-311+g(d) force
 -------------------------

 -----
 DPGEN
 -----
 Symbolic Z-matrix:
 Charge =  0 Multiplicity = 2

                         Standard orientation:
 ---------------------------------------------------------------------
 Center     Atomic      Atomic             Coordinates (Angstroms)
 Number     Number       Type             X           Y           Z
 ---------------------------------------------------------------------
      1         11           0        1.678750   -1.694934   -1.436062
      2         11           0       -3.757413    1.761249    0.511052
      3         11           0       -0.257190    1.266817   -0.403183
      4         11           0        3.046815    1.712337   -0.974750
      5         11           0       -2.659554   -1.357947   -1.308441
      6         11           0        2.467516    0.028301    1.872253
      7         11           0       -0.518924   -1.715823    1.739131
 ---------------------------------------------------------------------

 SCF Done:  E(UB3LYP) =  -1136.12510639     A.U. after   25 cycles

 The electronic state is 2-A.
 Alpha  occ. eigenvalues --  -38.44959 -38.44438 -38.44273 -38.44103 -38.43796
 Alpha  occ. eigenvalues --  -38.43409 -38.43098  -2.20736  -2.20250  -2.20135
 Alpha  occ. eigenvalues --   -2.19867  -2.19658  -2.19254  -2.18926  -1.14427
 Alpha  occ. eigenvalues --   -1.14392  -1.14345  -1.13933  -1.13897  -1.13860
 Alpha  occ. eigenvalues --   -1.13812  -1.13775  -1.13754  -1.13539  -1.13532
 Alpha  occ. eigenvalues --   -1.13493  -1.13382  -1.13339  -1.13265  -1.12922
 Alpha  occ. eigenvalues --   -1.12907  -1.12896  -1.12620  -1.12567  -1.12560
 Alpha  occ. eigenvalues --   -0.17869  -0.13664  -0.11294  -0.10946
 Alpha virt. eigenvalues --   -0.06152  -0.06007  -0.04693  -0.03144  -0.02752
 Alpha virt. eigenvalues --   -0.02343  -0.02231  -0.01344  -0.00807  -0.00444
 Alpha virt. eigenvalues --    0.00041   0.00163   0.00240   0.00365   0.00618

  Beta  occ. eigenvalues --  -38.44940 -38.44382 -38.44215 -38.44095 -38.43785
  Beta  occ. eigenvalues --  -38.43402 -38.43074  -2.20701  -2.20148  -2.20029
  Beta  occ. eigenvalues --   -2.19852  -2.19642  -2.19242  -2.18885  -1.14399
  Beta  occ. eigenvalues --   -1.14372  -1.14316  -1.13858  -1.13825  -1.13786
  Beta  occ. eigenvalues --   -1.13733  -1.13709  -1.13672  -1.13526  -1.13522
  Beta  occ. eigenvalues --   -1.13484  -1.13344  -1.13327  -1.13258  -1.12912
  Beta  occ. eigenvalues --   -1.12898  -1.12880  -1.12590  -1.12542  -1.12512
  Beta  occ. eigenvalues --   -0.17197  -0.13493  -0.10843
  Beta virt. eigenvalues --   -0.07407  -0.05966  -0.05655  -0.04329  -0.02837
  Beta virt. eigenvalues --   -0.02286  -0.02128  -0.01677  -0.01038  -0.00450
  Beta virt. eigenvalues --   -0.00318   0.00124   0.00215   0.00330   0.00466

 Mulliken charges and spin densities:
               1          2
     1  Na  -0.110944   0.375978
     2  Na   0.553169  -0.052092
     3  Na  -2.043091   0.345845
     4  Na   1.065683   0.040344
     5  Na   0.450236   0.053131
     6  Na   0.117551   0.087981
     7  Na  -0.032604   0.148814
 Sum of Mulliken charges =  -0.00000   1.00000

 Dipole moment (field-independent basis, Debye):
    X=             -0.1650    Y=             -0.5993    Z=             -0.1836  Tot=              0.6482
 Quadrupole moment (field-independent basis, Debye-Ang):
   XX=            -52.8547   YY=            -73.5224   ZZ=            -68.0577
   XY=              1.9461   XZ=             -0.3154   YZ=              4.0116

 Normal termination of Gaussian 16 at Thu Dec  7 21:08:39 2023.
