 Gaussian 16, Revision B.01,
 Gaussian 16:  ES64L-G16RevB.01 20-Dec-2017

 -------------------------
 #P B3LYP/6-311+g(d) force
 -------------------------

 -----
 DPGEN
 -----
 Symbolic Z-matrix:
 Charge =  0 Multiplicity = 2

                         Standard orientation:
 ---------------------------------------------------------------------
 Center     Atomic      Atomic             Coordinates (Angstroms)
 Number     Number       Type             X           Y           Z
 ---------------------------------------------------------------------
      1         11           0        2.059929   -0.231581    2.045020
      2         11           0       -0.873813   -0.287389   -1.630303
      3         11           0       -0.790514    1.985954    0.186829
      4         11           0       -3.937966    0.403000    0.282220
      5         11           0        2.694922    1.689171   -0.542156
      6         11           0        2.076742   -1.677115   -1.009359
      7         11           0       -1.229300   -1.882039    0.667749
 ---------------------------------------------------------------------

 SCF Done:  E(UB3LYP) =  -1136.12138556     A.U. after   22 cycles

 The electronic state is 2-A.
 Alpha  occ. eigenvalues --  -38.45268 -38.44100 -38.43872 -38.43707 -38.43498
 Alpha  occ. eigenvalues --  -38.43403 -38.43367  -2.21067  -2.19966  -2.19906
 Alpha  occ. eigenvalues --   -2.19551  -2.19379  -2.19288  -2.19272  -1.14741
 Alpha  occ. eigenvalues --   -1.14721  -1.14690  -1.13708  -1.13630  -1.13628
 Alpha  occ. eigenvalues --   -1.13613  -1.13581  -1.13479  -1.13221  -1.13214
 Alpha  occ. eigenvalues --   -1.13196  -1.13056  -1.13034  -1.13014  -1.13001
 Alpha  occ. eigenvalues --   -1.12972  -1.12951  -1.12924  -1.12852  -1.12840
 Alpha  occ. eigenvalues --   -0.18710  -0.14145  -0.11273  -0.10979
 Alpha virt. eigenvalues --   -0.06763  -0.05058  -0.04446  -0.03140  -0.02722
 Alpha virt. eigenvalues --   -0.02465  -0.02318  -0.00980  -0.00487  -0.00093
 Alpha virt. eigenvalues --    0.00181   0.00256   0.00391   0.00754   0.00853

  Beta  occ. eigenvalues --  -38.45261 -38.44023 -38.43813 -38.43703 -38.43478
  Beta  occ. eigenvalues --  -38.43393 -38.43356  -2.21054  -2.19822  -2.19800
  Beta  occ. eigenvalues --   -2.19548  -2.19347  -2.19274  -2.19254  -1.14727
  Beta  occ. eigenvalues --   -1.14712  -1.14683  -1.13645  -1.13555  -1.13534
  Beta  occ. eigenvalues --   -1.13518  -1.13480  -1.13394  -1.13222  -1.13201
  Beta  occ. eigenvalues --   -1.13178  -1.13024  -1.12995  -1.12988  -1.12985
  Beta  occ. eigenvalues --   -1.12952  -1.12924  -1.12894  -1.12846  -1.12826
  Beta  occ. eigenvalues --   -0.18030  -0.13895  -0.11048
  Beta virt. eigenvalues --   -0.07197  -0.06511  -0.04987  -0.03809  -0.03043
  Beta virt. eigenvalues --   -0.02470  -0.01806  -0.01557  -0.00916  -0.00134
  Beta virt. eigenvalues --   -0.00058   0.00235   0.00263   0.00594   0.00836

 Mulliken charges and spin densities:
               1          2
     1  Na  -0.277936   0.365872
     2  Na   0.016001   0.261837
     3  Na  -0.533244   0.040710
     4  Na   0.780131  -0.065126
     5  Na   0.145322   0.057047
     6  Na   0.451010   0.076941
     7  Na  -0.581284   0.262719
 Sum of Mulliken charges =  -0.00000   1.00000

 Dipole moment (field-independent basis, Debye):
    X=             -1.0038    Y=             -0.0414    Z=              0.1297  Tot=              1.0130
 Quadrupole moment (field-independent basis, Debye-Ang):
   XX=            -46.8206   YY=            -76.6026   ZZ=            -69.4062
   XY=             -0.6532   XZ=             -3.1834   YZ=             -0.8651

 Normal termination of Gaussian 16 at Tue Dec  5 09:51:46 2023.
