 Gaussian 16, Revision B.01,
 Gaussian 16:  ES64L-G16RevB.01 20-Dec-2017

 -------------------------
 #P B3LYP/6-311+g(d) force
 -------------------------

 -----
 DPGEN
 -----
 Symbolic Z-matrix:
 Charge =  0 Multiplicity = 2

                         Standard orientation:
 ---------------------------------------------------------------------
 Center     Atomic      Atomic             Coordinates (Angstroms)
 Number     Number       Type             X           Y           Z
 ---------------------------------------------------------------------
      1         11           0        2.961744    1.363658    0.087127
      2         11           0       -2.936461    0.632080   -0.020927
      3         11           0        0.595036    0.169198   -1.857416
      4         11           0       -0.699352    2.750921    0.141494
      5         11           0        1.811288   -2.222488    0.234510
      6         11           0       -1.573375   -2.289228   -0.484110
      7         11           0       -0.158880   -0.404140    1.899323
 ---------------------------------------------------------------------

 SCF Done:  E(UB3LYP) =  -1136.13731287     A.U. after   19 cycles

 The electronic state is 2-A.
 Alpha  occ. eigenvalues --  -38.44088 -38.43621 -38.43619 -38.43496 -38.43449
 Alpha  occ. eigenvalues --  -38.43431 -38.43307  -2.19894  -2.19508  -2.19505
 Alpha  occ. eigenvalues --   -2.19440  -2.19362  -2.19310  -2.19202  -1.13582
 Alpha  occ. eigenvalues --   -1.13549  -1.13533  -1.13257  -1.13233  -1.13188
 Alpha  occ. eigenvalues --   -1.13182  -1.13158  -1.13122  -1.13095  -1.13062
 Alpha  occ. eigenvalues --   -1.13045  -1.13034  -1.13004  -1.12988  -1.12968
 Alpha  occ. eigenvalues --   -1.12959  -1.12925  -1.12866  -1.12854  -1.12832
 Alpha  occ. eigenvalues --   -0.18861  -0.13084  -0.12554  -0.10927
 Alpha virt. eigenvalues --   -0.05616  -0.05118  -0.04532  -0.03291  -0.03081
 Alpha virt. eigenvalues --   -0.02603  -0.01435  -0.01054  -0.00199  -0.00185
 Alpha virt. eigenvalues --   -0.00015   0.00371   0.00831   0.00894   0.00942

  Beta  occ. eigenvalues --  -38.44088 -38.43616 -38.43610 -38.43445 -38.43415
  Beta  occ. eigenvalues --  -38.43358 -38.43293  -2.19896  -2.19505  -2.19490
  Beta  occ. eigenvalues --   -2.19306  -2.19291  -2.19228  -2.19179  -1.13573
  Beta  occ. eigenvalues --   -1.13544  -1.13536  -1.13233  -1.13224  -1.13183
  Beta  occ. eigenvalues --   -1.13143  -1.13131  -1.13115  -1.13010  -1.12983
  Beta  occ. eigenvalues --   -1.12964  -1.12951  -1.12941  -1.12934  -1.12928
  Beta  occ. eigenvalues --   -1.12894  -1.12886  -1.12847  -1.12822  -1.12804
  Beta  occ. eigenvalues --   -0.18115  -0.12850  -0.12320
  Beta virt. eigenvalues --   -0.07005  -0.05585  -0.05068  -0.04491  -0.02521
  Beta virt. eigenvalues --   -0.02285  -0.01580  -0.01342  -0.00981  -0.00242
  Beta virt. eigenvalues --   -0.00210   0.00115   0.00395   0.00865   0.00912

 Mulliken charges and spin densities:
               1          2
     1  Na   0.073734  -0.146039
     2  Na   0.037755  -0.022667
     3  Na  -0.348318   0.619826
     4  Na   0.048008  -0.102491
     5  Na   0.309830  -0.049653
     6  Na   0.241556   0.065827
     7  Na  -0.362565   0.635198
 Sum of Mulliken charges =  -0.00000   1.00000

 Dipole moment (field-independent basis, Debye):
    X=              0.3792    Y=              0.0560    Z=              0.0449  Tot=              0.3859
 Quadrupole moment (field-independent basis, Debye-Ang):
   XX=            -57.8049   YY=            -63.7188   ZZ=            -73.0056
   XY=              0.6578   XZ=              1.6174   YZ=              1.3320

 Normal termination of Gaussian 16 at Wed Dec  6 01:08:24 2023.
