 Gaussian 16, Revision B.01,
 Gaussian 16:  ES64L-G16RevB.01 20-Dec-2017

 -------------------------
 #P B3LYP/6-311+g(d) force
 -------------------------

 -----
 DPGEN
 -----
 Symbolic Z-matrix:
 Charge =  0 Multiplicity = 2

                         Standard orientation:
 ---------------------------------------------------------------------
 Center     Atomic      Atomic             Coordinates (Angstroms)
 Number     Number       Type             X           Y           Z
 ---------------------------------------------------------------------
      1         11           0        1.843488   -2.275297    1.676856
      2         11           0       -0.483912   -2.909152   -1.081541
      3         11           0       -3.207999   -1.123419   -0.622836
      4         11           0        1.732630    3.183411   -0.734978
      5         11           0       -2.927960    2.421474    0.958388
      6         11           0        3.360220    0.266424   -0.433847
      7         11           0       -0.316467    0.436559    0.237959
 ---------------------------------------------------------------------

 SCF Done:  E(UB3LYP) =  -1136.12802853     A.U. after   21 cycles

 The electronic state is 2-A.
 Alpha  occ. eigenvalues --  -38.44450 -38.44178 -38.43791 -38.43788 -38.43777
 Alpha  occ. eigenvalues --  -38.43658 -38.43406  -2.20254  -2.20010  -2.19624
 Alpha  occ. eigenvalues --   -2.19600  -2.19580  -2.19479  -2.19310  -1.13940
 Alpha  occ. eigenvalues --   -1.13919  -1.13887  -1.13697  -1.13681  -1.13631
 Alpha  occ. eigenvalues --   -1.13302  -1.13284  -1.13259  -1.13248  -1.13247
 Alpha  occ. eigenvalues --   -1.13243  -1.13233  -1.13225  -1.13203  -1.13142
 Alpha  occ. eigenvalues --   -1.13118  -1.13098  -1.13042  -1.12961  -1.12933
 Alpha  occ. eigenvalues --   -0.17089  -0.13541  -0.12745  -0.10306
 Alpha virt. eigenvalues --   -0.05929  -0.05273  -0.04885  -0.03444  -0.03028
 Alpha virt. eigenvalues --   -0.01939  -0.01555  -0.01368  -0.00908  -0.00839
 Alpha virt. eigenvalues --   -0.00242   0.00137   0.00296   0.00697   0.00712

  Beta  occ. eigenvalues --  -38.44443 -38.44153 -38.43760 -38.43758 -38.43722
  Beta  occ. eigenvalues --  -38.43597 -38.43409  -2.20247  -2.19968  -2.19576
  Beta  occ. eigenvalues --   -2.19539  -2.19478  -2.19365  -2.19316  -1.13938
  Beta  occ. eigenvalues --   -1.13920  -1.13849  -1.13669  -1.13657  -1.13573
  Beta  occ. eigenvalues --   -1.13272  -1.13256  -1.13219  -1.13211  -1.13188
  Beta  occ. eigenvalues --   -1.13185  -1.13172  -1.13157  -1.13138  -1.13063
  Beta  occ. eigenvalues --   -1.13039  -1.13029  -1.13022  -1.12974  -1.12938
  Beta  occ. eigenvalues --   -0.16729  -0.12889  -0.12134
  Beta virt. eigenvalues --   -0.07120  -0.05948  -0.04986  -0.04475  -0.03058
  Beta virt. eigenvalues --   -0.02535  -0.01823  -0.01380  -0.00970  -0.00734
  Beta virt. eigenvalues --   -0.00627   0.00032   0.00284   0.00478   0.00707

 Mulliken charges and spin densities:
               1          2
     1  Na   0.940506   0.265371
     2  Na   0.910058  -0.032642
     3  Na   0.054777   0.201111
     4  Na  -0.043747   0.180412
     5  Na   0.057429   0.252755
     6  Na   1.436795  -0.019159
     7  Na  -3.355818   0.152153
 Sum of Mulliken charges =  -0.00000   1.00000

 Dipole moment (field-independent basis, Debye):
    X=              0.0383    Y=             -0.0841    Z=             -0.2034  Tot=              0.2234
 Quadrupole moment (field-independent basis, Debye-Ang):
   XX=            -59.4595   YY=            -63.4877   ZZ=            -71.0879
   XY=             -2.1904   XZ=             -1.1568   YZ=              0.6445

 Normal termination of Gaussian 16 at Tue Dec  5 12:10:02 2023.
