 Gaussian 16, Revision B.01,
 Gaussian 16:  ES64L-G16RevB.01 20-Dec-2017

 -------------------------
 #P B3LYP/6-311+g(d) force
 -------------------------

 -----
 DPGEN
 -----
 Symbolic Z-matrix:
 Charge =  0 Multiplicity = 2

                         Standard orientation:
 ---------------------------------------------------------------------
 Center     Atomic      Atomic             Coordinates (Angstroms)
 Number     Number       Type             X           Y           Z
 ---------------------------------------------------------------------
      1         11           0       -0.683160   -1.754690   -1.495698
      2         11           0       -0.929628   -0.902478    2.213165
      3         11           0        3.994140    0.372779   -0.734719
      4         11           0        1.336909    2.458212   -0.220712
      5         11           0       -3.475512   -0.558495   -1.056077
      6         11           0       -2.366570    2.131455    0.479570
      7         11           0        2.123822   -1.746783    0.814471
 ---------------------------------------------------------------------

 SCF Done:  E(UB3LYP) =  -1136.12063403     A.U. after   22 cycles

 The electronic state is 2-A.
 Alpha  occ. eigenvalues --  -38.44599 -38.44479 -38.44469 -38.44281 -38.44075
 Alpha  occ. eigenvalues --  -38.43754 -38.43649  -2.20465  -2.20306  -2.20288
 Alpha  occ. eigenvalues --   -2.20116  -2.19829  -2.19595  -2.19457  -1.14179
 Alpha  occ. eigenvalues --   -1.14106  -1.14091  -1.13976  -1.13963  -1.13938
 Alpha  occ. eigenvalues --   -1.13935  -1.13925  -1.13921  -1.13779  -1.13767
 Alpha  occ. eigenvalues --   -1.13739  -1.13525  -1.13509  -1.13453  -1.13274
 Alpha  occ. eigenvalues --   -1.13260  -1.13233  -1.13129  -1.13115  -1.13105
 Alpha  occ. eigenvalues --   -0.17468  -0.14065  -0.11711  -0.11342
 Alpha virt. eigenvalues --   -0.06691  -0.05639  -0.04418  -0.03455  -0.03002
 Alpha virt. eigenvalues --   -0.02636  -0.02263  -0.01318  -0.00753  -0.00404
 Alpha virt. eigenvalues --   -0.00057   0.00189   0.00277   0.00455   0.00778

  Beta  occ. eigenvalues --  -38.44551 -38.44448 -38.44390 -38.44246 -38.44082
  Beta  occ. eigenvalues --  -38.43743 -38.43637  -2.20379  -2.20249  -2.20142
  Beta  occ. eigenvalues --   -2.20055  -2.19844  -2.19579  -2.19437  -1.14109
  Beta  occ. eigenvalues --   -1.14049  -1.14027  -1.13938  -1.13910  -1.13901
  Beta  occ. eigenvalues --   -1.13861  -1.13827  -1.13799  -1.13741  -1.13726
  Beta  occ. eigenvalues --   -1.13675  -1.13535  -1.13518  -1.13456  -1.13255
  Beta  occ. eigenvalues --   -1.13249  -1.13209  -1.13108  -1.13096  -1.13092
  Beta  occ. eigenvalues --   -0.16846  -0.13694  -0.11462
  Beta virt. eigenvalues --   -0.07585  -0.06576  -0.05413  -0.03827  -0.03306
  Beta virt. eigenvalues --   -0.02415  -0.02133  -0.01889  -0.01231  -0.00461
  Beta virt. eigenvalues --   -0.00266  -0.00024   0.00258   0.00438   0.00597

 Mulliken charges and spin densities:
               1          2
     1  Na  -0.369628   0.318123
     2  Na   0.081074   0.379513
     3  Na   0.511176   0.065450
     4  Na  -0.112195  -0.096788
     5  Na   0.597130  -0.032306
     6  Na  -0.449958   0.215772
     7  Na  -0.257599   0.150236
 Sum of Mulliken charges =  -0.00000   1.00000

 Dipole moment (field-independent basis, Debye):
    X=              0.0262    Y=             -0.4053    Z=             -0.0710  Tot=              0.4123
 Quadrupole moment (field-independent basis, Debye-Ang):
   XX=            -53.8157   YY=            -75.3865   ZZ=            -69.6250
   XY=             -2.0613   XZ=             -2.3222   YZ=             -0.2565

 Normal termination of Gaussian 16 at Sun Dec  3 14:27:56 2023.
