 Gaussian 16, Revision B.01,
 Gaussian 16:  ES64L-G16RevB.01 20-Dec-2017

 -------------------------
 #P B3LYP/6-311+g(d) force
 -------------------------

 -----
 DPGEN
 -----
 Symbolic Z-matrix:
 Charge =  0 Multiplicity = 2

                         Standard orientation:
 ---------------------------------------------------------------------
 Center     Atomic      Atomic             Coordinates (Angstroms)
 Number     Number       Type             X           Y           Z
 ---------------------------------------------------------------------
      1         11           0       -1.154772    1.917635   -0.008953
      2         11           0        1.869010    1.813236   -0.856542
      3         11           0       -3.866573   -0.337518   -1.111857
      4         11           0        3.510324   -1.326027   -0.841772
      5         11           0        1.782233    0.177635    2.110330
      6         11           0       -2.294866   -0.900509    1.479620
      7         11           0        0.154645   -1.344453   -0.770826
 ---------------------------------------------------------------------

 SCF Done:  E(UB3LYP) =  -1136.12179011     A.U. after   25 cycles

 The electronic state is 2-A.
 Alpha  occ. eigenvalues --  -38.45056 -38.44782 -38.44425 -38.44365 -38.43300
 Alpha  occ. eigenvalues --  -38.43180 -38.42408  -2.20885  -2.20616  -2.20326
 Alpha  occ. eigenvalues --   -2.20237  -2.19134  -2.19092  -2.18314  -1.14577
 Alpha  occ. eigenvalues --   -1.14525  -1.14518  -1.14285  -1.14269  -1.14226
 Alpha  occ. eigenvalues --   -1.14030  -1.13976  -1.13942  -1.13938  -1.13916
 Alpha  occ. eigenvalues --   -1.13841  -1.12802  -1.12799  -1.12790  -1.12776
 Alpha  occ. eigenvalues --   -1.12747  -1.12698  -1.12018  -1.11988  -1.11921
 Alpha  occ. eigenvalues --   -0.18513  -0.14505  -0.11035  -0.10795
 Alpha virt. eigenvalues --   -0.06915  -0.05379  -0.04908  -0.03049  -0.02709
 Alpha virt. eigenvalues --   -0.02299  -0.02119  -0.01419  -0.00809  -0.00216
 Alpha virt. eigenvalues --    0.00072   0.00282   0.00356   0.00557   0.00633

  Beta  occ. eigenvalues --  -38.45034 -38.44723 -38.44392 -38.44354 -38.43290
  Beta  occ. eigenvalues --  -38.43154 -38.42396  -2.20842  -2.20507  -2.20268
  Beta  occ. eigenvalues --   -2.20221  -2.19116  -2.19045  -2.18296  -1.14549
  Beta  occ. eigenvalues --   -1.14495  -1.14487  -1.14206  -1.14187  -1.14152
  Beta  occ. eigenvalues --   -1.13990  -1.13940  -1.13911  -1.13888  -1.13876
  Beta  occ. eigenvalues --   -1.13834  -1.12787  -1.12779  -1.12765  -1.12757
  Beta  occ. eigenvalues --   -1.12714  -1.12662  -1.12007  -1.11956  -1.11906
  Beta  occ. eigenvalues --   -0.17846  -0.14277  -0.10627
  Beta virt. eigenvalues --   -0.07272  -0.06650  -0.04928  -0.04599  -0.02807
  Beta virt. eigenvalues --   -0.02575  -0.01691  -0.01591  -0.01003  -0.00532
  Beta virt. eigenvalues --   -0.00070   0.00122   0.00355   0.00426   0.00685

 Mulliken charges and spin densities:
               1          2
     1  Na  -0.581309   0.150041
     2  Na   0.079442   0.096717
     3  Na   0.679962   0.087029
     4  Na   0.438091   0.021075
     5  Na  -0.181367   0.307438
     6  Na   0.574568   0.233918
     7  Na  -1.009386   0.103783
 Sum of Mulliken charges =  -0.00000   1.00000

 Dipole moment (field-independent basis, Debye):
    X=             -0.7869    Y=              0.0189    Z=              0.3447  Tot=              0.8593
 Quadrupole moment (field-independent basis, Debye-Ang):
   XX=            -49.5524   YY=            -79.6771   ZZ=            -65.8637
   XY=              2.0241   XZ=              3.8023   YZ=             -1.1640

 Normal termination of Gaussian 16 at Tue Dec  5 22:32:50 2023.
