 Gaussian 16, Revision B.01,
 Gaussian 16:  ES64L-G16RevB.01 20-Dec-2017

 -------------------------
 #P B3LYP/6-311+g(d) force
 -------------------------

 -----
 DPGEN
 -----
 Symbolic Z-matrix:
 Charge =  0 Multiplicity = 2

                         Standard orientation:
 ---------------------------------------------------------------------
 Center     Atomic      Atomic             Coordinates (Angstroms)
 Number     Number       Type             X           Y           Z
 ---------------------------------------------------------------------
      1         11           0        0.987618    0.741448    1.703905
      2         11           0        0.630976   -1.475179   -0.855554
      3         11           0       -2.504820    0.045745    1.694082
      4         11           0       -1.193339    1.407913   -0.860045
      5         11           0        2.772665    1.766232   -0.995932
      6         11           0        3.872216   -1.689361    0.201667
      7         11           0       -4.565315   -0.796799   -0.888122
 ---------------------------------------------------------------------

 SCF Done:  E(UB3LYP) =  -1136.11440327     A.U. after   31 cycles

 The electronic state is 2-A.
 Alpha  occ. eigenvalues --  -38.45675 -38.44925 -38.44269 -38.44060 -38.43894
 Alpha  occ. eigenvalues --  -38.43358 -38.43184  -2.21494  -2.20739  -2.20147
 Alpha  occ. eigenvalues --   -2.19846  -2.19788  -2.19274  -2.18987  -1.15196
 Alpha  occ. eigenvalues --   -1.15170  -1.15103  -1.14427  -1.14378  -1.14346
 Alpha  occ. eigenvalues --   -1.13856  -1.13818  -1.13759  -1.13520  -1.13509
 Alpha  occ. eigenvalues --   -1.13504  -1.13467  -1.13462  -1.13350  -1.12975
 Alpha  occ. eigenvalues --   -1.12924  -1.12885  -1.12654  -1.12652  -1.12627
 Alpha  occ. eigenvalues --   -0.18232  -0.14235  -0.10907  -0.10794
 Alpha virt. eigenvalues --   -0.07580  -0.05178  -0.05006  -0.03100  -0.02947
 Alpha virt. eigenvalues --   -0.02256  -0.01915  -0.01785  -0.01412  -0.00303
 Alpha virt. eigenvalues --   -0.00194   0.00168   0.00259   0.00467   0.00531

  Beta  occ. eigenvalues --  -38.45673 -38.44879 -38.44235 -38.44031 -38.43874
  Beta  occ. eigenvalues --  -38.43320 -38.43177  -2.21494  -2.20654  -2.20088
  Beta  occ. eigenvalues --   -2.19792  -2.19753  -2.19210  -2.18975  -1.15183
  Beta  occ. eigenvalues --   -1.15156  -1.15108  -1.14368  -1.14321  -1.14283
  Beta  occ. eigenvalues --   -1.13823  -1.13779  -1.13687  -1.13499  -1.13472
  Beta  occ. eigenvalues --   -1.13467  -1.13432  -1.13416  -1.13327  -1.12931
  Beta  occ. eigenvalues --   -1.12852  -1.12840  -1.12648  -1.12636  -1.12620
  Beta  occ. eigenvalues --   -0.17623  -0.13941  -0.10563
  Beta virt. eigenvalues --   -0.07450  -0.07139  -0.05022  -0.04409  -0.02985
  Beta virt. eigenvalues --   -0.02700  -0.01786  -0.01585  -0.01378  -0.00939
  Beta virt. eigenvalues --   -0.00247  -0.00076   0.00218   0.00349   0.00556

 Mulliken charges and spin densities:
               1          2
     1  Na  -0.196689   0.227570
     2  Na  -0.631717   0.011924
     3  Na   0.016520   0.043313
     4  Na  -0.154723   0.325677
     5  Na   0.198648   0.283875
     6  Na   0.410118  -0.071192
     7  Na   0.357844   0.178834
 Sum of Mulliken charges =  -0.00000   1.00000

 Dipole moment (field-independent basis, Debye):
    X=              0.2035    Y=              0.7349    Z=              0.1013  Tot=              0.7693
 Quadrupole moment (field-independent basis, Debye-Ang):
   XX=            -57.7003   YY=            -74.9721   ZZ=            -68.0982
   XY=              5.7338   XZ=              0.4568   YZ=              0.0461

 Normal termination of Gaussian 16 at Tue Dec  5 19:58:30 2023.
