 Gaussian 16, Revision B.01,
 Gaussian 16:  ES64L-G16RevB.01 20-Dec-2017

 -------------------------
 #P B3LYP/6-311+g(d) force
 -------------------------

 -----
 DPGEN
 -----
 Symbolic Z-matrix:
 Charge =  0 Multiplicity = 2

                         Standard orientation:
 ---------------------------------------------------------------------
 Center     Atomic      Atomic             Coordinates (Angstroms)
 Number     Number       Type             X           Y           Z
 ---------------------------------------------------------------------
      1         11           0        0.245379    0.534113    1.901994
      2         11           0       -3.210059   -0.706163   -0.064898
      3         11           0       -1.178488    2.707427    0.213457
      4         11           0        2.287840    1.541972   -0.770442
      5         11           0       -0.267153   -0.114564   -1.673244
      6         11           0        2.649008   -1.527969    0.346131
      7         11           0       -0.526527   -2.434817    0.047002
 ---------------------------------------------------------------------

 SCF Done:  E(UB3LYP) =  -1136.13311086     A.U. after   18 cycles

 The electronic state is 2-A.
 Alpha  occ. eigenvalues --  -38.44178 -38.43756 -38.43531 -38.43465 -38.43423
 Alpha  occ. eigenvalues --  -38.43351 -38.43099  -2.20012  -2.19650  -2.19451
 Alpha  occ. eigenvalues --   -2.19412  -2.19405  -2.19207  -2.19057  -1.13692
 Alpha  occ. eigenvalues --   -1.13682  -1.13642  -1.13375  -1.13314  -1.13269
 Alpha  occ. eigenvalues --   -1.13231  -1.13122  -1.13096  -1.13077  -1.13067
 Alpha  occ. eigenvalues --   -1.13052  -1.13047  -1.13038  -1.13023  -1.12870
 Alpha  occ. eigenvalues --   -1.12856  -1.12822  -1.12732  -1.12702  -1.12652
 Alpha  occ. eigenvalues --   -0.19107  -0.13165  -0.12496  -0.11038
 Alpha virt. eigenvalues --   -0.05679  -0.04994  -0.04278  -0.03275  -0.03026
 Alpha virt. eigenvalues --   -0.02588  -0.01640  -0.01034  -0.00189   0.00013
 Alpha virt. eigenvalues --    0.00113   0.00341   0.00805   0.00899   0.00957

  Beta  occ. eigenvalues --  -38.44178 -38.43728 -38.43524 -38.43384 -38.43353
  Beta  occ. eigenvalues --  -38.43345 -38.43091  -2.20014  -2.19603  -2.19396
  Beta  occ. eigenvalues --   -2.19325  -2.19264  -2.19198  -2.19045  -1.13695
  Beta  occ. eigenvalues --   -1.13672  -1.13641  -1.13331  -1.13269  -1.13235
  Beta  occ. eigenvalues --   -1.13153  -1.13068  -1.13056  -1.13040  -1.13024
  Beta  occ. eigenvalues --   -1.12997  -1.12957  -1.12950  -1.12927  -1.12843
  Beta  occ. eigenvalues --   -1.12821  -1.12818  -1.12712  -1.12676  -1.12634
  Beta  occ. eigenvalues --   -0.18377  -0.12927  -0.12212
  Beta virt. eigenvalues --   -0.07078  -0.05638  -0.04955  -0.04248  -0.02546
  Beta virt. eigenvalues --   -0.02234  -0.01604  -0.01482  -0.00942  -0.00143
  Beta virt. eigenvalues --    0.00033   0.00147   0.00373   0.00857   0.00895

 Mulliken charges and spin densities:
               1          2
     1  Na  -0.471850   0.618654
     2  Na   0.041778  -0.082299
     3  Na   0.082016  -0.074566
     4  Na   0.262635   0.081604
     5  Na  -0.307386   0.356218
     6  Na   0.146606   0.035680
     7  Na   0.246201   0.064709
 Sum of Mulliken charges =  -0.00000   1.00000

 Dipole moment (field-independent basis, Debye):
    X=             -0.2400    Y=              0.1878    Z=              0.1375  Tot=              0.3343
 Quadrupole moment (field-independent basis, Debye-Ang):
   XX=            -54.8616   YY=            -65.8185   ZZ=            -72.9597
   XY=             -0.7469   XZ=             -0.6906   YZ=             -1.7689

 Normal termination of Gaussian 16 at Fri Dec  8 06:36:14 2023.
