 Gaussian 16, Revision B.01,
 Gaussian 16:  ES64L-G16RevB.01 20-Dec-2017

 -------------------------
 #P B3LYP/6-311+g(d) force
 -------------------------

 -----
 DPGEN
 -----
 Symbolic Z-matrix:
 Charge =  0 Multiplicity = 2

                         Standard orientation:
 ---------------------------------------------------------------------
 Center     Atomic      Atomic             Coordinates (Angstroms)
 Number     Number       Type             X           Y           Z
 ---------------------------------------------------------------------
      1         11           0       -0.212743    0.686148   -1.605126
      2         11           0       -0.102886   -1.700064   -0.784646
      3         11           0        2.275826   -0.996297    0.142654
      4         11           0        1.687673    1.584514   -0.016946
      5         11           0       -0.159570   -0.800753    1.664954
      6         11           0       -1.025025    1.708763    0.711254
      7         11           0       -2.463274   -0.482312   -0.112146
 ---------------------------------------------------------------------

 SCF Done:  E(UB3LYP) =  -1136.04026167     A.U. after   20 cycles

 The electronic state is 2-A.
 Alpha  occ. eigenvalues --  -38.45078 -38.44616 -38.44504 -38.44353 -38.44131
 Alpha  occ. eigenvalues --  -38.44059 -38.44002  -2.21482  -2.20997  -2.20785
 Alpha  occ. eigenvalues --   -2.20510  -2.20325  -2.20258  -2.20218  -1.15567
 Alpha  occ. eigenvalues --   -1.15358  -1.15148  -1.15079  -1.14840  -1.14569
 Alpha  occ. eigenvalues --   -1.14492  -1.14391  -1.14370  -1.14212  -1.14181
 Alpha  occ. eigenvalues --   -1.14094  -1.14049  -1.14013  -1.13898  -1.13867
 Alpha  occ. eigenvalues --   -1.13826  -1.13809  -1.13750  -1.13673  -1.13595
 Alpha  occ. eigenvalues --   -0.22429  -0.14210  -0.13016  -0.12721
 Alpha virt. eigenvalues --   -0.05305  -0.04133  -0.04001  -0.03972  -0.03238
 Alpha virt. eigenvalues --   -0.02966  -0.01028  -0.00298  -0.00133   0.00307
 Alpha virt. eigenvalues --    0.00874   0.00972   0.01096   0.01215   0.01292

  Beta  occ. eigenvalues --  -38.44991 -38.44573 -38.44422 -38.44342 -38.44116
  Beta  occ. eigenvalues --  -38.44048 -38.43971  -2.21328  -2.20922  -2.20642
  Beta  occ. eigenvalues --   -2.20497  -2.20301  -2.20231  -2.20183  -1.15464
  Beta  occ. eigenvalues --   -1.15257  -1.15047  -1.15002  -1.14795  -1.14471
  Beta  occ. eigenvalues --   -1.14461  -1.14322  -1.14293  -1.14169  -1.14108
  Beta  occ. eigenvalues --   -1.14066  -1.13992  -1.13982  -1.13859  -1.13821
  Beta  occ. eigenvalues --   -1.13785  -1.13728  -1.13709  -1.13660  -1.13576
  Beta  occ. eigenvalues --   -0.21563  -0.13805  -0.12601
  Beta virt. eigenvalues --   -0.08446  -0.05308  -0.04112  -0.03914  -0.02964
  Beta virt. eigenvalues --   -0.02383  -0.01858  -0.00955  -0.00267   0.00026
  Beta virt. eigenvalues --    0.00336   0.00894   0.00972   0.01130   0.01210

 Mulliken charges and spin densities:
               1          2
     1  Na  -0.177718   0.298874
     2  Na  -0.008494   0.073969
     3  Na   0.354092   0.021692
     4  Na  -0.194885   0.109313
     5  Na  -0.224609   0.472701
     6  Na   0.348405   0.192138
     7  Na  -0.096791  -0.168688
 Sum of Mulliken charges =  -0.00000   1.00000

 Dipole moment (field-independent basis, Debye):
    X=              0.0213    Y=              0.0618    Z=              0.3300  Tot=              0.3365
 Quadrupole moment (field-independent basis, Debye-Ang):
   XX=            -60.4965   YY=            -72.2972   ZZ=            -66.9265
   XY=              0.1966   XZ=              0.1883   YZ=              1.1971

 Normal termination of Gaussian 16 at Thu Dec  7 12:05:59 2023.
