 Gaussian 16, Revision B.01,
 Gaussian 16:  ES64L-G16RevB.01 20-Dec-2017

 -------------------------
 #P B3LYP/6-311+g(d) force
 -------------------------

 -----
 DPGEN
 -----
 Symbolic Z-matrix:
 Charge =  0 Multiplicity = 2

                         Standard orientation:
 ---------------------------------------------------------------------
 Center     Atomic      Atomic             Coordinates (Angstroms)
 Number     Number       Type             X           Y           Z
 ---------------------------------------------------------------------
      1         11           0        1.946763   -2.815633   -0.657996
      2         11           0       -1.418854   -2.855967    0.099715
      3         11           0        4.381757   -0.613332    0.066435
      4         11           0       -0.131889    3.034468   -0.311158
      5         11           0       -4.030320   -1.421091    0.678575
      6         11           0        3.005837    2.414974    0.635022
      7         11           0       -3.753294    2.256581   -0.510593
 ---------------------------------------------------------------------

 SCF Done:  E(UB3LYP) =  -1136.10735531     A.U. after   24 cycles

 The electronic state is 2-A.
 Alpha  occ. eigenvalues --  -38.45392 -38.45091 -38.45057 -38.44253 -38.44243
 Alpha  occ. eigenvalues --  -38.44193 -38.43765  -2.21179  -2.20869  -2.20849
 Alpha  occ. eigenvalues --   -2.20076  -2.20041  -2.19974  -2.19589  -1.14851
 Alpha  occ. eigenvalues --   -1.14840  -1.14830  -1.14576  -1.14537  -1.14532
 Alpha  occ. eigenvalues --   -1.14521  -1.14488  -1.14481  -1.13753  -1.13734
 Alpha  occ. eigenvalues --   -1.13732  -1.13704  -1.13696  -1.13664  -1.13630
 Alpha  occ. eigenvalues --   -1.13608  -1.13606  -1.13242  -1.13237  -1.13228
 Alpha  occ. eigenvalues --   -0.15814  -0.14247  -0.13403  -0.10775
 Alpha virt. eigenvalues --   -0.07985  -0.04670  -0.04246  -0.03793  -0.03691
 Alpha virt. eigenvalues --   -0.02446  -0.02302  -0.01672  -0.01100  -0.00884
 Alpha virt. eigenvalues --   -0.00701  -0.00312   0.00204   0.00507   0.00667

  Beta  occ. eigenvalues --  -38.45380 -38.45076 -38.45022 -38.44235 -38.44216
  Beta  occ. eigenvalues --  -38.44121 -38.43715  -2.21161  -2.20829  -2.20809
  Beta  occ. eigenvalues --   -2.20048  -2.19991  -2.19840  -2.19497  -1.14843
  Beta  occ. eigenvalues --   -1.14832  -1.14788  -1.14529  -1.14525  -1.14521
  Beta  occ. eigenvalues --   -1.14484  -1.14437  -1.14421  -1.13719  -1.13716
  Beta  occ. eigenvalues --   -1.13713  -1.13670  -1.13662  -1.13625  -1.13540
  Beta  occ. eigenvalues --   -1.13520  -1.13511  -1.13179  -1.13174  -1.13169
  Beta  occ. eigenvalues --   -0.15357  -0.13510  -0.12596
  Beta virt. eigenvalues --   -0.08229  -0.07582  -0.04077  -0.03766  -0.03648
  Beta virt. eigenvalues --   -0.03495  -0.02203  -0.02093  -0.01421  -0.00873
  Beta virt. eigenvalues --   -0.00581  -0.00456  -0.00149   0.00285   0.00603

 Mulliken charges and spin densities:
               1          2
     1  Na   0.195454   0.216829
     2  Na  -0.236697   0.032570
     3  Na   0.011409   0.116165
     4  Na  -0.663222   0.140024
     5  Na   0.215715   0.018388
     6  Na   0.493599   0.138244
     7  Na  -0.016257   0.337780
 Sum of Mulliken charges =  -0.00000   1.00000

 Dipole moment (field-independent basis, Debye):
    X=              0.2208    Y=             -0.2832    Z=              0.1275  Tot=              0.3810
 Quadrupole moment (field-independent basis, Debye-Ang):
   XX=            -52.4452   YY=            -74.3838   ZZ=            -72.8395
   XY=              0.6082   XZ=             -0.3859   YZ=              0.1863

 Normal termination of Gaussian 16 at Sun Dec  3 18:48:30 2023.
