 Gaussian 16, Revision B.01,
 Gaussian 16:  ES64L-G16RevB.01 20-Dec-2017

 -------------------------
 #P B3LYP/6-311+g(d) force
 -------------------------

 -----
 DPGEN
 -----
 Symbolic Z-matrix:
 Charge =  0 Multiplicity = 2

                         Standard orientation:
 ---------------------------------------------------------------------
 Center     Atomic      Atomic             Coordinates (Angstroms)
 Number     Number       Type             X           Y           Z
 ---------------------------------------------------------------------
      1         11           0       -1.375277   -2.547879   -0.541845
      2         11           0        2.074525   -2.219692    0.066991
      3         11           0        0.914175    0.462422   -1.646342
      4         11           0       -0.458921   -0.215651    2.240490
      5         11           0        3.364496    1.426292    0.218039
      6         11           0       -3.234441    0.125453   -0.247286
      7         11           0       -1.284557    2.969054   -0.090047
 ---------------------------------------------------------------------

 SCF Done:  E(UB3LYP) =  -1136.12938502     A.U. after   20 cycles

 The electronic state is 2-A.
 Alpha  occ. eigenvalues --  -38.44860 -38.44216 -38.44107 -38.43911 -38.43837
 Alpha  occ. eigenvalues --  -38.43685 -38.43186  -2.20634  -2.20041  -2.19922
 Alpha  occ. eigenvalues --   -2.19691  -2.19664  -2.19563  -2.19029  -1.14317
 Alpha  occ. eigenvalues --   -1.14288  -1.14274  -1.13718  -1.13705  -1.13686
 Alpha  occ. eigenvalues --   -1.13616  -1.13591  -1.13547  -1.13365  -1.13353
 Alpha  occ. eigenvalues --   -1.13335  -1.13317  -1.13296  -1.13280  -1.13243
 Alpha  occ. eigenvalues --   -1.13204  -1.13194  -1.12703  -1.12685  -1.12675
 Alpha  occ. eigenvalues --   -0.17799  -0.13217  -0.12074  -0.10507
 Alpha virt. eigenvalues --   -0.06438  -0.05457  -0.04580  -0.03398  -0.02827
 Alpha virt. eigenvalues --   -0.02547  -0.01863  -0.01249  -0.00847  -0.00438
 Alpha virt. eigenvalues --   -0.00078   0.00311   0.00618   0.00717   0.00755

  Beta  occ. eigenvalues --  -38.44864 -38.44210 -38.44102 -38.43910 -38.43733
  Beta  occ. eigenvalues --  -38.43644 -38.43172  -2.20643  -2.20031  -2.19917
  Beta  occ. eigenvalues --   -2.19691  -2.19487  -2.19471  -2.19006  -1.14316
  Beta  occ. eigenvalues --   -1.14290  -1.14281  -1.13712  -1.13684  -1.13677
  Beta  occ. eigenvalues --   -1.13609  -1.13567  -1.13548  -1.13359  -1.13345
  Beta  occ. eigenvalues --   -1.13336  -1.13193  -1.13184  -1.13162  -1.13147
  Beta  occ. eigenvalues --   -1.13143  -1.13140  -1.12688  -1.12664  -1.12646
  Beta  occ. eigenvalues --   -0.17125  -0.13056  -0.11901
  Beta virt. eigenvalues --   -0.06652  -0.06373  -0.05322  -0.04504  -0.02732
  Beta virt. eigenvalues --   -0.02147  -0.01760  -0.01529  -0.01163  -0.00882
  Beta virt. eigenvalues --   -0.00448   0.00112   0.00378   0.00723   0.00742

 Mulliken charges and spin densities:
               1          2
     1  Na  -0.046380   0.069979
     2  Na   0.021512   0.044187
     3  Na   0.224638   0.277428
     4  Na  -0.390130   0.718918
     5  Na   0.052787  -0.093205
     6  Na   0.132810   0.060028
     7  Na   0.004761  -0.077335
 Sum of Mulliken charges =  -0.00000   1.00000

 Dipole moment (field-independent basis, Debye):
    X=              0.6861    Y=              0.3472    Z=              0.1383  Tot=              0.7813
 Quadrupole moment (field-independent basis, Debye-Ang):
   XX=            -54.8695   YY=            -64.5630   ZZ=            -75.1188
   XY=              0.4821   XZ=              2.7079   YZ=              1.3436

 Normal termination of Gaussian 16 at Thu Dec  7 08:44:23 2023.
