 Gaussian 16, Revision B.01,
 Gaussian 16:  ES64L-G16RevB.01 20-Dec-2017

 -------------------------
 #P B3LYP/6-311+g(d) force
 -------------------------

 -----
 DPGEN
 -----
 Symbolic Z-matrix:
 Charge =  0 Multiplicity = 2

                         Standard orientation:
 ---------------------------------------------------------------------
 Center     Atomic      Atomic             Coordinates (Angstroms)
 Number     Number       Type             X           Y           Z
 ---------------------------------------------------------------------
      1         11           0        3.545815   -0.510688    0.292441
      2         11           0        3.089113    3.589326    0.112615
      3         11           0       -0.943623   -3.008859   -0.371441
      4         11           0       -0.442597    3.020910   -0.058295
      5         11           0       -3.944955   -1.208028    0.908024
      6         11           0       -4.000933    1.562672   -0.627569
      7         11           0        2.697180   -3.445333   -0.255774
 ---------------------------------------------------------------------

 SCF Done:  E(UB3LYP) =  -1136.10929967     A.U. after   22 cycles

 The electronic state is 2-A.
 Alpha  occ. eigenvalues --  -38.45427 -38.45344 -38.44879 -38.44756 -38.43954
 Alpha  occ. eigenvalues --  -38.43845 -38.43821  -2.21152  -2.21127  -2.20664
 Alpha  occ. eigenvalues --   -2.20526  -2.19773  -2.19669  -2.19596  -1.14853
 Alpha  occ. eigenvalues --   -1.14844  -1.14802  -1.14793  -1.14759  -1.14756
 Alpha  occ. eigenvalues --   -1.14351  -1.14335  -1.14313  -1.14198  -1.14190
 Alpha  occ. eigenvalues --   -1.14124  -1.13426  -1.13416  -1.13406  -1.13347
 Alpha  occ. eigenvalues --   -1.13323  -1.13303  -1.13258  -1.13248  -1.13223
 Alpha  occ. eigenvalues --   -0.15552  -0.14011  -0.13211  -0.10605
 Alpha virt. eigenvalues --   -0.07512  -0.05113  -0.04661  -0.03417  -0.03119
 Alpha virt. eigenvalues --   -0.02443  -0.02400  -0.02126  -0.01705  -0.00617
 Alpha virt. eigenvalues --   -0.00443  -0.00105   0.00299   0.00381   0.00521

  Beta  occ. eigenvalues --  -38.45421 -38.45308 -38.44881 -38.44690 -38.43904
  Beta  occ. eigenvalues --  -38.43831 -38.43786  -2.21145  -2.21066  -2.20672
  Beta  occ. eigenvalues --   -2.20404  -2.19678  -2.19647  -2.19529  -1.14852
  Beta  occ. eigenvalues --   -1.14843  -1.14763  -1.14756  -1.14722  -1.14693
  Beta  occ. eigenvalues --   -1.14359  -1.14343  -1.14286  -1.14116  -1.14109
  Beta  occ. eigenvalues --   -1.14036  -1.13369  -1.13353  -1.13337  -1.13319
  Beta  occ. eigenvalues --   -1.13311  -1.13285  -1.13212  -1.13202  -1.13180
  Beta  occ. eigenvalues --   -0.15022  -0.13487  -0.12627
  Beta virt. eigenvalues --   -0.07482  -0.07286  -0.04802  -0.04321  -0.03153
  Beta virt. eigenvalues --   -0.02648  -0.02281  -0.02126  -0.01942  -0.01581
  Beta virt. eigenvalues --   -0.00327  -0.00090   0.00065   0.00341   0.00398

 Mulliken charges and spin densities:
               1          2
     1  Na  -0.432743   0.223115
     2  Na   0.532338   0.224428
     3  Na  -0.390789   0.361828
     4  Na  -0.479126   0.132924
     5  Na   0.088373  -0.094180
     6  Na   0.106722   0.130854
     7  Na   0.575226   0.021032
 Sum of Mulliken charges =  -0.00000   1.00000

 Dipole moment (field-independent basis, Debye):
    X=              0.0767    Y=             -0.2953    Z=              0.1023  Tot=              0.3218
 Quadrupole moment (field-independent basis, Debye-Ang):
   XX=            -60.3506   YY=            -68.0880   ZZ=            -72.0254
   XY=              1.1407   XZ=             -0.7403   YZ=             -0.0810

 Normal termination of Gaussian 16 at Sun Dec  3 16:05:02 2023.
