 Gaussian 16, Revision B.01,
 Gaussian 16:  ES64L-G16RevB.01 20-Dec-2017

 -------------------------
 #P B3LYP/6-311+g(d) force
 -------------------------

 -----
 DPGEN
 -----
 Symbolic Z-matrix:
 Charge =  0 Multiplicity = 2

                         Standard orientation:
 ---------------------------------------------------------------------
 Center     Atomic      Atomic             Coordinates (Angstroms)
 Number     Number       Type             X           Y           Z
 ---------------------------------------------------------------------
      1         11           0        2.155088   -0.043910   -1.742627
      2         11           0       -2.951927    1.327731    0.371703
      3         11           0       -2.584168   -2.273089   -0.303676
      4         11           0       -0.508973   -0.261055   -0.188342
      5         11           0        0.349930    2.761993   -0.575699
      6         11           0        1.672338    0.696429    1.950522
      7         11           0        1.867712   -2.208097    0.488119
 ---------------------------------------------------------------------

 SCF Done:  E(UB3LYP) =  -1136.12144995     A.U. after   21 cycles

 The electronic state is 2-A.
 Alpha  occ. eigenvalues --  -38.44479 -38.44035 -38.43849 -38.43789 -38.43582
 Alpha  occ. eigenvalues --  -38.43010 -38.42369  -2.20312  -2.19864  -2.19761
 Alpha  occ. eigenvalues --   -2.19726  -2.19498  -2.18886  -2.18611  -1.14047
 Alpha  occ. eigenvalues --   -1.13973  -1.13902  -1.13619  -1.13509  -1.13467
 Alpha  occ. eigenvalues --   -1.13462  -1.13440  -1.13391  -1.13377  -1.13373
 Alpha  occ. eigenvalues --   -1.13325  -1.13180  -1.13138  -1.13110  -1.12604
 Alpha  occ. eigenvalues --   -1.12541  -1.12512  -1.12299  -1.12277  -1.12235
 Alpha  occ. eigenvalues --   -0.18852  -0.13407  -0.12162  -0.10938
 Alpha virt. eigenvalues --   -0.05756  -0.05102  -0.04358  -0.03095  -0.02674
 Alpha virt. eigenvalues --   -0.02500  -0.01458  -0.01099  -0.00450  -0.00042
 Alpha virt. eigenvalues --    0.00029   0.00351   0.00771   0.00811   0.00927

  Beta  occ. eigenvalues --  -38.44480 -38.44038 -38.43763 -38.43716 -38.43568
  Beta  occ. eigenvalues --  -38.42999 -38.42348  -2.20314  -2.19870  -2.19605
  Beta  occ. eigenvalues --   -2.19592  -2.19477  -2.18870  -2.18581  -1.14048
  Beta  occ. eigenvalues --   -1.13969  -1.13907  -1.13622  -1.13510  -1.13469
  Beta  occ. eigenvalues --   -1.13378  -1.13344  -1.13293  -1.13273  -1.13260
  Beta  occ. eigenvalues --   -1.13231  -1.13162  -1.13098  -1.13072  -1.12594
  Beta  occ. eigenvalues --   -1.12521  -1.12487  -1.12270  -1.12226  -1.12207
  Beta  occ. eigenvalues --   -0.18136  -0.13216  -0.11967
  Beta virt. eigenvalues --   -0.06860  -0.05677  -0.04846  -0.04326  -0.02554
  Beta virt. eigenvalues --   -0.02032  -0.01693  -0.01277  -0.01002  -0.00215
  Beta virt. eigenvalues --    0.00046   0.00124   0.00428   0.00796   0.00885

 Mulliken charges and spin densities:
               1          2
     1  Na   0.359187   0.082916
     2  Na   0.331672  -0.079658
     3  Na  -0.034359  -0.440361
     4  Na  -2.087203   0.901761
     5  Na   0.860309   0.167309
     6  Na  -0.072884   0.237964
     7  Na   0.643276   0.130070
 Sum of Mulliken charges =  -0.00000   1.00000

 Dipole moment (field-independent basis, Debye):
    X=             -0.3299    Y=              0.0802    Z=              0.1838  Tot=              0.3860
 Quadrupole moment (field-independent basis, Debye-Ang):
   XX=            -57.4637   YY=            -61.8118   ZZ=            -71.4704
   XY=             -1.3342   XZ=             -1.0693   YZ=              0.3099

 Normal termination of Gaussian 16 at Thu Dec  7 15:05:11 2023.
