 Gaussian 16, Revision B.01,
 Gaussian 16:  ES64L-G16RevB.01 20-Dec-2017

 -------------------------
 #P B3LYP/6-311+g(d) force
 -------------------------

 -----
 DPGEN
 -----
 Symbolic Z-matrix:
 Charge =  0 Multiplicity = 2

                         Standard orientation:
 ---------------------------------------------------------------------
 Center     Atomic      Atomic             Coordinates (Angstroms)
 Number     Number       Type             X           Y           Z
 ---------------------------------------------------------------------
      1         11           0        1.996795    2.158172    0.148479
      2         11           0       -1.843058    2.437111   -0.152337
      3         11           0        0.143511    0.151114   -1.754196
      4         11           0       -0.117428   -2.719495    0.383910
      5         11           0        2.835041   -1.238221   -0.342898
      6         11           0       -0.024271    0.334780    1.964278
      7         11           0       -2.990590   -1.123461   -0.247236
 ---------------------------------------------------------------------

 SCF Done:  E(UB3LYP) =  -1136.13957117     A.U. after   19 cycles

 The electronic state is 2-A.
 Alpha  occ. eigenvalues --  -38.43913 -38.43738 -38.43701 -38.43660 -38.43508
 Alpha  occ. eigenvalues --  -38.43338 -38.43082  -2.19727  -2.19569  -2.19563
 Alpha  occ. eigenvalues --   -2.19513  -2.19430  -2.19295  -2.18961  -1.13401
 Alpha  occ. eigenvalues --   -1.13391  -1.13370  -1.13282  -1.13255  -1.13247
 Alpha  occ. eigenvalues --   -1.13239  -1.13203  -1.13196  -1.13182  -1.13169
 Alpha  occ. eigenvalues --   -1.13141  -1.13093  -1.13051  -1.13045  -1.12970
 Alpha  occ. eigenvalues --   -1.12925  -1.12911  -1.12641  -1.12622  -1.12595
 Alpha  occ. eigenvalues --   -0.18729  -0.12896  -0.12556  -0.10876
 Alpha virt. eigenvalues --   -0.05525  -0.05264  -0.04540  -0.03147  -0.03043
 Alpha virt. eigenvalues --   -0.02621  -0.01442  -0.01204  -0.00305  -0.00205
 Alpha virt. eigenvalues --    0.00008   0.00364   0.00811   0.00863   0.00929

  Beta  occ. eigenvalues --  -38.43912 -38.43733 -38.43693 -38.43654 -38.43417
  Beta  occ. eigenvalues --  -38.43269 -38.43073  -2.19726  -2.19560  -2.19555
  Beta  occ. eigenvalues --   -2.19504  -2.19264  -2.19168  -2.18948  -1.13399
  Beta  occ. eigenvalues --   -1.13379  -1.13370  -1.13269  -1.13238  -1.13222
  Beta  occ. eigenvalues --   -1.13213  -1.13197  -1.13186  -1.13179  -1.13147
  Beta  occ. eigenvalues --   -1.13137  -1.12986  -1.12933  -1.12930  -1.12885
  Beta  occ. eigenvalues --   -1.12838  -1.12815  -1.12630  -1.12594  -1.12585
  Beta  occ. eigenvalues --   -0.17991  -0.12651  -0.12308
  Beta virt. eigenvalues --   -0.06963  -0.05532  -0.05200  -0.04500  -0.02384
  Beta virt. eigenvalues --   -0.02245  -0.01569  -0.01347  -0.01152  -0.00365
  Beta virt. eigenvalues --   -0.00207   0.00120   0.00385   0.00836   0.00893

 Mulliken charges and spin densities:
               1          2
     1  Na   0.259712  -0.091878
     2  Na   0.058730  -0.132318
     3  Na  -0.247923   0.618555
     4  Na   0.109570   0.002994
     5  Na   0.127640  -0.012495
     6  Na  -0.258114   0.687439
     7  Na  -0.049616  -0.072297
 Sum of Mulliken charges =  -0.00000   1.00000

 Dipole moment (field-independent basis, Debye):
    X=             -0.0840    Y=              0.2771    Z=             -0.0088  Tot=              0.2897
 Quadrupole moment (field-independent basis, Debye-Ang):
   XX=            -56.8636   YY=            -63.0399   ZZ=            -73.6851
   XY=             -0.2607   XZ=              0.3726   YZ=             -0.2072

 Normal termination of Gaussian 16 at Thu Dec  7 16:13:00 2023.
