 Gaussian 16, Revision B.01,
 Gaussian 16:  ES64L-G16RevB.01 20-Dec-2017

 -------------------------
 #P B3LYP/6-311+g(d) force
 -------------------------

 -----
 DPGEN
 -----
 Symbolic Z-matrix:
 Charge =  0 Multiplicity = 2

                         Standard orientation:
 ---------------------------------------------------------------------
 Center     Atomic      Atomic             Coordinates (Angstroms)
 Number     Number       Type             X           Y           Z
 ---------------------------------------------------------------------
      1         11           0       -1.780552    1.222861    1.506267
      2         11           0        3.926077   -1.090221   -0.721145
      3         11           0       -2.313954   -2.737384    0.270523
      4         11           0        0.222499   -0.913193   -0.760712
      5         11           0       -2.470101    0.779807   -1.576868
      6         11           0        1.591134   -0.007574    1.769700
      7         11           0        0.824895    2.745704   -0.487765
 ---------------------------------------------------------------------

 SCF Done:  E(UB3LYP) =  -1136.12487671     A.U. after   21 cycles

 The electronic state is 2-A.
 Alpha  occ. eigenvalues --  -38.44448 -38.44130 -38.43922 -38.43884 -38.43772
 Alpha  occ. eigenvalues --  -38.43606 -38.43080  -2.20219  -2.19998  -2.19799
 Alpha  occ. eigenvalues --   -2.19681  -2.19669  -2.19392  -2.19057  -1.13889
 Alpha  occ. eigenvalues --   -1.13877  -1.13838  -1.13704  -1.13688  -1.13570
 Alpha  occ. eigenvalues --   -1.13481  -1.13457  -1.13430  -1.13405  -1.13361
 Alpha  occ. eigenvalues --   -1.13346  -1.13306  -1.13290  -1.13254  -1.13079
 Alpha  occ. eigenvalues --   -1.13051  -1.13024  -1.12793  -1.12712  -1.12646
 Alpha  occ. eigenvalues --   -0.18211  -0.13141  -0.11575  -0.10804
 Alpha virt. eigenvalues --   -0.06323  -0.05321  -0.04371  -0.03135  -0.02613
 Alpha virt. eigenvalues --   -0.02235  -0.02074  -0.01385  -0.00741  -0.00187
 Alpha virt. eigenvalues --    0.00204   0.00231   0.00307   0.00586   0.00764

  Beta  occ. eigenvalues --  -38.44430 -38.44082 -38.43887 -38.43876 -38.43724
  Beta  occ. eigenvalues --  -38.43604 -38.43062  -2.20184  -2.19909  -2.19737
  Beta  occ. eigenvalues --   -2.19669  -2.19585  -2.19390  -2.19028  -1.13862
  Beta  occ. eigenvalues --   -1.13853  -1.13817  -1.13647  -1.13622  -1.13505
  Beta  occ. eigenvalues --   -1.13431  -1.13396  -1.13378  -1.13365  -1.13349
  Beta  occ. eigenvalues --   -1.13317  -1.13299  -1.13236  -1.13171  -1.13078
  Beta  occ. eigenvalues --   -1.13040  -1.13024  -1.12741  -1.12689  -1.12628
  Beta  occ. eigenvalues --   -0.17479  -0.12928  -0.11401
  Beta virt. eigenvalues --   -0.07025  -0.06112  -0.05144  -0.03906  -0.02980
  Beta virt. eigenvalues --   -0.02058  -0.01908  -0.01491  -0.01252  -0.00340
  Beta virt. eigenvalues --   -0.00126   0.00254   0.00289   0.00407   0.00663

 Mulliken charges and spin densities:
               1          2
     1  Na   0.412524   0.264220
     2  Na   0.094077   0.089996
     3  Na   0.055180  -0.098728
     4  Na  -0.717763   0.449089
     5  Na   0.318737   0.125262
     6  Na   0.057199   0.061767
     7  Na  -0.219953   0.108393
 Sum of Mulliken charges =  -0.00000   1.00000

 Dipole moment (field-independent basis, Debye):
    X=              0.2882    Y=              0.3951    Z=              0.0339  Tot=              0.4902
 Quadrupole moment (field-independent basis, Debye-Ang):
   XX=            -53.4703   YY=            -68.5524   ZZ=            -68.8796
   XY=              0.3584   XZ=             -2.3743   YZ=             -1.6568

 Normal termination of Gaussian 16 at Tue Dec  5 20:27:25 2023.
