 Gaussian 16, Revision B.01,
 Gaussian 16:  ES64L-G16RevB.01 20-Dec-2017

 -------------------------
 #P B3LYP/6-311+g(d) force
 -------------------------

 -----
 DPGEN
 -----
 Symbolic Z-matrix:
 Charge =  0 Multiplicity = 2

                         Standard orientation:
 ---------------------------------------------------------------------
 Center     Atomic      Atomic             Coordinates (Angstroms)
 Number     Number       Type             X           Y           Z
 ---------------------------------------------------------------------
      1         11           0        3.017481    2.394620    0.247906
      2         11           0       -0.710967    3.245244   -0.520415
      3         11           0       -3.696748    2.141442    0.567661
      4         11           0       -1.198713   -3.358634   -0.454991
      5         11           0        4.286904   -0.366374   -0.520197
      6         11           0        2.349019   -2.481750    0.846963
      7         11           0       -4.046976   -1.574549   -0.166926
 ---------------------------------------------------------------------

 SCF Done:  E(UB3LYP) =  -1136.10658804     A.U. after   24 cycles

 The electronic state is 2-A.
 Alpha  occ. eigenvalues --  -38.44990 -38.44955 -38.44656 -38.44591 -38.44404
 Alpha  occ. eigenvalues --  -38.44176 -38.44081  -2.20822  -2.20705  -2.20412
 Alpha  occ. eigenvalues --   -2.20371  -2.20189  -2.19991  -2.19901  -1.14506
 Alpha  occ. eigenvalues --   -1.14498  -1.14479  -1.14387  -1.14382  -1.14343
 Alpha  occ. eigenvalues --   -1.14096  -1.14093  -1.14071  -1.14036  -1.14015
 Alpha  occ. eigenvalues --   -1.13983  -1.13850  -1.13835  -1.13825  -1.13644
 Alpha  occ. eigenvalues --   -1.13629  -1.13618  -1.13555  -1.13538  -1.13531
 Alpha  occ. eigenvalues --   -0.15712  -0.14185  -0.13187  -0.10603
 Alpha virt. eigenvalues --   -0.07819  -0.04816  -0.04522  -0.03617  -0.03309
 Alpha virt. eigenvalues --   -0.02747  -0.02320  -0.02001  -0.01086  -0.00562
 Alpha virt. eigenvalues --   -0.00408  -0.00186   0.00099   0.00296   0.00544

  Beta  occ. eigenvalues --  -38.44986 -38.44949 -38.44652 -38.44551 -38.44367
  Beta  occ. eigenvalues --  -38.44108 -38.44014  -2.20822  -2.20701  -2.20409
  Beta  occ. eigenvalues --   -2.20299  -2.20123  -2.19865  -2.19778  -1.14505
  Beta  occ. eigenvalues --   -1.14486  -1.14451  -1.14388  -1.14383  -1.14310
  Beta  occ. eigenvalues --   -1.14095  -1.14091  -1.14036  -1.13989  -1.13969
  Beta  occ. eigenvalues --   -1.13930  -1.13806  -1.13793  -1.13772  -1.13558
  Beta  occ. eigenvalues --   -1.13544  -1.13536  -1.13473  -1.13455  -1.13448
  Beta  occ. eigenvalues --   -0.15144  -0.13524  -0.12428
  Beta virt. eigenvalues --   -0.07963  -0.07501  -0.04506  -0.03976  -0.03373
  Beta virt. eigenvalues --   -0.02937  -0.02563  -0.02098  -0.01741  -0.00999
  Beta virt. eigenvalues --   -0.00236  -0.00204   0.00032   0.00174   0.00371

 Mulliken charges and spin densities:
               1          2
     1  Na  -0.077242   0.339803
     2  Na  -0.252688   0.006804
     3  Na   0.216735   0.153551
     4  Na   0.054908  -0.003805
     5  Na   0.205817   0.017574
     6  Na  -0.195992   0.325583
     7  Na   0.048461   0.160490
 Sum of Mulliken charges =  -0.00000   1.00000

 Dipole moment (field-independent basis, Debye):
    X=             -0.0251    Y=              0.0484    Z=             -0.1077  Tot=              0.1207
 Quadrupole moment (field-independent basis, Debye-Ang):
   XX=            -57.8248   YY=            -72.8508   ZZ=            -70.9377
   XY=             -1.6416   XZ=             -3.3444   YZ=              0.5024

 Normal termination of Gaussian 16 at Sun Dec  3 19:33:38 2023.
