 Gaussian 16, Revision B.01,
 Gaussian 16:  ES64L-G16RevB.01 20-Dec-2017

 -------------------------
 #P B3LYP/6-311+g(d) force
 -------------------------

 -----
 DPGEN
 -----
 Symbolic Z-matrix:
 Charge =  0 Multiplicity = 2

                         Standard orientation:
 ---------------------------------------------------------------------
 Center     Atomic      Atomic             Coordinates (Angstroms)
 Number     Number       Type             X           Y           Z
 ---------------------------------------------------------------------
      1         11           0        0.187110   -0.318697   -1.471568
      2         11           0       -0.735809    0.170151    2.083832
      3         11           0       -1.471963   -2.882442    0.110481
      4         11           0        2.813634    1.839071   -0.349722
      5         11           0       -0.980586    2.930173    0.223442
      6         11           0       -3.015653    0.127210   -0.817667
      7         11           0        3.203266   -1.865466    0.221201
 ---------------------------------------------------------------------

 SCF Done:  E(UB3LYP) =  -1136.13023008     A.U. after   20 cycles

 The electronic state is 2-A.
 Alpha  occ. eigenvalues --  -38.44729 -38.44462 -38.44056 -38.43752 -38.43560
 Alpha  occ. eigenvalues --  -38.43463 -38.43232  -2.20466  -2.20226  -2.19920
 Alpha  occ. eigenvalues --   -2.19564  -2.19431  -2.19373  -2.19055  -1.14147
 Alpha  occ. eigenvalues --   -1.14119  -1.14105  -1.13914  -1.13887  -1.13848
 Alpha  occ. eigenvalues --   -1.13613  -1.13570  -1.13541  -1.13240  -1.13228
 Alpha  occ. eigenvalues --   -1.13206  -1.13102  -1.13065  -1.13064  -1.13047
 Alpha  occ. eigenvalues --   -1.13013  -1.12999  -1.12732  -1.12712  -1.12697
 Alpha  occ. eigenvalues --   -0.17912  -0.12998  -0.12059  -0.10460
 Alpha virt. eigenvalues --   -0.06159  -0.05532  -0.04796  -0.03050  -0.02797
 Alpha virt. eigenvalues --   -0.02418  -0.01773  -0.01392  -0.00834  -0.00681
 Alpha virt. eigenvalues --   -0.00046   0.00305   0.00671   0.00722   0.00769

  Beta  occ. eigenvalues --  -38.44732 -38.44458 -38.44025 -38.43748 -38.43465
  Beta  occ. eigenvalues --  -38.43418 -38.43226  -2.20473  -2.20221  -2.19866
  Beta  occ. eigenvalues --   -2.19559  -2.19295  -2.19255  -2.19049  -1.14148
  Beta  occ. eigenvalues --   -1.14124  -1.14109  -1.13902  -1.13883  -1.13847
  Beta  occ. eigenvalues --   -1.13568  -1.13521  -1.13505  -1.13236  -1.13215
  Beta  occ. eigenvalues --   -1.13192  -1.13022  -1.12971  -1.12957  -1.12945
  Beta  occ. eigenvalues --   -1.12932  -1.12920  -1.12718  -1.12699  -1.12688
  Beta  occ. eigenvalues --   -0.17209  -0.12822  -0.11854
  Beta virt. eigenvalues --   -0.06604  -0.06074  -0.05414  -0.04719  -0.02510
  Beta virt. eigenvalues --   -0.02088  -0.01697  -0.01392  -0.01310  -0.00821
  Beta virt. eigenvalues --   -0.00656   0.00129   0.00370   0.00711   0.00777

 Mulliken charges and spin densities:
               1          2
     1  Na   0.256905   0.265689
     2  Na  -0.330977   0.750926
     3  Na  -0.097657   0.001679
     4  Na  -0.047349  -0.079375
     5  Na  -0.020817  -0.032782
     6  Na   0.370960   0.124840
     7  Na  -0.131065  -0.030977
 Sum of Mulliken charges =  -0.00000   1.00000

 Dipole moment (field-independent basis, Debye):
    X=              0.4443    Y=             -0.2501    Z=              0.0463  Tot=              0.5119
 Quadrupole moment (field-independent basis, Debye-Ang):
   XX=            -56.0012   YY=            -60.7821   ZZ=            -76.0002
   XY=              0.0072   XZ=              2.0977   YZ=             -1.8215

 Normal termination of Gaussian 16 at Thu Dec  7 07:36:49 2023.
