 Gaussian 16, Revision B.01,
 Gaussian 16:  ES64L-G16RevB.01 20-Dec-2017

 -------------------------
 #P B3LYP/6-311+g(d) force
 -------------------------

 -----
 DPGEN
 -----
 Symbolic Z-matrix:
 Charge =  0 Multiplicity = 2

                         Standard orientation:
 ---------------------------------------------------------------------
 Center     Atomic      Atomic             Coordinates (Angstroms)
 Number     Number       Type             X           Y           Z
 ---------------------------------------------------------------------
      1         11           0        1.028098    2.199351   -0.523308
      2         11           0       -1.536778    1.874330    1.366156
      3         11           0       -4.401362   -0.574244   -1.304474
      4         11           0       -1.480742   -0.713000   -1.045901
      5         11           0       -0.226965   -0.934412    2.439083
      6         11           0        2.304630   -2.395823    0.040419
      7         11           0        4.313120    0.543798   -0.971975
 ---------------------------------------------------------------------

 SCF Done:  E(UB3LYP) =  -1136.11234208     A.U. after   26 cycles

 The electronic state is 2-A.
 Alpha  occ. eigenvalues --  -38.45451 -38.44852 -38.44551 -38.44424 -38.43511
 Alpha  occ. eigenvalues --  -38.43493 -38.43420  -2.21284  -2.20611  -2.20315
 Alpha  occ. eigenvalues --   -2.20248  -2.19396  -2.19368  -2.19243  -1.14936
 Alpha  occ. eigenvalues --   -1.14921  -1.14900  -1.14282  -1.14269  -1.14239
 Alpha  occ. eigenvalues --   -1.13992  -1.13982  -1.13936  -1.13933  -1.13894
 Alpha  occ. eigenvalues --   -1.13873  -1.13181  -1.13073  -1.13058  -1.13049
 Alpha  occ. eigenvalues --   -1.13017  -1.12985  -1.12879  -1.12876  -1.12835
 Alpha  occ. eigenvalues --   -0.17545  -0.13360  -0.12218  -0.11368
 Alpha virt. eigenvalues --   -0.06774  -0.05460  -0.04802  -0.03322  -0.02756
 Alpha virt. eigenvalues --   -0.02616  -0.02424  -0.01221  -0.01137  -0.00496
 Alpha virt. eigenvalues --   -0.00148  -0.00002   0.00155   0.00402   0.00682

  Beta  occ. eigenvalues --  -38.45359 -38.44830 -38.44524 -38.44381 -38.43506
  Beta  occ. eigenvalues --  -38.43492 -38.43405  -2.21113  -2.20570  -2.20266
  Beta  occ. eigenvalues --   -2.20167  -2.19390  -2.19368  -2.19216  -1.14823
  Beta  occ. eigenvalues --   -1.14805  -1.14773  -1.14254  -1.14231  -1.14216
  Beta  occ. eigenvalues --   -1.13961  -1.13944  -1.13894  -1.13878  -1.13842
  Beta  occ. eigenvalues --   -1.13813  -1.13170  -1.13061  -1.13051  -1.13030
  Beta  occ. eigenvalues --   -1.13019  -1.12987  -1.12860  -1.12858  -1.12819
  Beta  occ. eigenvalues --   -0.16847  -0.13016  -0.11196
  Beta virt. eigenvalues --   -0.08491  -0.06354  -0.05001  -0.04300  -0.02953
  Beta virt. eigenvalues --   -0.02423  -0.02286  -0.02132  -0.01075  -0.00887
  Beta virt. eigenvalues --   -0.00283  -0.00074   0.00116   0.00325   0.00583

 Mulliken charges and spin densities:
               1          2
     1  Na  -0.133865   0.129675
     2  Na   0.598268   0.213478
     3  Na   0.253440  -0.115867
     4  Na  -1.069027   0.313398
     5  Na  -0.064463   0.292927
     6  Na   0.479887   0.085318
     7  Na  -0.064240   0.081071
 Sum of Mulliken charges =  -0.00000   1.00000

 Dipole moment (field-independent basis, Debye):
    X=              0.8375    Y=              0.4251    Z=              1.0576  Tot=              1.4144
 Quadrupole moment (field-independent basis, Debye-Ang):
   XX=            -59.1950   YY=            -70.3264   ZZ=            -69.6259
   XY=             -2.5070   XZ=             -5.7411   YZ=             -4.6018

 Normal termination of Gaussian 16 at Mon Dec  4 02:07:11 2023.
