 Gaussian 16, Revision B.01,
 Gaussian 16:  ES64L-G16RevB.01 20-Dec-2017

 -------------------------
 #P B3LYP/6-311+g(d) force
 -------------------------

 -----
 DPGEN
 -----
 Symbolic Z-matrix:
 Charge =  0 Multiplicity = 2

                         Standard orientation:
 ---------------------------------------------------------------------
 Center     Atomic      Atomic             Coordinates (Angstroms)
 Number     Number       Type             X           Y           Z
 ---------------------------------------------------------------------
      1         11           0        3.470650    1.271286    0.488374
      2         11           0        0.370375    2.667867    0.451264
      3         11           0       -1.157685   -1.029103    2.012009
      4         11           0       -2.966544    1.256731   -1.453911
      5         11           0       -4.429810   -1.198537    0.214455
      6         11           0        4.139155   -1.814568   -0.536669
      7         11           0        0.573859   -1.153677   -1.175521
 ---------------------------------------------------------------------

 SCF Done:  E(UB3LYP) =  -1136.10845530     A.U. after   29 cycles

 The electronic state is 2-A.
 Alpha  occ. eigenvalues --  -38.46305 -38.44905 -38.44889 -38.44795 -38.44742
 Alpha  occ. eigenvalues --  -38.43240 -38.42284  -2.22053  -2.20700  -2.20680
 Alpha  occ. eigenvalues --   -2.20597  -2.20543  -2.19047  -2.18080  -1.15756
 Alpha  occ. eigenvalues --   -1.15710  -1.15662  -1.14386  -1.14367  -1.14357
 Alpha  occ. eigenvalues --   -1.14354  -1.14328  -1.14326  -1.14254  -1.14223
 Alpha  occ. eigenvalues --   -1.14222  -1.14209  -1.14176  -1.14148  -1.12719
 Alpha  occ. eigenvalues --   -1.12705  -1.12682  -1.11755  -1.11748  -1.11728
 Alpha  occ. eigenvalues --   -0.16904  -0.14152  -0.11172  -0.10925
 Alpha virt. eigenvalues --   -0.07771  -0.05509  -0.04303  -0.03543  -0.03144
 Alpha virt. eigenvalues --   -0.02862  -0.01990  -0.01754  -0.01119  -0.00603
 Alpha virt. eigenvalues --   -0.00460  -0.00004   0.00118   0.00428   0.00533

  Beta  occ. eigenvalues --  -38.46288 -38.44911 -38.44865 -38.44700 -38.44681
  Beta  occ. eigenvalues --  -38.43225 -38.42280  -2.22025  -2.20695  -2.20657
  Beta  occ. eigenvalues --   -2.20430  -2.20419  -2.19021  -2.18075  -1.15720
  Beta  occ. eigenvalues --   -1.15695  -1.15644  -1.14374  -1.14357  -1.14356
  Beta  occ. eigenvalues --   -1.14328  -1.14321  -1.14285  -1.14146  -1.14126
  Beta  occ. eigenvalues --   -1.14106  -1.14102  -1.14095  -1.14067  -1.12699
  Beta  occ. eigenvalues --   -1.12685  -1.12665  -1.11752  -1.11737  -1.11726
  Beta  occ. eigenvalues --   -0.16318  -0.13686  -0.10889
  Beta virt. eigenvalues --   -0.07662  -0.07291  -0.05200  -0.04056  -0.03074
  Beta virt. eigenvalues --   -0.02923  -0.02356  -0.01925  -0.01260  -0.00883
  Beta virt. eigenvalues --   -0.00497  -0.00246   0.00069   0.00264   0.00501

 Mulliken charges and spin densities:
               1          2
     1  Na   0.030990   0.125982
     2  Na  -0.250143  -0.031585
     3  Na   0.091308   0.387050
     4  Na   0.245712   0.542539
     5  Na   0.122544  -0.076511
     6  Na   0.240061   0.029421
     7  Na  -0.480473   0.023104
 Sum of Mulliken charges =  -0.00000   1.00000

 Dipole moment (field-independent basis, Debye):
    X=             -0.6019    Y=             -0.7804    Z=              0.2910  Tot=              1.0276
 Quadrupole moment (field-independent basis, Debye-Ang):
   XX=            -61.3318   YY=            -75.4671   ZZ=            -66.4210
   XY=              3.9258   XZ=              0.6444   YZ=              0.2709

 Normal termination of Gaussian 16 at Sun Dec  3 16:48:25 2023.
