 Gaussian 16, Revision B.01,
 Gaussian 16:  ES64L-G16RevB.01 20-Dec-2017

 -------------------------
 #P B3LYP/6-311+g(d) force
 -------------------------

 -----
 DPGEN
 -----
 Symbolic Z-matrix:
 Charge =  0 Multiplicity = 2

                         Standard orientation:
 ---------------------------------------------------------------------
 Center     Atomic      Atomic             Coordinates (Angstroms)
 Number     Number       Type             X           Y           Z
 ---------------------------------------------------------------------
      1         11           0       -0.401438    0.385696   -1.231099
      2         11           0        1.611092   -2.087333    0.210825
      3         11           0       -0.634178    2.819946    0.419457
      4         11           0        1.111951    0.817214    1.458468
      5         11           0        2.239803    0.262027   -1.445628
      6         11           0       -0.833178   -1.321995    1.268336
      7         11           0       -3.094052   -0.875557   -0.680359
 ---------------------------------------------------------------------

 SCF Done:  E(UB3LYP) =  -1136.09593291     A.U. after   20 cycles

 The electronic state is 2-A.
 Alpha  occ. eigenvalues --  -38.44513 -38.43901 -38.43671 -38.43619 -38.43586
 Alpha  occ. eigenvalues --  -38.43568 -38.43463  -2.20555  -2.19839  -2.19789
 Alpha  occ. eigenvalues --   -2.19730  -2.19708  -2.19595  -2.19546  -1.14478
 Alpha  occ. eigenvalues --   -1.14189  -1.14126  -1.13758  -1.13652  -1.13590
 Alpha  occ. eigenvalues --   -1.13556  -1.13498  -1.13459  -1.13408  -1.13383
 Alpha  occ. eigenvalues --   -1.13375  -1.13287  -1.13259  -1.13248  -1.13224
 Alpha  occ. eigenvalues --   -1.13185  -1.13146  -1.13121  -1.13111  -1.13099
 Alpha  occ. eigenvalues --   -0.20439  -0.13253  -0.12669  -0.12149
 Alpha virt. eigenvalues --   -0.05213  -0.04674  -0.03884  -0.03445  -0.03264
 Alpha virt. eigenvalues --   -0.02910  -0.01162  -0.00849  -0.00285   0.00318
 Alpha virt. eigenvalues --    0.00609   0.00823   0.00838   0.00935   0.01143

  Beta  occ. eigenvalues --  -38.44454 -38.43887 -38.43611 -38.43606 -38.43557
  Beta  occ. eigenvalues --  -38.43542 -38.43408  -2.20449  -2.19763  -2.19724
  Beta  occ. eigenvalues --   -2.19641  -2.19633  -2.19575  -2.19533  -1.14392
  Beta  occ. eigenvalues --   -1.14121  -1.14046  -1.13692  -1.13594  -1.13553
  Beta  occ. eigenvalues --   -1.13492  -1.13458  -1.13386  -1.13377  -1.13342
  Beta  occ. eigenvalues --   -1.13315  -1.13236  -1.13217  -1.13188  -1.13180
  Beta  occ. eigenvalues --   -1.13136  -1.13115  -1.13093  -1.13084  -1.13063
  Beta  occ. eigenvalues --   -0.19666  -0.12986  -0.12388
  Beta virt. eigenvalues --   -0.07941  -0.05062  -0.04659  -0.03528  -0.02997
  Beta virt. eigenvalues --   -0.02516  -0.01851  -0.01035  -0.00791  -0.00038
  Beta virt. eigenvalues --    0.00358   0.00625   0.00866   0.00891   0.01005

 Mulliken charges and spin densities:
               1          2
     1  Na  -0.873184   0.140126
     2  Na  -0.063175   0.155246
     3  Na  -0.160697   0.022216
     4  Na   0.038995   0.344351
     5  Na   0.631427   0.228793
     6  Na   0.090719   0.111117
     7  Na   0.335915  -0.001849
 Sum of Mulliken charges =  -0.00000   1.00000

 Dipole moment (field-independent basis, Debye):
    X=             -0.0679    Y=              0.1292    Z=             -0.0994  Tot=              0.1765
 Quadrupole moment (field-independent basis, Debye-Ang):
   XX=            -60.1128   YY=            -66.4693   ZZ=            -68.1102
   XY=             -1.3620   XZ=             -0.1104   YZ=              0.3444

 Normal termination of Gaussian 16 at Sat Dec  9 05:50:36 2023.
