 Gaussian 16, Revision B.01,
 Gaussian 16:  ES64L-G16RevB.01 20-Dec-2017

 -------------------------
 #P B3LYP/6-311+g(d) force
 -------------------------

 -----
 DPGEN
 -----
 Symbolic Z-matrix:
 Charge =  0 Multiplicity = 2

                         Standard orientation:
 ---------------------------------------------------------------------
 Center     Atomic      Atomic             Coordinates (Angstroms)
 Number     Number       Type             X           Y           Z
 ---------------------------------------------------------------------
      1         11           0       -1.099850   -3.537890   -0.248045
      2         11           0       -3.798136   -1.977084    0.027088
      3         11           0        2.195607   -2.670924    0.467805
      4         11           0       -3.374008    1.726621   -0.110325
      5         11           0       -0.851279    4.355498    0.042840
      6         11           0        5.021413   -0.004186   -0.382292
      7         11           0        1.906253    2.107965    0.202929
 ---------------------------------------------------------------------

 SCF Done:  E(UB3LYP) =  -1136.11150397     A.U. after   22 cycles

 The electronic state is 2-A.
 Alpha  occ. eigenvalues --  -38.45661 -38.45470 -38.45183 -38.44185 -38.44084
 Alpha  occ. eigenvalues --  -38.43958 -38.43840  -2.21392  -2.21208  -2.20941
 Alpha  occ. eigenvalues --   -2.19959  -2.19892  -2.19777  -2.19632  -1.15097
 Alpha  occ. eigenvalues --   -1.15087  -1.14985  -1.14902  -1.14886  -1.14818
 Alpha  occ. eigenvalues --   -1.14627  -1.14620  -1.14546  -1.13618  -1.13610
 Alpha  occ. eigenvalues --   -1.13609  -1.13573  -1.13555  -1.13533  -1.13441
 Alpha  occ. eigenvalues --   -1.13435  -1.13388  -1.13294  -1.13284  -1.13267
 Alpha  occ. eigenvalues --   -0.15508  -0.13672  -0.13566  -0.10846
 Alpha virt. eigenvalues --   -0.07442  -0.05482  -0.04180  -0.03472  -0.03073
 Alpha virt. eigenvalues --   -0.02504  -0.02275  -0.02192  -0.01987  -0.00504
 Alpha virt. eigenvalues --   -0.00248  -0.00062   0.00073   0.00387   0.00574

  Beta  occ. eigenvalues --  -38.45646 -38.45450 -38.45143 -38.44125 -38.44066
  Beta  occ. eigenvalues --  -38.43940 -38.43810  -2.21368  -2.21174  -2.20873
  Beta  occ. eigenvalues --   -2.19859  -2.19849  -2.19746  -2.19576  -1.15085
  Beta  occ. eigenvalues --   -1.15074  -1.14940  -1.14882  -1.14867  -1.14772
  Beta  occ. eigenvalues --   -1.14585  -1.14576  -1.14467  -1.13593  -1.13543
  Beta  occ. eigenvalues --   -1.13533  -1.13532  -1.13502  -1.13501  -1.13422
  Beta  occ. eigenvalues --   -1.13413  -1.13353  -1.13256  -1.13242  -1.13234
  Beta  occ. eigenvalues --   -0.15012  -0.13228  -0.12865
  Beta virt. eigenvalues --   -0.07503  -0.07451  -0.05085  -0.03824  -0.03206
  Beta virt. eigenvalues --   -0.02602  -0.02268  -0.02113  -0.02004  -0.01837
  Beta virt. eigenvalues --   -0.00197   0.00094   0.00141   0.00248   0.00437

 Mulliken charges and spin densities:
               1          2
     1  Na  -0.252136  -0.017817
     2  Na   0.135208   0.044199
     3  Na  -0.224562   0.164760
     4  Na  -0.059708   0.177694
     5  Na   0.566748   0.127297
     6  Na   0.611818   0.305765
     7  Na  -0.777367   0.198102
 Sum of Mulliken charges =  -0.00000   1.00000

 Dipole moment (field-independent basis, Debye):
    X=              0.1981    Y=              0.4238    Z=              0.0346  Tot=              0.4691
 Quadrupole moment (field-independent basis, Debye-Ang):
   XX=            -61.0768   YY=            -63.5397   ZZ=            -74.0606
   XY=             -2.6412   XZ=             -0.1630   YZ=             -0.2295

 Normal termination of Gaussian 16 at Mon Dec  4 04:47:37 2023.
