 Gaussian 16, Revision B.01,
 Gaussian 16:  ES64L-G16RevB.01 20-Dec-2017

 -------------------------
 #P B3LYP/6-311+g(d) force
 -------------------------

 -----
 DPGEN
 -----
 Symbolic Z-matrix:
 Charge =  0 Multiplicity = 2

                         Standard orientation:
 ---------------------------------------------------------------------
 Center     Atomic      Atomic             Coordinates (Angstroms)
 Number     Number       Type             X           Y           Z
 ---------------------------------------------------------------------
      1         11           0       -3.086810    0.776775   -0.783659
      2         11           0        0.140520    0.342358   -0.641647
      3         11           0       -1.802509   -0.974895    2.273402
      4         11           0        2.663798   -2.122493    0.040608
      5         11           0       -0.337073    3.254241    0.237905
      6         11           0       -1.691682   -2.169053   -1.098212
      7         11           0        4.113757    0.893066   -0.028398
 ---------------------------------------------------------------------

 SCF Done:  E(UB3LYP) =  -1136.11845745     A.U. after   22 cycles

 The electronic state is 2-A.
 Alpha  occ. eigenvalues --  -38.45416 -38.44841 -38.44526 -38.43572 -38.43325
 Alpha  occ. eigenvalues --  -38.43249 -38.43129  -2.21168  -2.20699  -2.20308
 Alpha  occ. eigenvalues --   -2.19411  -2.19249  -2.19214  -2.18937  -1.14844
 Alpha  occ. eigenvalues --   -1.14819  -1.14808  -1.14391  -1.14357  -1.14315
 Alpha  occ. eigenvalues --   -1.13980  -1.13979  -1.13936  -1.13059  -1.13040
 Alpha  occ. eigenvalues --   -1.13032  -1.13019  -1.12942  -1.12909  -1.12852
 Alpha  occ. eigenvalues --   -1.12845  -1.12828  -1.12612  -1.12588  -1.12556
 Alpha  occ. eigenvalues --   -0.17770  -0.13650  -0.11687  -0.10350
 Alpha virt. eigenvalues --   -0.06868  -0.05609  -0.04452  -0.03075  -0.02549
 Alpha virt. eigenvalues --   -0.02334  -0.02010  -0.01512  -0.00847  -0.00773
 Alpha virt. eigenvalues --   -0.00314   0.00204   0.00382   0.00651   0.00712

  Beta  occ. eigenvalues --  -38.45421 -38.44818 -38.44527 -38.43456 -38.43296
  Beta  occ. eigenvalues --  -38.43232 -38.43130  -2.21176  -2.20661  -2.20310
  Beta  occ. eigenvalues --   -2.19222  -2.19195  -2.19165  -2.18939  -1.14849
  Beta  occ. eigenvalues --   -1.14826  -1.14813  -1.14362  -1.14312  -1.14285
  Beta  occ. eigenvalues --   -1.13980  -1.13975  -1.13940  -1.13002  -1.12920
  Beta  occ. eigenvalues --   -1.12906  -1.12885  -1.12880  -1.12878  -1.12822
  Beta  occ. eigenvalues --   -1.12810  -1.12773  -1.12611  -1.12583  -1.12557
  Beta  occ. eigenvalues --   -0.17135  -0.13512  -0.11542
  Beta virt. eigenvalues --   -0.06744  -0.06191  -0.05579  -0.04358  -0.02643
  Beta virt. eigenvalues --   -0.02382  -0.01734  -0.01463  -0.01160  -0.00839
  Beta virt. eigenvalues --   -0.00683   0.00109   0.00283   0.00597   0.00665

 Mulliken charges and spin densities:
               1          2
     1  Na   1.203961   0.171223
     2  Na  -2.642172   0.209769
     3  Na  -0.504231   0.592747
     4  Na   0.472574  -0.024211
     5  Na   0.159601  -0.043045
     6  Na   0.995356   0.159508
     7  Na   0.314910  -0.065992
 Sum of Mulliken charges =  -0.00000   1.00000

 Dipole moment (field-independent basis, Debye):
    X=              1.0488    Y=              0.0697    Z=             -0.1965  Tot=              1.0693
 Quadrupole moment (field-independent basis, Debye-Ang):
   XX=            -49.1270   YY=            -65.2709   ZZ=            -77.2307
   XY=              0.4321   XZ=              3.1146   YZ=              1.7020

 Normal termination of Gaussian 16 at Tue Dec  5 13:46:37 2023.
