 Gaussian 16, Revision B.01,
 Gaussian 16:  ES64L-G16RevB.01 20-Dec-2017

 -------------------------
 #P B3LYP/6-311+g(d) force
 -------------------------

 -----
 DPGEN
 -----
 Symbolic Z-matrix:
 Charge =  0 Multiplicity = 2

                         Standard orientation:
 ---------------------------------------------------------------------
 Center     Atomic      Atomic             Coordinates (Angstroms)
 Number     Number       Type             X           Y           Z
 ---------------------------------------------------------------------
      1         11           0        0.124016   -2.653968    0.204822
      2         11           0        1.713885    2.377419   -0.846767
      3         11           0       -1.888259    1.885747    0.443652
      4         11           0        3.308021   -1.018402   -0.150599
      5         11           0       -3.933425   -0.716889   -0.234627
      6         11           0        0.778283    0.428339    2.155656
      7         11           0       -0.102521   -0.302246   -1.572138
 ---------------------------------------------------------------------

 SCF Done:  E(UB3LYP) =  -1136.12695045     A.U. after   22 cycles

 The electronic state is 2-A.
 Alpha  occ. eigenvalues --  -38.45040 -38.44890 -38.43733 -38.43678 -38.43423
 Alpha  occ. eigenvalues --  -38.43368 -38.43130  -2.20829  -2.20643  -2.19686
 Alpha  occ. eigenvalues --   -2.19548  -2.19271  -2.19224  -2.18969  -1.14508
 Alpha  occ. eigenvalues --   -1.14480  -1.14465  -1.14318  -1.14312  -1.14273
 Alpha  occ. eigenvalues --   -1.13450  -1.13353  -1.13280  -1.13220  -1.13177
 Alpha  occ. eigenvalues --   -1.13159  -1.12959  -1.12949  -1.12927  -1.12882
 Alpha  occ. eigenvalues --   -1.12877  -1.12809  -1.12655  -1.12616  -1.12595
 Alpha  occ. eigenvalues --   -0.18225  -0.13124  -0.11793  -0.10874
 Alpha virt. eigenvalues --   -0.06837  -0.04966  -0.04034  -0.03216  -0.02891
 Alpha virt. eigenvalues --   -0.02569  -0.02385  -0.01270  -0.00416  -0.00186
 Alpha virt. eigenvalues --   -0.00078   0.00217   0.00501   0.00780   0.00821

  Beta  occ. eigenvalues --  -38.45036 -38.44895 -38.43680 -38.43582 -38.43414
  Beta  occ. eigenvalues --  -38.43362 -38.43106  -2.20824  -2.20653  -2.19591
  Beta  occ. eigenvalues --   -2.19370  -2.19256  -2.19214  -2.18927  -1.14490
  Beta  occ. eigenvalues --   -1.14474  -1.14462  -1.14323  -1.14318  -1.14279
  Beta  occ. eigenvalues --   -1.13382  -1.13291  -1.13208  -1.13100  -1.13056
  Beta  occ. eigenvalues --   -1.13033  -1.12949  -1.12915  -1.12911  -1.12877
  Beta  occ. eigenvalues --   -1.12849  -1.12805  -1.12617  -1.12589  -1.12559
  Beta  occ. eigenvalues --   -0.17495  -0.12983  -0.11549
  Beta virt. eigenvalues --   -0.06909  -0.06752  -0.04903  -0.03948  -0.02622
  Beta virt. eigenvalues --   -0.02365  -0.02103  -0.01547  -0.01199  -0.00321
  Beta virt. eigenvalues --   -0.00108  -0.00016   0.00242   0.00672   0.00833

 Mulliken charges and spin densities:
               1          2
     1  Na   0.027093  -0.035570
     2  Na   0.053228   0.080153
     3  Na   0.193924   0.051965
     4  Na   0.201292  -0.006030
     5  Na  -0.020987  -0.075046
     6  Na  -0.334024   0.569649
     7  Na  -0.120526   0.414879
 Sum of Mulliken charges =  -0.00000   1.00000

 Dipole moment (field-independent basis, Debye):
    X=              0.1466    Y=             -0.3571    Z=              0.1019  Tot=              0.3993
 Quadrupole moment (field-independent basis, Debye-Ang):
   XX=            -48.1662   YY=            -69.9573   ZZ=            -73.7827
   XY=              0.8683   XZ=             -0.5974   YZ=             -1.0462

 Normal termination of Gaussian 16 at Tue Dec  5 22:10:06 2023.
