 Gaussian 16, Revision B.01,
 Gaussian 16:  ES64L-G16RevB.01 20-Dec-2017

 -------------------------
 #P B3LYP/6-311+g(d) force
 -------------------------

 -----
 DPGEN
 -----
 Symbolic Z-matrix:
 Charge =  0 Multiplicity = 2

                         Standard orientation:
 ---------------------------------------------------------------------
 Center     Atomic      Atomic             Coordinates (Angstroms)
 Number     Number       Type             X           Y           Z
 ---------------------------------------------------------------------
      1         11           0       -3.622325   -1.274131   -0.638288
      2         11           0        0.054145   -0.685002   -1.726733
      3         11           0        0.994534    2.392569    0.755649
      4         11           0       -2.246096    1.923631   -0.279496
      5         11           0       -0.928145   -0.858515    1.934605
      6         11           0        2.207079   -1.403729    1.229898
      7         11           0        3.540808   -0.094822   -1.275634
 ---------------------------------------------------------------------

 SCF Done:  E(UB3LYP) =  -1136.12540112     A.U. after   25 cycles

 The electronic state is 2-A.
 Alpha  occ. eigenvalues --  -38.45024 -38.44655 -38.44565 -38.44230 -38.43940
 Alpha  occ. eigenvalues --  -38.43520 -38.42241  -2.20835  -2.20491  -2.20431
 Alpha  occ. eigenvalues --   -2.20116  -2.19733  -2.19360  -2.18052  -1.14538
 Alpha  occ. eigenvalues --   -1.14501  -1.14440  -1.14186  -1.14138  -1.14133
 Alpha  occ. eigenvalues --   -1.14119  -1.14053  -1.14039  -1.13795  -1.13749
 Alpha  occ. eigenvalues --   -1.13741  -1.13406  -1.13403  -1.13366  -1.13052
 Alpha  occ. eigenvalues --   -1.13024  -1.12971  -1.11728  -1.11722  -1.11691
 Alpha  occ. eigenvalues --   -0.18168  -0.13923  -0.11873  -0.10814
 Alpha virt. eigenvalues --   -0.06621  -0.05148  -0.04830  -0.03382  -0.02883
 Alpha virt. eigenvalues --   -0.02472  -0.02369  -0.01036  -0.00850  -0.00280
 Alpha virt. eigenvalues --    0.00136   0.00251   0.00366   0.00460   0.00735

  Beta  occ. eigenvalues --  -38.44990 -38.44627 -38.44476 -38.44189 -38.43942
  Beta  occ. eigenvalues --  -38.43510 -38.42239  -2.20772  -2.20439  -2.20271
  Beta  occ. eigenvalues --   -2.20045  -2.19737  -2.19342  -2.18050  -1.14488
  Beta  occ. eigenvalues --   -1.14456  -1.14390  -1.14153  -1.14090  -1.14082
  Beta  occ. eigenvalues --   -1.14025  -1.13932  -1.13925  -1.13735  -1.13705
  Beta  occ. eigenvalues --   -1.13667  -1.13409  -1.13400  -1.13370  -1.13034
  Beta  occ. eigenvalues --   -1.13014  -1.12959  -1.11724  -1.11710  -1.11692
  Beta  occ. eigenvalues --   -0.17398  -0.13746  -0.10698
  Beta virt. eigenvalues --   -0.07784  -0.06429  -0.04932  -0.04360  -0.03010
  Beta virt. eigenvalues --   -0.02388  -0.02077  -0.01847  -0.00817  -0.00592
  Beta virt. eigenvalues --   -0.00198   0.00179   0.00361   0.00408   0.00606

 Mulliken charges and spin densities:
               1          2
     1  Na   0.622002  -0.029527
     2  Na  -0.801276   0.366738
     3  Na  -0.535469   0.063298
     4  Na   0.124454  -0.006653
     5  Na  -0.130612   0.360321
     6  Na   0.000385   0.055375
     7  Na   0.720516   0.190447
 Sum of Mulliken charges =  -0.00000   1.00000

 Dipole moment (field-independent basis, Debye):
    X=              0.2641    Y=             -0.3669    Z=             -0.3753  Tot=              0.5875
 Quadrupole moment (field-independent basis, Debye-Ang):
   XX=            -51.0148   YY=            -78.2402   ZZ=            -67.4440
   XY=              0.8199   XZ=             -0.6820   YZ=             -3.5340

 Normal termination of Gaussian 16 at Thu Dec  7 23:33:52 2023.
