 Gaussian 16, Revision B.01,
 Gaussian 16:  ES64L-G16RevB.01 20-Dec-2017

 -------------------------
 #P B3LYP/6-311+g(d) force
 -------------------------

 -----
 DPGEN
 -----
 Symbolic Z-matrix:
 Charge =  0 Multiplicity = 2

                         Standard orientation:
 ---------------------------------------------------------------------
 Center     Atomic      Atomic             Coordinates (Angstroms)
 Number     Number       Type             X           Y           Z
 ---------------------------------------------------------------------
      1         11           0        1.659115   -2.377457   -0.730226
      2         11           0       -1.469682   -2.306417    0.568767
      3         11           0        4.665374   -0.678356   -0.177299
      4         11           0        1.842341    1.221342    1.281167
      5         11           0       -2.184230    1.631534    0.333957
      6         11           0       -5.139612   -0.600120   -0.354401
      7         11           0        0.626695    3.109474   -0.921965
 ---------------------------------------------------------------------

 SCF Done:  E(UB3LYP) =  -1136.12085780     A.U. after   19 cycles

 The electronic state is 2-A.
 Alpha  occ. eigenvalues --  -38.45051 -38.44485 -38.44087 -38.44077 -38.43872
 Alpha  occ. eigenvalues --  -38.43864 -38.43831  -2.20856  -2.20265  -2.19903
 Alpha  occ. eigenvalues --   -2.19864  -2.19678  -2.19656  -2.19638  -1.14570
 Alpha  occ. eigenvalues --   -1.14532  -1.14461  -1.13984  -1.13956  -1.13859
 Alpha  occ. eigenvalues --   -1.13575  -1.13559  -1.13531  -1.13519  -1.13512
 Alpha  occ. eigenvalues --   -1.13468  -1.13375  -1.13360  -1.13339  -1.13327
 Alpha  occ. eigenvalues --   -1.13313  -1.13292  -1.13280  -1.13257  -1.13237
 Alpha  occ. eigenvalues --   -0.16475  -0.13515  -0.12772  -0.10677
 Alpha virt. eigenvalues --   -0.06290  -0.05637  -0.04550  -0.03707  -0.02721
 Alpha virt. eigenvalues --   -0.02414  -0.02207  -0.01361  -0.00948  -0.00628
 Alpha virt. eigenvalues --   -0.00514  -0.00486   0.00478   0.00501   0.00596

  Beta  occ. eigenvalues --  -38.45049 -38.44485 -38.44079 -38.44011 -38.43849
  Beta  occ. eigenvalues --  -38.43821 -38.43769  -2.20854  -2.20266  -2.19908
  Beta  occ. eigenvalues --   -2.19721  -2.19641  -2.19580  -2.19522  -1.14572
  Beta  occ. eigenvalues --   -1.14526  -1.14449  -1.13988  -1.13956  -1.13845
  Beta  occ. eigenvalues --   -1.13580  -1.13561  -1.13531  -1.13422  -1.13412
  Beta  occ. eigenvalues --   -1.13377  -1.13341  -1.13331  -1.13292  -1.13283
  Beta  occ. eigenvalues --   -1.13258  -1.13212  -1.13200  -1.13185  -1.13166
  Beta  occ. eigenvalues --   -0.16109  -0.12868  -0.12232
  Beta virt. eigenvalues --   -0.07240  -0.06261  -0.05459  -0.03971  -0.03551
  Beta virt. eigenvalues --   -0.02508  -0.02180  -0.01742  -0.00948  -0.00780
  Beta virt. eigenvalues --   -0.00538  -0.00398  -0.00036   0.00543   0.00607

 Mulliken charges and spin densities:
               1          2
     1  Na  -0.220913   0.117345
     2  Na  -0.093500   0.018460
     3  Na   0.220164   0.329090
     4  Na   0.115804   0.103325
     5  Na  -0.479741   0.062800
     6  Na   0.245506   0.440541
     7  Na   0.212680  -0.071562
 Sum of Mulliken charges =  -0.00000   1.00000

 Dipole moment (field-independent basis, Debye):
    X=              0.5148    Y=              0.7837    Z=             -0.2630  Tot=              0.9739
 Quadrupole moment (field-independent basis, Debye-Ang):
   XX=            -66.5353   YY=            -69.0250   ZZ=            -65.7730
   XY=              2.4503   XZ=             -0.4500   YZ=             -0.9803

 Normal termination of Gaussian 16 at Sun Dec  3 19:52:49 2023.
