 Gaussian 16, Revision B.01,
 Gaussian 16:  ES64L-G16RevB.01 20-Dec-2017

 -------------------------
 #P B3LYP/6-311+g(d) force
 -------------------------

 -----
 DPGEN
 -----
 Symbolic Z-matrix:
 Charge =  0 Multiplicity = 2

                         Standard orientation:
 ---------------------------------------------------------------------
 Center     Atomic      Atomic             Coordinates (Angstroms)
 Number     Number       Type             X           Y           Z
 ---------------------------------------------------------------------
      1         11           0       -1.211800   -1.251025    2.046213
      2         11           0       -1.608264    1.966750    0.259020
      3         11           0        4.381778    0.495955   -0.387339
      4         11           0        1.902645   -1.851686   -0.139215
      5         11           0       -0.763223   -0.521799   -1.763135
      6         11           0        1.252562    1.381447    0.662887
      7         11           0       -3.953698   -0.219642   -0.678432
 ---------------------------------------------------------------------

 SCF Done:  E(UB3LYP) =  -1136.11226443     A.U. after   29 cycles

 The electronic state is 2-A.
 Alpha  occ. eigenvalues --  -38.45314 -38.45196 -38.45167 -38.44597 -38.42943
 Alpha  occ. eigenvalues --  -38.42807 -38.42553  -2.21145  -2.21038  -2.20997
 Alpha  occ. eigenvalues --   -2.20411  -2.18808  -2.18747  -2.18499  -1.14814
 Alpha  occ. eigenvalues --   -1.14790  -1.14776  -1.14734  -1.14670  -1.14662
 Alpha  occ. eigenvalues --   -1.14655  -1.14645  -1.14625  -1.14074  -1.14054
 Alpha  occ. eigenvalues --   -1.14028  -1.12530  -1.12526  -1.12493  -1.12423
 Alpha  occ. eigenvalues --   -1.12400  -1.12380  -1.12174  -1.12133  -1.12107
 Alpha  occ. eigenvalues --   -0.18508  -0.14362  -0.11387  -0.10657
 Alpha virt. eigenvalues --   -0.07859  -0.04719  -0.04430  -0.03358  -0.03094
 Alpha virt. eigenvalues --   -0.02389  -0.02136  -0.01321  -0.01170  -0.00458
 Alpha virt. eigenvalues --   -0.00062   0.00222   0.00334   0.00695   0.00812

  Beta  occ. eigenvalues --  -38.45265 -38.45161 -38.45144 -38.44527 -38.42943
  Beta  occ. eigenvalues --  -38.42789 -38.42541  -2.21056  -2.20996  -2.20930
  Beta  occ. eigenvalues --   -2.20284  -2.18810  -2.18718  -2.18481  -1.14743
  Beta  occ. eigenvalues --   -1.14735  -1.14715  -1.14699  -1.14643  -1.14624
  Beta  occ. eigenvalues --   -1.14610  -1.14599  -1.14581  -1.13978  -1.13967
  Beta  occ. eigenvalues --   -1.13938  -1.12531  -1.12507  -1.12489  -1.12404
  Beta  occ. eigenvalues --   -1.12372  -1.12351  -1.12167  -1.12116  -1.12066
  Beta  occ. eigenvalues --   -0.17881  -0.13854  -0.10449
  Beta virt. eigenvalues --   -0.07809  -0.07456  -0.04584  -0.03917  -0.03013
  Beta virt. eigenvalues --   -0.02843  -0.01983  -0.01516  -0.01046  -0.00863
  Beta virt. eigenvalues --   -0.00320  -0.00002   0.00304   0.00398   0.00766

 Mulliken charges and spin densities:
               1          2
     1  Na  -0.341077   0.259110
     2  Na  -0.158173   0.011592
     3  Na   0.366098   0.202283
     4  Na   0.453670   0.115101
     5  Na  -0.345529   0.142173
     6  Na  -0.486582   0.102385
     7  Na   0.511592   0.167356
 Sum of Mulliken charges =  -0.00000   1.00000

 Dipole moment (field-independent basis, Debye):
    X=             -0.3602    Y=             -0.6596    Z=              0.0648  Tot=              0.7543
 Quadrupole moment (field-independent basis, Debye-Ang):
   XX=            -43.8379   YY=            -82.5213   ZZ=            -66.6678
   XY=              1.3738   XZ=             -3.7685   YZ=             -2.3872

 Normal termination of Gaussian 16 at Thu Dec  7 07:10:10 2023.
