 Gaussian 16, Revision B.01,
 Gaussian 16:  ES64L-G16RevB.01 20-Dec-2017

 -------------------------
 #P B3LYP/6-311+g(d) force
 -------------------------

 -----
 DPGEN
 -----
 Symbolic Z-matrix:
 Charge =  0 Multiplicity = 2

                         Standard orientation:
 ---------------------------------------------------------------------
 Center     Atomic      Atomic             Coordinates (Angstroms)
 Number     Number       Type             X           Y           Z
 ---------------------------------------------------------------------
      1         11           0       -2.477401    1.936299   -0.304817
      2         11           0       -2.838242   -1.685872   -0.227617
      3         11           0       -0.611733   -0.139132    2.261795
      4         11           0        1.108385   -2.573884   -0.174842
      5         11           0        3.157474   -0.342755    0.087613
      6         11           0        0.196356    0.195632   -1.817121
      7         11           0        1.465161    2.609711    0.174988
 ---------------------------------------------------------------------

 SCF Done:  E(UB3LYP) =  -1136.13339614     A.U. after   19 cycles

 The electronic state is 2-A.
 Alpha  occ. eigenvalues --  -38.44275 -38.44166 -38.44125 -38.44069 -38.43655
 Alpha  occ. eigenvalues --  -38.43327 -38.43182  -2.20056  -2.19963  -2.19950
 Alpha  occ. eigenvalues --   -2.19936  -2.19570  -2.19150  -2.19052  -1.13731
 Alpha  occ. eigenvalues --   -1.13714  -1.13705  -1.13646  -1.13640  -1.13627
 Alpha  occ. eigenvalues --   -1.13602  -1.13591  -1.13589  -1.13582  -1.13578
 Alpha  occ. eigenvalues --   -1.13569  -1.13255  -1.13216  -1.13192  -1.12826
 Alpha  occ. eigenvalues --   -1.12815  -1.12785  -1.12736  -1.12714  -1.12679
 Alpha  occ. eigenvalues --   -0.18204  -0.13227  -0.11977  -0.10925
 Alpha virt. eigenvalues --   -0.05763  -0.05671  -0.04292  -0.03517  -0.02937
 Alpha virt. eigenvalues --   -0.02773  -0.01610  -0.01225  -0.00461  -0.00277
 Alpha virt. eigenvalues --   -0.00088   0.00358   0.00684   0.00805   0.00826

  Beta  occ. eigenvalues --  -38.44274 -38.44160 -38.44068 -38.44027 -38.43591
  Beta  occ. eigenvalues --  -38.43324 -38.43177  -2.20057  -2.19954  -2.19937
  Beta  occ. eigenvalues --   -2.19769  -2.19453  -2.19146  -2.19046  -1.13717
  Beta  occ. eigenvalues --   -1.13712  -1.13708  -1.13643  -1.13626  -1.13612
  Beta  occ. eigenvalues --   -1.13589  -1.13586  -1.13571  -1.13482  -1.13453
  Beta  occ. eigenvalues --   -1.13441  -1.13178  -1.13130  -1.13107  -1.12823
  Beta  occ. eigenvalues --   -1.12794  -1.12786  -1.12733  -1.12695  -1.12668
  Beta  occ. eigenvalues --   -0.17484  -0.13035  -0.11778
  Beta virt. eigenvalues --   -0.07027  -0.05712  -0.05588  -0.04226  -0.02757
  Beta virt. eigenvalues --   -0.02131  -0.01815  -0.01501  -0.01160  -0.00517
  Beta virt. eigenvalues --   -0.00314   0.00088   0.00392   0.00797   0.00817

 Mulliken charges and spin densities:
               1          2
     1  Na   0.142590  -0.067570
     2  Na   0.138303  -0.078995
     3  Na  -0.547255   0.742248
     4  Na   0.158360  -0.036121
     5  Na   0.084524   0.008989
     6  Na  -0.054028   0.446402
     7  Na   0.077505  -0.014953
 Sum of Mulliken charges =  -0.00000   1.00000

 Dipole moment (field-independent basis, Debye):
    X=             -0.4289    Y=              0.0661    Z=              0.0772  Tot=              0.4408
 Quadrupole moment (field-independent basis, Debye-Ang):
   XX=            -55.9217   YY=            -66.2240   ZZ=            -72.8941
   XY=              0.4547   XZ=              1.6969   YZ=              0.8120

 Normal termination of Gaussian 16 at Thu Dec  7 21:55:43 2023.
