 Gaussian 16, Revision B.01,
 Gaussian 16:  ES64L-G16RevB.01 20-Dec-2017

 -------------------------
 #P B3LYP/6-311+g(d) force
 -------------------------

 -----
 DPGEN
 -----
 Symbolic Z-matrix:
 Charge =  0 Multiplicity = 2

                         Standard orientation:
 ---------------------------------------------------------------------
 Center     Atomic      Atomic             Coordinates (Angstroms)
 Number     Number       Type             X           Y           Z
 ---------------------------------------------------------------------
      1         11           0        3.778405    1.994289    0.021466
      2         11           0        1.178597   -2.900240    0.245486
      3         11           0       -5.408796   -0.254827   -0.099971
      4         11           0        0.712571    3.065801    0.076203
      5         11           0        4.318811   -1.695013   -0.229965
      6         11           0       -2.051406   -1.867609   -0.011965
      7         11           0       -2.528182    1.657599   -0.001254
 ---------------------------------------------------------------------

 SCF Done:  E(UB3LYP) =  -1136.11786394     A.U. after   21 cycles

 The electronic state is 2-A.
 Alpha  occ. eigenvalues --  -38.44924 -38.44797 -38.44702 -38.44662 -38.44471
 Alpha  occ. eigenvalues --  -38.43646 -38.43407  -2.20735  -2.20610  -2.20518
 Alpha  occ. eigenvalues --   -2.20434  -2.20247  -2.19445  -2.19212  -1.14429
 Alpha  occ. eigenvalues --   -1.14423  -1.14354  -1.14296  -1.14294  -1.14214
 Alpha  occ. eigenvalues --   -1.14169  -1.14164  -1.14116  -1.14113  -1.14112
 Alpha  occ. eigenvalues --   -1.14068  -1.13920  -1.13906  -1.13880  -1.13118
 Alpha  occ. eigenvalues --   -1.13113  -1.13084  -1.12878  -1.12874  -1.12857
 Alpha  occ. eigenvalues --   -0.16267  -0.14127  -0.12802  -0.11210
 Alpha virt. eigenvalues --   -0.07240  -0.05510  -0.03930  -0.03695  -0.03202
 Alpha virt. eigenvalues --   -0.02561  -0.02306  -0.01552  -0.01073  -0.00747
 Alpha virt. eigenvalues --   -0.00441  -0.00351   0.00121   0.00534   0.00748

  Beta  occ. eigenvalues --  -38.44899 -38.44754 -38.44666 -38.44624 -38.44454
  Beta  occ. eigenvalues --  -38.43627 -38.43388  -2.20694  -2.20537  -2.20442
  Beta  occ. eigenvalues --   -2.20371  -2.20213  -2.19414  -2.19178  -1.14402
  Beta  occ. eigenvalues --   -1.14401  -1.14285  -1.14250  -1.14244  -1.14129
  Beta  occ. eigenvalues --   -1.14121  -1.14121  -1.14066  -1.14066  -1.14064
  Beta  occ. eigenvalues --   -1.14021  -1.13897  -1.13890  -1.13853  -1.13100
  Beta  occ. eigenvalues --   -1.13092  -1.13044  -1.12855  -1.12854  -1.12828
  Beta  occ. eigenvalues --   -0.15586  -0.13805  -0.12430
  Beta virt. eigenvalues --   -0.07695  -0.07026  -0.04916  -0.03723  -0.03264
  Beta virt. eigenvalues --   -0.02885  -0.02434  -0.01972  -0.01476  -0.00686
  Beta virt. eigenvalues --   -0.00570  -0.00248   0.00075   0.00366   0.00568

 Mulliken charges and spin densities:
               1          2
     1  Na  -0.260650  -0.006874
     2  Na  -0.593688  -0.524088
     3  Na   1.977192   0.656372
     4  Na  -0.120874  -0.606934
     5  Na   0.216682   0.070599
     6  Na  -0.463579   0.572539
     7  Na  -0.755082   0.838386
 Sum of Mulliken charges =  -0.00000   1.00000

 Dipole moment (field-independent basis, Debye):
    X=             -1.0566    Y=             -0.1726    Z=             -0.0755  Tot=              1.0733
 Quadrupole moment (field-independent basis, Debye-Ang):
   XX=            -51.7209   YY=            -69.6439   ZZ=            -73.7149
   XY=              0.6760   XZ=             -0.2394   YZ=              0.2683

 Normal termination of Gaussian 16 at Sun Dec  3 18:28:16 2023.
