 Gaussian 16, Revision B.01,
 Gaussian 16:  ES64L-G16RevB.01 20-Dec-2017

 -------------------------
 #P B3LYP/6-311+g(d) force
 -------------------------

 -----
 DPGEN
 -----
 Symbolic Z-matrix:
 Charge =  0 Multiplicity = 2

                         Standard orientation:
 ---------------------------------------------------------------------
 Center     Atomic      Atomic             Coordinates (Angstroms)
 Number     Number       Type             X           Y           Z
 ---------------------------------------------------------------------
      1         11           0        1.739482   -2.519420   -0.329698
      2         11           0        0.055757   -0.117076    2.030794
      3         11           0       -2.937621    1.262874   -0.298447
      4         11           0       -0.662944   -0.260656   -1.775378
      5         11           0        0.496040    3.116121    0.176658
      6         11           0        3.131504    0.742895   -0.267228
      7         11           0       -1.822219   -2.224737    0.463299
 ---------------------------------------------------------------------

 SCF Done:  E(UB3LYP) =  -1136.13558974     A.U. after   19 cycles

 The electronic state is 2-A.
 Alpha  occ. eigenvalues --  -38.43942 -38.43909 -38.43796 -38.43738 -38.43700
 Alpha  occ. eigenvalues --  -38.43606 -38.43572  -2.19772  -2.19699  -2.19680
 Alpha  occ. eigenvalues --   -2.19589  -2.19540  -2.19520  -2.19395  -1.13507
 Alpha  occ. eigenvalues --   -1.13423  -1.13398  -1.13388  -1.13377  -1.13361
 Alpha  occ. eigenvalues --   -1.13345  -1.13320  -1.13308  -1.13301  -1.13234
 Alpha  occ. eigenvalues --   -1.13200  -1.13197  -1.13188  -1.13180  -1.13156
 Alpha  occ. eigenvalues --   -1.13154  -1.13147  -1.13067  -1.13054  -1.13029
 Alpha  occ. eigenvalues --   -0.18303  -0.12833  -0.12461  -0.10883
 Alpha virt. eigenvalues --   -0.05531  -0.05273  -0.04931  -0.03205  -0.03024
 Alpha virt. eigenvalues --   -0.02660  -0.01395  -0.01171  -0.00556  -0.00471
 Alpha virt. eigenvalues --   -0.00032   0.00357   0.00827   0.00844   0.00873

  Beta  occ. eigenvalues --  -38.43934 -38.43907 -38.43737 -38.43704 -38.43682
  Beta  occ. eigenvalues --  -38.43564 -38.43543  -2.19760  -2.19697  -2.19562
  Beta  occ. eigenvalues --   -2.19521  -2.19510  -2.19423  -2.19383  -1.13483
  Beta  occ. eigenvalues --   -1.13402  -1.13393  -1.13370  -1.13360  -1.13340
  Beta  occ. eigenvalues --   -1.13318  -1.13253  -1.13212  -1.13195  -1.13187
  Beta  occ. eigenvalues --   -1.13181  -1.13177  -1.13157  -1.13143  -1.13115
  Beta  occ. eigenvalues --   -1.13080  -1.13075  -1.13045  -1.13037  -1.13019
  Beta  occ. eigenvalues --   -0.17582  -0.12601  -0.12233
  Beta virt. eigenvalues --   -0.06990  -0.05475  -0.05261  -0.04797  -0.02484
  Beta virt. eigenvalues --   -0.02291  -0.01656  -0.01298  -0.01089  -0.00579
  Beta virt. eigenvalues --   -0.00506   0.00112   0.00403   0.00845   0.00866

 Mulliken charges and spin densities:
               1          2
     1  Na   0.021829  -0.030533
     2  Na  -0.195016   0.651594
     3  Na   0.135719  -0.093965
     4  Na  -0.064210   0.625036
     5  Na  -0.129222  -0.098505
     6  Na  -0.148745  -0.060730
     7  Na   0.379644   0.007102
 Sum of Mulliken charges =  -0.00000   1.00000

 Dipole moment (field-independent basis, Debye):
    X=             -0.1409    Y=              0.0217    Z=              0.0468  Tot=              0.1501
 Quadrupole moment (field-independent basis, Debye-Ang):
   XX=            -59.2818   YY=            -61.7874   ZZ=            -73.6426
   XY=             -0.5840   XZ=             -1.5005   YZ=             -0.0868

 Normal termination of Gaussian 16 at Tue Dec  5 14:15:45 2023.
