 Gaussian 16, Revision B.01,
 Gaussian 16:  ES64L-G16RevB.01 20-Dec-2017

 -------------------------
 #P B3LYP/6-311+g(d) force
 -------------------------

 -----
 DPGEN
 -----
 Symbolic Z-matrix:
 Charge =  0 Multiplicity = 2

                         Standard orientation:
 ---------------------------------------------------------------------
 Center     Atomic      Atomic             Coordinates (Angstroms)
 Number     Number       Type             X           Y           Z
 ---------------------------------------------------------------------
      1         11           0        0.100761   -0.665844    2.250748
      2         11           0       -2.469893   -1.857411    0.018275
      3         11           0       -0.006939    0.665164   -1.114780
      4         11           0        1.317636   -2.756151   -0.732563
      5         11           0        3.099843    0.127438   -0.361911
      6         11           0       -3.659548    1.618059   -0.377901
      7         11           0        1.618141    2.868744    0.318131
 ---------------------------------------------------------------------

 SCF Done:  E(UB3LYP) =  -1136.12674262     A.U. after   21 cycles

 The electronic state is 2-A.
 Alpha  occ. eigenvalues --  -38.44427 -38.44398 -38.44131 -38.43833 -38.43737
 Alpha  occ. eigenvalues --  -38.43627 -38.43158  -2.20217  -2.20149  -2.20024
 Alpha  occ. eigenvalues --   -2.19675  -2.19599  -2.19569  -2.18984  -1.13907
 Alpha  occ. eigenvalues --   -1.13895  -1.13836  -1.13820  -1.13806  -1.13773
 Alpha  occ. eigenvalues --   -1.13726  -1.13686  -1.13663  -1.13372  -1.13336
 Alpha  occ. eigenvalues --   -1.13304  -1.13280  -1.13261  -1.13238  -1.13225
 Alpha  occ. eigenvalues --   -1.13196  -1.13159  -1.12655  -1.12650  -1.12614
 Alpha  occ. eigenvalues --   -0.18029  -0.13327  -0.12034  -0.10493
 Alpha virt. eigenvalues --   -0.06231  -0.05626  -0.04630  -0.03233  -0.02615
 Alpha virt. eigenvalues --   -0.02320  -0.01974  -0.01448  -0.00808  -0.00545
 Alpha virt. eigenvalues --   -0.00119   0.00231   0.00607   0.00701   0.00775

  Beta  occ. eigenvalues --  -38.44425 -38.44388 -38.44116 -38.43731 -38.43727
  Beta  occ. eigenvalues --  -38.43608 -38.43137  -2.20216  -2.20130  -2.19999
  Beta  occ. eigenvalues --   -2.19589  -2.19537  -2.19477  -2.18949  -1.13898
  Beta  occ. eigenvalues --   -1.13888  -1.13834  -1.13803  -1.13794  -1.13762
  Beta  occ. eigenvalues --   -1.13711  -1.13655  -1.13638  -1.13354  -1.13245
  Beta  occ. eigenvalues --   -1.13233  -1.13207  -1.13189  -1.13169  -1.13166
  Beta  occ. eigenvalues --   -1.13143  -1.13140  -1.12630  -1.12624  -1.12579
  Beta  occ. eigenvalues --   -0.17400  -0.13110  -0.11762
  Beta virt. eigenvalues --   -0.06769  -0.05958  -0.05534  -0.04528  -0.02539
  Beta virt. eigenvalues --   -0.02100  -0.01916  -0.01434  -0.01264  -0.00766
  Beta virt. eigenvalues --   -0.00517   0.00101   0.00309   0.00711   0.00735

 Mulliken charges and spin densities:
               1          2
     1  Na  -0.465296   0.577363
     2  Na   0.269497   0.015728
     3  Na  -0.287572  -0.016334
     4  Na  -0.059420   0.103304
     5  Na   0.551204   0.073640
     6  Na  -0.020913   0.080447
     7  Na   0.012500   0.165852
 Sum of Mulliken charges =  -0.00000   1.00000

 Dipole moment (field-independent basis, Debye):
    X=             -0.1645    Y=              0.1904    Z=              0.3293  Tot=              0.4145
 Quadrupole moment (field-independent basis, Debye-Ang):
   XX=            -56.6751   YY=            -62.3278   ZZ=            -75.0819
   XY=              1.2996   XZ=              0.3711   YZ=              2.2273

 Normal termination of Gaussian 16 at Tue Dec  5 18:34:06 2023.
