 Gaussian 16, Revision B.01,
 Gaussian 16:  ES64L-G16RevB.01 20-Dec-2017

 -------------------------
 #P B3LYP/6-311+g(d) force
 -------------------------

 -----
 DPGEN
 -----
 Symbolic Z-matrix:
 Charge =  0 Multiplicity = 2

                         Standard orientation:
 ---------------------------------------------------------------------
 Center     Atomic      Atomic             Coordinates (Angstroms)
 Number     Number       Type             X           Y           Z
 ---------------------------------------------------------------------
      1         11           0        2.875266   -1.564208   -0.479805
      2         11           0        5.870505   -0.432417   -0.529323
      3         11           0        3.580108    2.006653   -0.453560
      4         11           0       -0.328312    1.435628    1.032959
      5         11           0       -0.448541   -1.626514    1.241690
      6         11           0       -4.605076    0.363265    0.585162
      7         11           0       -6.943951   -0.182407   -1.397123
 ---------------------------------------------------------------------

 SCF Done:  E(UB3LYP) =  -1136.11395910     A.U. after   19 cycles

 The electronic state is 2-A.
 Alpha  occ. eigenvalues --  -38.44829 -38.44722 -38.44686 -38.44483 -38.44261
 Alpha  occ. eigenvalues --  -38.43643 -38.43638  -2.20656  -2.20542  -2.20525
 Alpha  occ. eigenvalues --   -2.20290  -2.20082  -2.19430  -2.19419  -1.14352
 Alpha  occ. eigenvalues --   -1.14318  -1.14311  -1.14216  -1.14205  -1.14200
 Alpha  occ. eigenvalues --   -1.14175  -1.14131  -1.14114  -1.14005  -1.13956
 Alpha  occ. eigenvalues --   -1.13922  -1.13739  -1.13721  -1.13707  -1.13171
 Alpha  occ. eigenvalues --   -1.13107  -1.13096  -1.13073  -1.13071  -1.12981
 Alpha  occ. eigenvalues --   -0.16650  -0.13946  -0.12084  -0.11052
 Alpha virt. eigenvalues --   -0.06928  -0.05548  -0.04712  -0.03681  -0.03035
 Alpha virt. eigenvalues --   -0.02593  -0.02164  -0.01760  -0.01130  -0.00848
 Alpha virt. eigenvalues --   -0.00454  -0.00253  -0.00037   0.00161   0.00502

  Beta  occ. eigenvalues --  -38.44824 -38.44651 -38.44630 -38.44460 -38.44242
  Beta  occ. eigenvalues --  -38.43645 -38.43641  -2.20648  -2.20423  -2.20409
  Beta  occ. eigenvalues --   -2.20245  -2.20047  -2.19433  -2.19423  -1.14332
  Beta  occ. eigenvalues --   -1.14310  -1.14296  -1.14137  -1.14127  -1.14117
  Beta  occ. eigenvalues --   -1.14093  -1.14042  -1.14035  -1.13975  -1.13927
  Beta  occ. eigenvalues --   -1.13884  -1.13715  -1.13696  -1.13672  -1.13175
  Beta  occ. eigenvalues --   -1.13105  -1.13097  -1.13079  -1.13075  -1.12985
  Beta  occ. eigenvalues --   -0.15948  -0.13921  -0.12028
  Beta virt. eigenvalues --   -0.07264  -0.06565  -0.04837  -0.04525  -0.03542
  Beta virt. eigenvalues --   -0.02582  -0.02293  -0.01929  -0.01654  -0.00926
  Beta virt. eigenvalues --   -0.00557  -0.00198   0.00037   0.00142   0.00374

 Mulliken charges and spin densities:
               1          2
     1  Na  -0.487757   0.409553
     2  Na   0.595709  -0.029527
     3  Na  -0.130707   0.301293
     4  Na  -0.079848   0.232168
     5  Na   0.119084   0.091208
     6  Na  -0.508080   0.018051
     7  Na   0.491600  -0.022746
 Sum of Mulliken charges =  -0.00000   1.00000

 Dipole moment (field-independent basis, Debye):
    X=              2.5525    Y=             -0.2951    Z=             -0.1453  Tot=              2.5736
 Quadrupole moment (field-independent basis, Debye-Ang):
   XX=            -56.8951   YY=            -70.3453   ZZ=            -69.5914
   XY=              1.3917   XZ=              1.5366   YZ=              0.4616

 Normal termination of Gaussian 16 at Tue Nov 28 23:05:10 2023.
