 Gaussian 16, Revision B.01,
 Gaussian 16:  ES64L-G16RevB.01 20-Dec-2017

 -------------------------
 #P B3LYP/6-311+g(d) force
 -------------------------

 -----
 DPGEN
 -----
 Symbolic Z-matrix:
 Charge =  0 Multiplicity = 2

                         Standard orientation:
 ---------------------------------------------------------------------
 Center     Atomic      Atomic             Coordinates (Angstroms)
 Number     Number       Type             X           Y           Z
 ---------------------------------------------------------------------
      1         11           0        2.849894   -1.677709   -0.702413
      2         11           0       -3.491014   -1.371025   -0.166704
      3         11           0        0.776642   -1.203568    1.821071
      4         11           0       -0.561632   -1.041834   -1.302862
      5         11           0       -0.044989    2.210239   -1.725088
      6         11           0       -1.922439    1.607364    1.337541
      7         11           0        2.393538    1.476533    0.738455
 ---------------------------------------------------------------------

 SCF Done:  E(UB3LYP) =  -1136.12710945     A.U. after   21 cycles

 The electronic state is 2-A.
 Alpha  occ. eigenvalues --  -38.44331 -38.44194 -38.44140 -38.44134 -38.44033
 Alpha  occ. eigenvalues --  -38.43228 -38.43072  -2.20125  -2.20027  -2.19992
 Alpha  occ. eigenvalues --   -2.19969  -2.19874  -2.19166  -2.18915  -1.13807
 Alpha  occ. eigenvalues --   -1.13781  -1.13747  -1.13739  -1.13696  -1.13689
 Alpha  occ. eigenvalues --   -1.13660  -1.13644  -1.13640  -1.13627  -1.13617
 Alpha  occ. eigenvalues --   -1.13584  -1.13536  -1.13519  -1.13500  -1.12848
 Alpha  occ. eigenvalues --   -1.12836  -1.12790  -1.12592  -1.12550  -1.12533
 Alpha  occ. eigenvalues --   -0.18222  -0.13300  -0.11470  -0.11347
 Alpha virt. eigenvalues --   -0.06114  -0.05595  -0.03957  -0.03371  -0.03096
 Alpha virt. eigenvalues --   -0.02733  -0.01857  -0.01261  -0.00369  -0.00139
 Alpha virt. eigenvalues --    0.00217   0.00295   0.00406   0.00638   0.00731

  Beta  occ. eigenvalues --  -38.44301 -38.44198 -38.44123 -38.44090 -38.44025
  Beta  occ. eigenvalues --  -38.43177 -38.43030  -2.20069  -2.19999  -2.19952
  Beta  occ. eigenvalues --   -2.19937  -2.19860  -2.19076  -2.18839  -1.13760
  Beta  occ. eigenvalues --   -1.13740  -1.13710  -1.13695  -1.13688  -1.13646
  Beta  occ. eigenvalues --   -1.13637  -1.13628  -1.13620  -1.13597  -1.13588
  Beta  occ. eigenvalues --   -1.13561  -1.13513  -1.13510  -1.13480  -1.12787
  Beta  occ. eigenvalues --   -1.12755  -1.12728  -1.12532  -1.12499  -1.12479
  Beta  occ. eigenvalues --   -0.17459  -0.13134  -0.11309
  Beta virt. eigenvalues --   -0.07456  -0.05978  -0.05293  -0.03512  -0.03056
  Beta virt. eigenvalues --   -0.02650  -0.01879  -0.01709  -0.01051  -0.00155
  Beta virt. eigenvalues --   -0.00090   0.00260   0.00333   0.00542   0.00728

 Mulliken charges and spin densities:
               1          2
     1  Na   0.402484  -0.045831
     2  Na   0.013962   0.001797
     3  Na  -0.449805   0.602453
     4  Na   0.093195   0.162808
     5  Na  -0.112535   0.153696
     6  Na   0.025980   0.107243
     7  Na   0.026718   0.017834
 Sum of Mulliken charges =  -0.00000   1.00000

 Dipole moment (field-independent basis, Debye):
    X=              0.1145    Y=             -0.0875    Z=              0.4314  Tot=              0.4549
 Quadrupole moment (field-independent basis, Debye-Ang):
   XX=            -53.8734   YY=            -72.3986   ZZ=            -67.8161
   XY=             -0.5979   XZ=             -2.4702   YZ=              1.3431

 Normal termination of Gaussian 16 at Wed Nov 29 16:19:49 2023.
