 Gaussian 16, Revision B.01,
 Gaussian 16:  ES64L-G16RevB.01 20-Dec-2017

 -------------------------
 #P B3LYP/6-311+g(d) force
 -------------------------

 -----
 DPGEN
 -----
 Symbolic Z-matrix:
 Charge =  0 Multiplicity = 2

                         Standard orientation:
 ---------------------------------------------------------------------
 Center     Atomic      Atomic             Coordinates (Angstroms)
 Number     Number       Type             X           Y           Z
 ---------------------------------------------------------------------
      1         11           0       -2.048453   -2.260219   -0.105336
      2         11           0        1.171708   -0.246982    1.381624
      3         11           0        1.431741    2.928813   -0.489835
      4         11           0       -1.942162    1.881479   -0.271282
      5         11           0       -4.463159    0.138793    0.273849
      6         11           0        1.320570   -2.119187   -0.977228
      7         11           0        4.529754   -0.322697    0.188208
 ---------------------------------------------------------------------

 SCF Done:  E(UB3LYP) =  -1136.12273107     A.U. after   20 cycles

 The electronic state is 2-A.
 Alpha  occ. eigenvalues --  -38.45019 -38.44329 -38.44107 -38.43910 -38.43658
 Alpha  occ. eigenvalues --  -38.43608 -38.43608  -2.20876  -2.20141  -2.19961
 Alpha  occ. eigenvalues --   -2.19718  -2.19519  -2.19436  -2.19391  -1.14615
 Alpha  occ. eigenvalues --   -1.14523  -1.14496  -1.13796  -1.13771  -1.13748
 Alpha  occ. eigenvalues --   -1.13661  -1.13619  -1.13571  -1.13414  -1.13387
 Alpha  occ. eigenvalues --   -1.13349  -1.13245  -1.13157  -1.13139  -1.13123
 Alpha  occ. eigenvalues --   -1.13106  -1.13067  -1.13049  -1.13034  -1.13004
 Alpha  occ. eigenvalues --   -0.17203  -0.14211  -0.12135  -0.10670
 Alpha virt. eigenvalues --   -0.06194  -0.05790  -0.04340  -0.03715  -0.02928
 Alpha virt. eigenvalues --   -0.02265  -0.01960  -0.01075  -0.00999  -0.00667
 Alpha virt. eigenvalues --   -0.00511  -0.00171   0.00472   0.00598   0.00700

  Beta  occ. eigenvalues --  -38.45014 -38.44228 -38.44095 -38.43901 -38.43600
  Beta  occ. eigenvalues --  -38.43599 -38.43595  -2.20870  -2.19953  -2.19942
  Beta  occ. eigenvalues --   -2.19706  -2.19428  -2.19408  -2.19369  -1.14615
  Beta  occ. eigenvalues --   -1.14497  -1.14490  -1.13666  -1.13653  -1.13642
  Beta  occ. eigenvalues --   -1.13625  -1.13610  -1.13529  -1.13409  -1.13381
  Beta  occ. eigenvalues --   -1.13310  -1.13183  -1.13126  -1.13103  -1.13074
  Beta  occ. eigenvalues --   -1.13062  -1.13053  -1.13024  -1.13016  -1.12963
  Beta  occ. eigenvalues --   -0.16705  -0.13468  -0.11706
  Beta virt. eigenvalues --   -0.07286  -0.06021  -0.05779  -0.03550  -0.03460
  Beta virt. eigenvalues --   -0.02657  -0.02029  -0.01587  -0.00915  -0.00723
  Beta virt. eigenvalues --   -0.00393  -0.00113  -0.00054   0.00558   0.00679

 Mulliken charges and spin densities:
               1          2
     1  Na  -0.166641   0.099902
     2  Na  -0.451249   0.002078
     3  Na   0.108959  -0.023869
     4  Na  -0.803322   0.111474
     5  Na   0.851300   0.292726
     6  Na   0.141015  -0.037126
     7  Na   0.319938   0.554816
 Sum of Mulliken charges =  -0.00000   1.00000

 Dipole moment (field-independent basis, Debye):
    X=              0.4183    Y=             -0.4504    Z=             -0.1106  Tot=              0.6246
 Quadrupole moment (field-independent basis, Debye-Ang):
   XX=            -64.7137   YY=            -71.7816   ZZ=            -65.7422
   XY=              3.7516   XZ=             -2.8586   YZ=              0.0439

 Normal termination of Gaussian 16 at Sun Dec  3 15:29:38 2023.
