 Gaussian 16, Revision B.01,
 Gaussian 16:  ES64L-G16RevB.01 20-Dec-2017

 -------------------------
 #P B3LYP/6-311+g(d) force
 -------------------------

 -----
 DPGEN
 -----
 Symbolic Z-matrix:
 Charge =  0 Multiplicity = 2

                         Standard orientation:
 ---------------------------------------------------------------------
 Center     Atomic      Atomic             Coordinates (Angstroms)
 Number     Number       Type             X           Y           Z
 ---------------------------------------------------------------------
      1         11           0       -2.387429    2.200278   -0.127065
      2         11           0       -0.302608   -0.241278   -1.698870
      3         11           0       -2.831030   -1.767159   -0.123132
      4         11           0        1.093276   -2.623382    0.074621
      5         11           0        1.068835    2.440560    0.056007
      6         11           0        3.553155    0.116052   -0.254672
      7         11           0       -0.194198   -0.125071    2.073112
 ---------------------------------------------------------------------

 SCF Done:  E(UB3LYP) =  -1136.13504626     A.U. after   19 cycles

 The electronic state is 2-A.
 Alpha  occ. eigenvalues --  -38.44380 -38.44364 -38.43862 -38.43630 -38.43555
 Alpha  occ. eigenvalues --  -38.43445 -38.43092  -2.20173  -2.20146  -2.19669
 Alpha  occ. eigenvalues --   -2.19467  -2.19436  -2.19377  -2.18958  -1.13857
 Alpha  occ. eigenvalues --   -1.13830  -1.13814  -1.13813  -1.13806  -1.13783
 Alpha  occ. eigenvalues --   -1.13345  -1.13327  -1.13314  -1.13190  -1.13160
 Alpha  occ. eigenvalues --   -1.13099  -1.13075  -1.13057  -1.13053  -1.13047
 Alpha  occ. eigenvalues --   -1.13007  -1.12994  -1.12646  -1.12634  -1.12578
 Alpha  occ. eigenvalues --   -0.18302  -0.12864  -0.12300  -0.10636
 Alpha virt. eigenvalues --   -0.06104  -0.05465  -0.04329  -0.03052  -0.02859
 Alpha virt. eigenvalues --   -0.02580  -0.01916  -0.01373  -0.00539  -0.00200
 Alpha virt. eigenvalues --   -0.00064   0.00291   0.00709   0.00787   0.00870

  Beta  occ. eigenvalues --  -38.44376 -38.44363 -38.43861 -38.43623 -38.43453
  Beta  occ. eigenvalues --  -38.43384 -38.43086  -2.20169  -2.20145  -2.19669
  Beta  occ. eigenvalues --   -2.19457  -2.19267  -2.19249  -2.18950  -1.13841
  Beta  occ. eigenvalues --   -1.13823  -1.13815  -1.13804  -1.13802  -1.13784
  Beta  occ. eigenvalues --   -1.13336  -1.13321  -1.13312  -1.13176  -1.13118
  Beta  occ. eigenvalues --   -1.13071  -1.12992  -1.12967  -1.12932  -1.12926
  Beta  occ. eigenvalues --   -1.12918  -1.12914  -1.12642  -1.12600  -1.12575
  Beta  occ. eigenvalues --   -0.17575  -0.12667  -0.12070
  Beta virt. eigenvalues --   -0.06733  -0.06038  -0.05453  -0.04290  -0.02361
  Beta virt. eigenvalues --   -0.02059  -0.01835  -0.01504  -0.01330  -0.00583
  Beta virt. eigenvalues --   -0.00229   0.00088   0.00322   0.00755   0.00805

 Mulliken charges and spin densities:
               1          2
     1  Na   0.108864  -0.101680
     2  Na  -0.232103   0.628555
     3  Na   0.197028  -0.134870
     4  Na   0.193602  -0.073500
     5  Na   0.111688  -0.017439
     6  Na  -0.043061  -0.031083
     7  Na  -0.336018   0.730017
 Sum of Mulliken charges =  -0.00000   1.00000

 Dipole moment (field-independent basis, Debye):
    X=             -0.2677    Y=             -0.2699    Z=              0.0390  Tot=              0.3821
 Quadrupole moment (field-independent basis, Debye-Ang):
   XX=            -52.3805   YY=            -65.0977   ZZ=            -75.0751
   XY=             -0.2374   XZ=             -0.5681   YZ=             -0.2854

 Normal termination of Gaussian 16 at Thu Dec  7 18:32:52 2023.
