 Gaussian 16, Revision B.01,
 Gaussian 16:  ES64L-G16RevB.01 20-Dec-2017

 -------------------------
 #P B3LYP/6-311+g(d) force
 -------------------------

 -----
 DPGEN
 -----
 Symbolic Z-matrix:
 Charge =  0 Multiplicity = 2

                         Standard orientation:
 ---------------------------------------------------------------------
 Center     Atomic      Atomic             Coordinates (Angstroms)
 Number     Number       Type             X           Y           Z
 ---------------------------------------------------------------------
      1         11           0        0.681379   -1.599001   -0.997390
      2         11           0       -2.488564   -0.116938    0.770543
      3         11           0        3.859407   -1.523864    0.045788
      4         11           0        0.976914    0.153747    1.523006
      5         11           0       -0.714579    1.697074   -0.662975
      6         11           0       -5.750265   -0.323329   -0.303896
      7         11           0        3.435706    1.712311   -0.375075
 ---------------------------------------------------------------------

 SCF Done:  E(UB3LYP) =  -1136.10865120     A.U. after   29 cycles

 The electronic state is 2-A.
 Alpha  occ. eigenvalues --  -38.45218 -38.45055 -38.44605 -38.44191 -38.43462
 Alpha  occ. eigenvalues --  -38.43424 -38.43294  -2.21186  -2.20956  -2.20453
 Alpha  occ. eigenvalues --   -2.20115  -2.19371  -2.19280  -2.19080  -1.14943
 Alpha  occ. eigenvalues --   -1.14846  -1.14797  -1.14627  -1.14595  -1.14538
 Alpha  occ. eigenvalues --   -1.14120  -1.14092  -1.14061  -1.13847  -1.13779
 Alpha  occ. eigenvalues --   -1.13729  -1.13088  -1.13034  -1.12977  -1.12956
 Alpha  occ. eigenvalues --   -1.12940  -1.12935  -1.12727  -1.12726  -1.12701
 Alpha  occ. eigenvalues --   -0.18801  -0.14320  -0.11382  -0.11108
 Alpha virt. eigenvalues --   -0.07311  -0.05346  -0.04858  -0.03324  -0.03104
 Alpha virt. eigenvalues --   -0.02014  -0.01939  -0.01600  -0.01242  -0.00889
 Alpha virt. eigenvalues --   -0.00270   0.00057   0.00315   0.00478   0.00607

  Beta  occ. eigenvalues --  -38.45204 -38.44985 -38.44529 -38.44195 -38.43463
  Beta  occ. eigenvalues --  -38.43426 -38.43232  -2.21166  -2.20830  -2.20310
  Beta  occ. eigenvalues --   -2.20122  -2.19378  -2.19289  -2.18965  -1.14910
  Beta  occ. eigenvalues --   -1.14807  -1.14789  -1.14536  -1.14518  -1.14447
  Beta  occ. eigenvalues --   -1.14021  -1.13999  -1.13965  -1.13853  -1.13774
  Beta  occ. eigenvalues --   -1.13741  -1.13098  -1.13043  -1.12965  -1.12949
  Beta  occ. eigenvalues --   -1.12944  -1.12910  -1.12650  -1.12648  -1.12625
  Beta  occ. eigenvalues --   -0.18234  -0.13853  -0.10462
  Beta virt. eigenvalues --   -0.08023  -0.07151  -0.05100  -0.04277  -0.03120
  Beta virt. eigenvalues --   -0.02723  -0.01728  -0.01590  -0.01259  -0.01061
  Beta virt. eigenvalues --   -0.00624  -0.00122   0.00187   0.00369   0.00553

 Mulliken charges and spin densities:
               1          2
     1  Na  -0.284616   0.167229
     2  Na  -0.431852   0.230807
     3  Na   0.380655  -0.048273
     4  Na   0.216196   0.192012
     5  Na  -0.133037  -0.102825
     6  Na   0.213763   0.150912
     7  Na   0.038891   0.410139
 Sum of Mulliken charges =  -0.00000   1.00000

 Dipole moment (field-independent basis, Debye):
    X=              2.1478    Y=              0.5663    Z=             -0.2975  Tot=              2.2410
 Quadrupole moment (field-independent basis, Debye-Ang):
   XX=            -74.7024   YY=            -75.1481   ZZ=            -61.5026
   XY=             -0.3430   XZ=              2.5526   YZ=             -2.4220

 Normal termination of Gaussian 16 at Fri Dec  8 07:15:55 2023.
