 Gaussian 16, Revision B.01,
 Gaussian 16:  ES64L-G16RevB.01 20-Dec-2017

 -------------------------
 #P B3LYP/6-311+g(d) force
 -------------------------

 -----
 DPGEN
 -----
 Symbolic Z-matrix:
 Charge =  0 Multiplicity = 2

                         Standard orientation:
 ---------------------------------------------------------------------
 Center     Atomic      Atomic             Coordinates (Angstroms)
 Number     Number       Type             X           Y           Z
 ---------------------------------------------------------------------
      1         11           0        1.160127   -1.381126    1.928276
      2         11           0        1.403994    1.937285    0.759150
      3         11           0       -1.757567    3.160772    0.068416
      4         11           0        4.002211   -0.346261   -0.638995
      5         11           0       -1.986457   -2.871182   -0.003082
      6         11           0       -3.611871   -0.116854   -0.235738
      7         11           0        0.789564   -0.382635   -1.878027
 ---------------------------------------------------------------------

 SCF Done:  E(UB3LYP) =  -1136.12061205     A.U. after   21 cycles

 The electronic state is 2-A.
 Alpha  occ. eigenvalues --  -38.45306 -38.45230 -38.44735 -38.44242 -38.43797
 Alpha  occ. eigenvalues --  -38.43531 -38.43024  -2.21106  -2.21023  -2.20512
 Alpha  occ. eigenvalues --   -2.20058  -2.19636  -2.19325  -2.18796  -1.14782
 Alpha  occ. eigenvalues --   -1.14763  -1.14735  -1.14690  -1.14671  -1.14637
 Alpha  occ. eigenvalues --   -1.14193  -1.14177  -1.14145  -1.13725  -1.13693
 Alpha  occ. eigenvalues --   -1.13667  -1.13333  -1.13317  -1.13238  -1.13002
 Alpha  occ. eigenvalues --   -1.12986  -1.12972  -1.12471  -1.12455  -1.12452
 Alpha  occ. eigenvalues --   -0.17323  -0.13469  -0.11801  -0.10866
 Alpha virt. eigenvalues --   -0.06871  -0.05620  -0.04891  -0.03259  -0.02822
 Alpha virt. eigenvalues --   -0.02495  -0.02440  -0.01207  -0.00778  -0.00608
 Alpha virt. eigenvalues --   -0.00431   0.00065   0.00291   0.00530   0.00620

  Beta  occ. eigenvalues --  -38.45254 -38.45205 -38.44731 -38.44148 -38.43774
  Beta  occ. eigenvalues --  -38.43534 -38.43031  -2.21010  -2.20979  -2.20503
  Beta  occ. eigenvalues --   -2.19885  -2.19597  -2.19332  -2.18810  -1.14717
  Beta  occ. eigenvalues --   -1.14700  -1.14665  -1.14660  -1.14618  -1.14602
  Beta  occ. eigenvalues --   -1.14185  -1.14171  -1.14143  -1.13605  -1.13574
  Beta  occ. eigenvalues --   -1.13548  -1.13309  -1.13263  -1.13219  -1.13009
  Beta  occ. eigenvalues --   -1.12987  -1.12969  -1.12479  -1.12463  -1.12459
  Beta  occ. eigenvalues --   -0.16654  -0.13297  -0.11666
  Beta virt. eigenvalues --   -0.07074  -0.06588  -0.05433  -0.04666  -0.02821
  Beta virt. eigenvalues --   -0.02333  -0.02097  -0.01840  -0.01191  -0.00727
  Beta virt. eigenvalues --   -0.00456  -0.00132   0.00174   0.00471   0.00647

 Mulliken charges and spin densities:
               1          2
     1  Na  -0.233768   0.361055
     2  Na   0.041951   0.287884
     3  Na   0.021942  -0.159856
     4  Na   0.465111   0.094872
     5  Na   0.185886  -0.046471
     6  Na  -0.228488   0.088512
     7  Na  -0.252634   0.374003
 Sum of Mulliken charges =  -0.00000   1.00000

 Dipole moment (field-independent basis, Debye):
    X=              1.1856    Y=             -0.6047    Z=             -0.2729  Tot=              1.3586
 Quadrupole moment (field-independent basis, Debye-Ang):
   XX=            -51.9081   YY=            -71.4856   ZZ=            -73.7892
   XY=             -0.6789   XZ=              1.1600   YZ=             -0.2196

 Normal termination of Gaussian 16 at Sun Dec  3 20:31:51 2023.
