 Gaussian 16, Revision B.01,
 Gaussian 16:  ES64L-G16RevB.01 20-Dec-2017

 -------------------------
 #P B3LYP/6-311+g(d) force
 -------------------------

 -----
 DPGEN
 -----
 Symbolic Z-matrix:
 Charge =  0 Multiplicity = 2

                         Standard orientation:
 ---------------------------------------------------------------------
 Center     Atomic      Atomic             Coordinates (Angstroms)
 Number     Number       Type             X           Y           Z
 ---------------------------------------------------------------------
      1         11           0       -2.071645    2.330568   -0.504437
      2         11           0        1.492605    3.711651    0.420460
      3         11           0        3.277319   -2.183354   -0.968519
      4         11           0        3.923384    0.927232    0.303434
      5         11           0       -2.137405   -1.453909    1.167564
      6         11           0       -0.222790   -3.590744    0.253347
      7         11           0       -4.261468    0.258557   -0.671849
 ---------------------------------------------------------------------

 SCF Done:  E(UB3LYP) =  -1136.11024971     A.U. after   20 cycles

 The electronic state is 2-A.
 Alpha  occ. eigenvalues --  -38.45071 -38.44671 -38.44579 -38.44541 -38.44487
 Alpha  occ. eigenvalues --  -38.43792 -38.43760  -2.20875  -2.20437  -2.20426
 Alpha  occ. eigenvalues --   -2.20361  -2.20320  -2.19609  -2.19538  -1.14566
 Alpha  occ. eigenvalues --   -1.14546  -1.14539  -1.14144  -1.14117  -1.14114
 Alpha  occ. eigenvalues --   -1.14108  -1.14077  -1.14069  -1.14009  -1.13987
 Alpha  occ. eigenvalues --   -1.13982  -1.13968  -1.13963  -1.13937  -1.13292
 Alpha  occ. eigenvalues --   -1.13258  -1.13230  -1.13196  -1.13180  -1.13165
 Alpha  occ. eigenvalues --   -0.16196  -0.13989  -0.13125  -0.10884
 Alpha virt. eigenvalues --   -0.07071  -0.05136  -0.04314  -0.03793  -0.03241
 Alpha virt. eigenvalues --   -0.02255  -0.02118  -0.01722  -0.01295  -0.01049
 Alpha virt. eigenvalues --   -0.00288  -0.00169   0.00096   0.00480   0.00702

  Beta  occ. eigenvalues --  -38.45056 -38.44668 -38.44547 -38.44484 -38.44446
  Beta  occ. eigenvalues --  -38.43766 -38.43698  -2.20854  -2.20426  -2.20383
  Beta  occ. eigenvalues --   -2.20286  -2.20216  -2.19566  -2.19422  -1.14544
  Beta  occ. eigenvalues --   -1.14534  -1.14498  -1.14118  -1.14107  -1.14092
  Beta  occ. eigenvalues --   -1.14083  -1.14036  -1.14033  -1.13953  -1.13935
  Beta  occ. eigenvalues --   -1.13921  -1.13912  -1.13896  -1.13861  -1.13251
  Beta  occ. eigenvalues --   -1.13230  -1.13197  -1.13117  -1.13102  -1.13090
  Beta  occ. eigenvalues --   -0.15727  -0.13285  -0.12320
  Beta virt. eigenvalues --   -0.07694  -0.07187  -0.04789  -0.03847  -0.03605
  Beta virt. eigenvalues --   -0.02830  -0.02124  -0.01838  -0.01402  -0.01131
  Beta virt. eigenvalues --   -0.00731  -0.00077   0.00052   0.00233   0.00496

 Mulliken charges and spin densities:
               1          2
     1  Na  -0.641962   0.119172
     2  Na   0.224995   0.266143
     3  Na   0.220844   0.235723
     4  Na  -0.311013   0.027431
     5  Na  -0.476287   0.132503
     6  Na   0.035182   0.023238
     7  Na   0.948242   0.195790
 Sum of Mulliken charges =  -0.00000   1.00000

 Dipole moment (field-independent basis, Debye):
    X=             -1.1406    Y=             -0.2788    Z=             -0.3577  Tot=              1.2275
 Quadrupole moment (field-independent basis, Debye-Ang):
   XX=            -61.0622   YY=            -68.8489   ZZ=            -70.5646
   XY=             -0.2034   XZ=              1.5571   YZ=              2.6239

 Normal termination of Gaussian 16 at Sun Dec  3 17:49:47 2023.
