 Gaussian 16, Revision B.01,
 Gaussian 16:  ES64L-G16RevB.01 20-Dec-2017

 -------------------------
 #P B3LYP/6-311+g(d) force
 -------------------------

 -----
 DPGEN
 -----
 Symbolic Z-matrix:
 Charge =  0 Multiplicity = 2

                         Standard orientation:
 ---------------------------------------------------------------------
 Center     Atomic      Atomic             Coordinates (Angstroms)
 Number     Number       Type             X           Y           Z
 ---------------------------------------------------------------------
      1         11           0       -2.159618   -1.731945   -1.142477
      2         11           0        0.790300    3.593358   -0.530950
      3         11           0       -0.579992    0.565280    0.578112
      4         11           0        2.192703    0.554697   -1.124228
      5         11           0       -3.475487    0.838833    0.944327
      6         11           0        0.691188   -2.786146   -0.429515
      7         11           0        2.540907   -1.034077    1.704732
 ---------------------------------------------------------------------

 SCF Done:  E(UB3LYP) =  -1136.12562288     A.U. after   19 cycles

 The electronic state is 2-A.
 Alpha  occ. eigenvalues --  -38.44057 -38.43969 -38.43870 -38.43732 -38.43678
 Alpha  occ. eigenvalues --  -38.43509 -38.43057  -2.19949  -2.19828  -2.19750
 Alpha  occ. eigenvalues --   -2.19562  -2.19530  -2.19402  -2.19072  -1.13664
 Alpha  occ. eigenvalues --   -1.13639  -1.13566  -1.13551  -1.13455  -1.13434
 Alpha  occ. eigenvalues --   -1.13399  -1.13383  -1.13369  -1.13295  -1.13224
 Alpha  occ. eigenvalues --   -1.13192  -1.13186  -1.13180  -1.13167  -1.13066
 Alpha  occ. eigenvalues --   -1.13055  -1.13018  -1.12786  -1.12728  -1.12677
 Alpha  occ. eigenvalues --   -0.18135  -0.13506  -0.12713  -0.10535
 Alpha virt. eigenvalues --   -0.05685  -0.05369  -0.04758  -0.03402  -0.02892
 Alpha virt. eigenvalues --   -0.01901  -0.01586  -0.01441  -0.00505  -0.00182
 Alpha virt. eigenvalues --   -0.00084   0.00237   0.00454   0.00688   0.00784

  Beta  occ. eigenvalues --  -38.44044 -38.43928 -38.43803 -38.43720 -38.43641
  Beta  occ. eigenvalues --  -38.43485 -38.43044  -2.19929  -2.19750  -2.19624
  Beta  occ. eigenvalues --   -2.19509  -2.19498  -2.19365  -2.19052  -1.13653
  Beta  occ. eigenvalues --   -1.13603  -1.13535  -1.13510  -1.13400  -1.13386
  Beta  occ. eigenvalues --   -1.13312  -1.13298  -1.13294  -1.13246  -1.13184
  Beta  occ. eigenvalues --   -1.13175  -1.13172  -1.13150  -1.13121  -1.13041
  Beta  occ. eigenvalues --   -1.13032  -1.12953  -1.12738  -1.12715  -1.12676
  Beta  occ. eigenvalues --   -0.17645  -0.13087  -0.12198
  Beta virt. eigenvalues --   -0.07138  -0.05506  -0.05083  -0.04384  -0.03047
  Beta virt. eigenvalues --   -0.02371  -0.01587  -0.01376  -0.01118  -0.00240
  Beta virt. eigenvalues --   -0.00006   0.00047   0.00350   0.00583   0.00728

 Mulliken charges and spin densities:
               1          2
     1  Na   0.120405   0.122234
     2  Na   0.079987   0.039938
     3  Na  -1.905000   0.165811
     4  Na   0.567636   0.232056
     5  Na   0.143652   0.151522
     6  Na   0.208279   0.130097
     7  Na   0.785040   0.158342
 Sum of Mulliken charges =  -0.00000   1.00000

 Dipole moment (field-independent basis, Debye):
    X=              0.0303    Y=              0.2039    Z=             -0.0471  Tot=              0.2115
 Quadrupole moment (field-independent basis, Debye-Ang):
   XX=            -60.1056   YY=            -63.8945   ZZ=            -69.7548
   XY=             -1.7458   XZ=              0.0132   YZ=              0.9322

 Normal termination of Gaussian 16 at Wed Nov 29 00:29:54 2023.
