 Gaussian 16, Revision B.01,
 Gaussian 16:  ES64L-G16RevB.01 20-Dec-2017

 -------------------------
 #P B3LYP/6-311+g(d) force
 -------------------------

 -----
 DPGEN
 -----
 Symbolic Z-matrix:
 Charge =  0 Multiplicity = 2

                         Standard orientation:
 ---------------------------------------------------------------------
 Center     Atomic      Atomic             Coordinates (Angstroms)
 Number     Number       Type             X           Y           Z
 ---------------------------------------------------------------------
      1         11           0        0.492252   -1.123676   -0.867809
      2         11           0       -0.715941    1.272649   -1.695795
      3         11           0       -2.305851   -1.210377   -0.669420
      4         11           0       -0.392805   -1.132366    1.799977
      5         11           0       -1.577198    1.274862    0.976986
      6         11           0        1.220206    1.347255    0.766404
      7         11           0        3.279337   -0.428347   -0.310344
 ---------------------------------------------------------------------

 SCF Done:  E(UB3LYP) =  -1136.08325000     A.U. after   24 cycles

 The electronic state is 2-A.
 Alpha  occ. eigenvalues --  -38.44626 -38.43951 -38.43835 -38.43829 -38.43653
 Alpha  occ. eigenvalues --  -38.43512 -38.43306  -2.20535  -2.20156  -2.19978
 Alpha  occ. eigenvalues --   -2.19932  -2.19891  -2.19624  -2.19475  -1.14296
 Alpha  occ. eigenvalues --   -1.14235  -1.14127  -1.14100  -1.13958  -1.13902
 Alpha  occ. eigenvalues --   -1.13844  -1.13825  -1.13700  -1.13566  -1.13509
 Alpha  occ. eigenvalues --   -1.13484  -1.13444  -1.13427  -1.13371  -1.13232
 Alpha  occ. eigenvalues --   -1.13201  -1.13189  -1.13153  -1.13088  -1.13012
 Alpha  occ. eigenvalues --   -0.21297  -0.13973  -0.13113  -0.11591
 Alpha virt. eigenvalues --   -0.05905  -0.04222  -0.03852  -0.03471  -0.03004
 Alpha virt. eigenvalues --   -0.02759  -0.01560  -0.00547  -0.00242   0.00277
 Alpha virt. eigenvalues --    0.00623   0.00703   0.00929   0.01016   0.01074

  Beta  occ. eigenvalues --  -38.44624 -38.43900 -38.43801 -38.43772 -38.43602
  Beta  occ. eigenvalues --  -38.43463 -38.43269  -2.20532  -2.20070  -2.19894
  Beta  occ. eigenvalues --   -2.19841  -2.19823  -2.19538  -2.19414  -1.14287
  Beta  occ. eigenvalues --   -1.14227  -1.14122  -1.14035  -1.13868  -1.13849
  Beta  occ. eigenvalues --   -1.13769  -1.13748  -1.13647  -1.13490  -1.13466
  Beta  occ. eigenvalues --   -1.13408  -1.13369  -1.13363  -1.13316  -1.13184
  Beta  occ. eigenvalues --   -1.13142  -1.13113  -1.13088  -1.13024  -1.12962
  Beta  occ. eigenvalues --   -0.20385  -0.13741  -0.11457
  Beta virt. eigenvalues --   -0.08507  -0.05791  -0.03794  -0.03303  -0.03141
  Beta virt. eigenvalues --   -0.02381  -0.01902  -0.01485  -0.00317  -0.00157
  Beta virt. eigenvalues --    0.00316   0.00673   0.00790   0.01022   0.01043

 Mulliken charges and spin densities:
               1          2
     1  Na  -0.668129   0.325848
     2  Na   0.206025   0.341028
     3  Na   0.301232  -0.133120
     4  Na   0.182463   0.313799
     5  Na   0.249008   0.168178
     6  Na  -0.464192   0.005847
     7  Na   0.193594  -0.021580
 Sum of Mulliken charges =  -0.00000   1.00000

 Dipole moment (field-independent basis, Debye):
    X=              0.3768    Y=             -0.0650    Z=             -0.1082  Tot=              0.3974
 Quadrupole moment (field-independent basis, Debye-Ang):
   XX=            -54.6927   YY=            -76.8588   ZZ=            -63.8296
   XY=             -0.0089   XZ=              0.1913   YZ=              2.6193

 Normal termination of Gaussian 16 at Fri Dec  8 20:16:09 2023.
