 Gaussian 16, Revision B.01,
 Gaussian 16:  ES64L-G16RevB.01 20-Dec-2017

 -------------------------
 #P B3LYP/6-311+g(d) force
 -------------------------

 -----
 DPGEN
 -----
 Symbolic Z-matrix:
 Charge =  0 Multiplicity = 2

                         Standard orientation:
 ---------------------------------------------------------------------
 Center     Atomic      Atomic             Coordinates (Angstroms)
 Number     Number       Type             X           Y           Z
 ---------------------------------------------------------------------
      1         11           0       -0.887806   -2.406337    0.052510
      2         11           0       -0.010281   -0.024016   -1.736551
      3         11           0       -3.021005   -0.064786    0.049854
      4         11           0        0.282412    0.037968    1.770111
      5         11           0        2.354168    1.629040   -0.063367
      6         11           0        2.290487   -1.619950   -0.074121
      7         11           0       -1.007975    2.448082    0.001564
 ---------------------------------------------------------------------

 SCF Done:  E(UB3LYP) =  -1136.13406507     A.U. after   18 cycles

 The electronic state is 2-A.
 Alpha  occ. eigenvalues --  -38.43863 -38.43517 -38.43436 -38.43212 -38.43169
 Alpha  occ. eigenvalues --  -38.43099 -38.42982  -2.19758  -2.19442  -2.19387
 Alpha  occ. eigenvalues --   -2.19264  -2.19234  -2.19034  -2.18954  -1.13437
 Alpha  occ. eigenvalues --   -1.13426  -1.13407  -1.13192  -1.13121  -1.13103
 Alpha  occ. eigenvalues --   -1.13090  -1.13061  -1.12991  -1.12962  -1.12910
 Alpha  occ. eigenvalues --   -1.12903  -1.12893  -1.12865  -1.12836  -1.12698
 Alpha  occ. eigenvalues --   -1.12687  -1.12649  -1.12622  -1.12600  -1.12570
 Alpha  occ. eigenvalues --   -0.19852  -0.13456  -0.12696  -0.11055
 Alpha virt. eigenvalues --   -0.05444  -0.04948  -0.04320  -0.03286  -0.02896
 Alpha virt. eigenvalues --   -0.02463  -0.01413  -0.00898   0.00005   0.00078
 Alpha virt. eigenvalues --    0.00157   0.00365   0.00872   0.00981   0.00999

  Beta  occ. eigenvalues --  -38.43861 -38.43510 -38.43427 -38.43129 -38.43091
  Beta  occ. eigenvalues --  -38.43087 -38.42972  -2.19756  -2.19433  -2.19375
  Beta  occ. eigenvalues --   -2.19111  -2.19084  -2.19025  -2.18942  -1.13440
  Beta  occ. eigenvalues --   -1.13428  -1.13381  -1.13180  -1.13098  -1.13082
  Beta  occ. eigenvalues --   -1.13072  -1.13010  -1.12990  -1.12880  -1.12826
  Beta  occ. eigenvalues --   -1.12807  -1.12791  -1.12764  -1.12735  -1.12672
  Beta  occ. eigenvalues --   -1.12648  -1.12637  -1.12603  -1.12568  -1.12545
  Beta  occ. eigenvalues --   -0.19088  -0.13175  -0.12391
  Beta virt. eigenvalues --   -0.07050  -0.05425  -0.04953  -0.04335  -0.02429
  Beta virt. eigenvalues --   -0.02040  -0.01389  -0.01330  -0.00846   0.00025
  Beta virt. eigenvalues --    0.00099   0.00132   0.00385   0.00921   0.00977

 Mulliken charges and spin densities:
               1          2
     1  Na   0.387526  -0.047304
     2  Na  -0.692957   0.646853
     3  Na   0.000601  -0.065693
     4  Na  -0.696022   0.682709
     5  Na   0.313929  -0.079947
     6  Na   0.397020  -0.043663
     7  Na   0.289902  -0.092955
 Sum of Mulliken charges =  -0.00000   1.00000

 Dipole moment (field-independent basis, Debye):
    X=             -0.0105    Y=              0.0998    Z=              0.0206  Tot=              0.1025
 Quadrupole moment (field-independent basis, Debye-Ang):
   XX=            -55.9546   YY=            -64.8534   ZZ=            -73.1227
   XY=              0.0611   XZ=             -0.6621   YZ=             -0.1295

 Normal termination of Gaussian 16 at Wed Dec  6 00:42:19 2023.
