 Gaussian 16, Revision B.01,
 Gaussian 16:  ES64L-G16RevB.01 20-Dec-2017

 -------------------------
 #P B3LYP/6-311+g(d) force
 -------------------------

 -----
 DPGEN
 -----
 Symbolic Z-matrix:
 Charge =  0 Multiplicity = 2

                         Standard orientation:
 ---------------------------------------------------------------------
 Center     Atomic      Atomic             Coordinates (Angstroms)
 Number     Number       Type             X           Y           Z
 ---------------------------------------------------------------------
      1         11           0        1.397216   -2.082391    1.022077
      2         11           0        5.048830   -1.993848   -0.443638
      3         11           0        2.822695    0.979708   -0.681287
      4         11           0        1.664375    3.840332    0.405912
      5         11           0       -0.395505    0.313801    0.141780
      6         11           0       -3.669015   -1.037996   -0.293826
      7         11           0       -6.868596   -0.019606   -0.151019
 ---------------------------------------------------------------------

 SCF Done:  E(UB3LYP) =  -1136.11382168     A.U. after   22 cycles

 The electronic state is 2-A.
 Alpha  occ. eigenvalues --  -38.44995 -38.44995 -38.44328 -38.44295 -38.44127
 Alpha  occ. eigenvalues --  -38.43927 -38.43576  -2.20800  -2.20778  -2.20175
 Alpha  occ. eigenvalues --   -2.20100  -2.19895  -2.19794  -2.19370  -1.14522
 Alpha  occ. eigenvalues --   -1.14473  -1.14421  -1.14420  -1.14397  -1.14397
 Alpha  occ. eigenvalues --   -1.13867  -1.13852  -1.13762  -1.13761  -1.13761
 Alpha  occ. eigenvalues --   -1.13707  -1.13584  -1.13578  -1.13537  -1.13503
 Alpha  occ. eigenvalues --   -1.13482  -1.13382  -1.13037  -1.13030  -1.12987
 Alpha  occ. eigenvalues --   -0.16748  -0.13748  -0.11992  -0.11718
 Alpha virt. eigenvalues --   -0.06535  -0.05484  -0.04315  -0.03651  -0.02967
 Alpha virt. eigenvalues --   -0.02303  -0.02254  -0.01892  -0.01246  -0.00939
 Alpha virt. eigenvalues --   -0.00581  -0.00137   0.00064   0.00365   0.00612

  Beta  occ. eigenvalues --  -38.44972 -38.44920 -38.44278 -38.44244 -38.44145
  Beta  occ. eigenvalues --  -38.43905 -38.43558  -2.20763  -2.20638  -2.20084
  Beta  occ. eigenvalues --   -2.20007  -2.19934  -2.19756  -2.19336  -1.14487
  Beta  occ. eigenvalues --   -1.14451  -1.14354  -1.14326  -1.14325  -1.14306
  Beta  occ. eigenvalues --   -1.13813  -1.13793  -1.13698  -1.13693  -1.13682
  Beta  occ. eigenvalues --   -1.13650  -1.13614  -1.13609  -1.13521  -1.13472
  Beta  occ. eigenvalues --   -1.13455  -1.13351  -1.13010  -1.13005  -1.12968
  Beta  occ. eigenvalues --   -0.16124  -0.13065  -0.11638
  Beta virt. eigenvalues --   -0.08418  -0.05945  -0.05328  -0.04027  -0.03426
  Beta virt. eigenvalues --   -0.02522  -0.02098  -0.01881  -0.01763  -0.00859
  Beta virt. eigenvalues --   -0.00711  -0.00342  -0.00023   0.00207   0.00466

 Mulliken charges and spin densities:
               1          2
     1  Na   0.327846   0.086875
     2  Na   0.279036   0.182717
     3  Na  -0.093466   0.333812
     4  Na   0.422255   0.083615
     5  Na  -1.032737  -0.023682
     6  Na  -0.317588   0.029533
     7  Na   0.414654   0.307130
 Sum of Mulliken charges =  -0.00000   1.00000

 Dipole moment (field-independent basis, Debye):
    X=             -0.3605    Y=             -0.1592    Z=              0.3874  Tot=              0.5526
 Quadrupole moment (field-independent basis, Debye-Ang):
   XX=            -52.8222   YY=            -66.3245   ZZ=            -71.3529
   XY=             -4.7321   XZ=             -1.4289   YZ=              0.5190

 Normal termination of Gaussian 16 at Tue Nov 28 19:03:39 2023.
