 Gaussian 16, Revision B.01,
 Gaussian 16:  ES64L-G16RevB.01 20-Dec-2017

 -------------------------
 #P B3LYP/6-311+g(d) force
 -------------------------

 -----
 DPGEN
 -----
 Symbolic Z-matrix:
 Charge =  0 Multiplicity = 2

                         Standard orientation:
 ---------------------------------------------------------------------
 Center     Atomic      Atomic             Coordinates (Angstroms)
 Number     Number       Type             X           Y           Z
 ---------------------------------------------------------------------
      1         11           0       -1.394869   -2.307325    0.301236
      2         11           0        0.246113    0.279170    2.190028
      3         11           0        0.522584    2.739670    0.009725
      4         11           0       -2.547145    1.961546   -0.012594
      5         11           0       -3.507813   -0.967722   -1.386189
      6         11           0        4.225851    0.604328   -1.305925
      7         11           0        2.455279   -2.309667    0.203718
 ---------------------------------------------------------------------

 SCF Done:  E(UB3LYP) =  -1136.11889373     A.U. after   21 cycles

 The electronic state is 2-A.
 Alpha  occ. eigenvalues --  -38.44874 -38.44795 -38.44476 -38.44206 -38.43733
 Alpha  occ. eigenvalues --  -38.43702 -38.43637  -2.20645  -2.20628  -2.20218
 Alpha  occ. eigenvalues --   -2.20043  -2.19563  -2.19542  -2.19493  -1.14298
 Alpha  occ. eigenvalues --   -1.14294  -1.14293  -1.14279  -1.14256  -1.14223
 Alpha  occ. eigenvalues --   -1.13913  -1.13885  -1.13860  -1.13741  -1.13703
 Alpha  occ. eigenvalues --   -1.13685  -1.13318  -1.13236  -1.13232  -1.13219
 Alpha  occ. eigenvalues --   -1.13201  -1.13190  -1.13128  -1.13126  -1.13061
 Alpha  occ. eigenvalues --   -0.17055  -0.13560  -0.12336  -0.11304
 Alpha virt. eigenvalues --   -0.06223  -0.05659  -0.04627  -0.03735  -0.03275
 Alpha virt. eigenvalues --   -0.02260  -0.01765  -0.01244  -0.01026  -0.00590
 Alpha virt. eigenvalues --   -0.00408   0.00280   0.00281   0.00366   0.00533

  Beta  occ. eigenvalues --  -38.44777 -38.44727 -38.44489 -38.44195 -38.43735
  Beta  occ. eigenvalues --  -38.43694 -38.43606  -2.20502  -2.20463  -2.20246
  Beta  occ. eigenvalues --   -2.20024  -2.19568  -2.19530  -2.19435  -1.14216
  Beta  occ. eigenvalues --   -1.14210  -1.14170  -1.14154  -1.14138  -1.14129
  Beta  occ. eigenvalues --   -1.13936  -1.13908  -1.13850  -1.13731  -1.13689
  Beta  occ. eigenvalues --   -1.13658  -1.13292  -1.13238  -1.13230  -1.13210
  Beta  occ. eigenvalues --   -1.13190  -1.13188  -1.13089  -1.13082  -1.13031
  Beta  occ. eigenvalues --   -0.16518  -0.12778  -0.12258
  Beta virt. eigenvalues --   -0.07850  -0.06033  -0.05260  -0.04065  -0.03661
  Beta virt. eigenvalues --   -0.02666  -0.01868  -0.01482  -0.01144  -0.00855
  Beta virt. eigenvalues --   -0.00464  -0.00172   0.00406   0.00457   0.00584

 Mulliken charges and spin densities:
               1          2
     1  Na  -0.593630  -0.034700
     2  Na   0.443455   0.091232
     3  Na  -0.148348   0.092972
     4  Na  -0.189075   0.099942
     5  Na   0.500877   0.227062
     6  Na   0.051472   0.497215
     7  Na  -0.064750   0.026277
 Sum of Mulliken charges =  -0.00000   1.00000

 Dipole moment (field-independent basis, Debye):
    X=              0.1812    Y=              0.3231    Z=              0.1322  Tot=              0.3934
 Quadrupole moment (field-independent basis, Debye-Ang):
   XX=            -65.0753   YY=            -68.0651   ZZ=            -67.7896
   XY=             -1.1201   XZ=             -0.0260   YZ=             -1.4629

 Normal termination of Gaussian 16 at Wed Nov 29 02:40:55 2023.
