 Gaussian 16, Revision B.01,
 Gaussian 16:  ES64L-G16RevB.01 20-Dec-2017

 -------------------------
 #P B3LYP/6-311+g(d) force
 -------------------------

 -----
 DPGEN
 -----
 Symbolic Z-matrix:
 Charge =  0 Multiplicity = 2

                         Standard orientation:
 ---------------------------------------------------------------------
 Center     Atomic      Atomic             Coordinates (Angstroms)
 Number     Number       Type             X           Y           Z
 ---------------------------------------------------------------------
      1         11           0        3.060570    2.036319   -0.126295
      2         11           0       -1.389888   -3.323632   -0.107216
      3         11           0        4.297915   -0.670121   -0.318885
      4         11           0        1.688361   -3.278930    0.424282
      5         11           0       -3.045357    2.297650   -0.412747
      6         11           0       -0.291384    4.283476    0.489320
      7         11           0       -4.320217   -1.344763    0.051541
 ---------------------------------------------------------------------

 SCF Done:  E(UB3LYP) =  -1136.10770518     A.U. after   21 cycles

 The electronic state is 2-A.
 Alpha  occ. eigenvalues --  -38.45387 -38.45108 -38.44501 -38.44412 -38.44370
 Alpha  occ. eigenvalues --  -38.44282 -38.44193  -2.21115  -2.20907  -2.20318
 Alpha  occ. eigenvalues --   -2.20240  -2.20170  -2.20072  -2.19969  -1.14809
 Alpha  occ. eigenvalues --   -1.14796  -1.14743  -1.14612  -1.14566  -1.14546
 Alpha  occ. eigenvalues --   -1.14033  -1.13967  -1.13944  -1.13910  -1.13885
 Alpha  occ. eigenvalues --   -1.13864  -1.13841  -1.13833  -1.13799  -1.13724
 Alpha  occ. eigenvalues --   -1.13705  -1.13698  -1.13627  -1.13613  -1.13602
 Alpha  occ. eigenvalues --   -0.15527  -0.13942  -0.13618  -0.11167
 Alpha virt. eigenvalues --   -0.07538  -0.04856  -0.04382  -0.03541  -0.03508
 Alpha virt. eigenvalues --   -0.02491  -0.02328  -0.01998  -0.01732  -0.00548
 Alpha virt. eigenvalues --   -0.00346  -0.00190  -0.00013   0.00308   0.00444

  Beta  occ. eigenvalues --  -38.45388 -38.45081 -38.44441 -38.44388 -38.44360
  Beta  occ. eigenvalues --  -38.44211 -38.44144  -2.21122  -2.20862  -2.20211
  Beta  occ. eigenvalues --   -2.20200  -2.20160  -2.19939  -2.19879  -1.14819
  Beta  occ. eigenvalues --   -1.14805  -1.14714  -1.14569  -1.14539  -1.14507
  Beta  occ. eigenvalues --   -1.13958  -1.13897  -1.13875  -1.13871  -1.13860
  Beta  occ. eigenvalues --   -1.13840  -1.13831  -1.13827  -1.13738  -1.13633
  Beta  occ. eigenvalues --   -1.13619  -1.13610  -1.13566  -1.13554  -1.13540
  Beta  occ. eigenvalues --   -0.14963  -0.13180  -0.12815
  Beta virt. eigenvalues --   -0.08063  -0.07714  -0.04376  -0.03955  -0.03275
  Beta virt. eigenvalues --   -0.03173  -0.02281  -0.02076  -0.01844  -0.01537
  Beta virt. eigenvalues --   -0.00172  -0.00041   0.00004   0.00203   0.00377

 Mulliken charges and spin densities:
               1          2
     1  Na  -0.190032   0.187021
     2  Na  -0.376160  -0.022115
     3  Na   0.446073  -0.017118
     4  Na   0.066381   0.208380
     5  Na  -0.295680   0.024604
     6  Na   0.205840   0.251343
     7  Na   0.143578   0.367885
 Sum of Mulliken charges =  -0.00000   1.00000

 Dipole moment (field-independent basis, Debye):
    X=              0.4598    Y=              0.1819    Z=             -0.0238  Tot=              0.4950
 Quadrupole moment (field-independent basis, Debye-Ang):
   XX=            -60.5764   YY=            -65.5939   ZZ=            -73.7603
   XY=             -1.4057   XZ=              0.9131   YZ=              0.5188

 Normal termination of Gaussian 16 at Sun Dec  3 16:28:09 2023.
