 Gaussian 16, Revision B.01,
 Gaussian 16:  ES64L-G16RevB.01 20-Dec-2017

 -------------------------
 #P B3LYP/6-311+g(d) force
 -------------------------

 -----
 DPGEN
 -----
 Symbolic Z-matrix:
 Charge =  0 Multiplicity = 2

                         Standard orientation:
 ---------------------------------------------------------------------
 Center     Atomic      Atomic             Coordinates (Angstroms)
 Number     Number       Type             X           Y           Z
 ---------------------------------------------------------------------
      1         11           0        3.881992    1.059976   -1.225349
      2         11           0       -2.223554   -2.550792   -0.974711
      3         11           0       -1.462486    3.217873    0.089715
      4         11           0        1.260857    1.131021    1.282747
      5         11           0       -3.756309    0.562246   -0.871024
      6         11           0        2.576686   -1.872089   -0.594869
      7         11           0       -0.277186   -1.548236    2.293492
 ---------------------------------------------------------------------

 SCF Done:  E(UB3LYP) =  -1136.11561699     A.U. after   21 cycles

 The electronic state is 2-A.
 Alpha  occ. eigenvalues --  -38.45080 -38.44694 -38.44561 -38.44394 -38.44092
 Alpha  occ. eigenvalues --  -38.44072 -38.43328  -2.20865  -2.20504  -2.20373
 Alpha  occ. eigenvalues --   -2.20166  -2.19942  -2.19835  -2.19088  -1.14553
 Alpha  occ. eigenvalues --   -1.14524  -1.14502  -1.14160  -1.14146  -1.14132
 Alpha  occ. eigenvalues --   -1.14067  -1.14007  -1.13980  -1.13845  -1.13823
 Alpha  occ. eigenvalues --   -1.13790  -1.13629  -1.13609  -1.13551  -1.13510
 Alpha  occ. eigenvalues --   -1.13494  -1.13465  -1.12762  -1.12753  -1.12732
 Alpha  occ. eigenvalues --   -0.16741  -0.13657  -0.11691  -0.11544
 Alpha virt. eigenvalues --   -0.06305  -0.05634  -0.04796  -0.03526  -0.03178
 Alpha virt. eigenvalues --   -0.02445  -0.01728  -0.01289  -0.01203  -0.00696
 Alpha virt. eigenvalues --   -0.00466   0.00117   0.00342   0.00467   0.00603

  Beta  occ. eigenvalues --  -38.45065 -38.44652 -38.44486 -38.44362 -38.44054
  Beta  occ. eigenvalues --  -38.44045 -38.43329  -2.20841  -2.20427  -2.20238
  Beta  occ. eigenvalues --   -2.20106  -2.19862  -2.19802  -2.19089  -1.14536
  Beta  occ. eigenvalues --   -1.14513  -1.14464  -1.14106  -1.14090  -1.14083
  Beta  occ. eigenvalues --   -1.13961  -1.13917  -1.13887  -1.13803  -1.13785
  Beta  occ. eigenvalues --   -1.13744  -1.13573  -1.13528  -1.13498  -1.13489
  Beta  occ. eigenvalues --   -1.13471  -1.13435  -1.12764  -1.12752  -1.12731
  Beta  occ. eigenvalues --   -0.16007  -0.12994  -0.11501
  Beta virt. eigenvalues --   -0.08083  -0.06153  -0.05192  -0.04376  -0.03348
  Beta virt. eigenvalues --   -0.02657  -0.01928  -0.01521  -0.01135  -0.01053
  Beta virt. eigenvalues --   -0.00627  -0.00210   0.00231   0.00449   0.00595

 Mulliken charges and spin densities:
               1          2
     1  Na   0.180858   0.186893
     2  Na  -0.205722   0.092003
     3  Na  -0.120257  -0.061571
     4  Na   0.157380   0.313600
     5  Na   0.028211   0.179412
     6  Na  -0.096084   0.072636
     7  Na   0.055615   0.217028
 Sum of Mulliken charges =  -0.00000   1.00000

 Dipole moment (field-independent basis, Debye):
    X=              1.1630    Y=             -0.6488    Z=             -0.3937  Tot=              1.3887
 Quadrupole moment (field-independent basis, Debye-Ang):
   XX=            -62.0576   YY=            -67.8565   ZZ=            -68.0616
   XY=              1.4651   XZ=             -2.1293   YZ=             -0.3883

 Normal termination of Gaussian 16 at Mon Dec  4 02:16:55 2023.
