 Gaussian 16, Revision B.01,
 Gaussian 16:  ES64L-G16RevB.01 20-Dec-2017

 -------------------------
 #P B3LYP/6-311+g(d) force
 -------------------------

 -----
 DPGEN
 -----
 Symbolic Z-matrix:
 Charge =  0 Multiplicity = 2

                         Standard orientation:
 ---------------------------------------------------------------------
 Center     Atomic      Atomic             Coordinates (Angstroms)
 Number     Number       Type             X           Y           Z
 ---------------------------------------------------------------------
      1         11           0        1.121395   -1.160194    0.655513
      2         11           0        4.333534   -2.162978   -0.022204
      3         11           0        2.690661    1.111064   -1.329790
      4         11           0       -1.286895    1.594951   -1.031536
      5         11           0       -2.456782   -0.585258    0.564730
      6         11           0        0.761771    2.448496    1.519873
      7         11           0       -5.163684   -1.246081   -0.356586
 ---------------------------------------------------------------------

 SCF Done:  E(UB3LYP) =  -1136.11278365     A.U. after   23 cycles

 The electronic state is 2-A.
 Alpha  occ. eigenvalues --  -38.45467 -38.45124 -38.44243 -38.43989 -38.43948
 Alpha  occ. eigenvalues --  -38.43306 -38.43214  -2.21318  -2.20917  -2.20072
 Alpha  occ. eigenvalues --   -2.19820  -2.19715  -2.19197  -2.19166  -1.15047
 Alpha  occ. eigenvalues --   -1.14999  -1.14904  -1.14600  -1.14575  -1.14552
 Alpha  occ. eigenvalues --   -1.13767  -1.13743  -1.13645  -1.13540  -1.13450
 Alpha  occ. eigenvalues --   -1.13441  -1.13389  -1.13386  -1.13345  -1.12897
 Alpha  occ. eigenvalues --   -1.12887  -1.12869  -1.12813  -1.12788  -1.12760
 Alpha  occ. eigenvalues --   -0.17795  -0.13902  -0.11912  -0.10291
 Alpha virt. eigenvalues --   -0.07033  -0.06136  -0.04123  -0.03174  -0.02707
 Alpha virt. eigenvalues --   -0.02413  -0.02229  -0.01703  -0.00874  -0.00824
 Alpha virt. eigenvalues --   -0.00328   0.00120   0.00225   0.00426   0.00571

  Beta  occ. eigenvalues --  -38.45460 -38.45133 -38.44180 -38.43953 -38.43945
  Beta  occ. eigenvalues --  -38.43247 -38.43195  -2.21307  -2.20936  -2.19954
  Beta  occ. eigenvalues --   -2.19737  -2.19726  -2.19138  -2.19091  -1.15019
  Beta  occ. eigenvalues --   -1.14992  -1.14903  -1.14618  -1.14568  -1.14559
  Beta  occ. eigenvalues --   -1.13686  -1.13665  -1.13556  -1.13488  -1.13398
  Beta  occ. eigenvalues --   -1.13393  -1.13387  -1.13384  -1.13352  -1.12875
  Beta  occ. eigenvalues --   -1.12827  -1.12798  -1.12791  -1.12711  -1.12675
  Beta  occ. eigenvalues --   -0.17119  -0.13584  -0.11697
  Beta virt. eigenvalues --   -0.06858  -0.06658  -0.05910  -0.03528  -0.02921
  Beta virt. eigenvalues --   -0.02629  -0.02176  -0.02006  -0.01211  -0.00685
  Beta virt. eigenvalues --   -0.00459  -0.00152   0.00234   0.00345   0.00541

 Mulliken charges and spin densities:
               1          2
     1  Na  -0.423382   0.313656
     2  Na   0.958132   0.071513
     3  Na   0.010522   0.403580
     4  Na  -0.329799   0.054167
     5  Na  -0.713900  -0.065474
     6  Na   0.534388   0.067133
     7  Na  -0.035960   0.155425
 Sum of Mulliken charges =  -0.00000   1.00000

 Dipole moment (field-independent basis, Debye):
    X=              0.5612    Y=              1.1011    Z=              0.4392  Tot=              1.3116
 Quadrupole moment (field-independent basis, Debye-Ang):
   XX=            -62.8175   YY=            -68.6521   ZZ=            -66.3809
   XY=             -1.8092   XZ=              3.6148   YZ=              3.4135

 Normal termination of Gaussian 16 at Wed Nov 29 02:04:38 2023.
