 Gaussian 16, Revision B.01,
 Gaussian 16:  ES64L-G16RevB.01 20-Dec-2017

 -------------------------
 #P B3LYP/6-311+g(d) force
 -------------------------

 -----
 DPGEN
 -----
 Symbolic Z-matrix:
 Charge =  0 Multiplicity = 2

                         Standard orientation:
 ---------------------------------------------------------------------
 Center     Atomic      Atomic             Coordinates (Angstroms)
 Number     Number       Type             X           Y           Z
 ---------------------------------------------------------------------
      1         11           0        1.590446   -0.911530    1.819830
      2         11           0        3.650809   -0.751401   -0.797876
      3         11           0       -1.460003    1.058296    1.353464
      4         11           0       -2.252838    1.592136   -1.297651
      5         11           0       -3.385102   -1.826854    0.272354
      6         11           0        1.658998    2.035765    0.177969
      7         11           0        0.197690   -1.196411   -1.528091
 ---------------------------------------------------------------------

 SCF Done:  E(UB3LYP) =  -1136.12036114     A.U. after   25 cycles

 The electronic state is 2-A.
 Alpha  occ. eigenvalues --  -38.44566 -38.44485 -38.44373 -38.44194 -38.44109
 Alpha  occ. eigenvalues --  -38.43372 -38.43242  -2.20399  -2.20362  -2.20254
 Alpha  occ. eigenvalues --   -2.20007  -2.19875  -2.19220  -2.19185  -1.14143
 Alpha  occ. eigenvalues --   -1.14075  -1.14053  -1.14043  -1.14008  -1.13931
 Alpha  occ. eigenvalues --   -1.13926  -1.13889  -1.13862  -1.13708  -1.13685
 Alpha  occ. eigenvalues --   -1.13606  -1.13550  -1.13536  -1.13503  -1.12918
 Alpha  occ. eigenvalues --   -1.12900  -1.12893  -1.12856  -1.12836  -1.12756
 Alpha  occ. eigenvalues --   -0.18306  -0.14120  -0.11104  -0.10860
 Alpha virt. eigenvalues --   -0.06621  -0.05651  -0.04804  -0.03080  -0.02659
 Alpha virt. eigenvalues --   -0.02375  -0.02188  -0.01249  -0.00826  -0.00161
 Alpha virt. eigenvalues --    0.00111   0.00217   0.00303   0.00468   0.00555

  Beta  occ. eigenvalues --  -38.44554 -38.44448 -38.44310 -38.44166 -38.44095
  Beta  occ. eigenvalues --  -38.43370 -38.43222  -2.20377  -2.20292  -2.20137
  Beta  occ. eigenvalues --   -2.19959  -2.19851  -2.19219  -2.19153  -1.14101
  Beta  occ. eigenvalues --   -1.14050  -1.14040  -1.14024  -1.13952  -1.13878
  Beta  occ. eigenvalues --   -1.13853  -1.13810  -1.13772  -1.13673  -1.13636
  Beta  occ. eigenvalues --   -1.13572  -1.13528  -1.13518  -1.13488  -1.12916
  Beta  occ. eigenvalues --   -1.12870  -1.12858  -1.12845  -1.12819  -1.12733
  Beta  occ. eigenvalues --   -0.17614  -0.13919  -0.10739
  Beta virt. eigenvalues --   -0.07296  -0.06353  -0.05477  -0.04178  -0.02947
  Beta virt. eigenvalues --   -0.02338  -0.01832  -0.01648  -0.01109  -0.00386
  Beta virt. eigenvalues --   -0.00110   0.00180   0.00290   0.00462   0.00569

 Mulliken charges and spin densities:
               1          2
     1  Na  -0.091520   0.121080
     2  Na   0.406507   0.053795
     3  Na   0.350536   0.389063
     4  Na   0.176355   0.051983
     5  Na  -0.151918  -0.035307
     6  Na  -0.187441   0.117740
     7  Na  -0.502520   0.301647
 Sum of Mulliken charges =  -0.00000   1.00000

 Dipole moment (field-independent basis, Debye):
    X=              0.6988    Y=             -0.0301    Z=             -0.2625  Tot=              0.7471
 Quadrupole moment (field-independent basis, Debye-Ang):
   XX=            -50.5219   YY=            -74.8427   ZZ=            -69.5515
   XY=             -0.3615   XZ=             -0.2318   YZ=             -4.5287

 Normal termination of Gaussian 16 at Tue Dec  5 20:35:28 2023.
