 Gaussian 16, Revision B.01,
 Gaussian 16:  ES64L-G16RevB.01 20-Dec-2017

 -------------------------
 #P B3LYP/6-311+g(d) force
 -------------------------

 -----
 DPGEN
 -----
 Symbolic Z-matrix:
 Charge =  0 Multiplicity = 2

                         Standard orientation:
 ---------------------------------------------------------------------
 Center     Atomic      Atomic             Coordinates (Angstroms)
 Number     Number       Type             X           Y           Z
 ---------------------------------------------------------------------
      1         11           0       -0.045745    3.000547   -0.347133
      2         11           0       -3.070229    0.528244    0.224356
      3         11           0       -1.415832   -2.631604   -0.390659
      4         11           0        2.291304   -2.070236    0.103323
      5         11           0        0.030248    0.076699   -1.736561
      6         11           0       -0.322175    0.000712    1.926951
      7         11           0        2.532429    1.095639    0.219723
 ---------------------------------------------------------------------

 SCF Done:  E(UB3LYP) =  -1136.13894143     A.U. after   19 cycles

 The electronic state is 2-A.
 Alpha  occ. eigenvalues --  -38.43943 -38.43733 -38.43540 -38.43516 -38.43391
 Alpha  occ. eigenvalues --  -38.43337 -38.43245  -2.19773  -2.19566  -2.19459
 Alpha  occ. eigenvalues --   -2.19360  -2.19262  -2.19257  -2.19221  -1.13472
 Alpha  occ. eigenvalues --   -1.13430  -1.13403  -1.13260  -1.13230  -1.13188
 Alpha  occ. eigenvalues --   -1.13135  -1.13094  -1.13083  -1.13074  -1.13021
 Alpha  occ. eigenvalues --   -1.13014  -1.12998  -1.12950  -1.12926  -1.12910
 Alpha  occ. eigenvalues --   -1.12894  -1.12878  -1.12841  -1.12834  -1.12820
 Alpha  occ. eigenvalues --   -0.18823  -0.13005  -0.12558  -0.10871
 Alpha virt. eigenvalues --   -0.05472  -0.04998  -0.04798  -0.03248  -0.02943
 Alpha virt. eigenvalues --   -0.02567  -0.01360  -0.01211  -0.00330  -0.00161
 Alpha virt. eigenvalues --    0.00005   0.00365   0.00843   0.00895   0.00933

  Beta  occ. eigenvalues --  -38.43936 -38.43722 -38.43514 -38.43456 -38.43383
  Beta  occ. eigenvalues --  -38.43329 -38.43172  -2.19764  -2.19550  -2.19360
  Beta  occ. eigenvalues --   -2.19305  -2.19251  -2.19245  -2.19088  -1.13452
  Beta  occ. eigenvalues --   -1.13411  -1.13401  -1.13239  -1.13207  -1.13179
  Beta  occ. eigenvalues --   -1.13088  -1.13038  -1.13008  -1.12999  -1.12992
  Beta  occ. eigenvalues --   -1.12971  -1.12965  -1.12926  -1.12910  -1.12881
  Beta  occ. eigenvalues --   -1.12870  -1.12834  -1.12798  -1.12747  -1.12730
  Beta  occ. eigenvalues --   -0.18095  -0.12740  -0.12298
  Beta virt. eigenvalues --   -0.06976  -0.05437  -0.04926  -0.04804  -0.02435
  Beta virt. eigenvalues --   -0.02200  -0.01530  -0.01269  -0.01117  -0.00370
  Beta virt. eigenvalues --   -0.00203   0.00124   0.00387   0.00851   0.00916

 Mulliken charges and spin densities:
               1          2
     1  Na   0.236591  -0.031207
     2  Na   0.107024  -0.081227
     3  Na   0.049050  -0.074582
     4  Na  -0.029077  -0.080773
     5  Na  -0.243703   0.570517
     6  Na  -0.323674   0.663779
     7  Na   0.203790   0.033492
 Sum of Mulliken charges =  -0.00000   1.00000

 Dipole moment (field-independent basis, Debye):
    X=             -0.3747    Y=             -0.1070    Z=              0.0808  Tot=              0.3980
 Quadrupole moment (field-independent basis, Debye-Ang):
   XX=            -59.4241   YY=            -60.5212   ZZ=            -73.7964
   XY=             -0.7358   XZ=              0.8528   YZ=              0.1640

 Normal termination of Gaussian 16 at Thu Dec  7 23:50:09 2023.
