 Gaussian 16, Revision B.01,
 Gaussian 16:  ES64L-G16RevB.01 20-Dec-2017

 -------------------------
 #P B3LYP/6-311+g(d) force
 -------------------------

 -----
 DPGEN
 -----
 Symbolic Z-matrix:
 Charge =  0 Multiplicity = 2

                         Standard orientation:
 ---------------------------------------------------------------------
 Center     Atomic      Atomic             Coordinates (Angstroms)
 Number     Number       Type             X           Y           Z
 ---------------------------------------------------------------------
      1         11           0        3.971257    1.001888    0.131632
      2         11           0        1.619723    3.396147    0.342327
      3         11           0        0.334590   -2.883905    0.794736
      4         11           0       -3.173247   -2.867369   -0.144016
      5         11           0       -3.771668    0.447645    0.074260
      6         11           0       -2.099292    3.593258   -0.425267
      7         11           0        3.118636   -2.687664   -0.773673
 ---------------------------------------------------------------------

 SCF Done:  E(UB3LYP) =  -1136.11146963     A.U. after   21 cycles

 The electronic state is 2-A.
 Alpha  occ. eigenvalues --  -38.45116 -38.45061 -38.44840 -38.44510 -38.44235
 Alpha  occ. eigenvalues --  -38.43981 -38.43894  -2.20896  -2.20824  -2.20618
 Alpha  occ. eigenvalues --   -2.20275  -2.20041  -2.19765  -2.19704  -1.14583
 Alpha  occ. eigenvalues --   -1.14568  -1.14531  -1.14514  -1.14499  -1.14460
 Alpha  occ. eigenvalues --   -1.14288  -1.14283  -1.14240  -1.13956  -1.13948
 Alpha  occ. eigenvalues --   -1.13903  -1.13702  -1.13691  -1.13670  -1.13423
 Alpha  occ. eigenvalues --   -1.13411  -1.13391  -1.13355  -1.13349  -1.13341
 Alpha  occ. eigenvalues --   -0.15539  -0.13835  -0.13536  -0.10938
 Alpha virt. eigenvalues --   -0.07412  -0.04948  -0.04297  -0.03588  -0.03302
 Alpha virt. eigenvalues --   -0.02608  -0.02265  -0.01895  -0.01597  -0.00680
 Alpha virt. eigenvalues --   -0.00248  -0.00067   0.00059   0.00394   0.00580

  Beta  occ. eigenvalues --  -38.45102 -38.45051 -38.44795 -38.44495 -38.44194
  Beta  occ. eigenvalues --  -38.43921 -38.43845  -2.20874  -2.20811  -2.20540
  Beta  occ. eigenvalues --   -2.20254  -2.19968  -2.19655  -2.19613  -1.14569
  Beta  occ. eigenvalues --   -1.14558  -1.14511  -1.14496  -1.14488  -1.14407
  Beta  occ. eigenvalues --   -1.14237  -1.14229  -1.14171  -1.13946  -1.13937
  Beta  occ. eigenvalues --   -1.13858  -1.13648  -1.13638  -1.13623  -1.13349
  Beta  occ. eigenvalues --   -1.13337  -1.13317  -1.13294  -1.13287  -1.13282
  Beta  occ. eigenvalues --   -0.15010  -0.13028  -0.12761
  Beta virt. eigenvalues --   -0.07815  -0.07606  -0.04605  -0.03785  -0.03413
  Beta virt. eigenvalues --   -0.02859  -0.02362  -0.02041  -0.01718  -0.01422
  Beta virt. eigenvalues --   -0.00316  -0.00091   0.00154   0.00268   0.00397

 Mulliken charges and spin densities:
               1          2
     1  Na  -0.129652   0.154167
     2  Na   0.093568   0.011665
     3  Na  -0.517170   0.066177
     4  Na   0.248848   0.227273
     5  Na  -0.179797   0.100584
     6  Na   0.212116   0.278064
     7  Na   0.272088   0.162071
 Sum of Mulliken charges =  -0.00000   1.00000

 Dipole moment (field-independent basis, Debye):
    X=              0.4325    Y=             -0.6222    Z=             -0.0676  Tot=              0.7607
 Quadrupole moment (field-independent basis, Debye-Ang):
   XX=            -61.3455   YY=            -66.9464   ZZ=            -71.5913
   XY=             -1.0123   XZ=             -1.3701   YZ=              0.7097

 Normal termination of Gaussian 16 at Sun Dec  3 23:00:53 2023.
