 Gaussian 16, Revision B.01,
 Gaussian 16:  ES64L-G16RevB.01 20-Dec-2017

 -------------------------
 #P B3LYP/6-311+g(d) force
 -------------------------

 -----
 DPGEN
 -----
 Symbolic Z-matrix:
 Charge =  0 Multiplicity = 2

                         Standard orientation:
 ---------------------------------------------------------------------
 Center     Atomic      Atomic             Coordinates (Angstroms)
 Number     Number       Type             X           Y           Z
 ---------------------------------------------------------------------
      1         11           0        2.323755    2.068409    0.045882
      2         11           0       -3.764877   -1.353310   -1.037349
      3         11           0        3.710359   -1.408068   -0.797725
      4         11           0        0.873234   -1.087137    2.192893
      5         11           0       -2.102436    0.071579    1.629071
      6         11           0        0.243515   -0.906503   -1.408795
      7         11           0       -1.283550    2.615030   -0.623977
 ---------------------------------------------------------------------

 SCF Done:  E(UB3LYP) =  -1136.12003659     A.U. after   24 cycles

 The electronic state is 2-A.
 Alpha  occ. eigenvalues --  -38.44915 -38.44682 -38.44496 -38.44382 -38.44088
 Alpha  occ. eigenvalues --  -38.44066 -38.42957  -2.20717  -2.20525  -2.20270
 Alpha  occ. eigenvalues --   -2.20160  -2.19956  -2.19832  -2.18753  -1.14430
 Alpha  occ. eigenvalues --   -1.14379  -1.14324  -1.14208  -1.14158  -1.14122
 Alpha  occ. eigenvalues --   -1.13936  -1.13922  -1.13898  -1.13833  -1.13819
 Alpha  occ. eigenvalues --   -1.13786  -1.13651  -1.13602  -1.13579  -1.13528
 Alpha  occ. eigenvalues --   -1.13499  -1.13452  -1.12437  -1.12421  -1.12371
 Alpha  occ. eigenvalues --   -0.17620  -0.13481  -0.11678  -0.10969
 Alpha virt. eigenvalues --   -0.06548  -0.05833  -0.04547  -0.03429  -0.02670
 Alpha virt. eigenvalues --   -0.02510  -0.02402  -0.01557  -0.00729  -0.00446
 Alpha virt. eigenvalues --    0.00031   0.00169   0.00215   0.00344   0.00614

  Beta  occ. eigenvalues --  -38.44893 -38.44581 -38.44461 -38.44371 -38.44072
  Beta  occ. eigenvalues --  -38.44052 -38.42951  -2.20677  -2.20342  -2.20205
  Beta  occ. eigenvalues --   -2.20140  -2.19896  -2.19843  -2.18741  -1.14394
  Beta  occ. eigenvalues --   -1.14351  -1.14293  -1.14081  -1.14035  -1.13983
  Beta  occ. eigenvalues --   -1.13892  -1.13877  -1.13855  -1.13815  -1.13803
  Beta  occ. eigenvalues --   -1.13775  -1.13599  -1.13558  -1.13528  -1.13518
  Beta  occ. eigenvalues --   -1.13508  -1.13461  -1.12424  -1.12414  -1.12365
  Beta  occ. eigenvalues --   -0.16920  -0.13249  -0.10836
  Beta virt. eigenvalues --   -0.07676  -0.06359  -0.05635  -0.04099  -0.03039
  Beta virt. eigenvalues --   -0.02296  -0.02044  -0.01958  -0.01365  -0.00519
  Beta virt. eigenvalues --   -0.00292   0.00140   0.00214   0.00381   0.00467

 Mulliken charges and spin densities:
               1          2
     1  Na  -0.097393   0.021709
     2  Na   0.127346   0.221271
     3  Na   0.661720   0.064613
     4  Na  -0.054643   0.384314
     5  Na   0.233754  -0.009748
     6  Na  -0.749330   0.243573
     7  Na  -0.121453   0.074268
 Sum of Mulliken charges =  -0.00000   1.00000

 Dipole moment (field-independent basis, Debye):
    X=              0.5579    Y=             -0.5115    Z=             -0.1004  Tot=              0.7635
 Quadrupole moment (field-independent basis, Debye-Ang):
   XX=            -51.1948   YY=            -76.8972   ZZ=            -68.0498
   XY=             -0.9598   XZ=              1.8227   YZ=              1.7261

 Normal termination of Gaussian 16 at Fri Dec  8 00:43:48 2023.
