 Gaussian 16, Revision B.01,
 Gaussian 16:  ES64L-G16RevB.01 20-Dec-2017

 -------------------------
 #P B3LYP/6-311+g(d) force
 -------------------------

 -----
 DPGEN
 -----
 Symbolic Z-matrix:
 Charge =  0 Multiplicity = 2

                         Standard orientation:
 ---------------------------------------------------------------------
 Center     Atomic      Atomic             Coordinates (Angstroms)
 Number     Number       Type             X           Y           Z
 ---------------------------------------------------------------------
      1         11           0       -0.545288    1.008548    2.048652
      2         11           0        2.273685   -0.458553    2.049740
      3         11           0        3.083526   -0.768324   -1.336548
      4         11           0        0.894792    2.176053   -1.055891
      5         11           0       -2.233131    2.208267   -0.821813
      6         11           0       -0.228800   -2.178992   -1.054826
      7         11           0       -3.244784   -1.986999    0.170685
 ---------------------------------------------------------------------

 SCF Done:  E(UB3LYP) =  -1136.12567123     A.U. after   20 cycles

 The electronic state is 2-A.
 Alpha  occ. eigenvalues --  -38.44724 -38.44550 -38.44036 -38.44003 -38.43936
 Alpha  occ. eigenvalues --  -38.43506 -38.43334  -2.20565  -2.20408  -2.19860
 Alpha  occ. eigenvalues --   -2.19824  -2.19787  -2.19304  -2.19112  -1.14291
 Alpha  occ. eigenvalues --   -1.14207  -1.14171  -1.14078  -1.14037  -1.14021
 Alpha  occ. eigenvalues --   -1.13597  -1.13512  -1.13492  -1.13486  -1.13474
 Alpha  occ. eigenvalues --   -1.13460  -1.13453  -1.13434  -1.13372  -1.12991
 Alpha  occ. eigenvalues --   -1.12983  -1.12943  -1.12779  -1.12761  -1.12752
 Alpha  occ. eigenvalues --   -0.17634  -0.12939  -0.12159  -0.11864
 Alpha virt. eigenvalues --   -0.05476  -0.05382  -0.04965  -0.03623  -0.03209
 Alpha virt. eigenvalues --   -0.02868  -0.01560  -0.01034  -0.00807  -0.00087
 Alpha virt. eigenvalues --    0.00081   0.00261   0.00307   0.00551   0.00578

  Beta  occ. eigenvalues --  -38.44656 -38.44481 -38.44023 -38.43974 -38.43902
  Beta  occ. eigenvalues --  -38.43496 -38.43338  -2.20445  -2.20286  -2.19837
  Beta  occ. eigenvalues --   -2.19771  -2.19726  -2.19287  -2.19120  -1.14187
  Beta  occ. eigenvalues --   -1.14129  -1.14082  -1.13998  -1.13957  -1.13912
  Beta  occ. eigenvalues --   -1.13568  -1.13498  -1.13471  -1.13444  -1.13438
  Beta  occ. eigenvalues --   -1.13430  -1.13408  -1.13393  -1.13332  -1.12974
  Beta  occ. eigenvalues --   -1.12972  -1.12934  -1.12782  -1.12766  -1.12756
  Beta  occ. eigenvalues --   -0.16875  -0.12777  -0.11777
  Beta virt. eigenvalues --   -0.07989  -0.05380  -0.05192  -0.04342  -0.03367
  Beta virt. eigenvalues --   -0.02453  -0.02334  -0.01491  -0.00939  -0.00395
  Beta virt. eigenvalues --   -0.00004   0.00182   0.00358   0.00456   0.00663

 Mulliken charges and spin densities:
               1          2
     1  Na  -0.367470   0.464707
     2  Na   0.287672   0.051393
     3  Na   0.401203   0.262783
     4  Na  -0.381796   0.209014
     5  Na   0.457410   0.007702
     6  Na  -0.786228   0.108348
     7  Na   0.389209  -0.103946
 Sum of Mulliken charges =  -0.00000   1.00000

 Dipole moment (field-independent basis, Debye):
    X=              0.4421    Y=              0.5847    Z=              0.1896  Tot=              0.7572
 Quadrupole moment (field-independent basis, Debye-Ang):
   XX=            -57.5108   YY=            -74.4807   ZZ=            -66.2117
   XY=             -3.9494   XZ=             -1.5898   YZ=             -2.0649

 Normal termination of Gaussian 16 at Tue Nov 28 23:13:32 2023.
