 Gaussian 16, Revision B.01,
 Gaussian 16:  ES64L-G16RevB.01 20-Dec-2017

 -------------------------
 #P B3LYP/6-311+g(d) force
 -------------------------

 -----
 DPGEN
 -----
 Symbolic Z-matrix:
 Charge =  0 Multiplicity = 2

                         Standard orientation:
 ---------------------------------------------------------------------
 Center     Atomic      Atomic             Coordinates (Angstroms)
 Number     Number       Type             X           Y           Z
 ---------------------------------------------------------------------
      1         11           0       -0.229882    0.049196   -1.655316
      2         11           0        0.541363   -2.149646    0.000486
      3         11           0       -2.235631   -1.560352    0.059190
      4         11           0       -2.198190    1.656732    0.187359
      5         11           0        0.694418    2.133445    0.023099
      6         11           0        2.610313   -0.026350   -0.549557
      7         11           0        0.817610   -0.103025    1.934739
 ---------------------------------------------------------------------

 SCF Done:  E(UB3LYP) =  -1136.10266597     A.U. after   19 cycles

 The electronic state is 2-A.
 Alpha  occ. eigenvalues --  -38.44193 -38.43735 -38.43720 -38.43590 -38.43521
 Alpha  occ. eigenvalues --  -38.43279 -38.43232  -2.20270  -2.19948  -2.19804
 Alpha  occ. eigenvalues --   -2.19567  -2.19476  -2.19417  -2.19352  -1.14042
 Alpha  occ. eigenvalues --   -1.13970  -1.13853  -1.13760  -1.13721  -1.13632
 Alpha  occ. eigenvalues --   -1.13497  -1.13462  -1.13407  -1.13371  -1.13249
 Alpha  occ. eigenvalues --   -1.13222  -1.13193  -1.13111  -1.13083  -1.13047
 Alpha  occ. eigenvalues --   -1.13037  -1.12991  -1.12974  -1.12926  -1.12881
 Alpha  occ. eigenvalues --   -0.20897  -0.13619  -0.12910  -0.11938
 Alpha virt. eigenvalues --   -0.05099  -0.04678  -0.04151  -0.03529  -0.03201
 Alpha virt. eigenvalues --   -0.02856  -0.01120  -0.00554  -0.00087   0.00371
 Alpha virt. eigenvalues --    0.00545   0.00686   0.00988   0.01085   0.01102

  Beta  occ. eigenvalues --  -38.44102 -38.43713 -38.43639 -38.43587 -38.43518
  Beta  occ. eigenvalues --  -38.43261 -38.43215  -2.20103  -2.19805  -2.19769
  Beta  occ. eigenvalues --   -2.19565  -2.19473  -2.19393  -2.19329  -1.13946
  Beta  occ. eigenvalues --   -1.13851  -1.13736  -1.13681  -1.13632  -1.13549
  Beta  occ. eigenvalues --   -1.13480  -1.13417  -1.13360  -1.13327  -1.13245
  Beta  occ. eigenvalues --   -1.13210  -1.13162  -1.13089  -1.13078  -1.13030
  Beta  occ. eigenvalues --   -1.12978  -1.12957  -1.12919  -1.12896  -1.12874
  Beta  occ. eigenvalues --   -0.20071  -0.13350  -0.12576
  Beta virt. eigenvalues --   -0.07750  -0.05060  -0.04635  -0.04171  -0.02723
  Beta virt. eigenvalues --   -0.02300  -0.01725  -0.01037  -0.00509   0.00080
  Beta virt. eigenvalues --    0.00411   0.00520   0.00651   0.01035   0.01087

 Mulliken charges and spin densities:
               1          2
     1  Na  -0.169739   0.270022
     2  Na   0.246608   0.133240
     3  Na  -0.126215  -0.036060
     4  Na  -0.167262  -0.023682
     5  Na   0.142631   0.131741
     6  Na   0.470126   0.019885
     7  Na  -0.396149   0.504854
 Sum of Mulliken charges =  -0.00000   1.00000

 Dipole moment (field-independent basis, Debye):
    X=             -0.1786    Y=              0.0512    Z=              0.3560  Tot=              0.4016
 Quadrupole moment (field-independent basis, Debye-Ang):
   XX=            -59.1167   YY=            -68.8446   ZZ=            -68.9479
   XY=             -0.0895   XZ=             -1.8901   YZ=              0.3042

 Normal termination of Gaussian 16 at Fri Dec  8 17:21:22 2023.
