 Gaussian 16, Revision B.01,
 Gaussian 16:  ES64L-G16RevB.01 20-Dec-2017

 -------------------------
 #P B3LYP/6-311+g(d) force
 -------------------------

 -----
 DPGEN
 -----
 Symbolic Z-matrix:
 Charge =  0 Multiplicity = 2

                         Standard orientation:
 ---------------------------------------------------------------------
 Center     Atomic      Atomic             Coordinates (Angstroms)
 Number     Number       Type             X           Y           Z
 ---------------------------------------------------------------------
      1         11           0        3.592953   -0.552336   -1.327900
      2         11           0       -2.656130    1.184879   -0.999614
      3         11           0       -2.874072   -2.173184   -0.802493
      4         11           0        2.298781    1.685628    1.027081
      5         11           0       -1.073126   -1.078953    2.372187
      6         11           0        1.283020   -3.026902   -0.086111
      7         11           0       -0.571426    3.960868   -0.183151
 ---------------------------------------------------------------------

 SCF Done:  E(UB3LYP) =  -1136.11339799     A.U. after   21 cycles

 The electronic state is 2-A.
 Alpha  occ. eigenvalues --  -38.45389 -38.44947 -38.44452 -38.44415 -38.44267
 Alpha  occ. eigenvalues --  -38.44042 -38.44020  -2.21120  -2.20688  -2.20238
 Alpha  occ. eigenvalues --   -2.20197  -2.20015  -2.19829  -2.19807  -1.14811
 Alpha  occ. eigenvalues --   -1.14789  -1.14746  -1.14372  -1.14362  -1.14315
 Alpha  occ. eigenvalues --   -1.13886  -1.13880  -1.13875  -1.13866  -1.13850
 Alpha  occ. eigenvalues --   -1.13822  -1.13692  -1.13678  -1.13661  -1.13510
 Alpha  occ. eigenvalues --   -1.13492  -1.13468  -1.13455  -1.13447  -1.13444
 Alpha  occ. eigenvalues --   -0.16197  -0.13210  -0.12529  -0.10578
 Alpha virt. eigenvalues --   -0.07058  -0.05999  -0.04580  -0.03556  -0.03153
 Alpha virt. eigenvalues --   -0.02380  -0.01902  -0.01464  -0.01326  -0.00950
 Alpha virt. eigenvalues --   -0.00357  -0.00078   0.00157   0.00410   0.00532

  Beta  occ. eigenvalues --  -38.45383 -38.44940 -38.44399 -38.44355 -38.44273
  Beta  occ. eigenvalues --  -38.44011 -38.43987  -2.21112  -2.20676  -2.20170
  Beta  occ. eigenvalues --   -2.20057  -2.20027  -2.19774  -2.19746  -1.14802
  Beta  occ. eigenvalues --   -1.14784  -1.14727  -1.14359  -1.14351  -1.14306
  Beta  occ. eigenvalues --   -1.13851  -1.13847  -1.13800  -1.13762  -1.13754
  Beta  occ. eigenvalues --   -1.13724  -1.13699  -1.13687  -1.13665  -1.13472
  Beta  occ. eigenvalues --   -1.13454  -1.13426  -1.13416  -1.13404  -1.13401
  Beta  occ. eigenvalues --   -0.15636  -0.12777  -0.12406
  Beta virt. eigenvalues --   -0.07084  -0.06988  -0.05585  -0.04079  -0.03395
  Beta virt. eigenvalues --   -0.02668  -0.01826  -0.01665  -0.01371  -0.01290
  Beta virt. eigenvalues --   -0.00825  -0.00061   0.00147   0.00328   0.00538

 Mulliken charges and spin densities:
               1          2
     1  Na   0.183856   0.165454
     2  Na  -0.377205   0.194620
     3  Na   0.357144   0.009160
     4  Na  -0.166671   0.051772
     5  Na  -0.082489   0.624330
     6  Na  -0.136569   0.018908
     7  Na   0.221933  -0.064244
 Sum of Mulliken charges =  -0.00000   1.00000

 Dipole moment (field-independent basis, Debye):
    X=              0.2167    Y=             -0.4583    Z=             -0.1635  Tot=              0.5327
 Quadrupole moment (field-independent basis, Debye-Ang):
   XX=            -67.7164   YY=            -59.6548   ZZ=            -72.1918
   XY=              2.8143   XZ=             -0.4870   YZ=              2.1162

 Normal termination of Gaussian 16 at Sun Dec  3 21:25:32 2023.
