 Gaussian 16, Revision B.01,
 Gaussian 16:  ES64L-G16RevB.01 20-Dec-2017

 -------------------------
 #P B3LYP/6-311+g(d) force
 -------------------------

 -----
 DPGEN
 -----
 Symbolic Z-matrix:
 Charge =  0 Multiplicity = 2

                         Standard orientation:
 ---------------------------------------------------------------------
 Center     Atomic      Atomic             Coordinates (Angstroms)
 Number     Number       Type             X           Y           Z
 ---------------------------------------------------------------------
      1         11           0        2.159546   -1.518854    0.250535
      2         11           0       -0.781528   -0.245257    1.923467
      3         11           0        1.601083    2.552802    0.098149
      4         11           0        4.654852   -0.528206   -0.339858
      5         11           0       -3.994102   -1.006486    0.366963
      6         11           0       -2.167698    2.101877   -0.672680
      7         11           0       -1.472152   -1.355876   -1.626575
 ---------------------------------------------------------------------

 SCF Done:  E(UB3LYP) =  -1136.10841397     A.U. after   26 cycles

 The electronic state is 2-A.
 Alpha  occ. eigenvalues --  -38.45758 -38.45186 -38.44376 -38.44011 -38.43764
 Alpha  occ. eigenvalues --  -38.43663 -38.43626  -2.21561  -2.21007  -2.20237
 Alpha  occ. eigenvalues --   -2.19872  -2.19511  -2.19502  -2.19473  -1.15233
 Alpha  occ. eigenvalues --   -1.15220  -1.15213  -1.14676  -1.14656  -1.14642
 Alpha  occ. eigenvalues --   -1.14062  -1.13851  -1.13834  -1.13545  -1.13513
 Alpha  occ. eigenvalues --   -1.13469  -1.13196  -1.13174  -1.13173  -1.13169
 Alpha  occ. eigenvalues --   -1.13156  -1.13137  -1.13128  -1.13124  -1.13069
 Alpha  occ. eigenvalues --   -0.17664  -0.14260  -0.11073  -0.10689
 Alpha virt. eigenvalues --   -0.07563  -0.05818  -0.04046  -0.03528  -0.03174
 Alpha virt. eigenvalues --   -0.02293  -0.02184  -0.01496  -0.00985  -0.00785
 Alpha virt. eigenvalues --   -0.00592   0.00090   0.00167   0.00467   0.00680

  Beta  occ. eigenvalues --  -38.45753 -38.45172 -38.44334 -38.43915 -38.43768
  Beta  occ. eigenvalues --  -38.43634 -38.43617  -2.21555  -2.20983  -2.20156
  Beta  occ. eigenvalues --   -2.19696  -2.19511  -2.19499  -2.19420  -1.15229
  Beta  occ. eigenvalues --   -1.15218  -1.15182  -1.14657  -1.14634  -1.14616
  Beta  occ. eigenvalues --   -1.14013  -1.13795  -1.13779  -1.13421  -1.13396
  Beta  occ. eigenvalues --   -1.13342  -1.13200  -1.13172  -1.13167  -1.13137
  Beta  occ. eigenvalues --   -1.13131  -1.13128  -1.13103  -1.13098  -1.13023
  Beta  occ. eigenvalues --   -0.16991  -0.13800  -0.10943
  Beta virt. eigenvalues --   -0.07391  -0.06980  -0.05673  -0.03635  -0.03149
  Beta virt. eigenvalues --   -0.02993  -0.01992  -0.01571  -0.01318  -0.00702
  Beta virt. eigenvalues --   -0.00484  -0.00418   0.00108   0.00331   0.00537

 Mulliken charges and spin densities:
               1          2
     1  Na  -0.537602   0.023062
     2  Na   0.054374   0.378895
     3  Na  -0.176079  -0.018089
     4  Na   0.418012   0.200366
     5  Na   0.395367   0.146033
     6  Na  -0.327300   0.199142
     7  Na   0.173227   0.070591
 Sum of Mulliken charges =  -0.00000   1.00000

 Dipole moment (field-independent basis, Debye):
    X=             -1.2698    Y=             -0.2389    Z=             -0.0379  Tot=              1.2927
 Quadrupole moment (field-independent basis, Debye-Ang):
   XX=            -53.8913   YY=            -77.4401   ZZ=            -68.2286
   XY=              4.3381   XZ=             -4.7147   YZ=              1.1017

 Normal termination of Gaussian 16 at Sun Dec  3 12:55:02 2023.
