 Gaussian 16, Revision B.01,
 Gaussian 16:  ES64L-G16RevB.01 20-Dec-2017

 -------------------------
 #P B3LYP/6-311+g(d) force
 -------------------------

 -----
 DPGEN
 -----
 Symbolic Z-matrix:
 Charge =  0 Multiplicity = 2

                         Standard orientation:
 ---------------------------------------------------------------------
 Center     Atomic      Atomic             Coordinates (Angstroms)
 Number     Number       Type             X           Y           Z
 ---------------------------------------------------------------------
      1         11           0        1.060170    2.628227   -0.115427
      2         11           0        1.645929   -2.534266   -0.394126
      3         11           0       -2.904676   -1.682787    0.485101
      4         11           0       -2.815726    1.581963   -0.381699
      5         11           0        0.016940    0.100474    2.020994
      6         11           0       -0.566539   -0.310668   -1.652675
      7         11           0        3.563903    0.217056    0.037834
 ---------------------------------------------------------------------

 SCF Done:  E(UB3LYP) =  -1136.12942065     A.U. after   21 cycles

 The electronic state is 2-A.
 Alpha  occ. eigenvalues --  -38.45018 -38.44445 -38.44342 -38.43941 -38.43529
 Alpha  occ. eigenvalues --  -38.43185 -38.42905  -2.20808  -2.20263  -2.20184
 Alpha  occ. eigenvalues --   -2.19795  -2.19458  -2.19006  -2.18731  -1.14485
 Alpha  occ. eigenvalues --   -1.14459  -1.14453  -1.13940  -1.13923  -1.13913
 Alpha  occ. eigenvalues --   -1.13878  -1.13827  -1.13802  -1.13472  -1.13428
 Alpha  occ. eigenvalues --   -1.13406  -1.13139  -1.13102  -1.13085  -1.12686
 Alpha  occ. eigenvalues --   -1.12664  -1.12645  -1.12413  -1.12407  -1.12362
 Alpha  occ. eigenvalues --   -0.18191  -0.13632  -0.11636  -0.10635
 Alpha virt. eigenvalues --   -0.06589  -0.05569  -0.04106  -0.03445  -0.02532
 Alpha virt. eigenvalues --   -0.02514  -0.02171  -0.01383  -0.00617  -0.00248
 Alpha virt. eigenvalues --   -0.00106   0.00269   0.00611   0.00669   0.00785

  Beta  occ. eigenvalues --  -38.45021 -38.44431 -38.44327 -38.43853 -38.43469
  Beta  occ. eigenvalues --  -38.43180 -38.42905  -2.20815  -2.20239  -2.20161
  Beta  occ. eigenvalues --   -2.19632  -2.19349  -2.18998  -2.18732  -1.14486
  Beta  occ. eigenvalues --   -1.14464  -1.14456  -1.13928  -1.13901  -1.13880
  Beta  occ. eigenvalues --   -1.13849  -1.13801  -1.13789  -1.13363  -1.13317
  Beta  occ. eigenvalues --   -1.13284  -1.13062  -1.13018  -1.13008  -1.12675
  Beta  occ. eigenvalues --   -1.12651  -1.12638  -1.12416  -1.12393  -1.12359
  Beta  occ. eigenvalues --   -0.17490  -0.13456  -0.11391
  Beta virt. eigenvalues --   -0.06785  -0.06465  -0.05521  -0.04005  -0.02799
  Beta virt. eigenvalues --   -0.02088  -0.01850  -0.01489  -0.01274  -0.00610
  Beta virt. eigenvalues --   -0.00279   0.00061   0.00309   0.00709   0.00793

 Mulliken charges and spin densities:
               1          2
     1  Na  -0.094684  -0.073929
     2  Na   0.078824  -0.032523
     3  Na   0.016970   0.074110
     4  Na   0.282969   0.019195
     5  Na  -0.272753   0.664671
     6  Na   0.001997   0.395895
     7  Na  -0.013323  -0.047420
 Sum of Mulliken charges =  -0.00000   1.00000

 Dipole moment (field-independent basis, Debye):
    X=             -0.1958    Y=              0.0076    Z=              0.2072  Tot=              0.2852
 Quadrupole moment (field-independent basis, Debye-Ang):
   XX=            -49.1605   YY=            -68.8508   ZZ=            -75.1649
   XY=              0.8100   XZ=             -0.5163   YZ=             -1.5271

 Normal termination of Gaussian 16 at Thu Dec  7 05:00:06 2023.
