 Gaussian 16, Revision B.01,
 Gaussian 16:  ES64L-G16RevB.01 20-Dec-2017

 -------------------------
 #P B3LYP/6-311+g(d) force
 -------------------------

 -----
 DPGEN
 -----
 Symbolic Z-matrix:
 Charge =  0 Multiplicity = 2

                         Standard orientation:
 ---------------------------------------------------------------------
 Center     Atomic      Atomic             Coordinates (Angstroms)
 Number     Number       Type             X           Y           Z
 ---------------------------------------------------------------------
      1         11           0       -1.069400    2.507013   -0.505387
      2         11           0        1.221434   -2.563017    0.486683
      3         11           0        1.759290    2.268715    0.580600
      4         11           0       -0.706594   -0.394967    2.672797
      5         11           0       -0.791649   -0.879749   -1.934567
      6         11           0       -3.588278   -0.565244   -0.344333
      7         11           0        3.175197   -0.372751   -0.955793
 ---------------------------------------------------------------------

 SCF Done:  E(UB3LYP) =  -1136.12401699     A.U. after   21 cycles

 The electronic state is 2-A.
 Alpha  occ. eigenvalues --  -38.45188 -38.44534 -38.44272 -38.44265 -38.43604
 Alpha  occ. eigenvalues --  -38.43576 -38.43002  -2.20984  -2.20318  -2.20107
 Alpha  occ. eigenvalues --   -2.20091  -2.19434  -2.19400  -2.18850  -1.14625
 Alpha  occ. eigenvalues --   -1.14605  -1.14597  -1.14013  -1.13971  -1.13961
 Alpha  occ. eigenvalues --   -1.13773  -1.13770  -1.13762  -1.13747  -1.13735
 Alpha  occ. eigenvalues --   -1.13712  -1.13147  -1.13106  -1.13072  -1.13061
 Alpha  occ. eigenvalues --   -1.13060  -1.13047  -1.12522  -1.12502  -1.12494
 Alpha  occ. eigenvalues --   -0.17592  -0.12975  -0.12005  -0.11759
 Alpha virt. eigenvalues --   -0.06196  -0.04886  -0.04531  -0.03570  -0.03547
 Alpha virt. eigenvalues --   -0.03238  -0.01791  -0.00656  -0.00582  -0.00200
 Alpha virt. eigenvalues --    0.00045   0.00299   0.00316   0.00707   0.00818

  Beta  occ. eigenvalues --  -38.45063 -38.44535 -38.44257 -38.44222 -38.43602
  Beta  occ. eigenvalues --  -38.43568 -38.43002  -2.20751  -2.20322  -2.20065
  Beta  occ. eigenvalues --   -2.20029  -2.19431  -2.19390  -2.18850  -1.14466
  Beta  occ. eigenvalues --   -1.14447  -1.14434  -1.14006  -1.13968  -1.13966
  Beta  occ. eigenvalues --   -1.13745  -1.13727  -1.13722  -1.13717  -1.13715
  Beta  occ. eigenvalues --   -1.13656  -1.13147  -1.13091  -1.13067  -1.13061
  Beta  occ. eigenvalues --   -1.13053  -1.13017  -1.12524  -1.12497  -1.12487
  Beta  occ. eigenvalues --   -0.16906  -0.12795  -0.11790
  Beta virt. eigenvalues --   -0.07761  -0.06106  -0.04780  -0.04059  -0.03122
  Beta virt. eigenvalues --   -0.02710  -0.02533  -0.01683  -0.00647  -0.00388
  Beta virt. eigenvalues --   -0.00058   0.00084   0.00372   0.00508   0.00821

 Mulliken charges and spin densities:
               1          2
     1  Na  -0.343077  -0.027733
     2  Na  -0.178039  -0.008949
     3  Na   0.101394   0.027521
     4  Na  -0.107821   0.691810
     5  Na   0.234596   0.284216
     6  Na   0.145233  -0.067520
     7  Na   0.147714   0.100654
 Sum of Mulliken charges =  -0.00000   1.00000

 Dipole moment (field-independent basis, Debye):
    X=             -0.6369    Y=             -0.4108    Z=              0.0281  Tot=              0.7585
 Quadrupole moment (field-independent basis, Debye-Ang):
   XX=            -57.4149   YY=            -73.8594   ZZ=            -67.2163
   XY=             -0.2748   XZ=             -2.3644   YZ=             -0.8849

 Normal termination of Gaussian 16 at Mon Dec  4 00:38:51 2023.
