 Gaussian 16, Revision B.01,
 Gaussian 16:  ES64L-G16RevB.01 20-Dec-2017

 -------------------------
 #P B3LYP/6-311+g(d) force
 -------------------------

 -----
 DPGEN
 -----
 Symbolic Z-matrix:
 Charge =  0 Multiplicity = 2

                         Standard orientation:
 ---------------------------------------------------------------------
 Center     Atomic      Atomic             Coordinates (Angstroms)
 Number     Number       Type             X           Y           Z
 ---------------------------------------------------------------------
      1         11           0        1.022104    2.848161   -0.546281
      2         11           0       -2.543911   -1.685208    0.181815
      3         11           0        3.243692    0.179492    0.421183
      4         11           0       -2.826066    1.538604   -0.155416
      5         11           0       -0.119501    0.116621    1.869882
      6         11           0        1.310937   -2.631815   -0.511816
      7         11           0       -0.087256   -0.365854   -1.259366
 ---------------------------------------------------------------------

 SCF Done:  E(UB3LYP) =  -1136.12859506     A.U. after   19 cycles

 The electronic state is 2-A.
 Alpha  occ. eigenvalues --  -38.44436 -38.44223 -38.43985 -38.43447 -38.43436
 Alpha  occ. eigenvalues --  -38.43395 -38.42896  -2.20250  -2.20056  -2.19872
 Alpha  occ. eigenvalues --   -2.19362  -2.19345  -2.19204  -2.19001  -1.13924
 Alpha  occ. eigenvalues --   -1.13901  -1.13893  -1.13744  -1.13722  -1.13699
 Alpha  occ. eigenvalues --   -1.13568  -1.13533  -1.13485  -1.13244  -1.13090
 Alpha  occ. eigenvalues --   -1.12978  -1.12963  -1.12957  -1.12940  -1.12889
 Alpha  occ. eigenvalues --   -1.12859  -1.12838  -1.12671  -1.12592  -1.12574
 Alpha  occ. eigenvalues --   -0.18785  -0.13454  -0.12210  -0.10322
 Alpha virt. eigenvalues --   -0.06023  -0.05370  -0.04501  -0.03222  -0.02563
 Alpha virt. eigenvalues --   -0.02004  -0.01903  -0.01229  -0.00535  -0.00319
 Alpha virt. eigenvalues --    0.00034   0.00328   0.00749   0.00834   0.00860

  Beta  occ. eigenvalues --  -38.44429 -38.44219 -38.43978 -38.43433 -38.43383
  Beta  occ. eigenvalues --  -38.43352 -38.42843  -2.20238  -2.20052  -2.19862
  Beta  occ. eigenvalues --   -2.19322  -2.19207  -2.19185  -2.18907  -1.13897
  Beta  occ. eigenvalues --   -1.13893  -1.13889  -1.13745  -1.13705  -1.13690
  Beta  occ. eigenvalues --   -1.13562  -1.13503  -1.13476  -1.13211  -1.12988
  Beta  occ. eigenvalues --   -1.12931  -1.12924  -1.12875  -1.12866  -1.12846
  Beta  occ. eigenvalues --   -1.12839  -1.12821  -1.12588  -1.12530  -1.12511
  Beta  occ. eigenvalues --   -0.18104  -0.13229  -0.11907
  Beta virt. eigenvalues --   -0.06510  -0.05939  -0.05365  -0.04387  -0.02486
  Beta virt. eigenvalues --   -0.01892  -0.01784  -0.01163  -0.01036  -0.00528
  Beta virt. eigenvalues --   -0.00332   0.00171   0.00371   0.00796   0.00837

 Mulliken charges and spin densities:
               1          2
     1  Na  -0.119298   0.034922
     2  Na   0.370892   0.088063
     3  Na   0.143179   0.086636
     4  Na   0.004745  -0.030459
     5  Na  -0.247651   0.598539
     6  Na   0.431293   0.072963
     7  Na  -0.583161   0.149337
 Sum of Mulliken charges =  -0.00000   1.00000

 Dipole moment (field-independent basis, Debye):
    X=             -0.1286    Y=              0.1206    Z=              0.3323  Tot=              0.3762
 Quadrupole moment (field-independent basis, Debye-Ang):
   XX=            -51.1353   YY=            -63.3007   ZZ=            -76.6574
   XY=             -0.3585   XZ=              0.5529   YZ=             -1.1627

 Normal termination of Gaussian 16 at Tue Dec  5 17:03:31 2023.
