 Gaussian 16, Revision B.01,
 Gaussian 16:  ES64L-G16RevB.01 20-Dec-2017

 -------------------------
 #P B3LYP/6-311+g(d) force
 -------------------------

 -----
 DPGEN
 -----
 Symbolic Z-matrix:
 Charge =  0 Multiplicity = 2

                         Standard orientation:
 ---------------------------------------------------------------------
 Center     Atomic      Atomic             Coordinates (Angstroms)
 Number     Number       Type             X           Y           Z
 ---------------------------------------------------------------------
      1         11           0       -2.364442   -2.040801   -0.019045
      2         11           0        0.485301    2.922214    0.046490
      3         11           0        2.973266    0.697158   -0.080137
      4         11           0        1.596651   -2.693817   -0.186968
      5         11           0        0.093573   -0.111658   -1.513044
      6         11           0       -2.762171    1.451683   -0.237098
      7         11           0       -0.022177   -0.224779    1.989802
 ---------------------------------------------------------------------

 SCF Done:  E(UB3LYP) =  -1136.13981806     A.U. after   19 cycles

 The electronic state is 2-A.
 Alpha  occ. eigenvalues --  -38.43970 -38.43847 -38.43794 -38.43768 -38.43334
 Alpha  occ. eigenvalues --  -38.43291 -38.42905  -2.19792  -2.19703  -2.19620
 Alpha  occ. eigenvalues --   -2.19597  -2.19191  -2.19186  -2.18909  -1.13469
 Alpha  occ. eigenvalues --   -1.13462  -1.13427  -1.13394  -1.13365  -1.13342
 Alpha  occ. eigenvalues --   -1.13297  -1.13286  -1.13279  -1.13257  -1.13255
 Alpha  occ. eigenvalues --   -1.13224  -1.12877  -1.12863  -1.12850  -1.12829
 Alpha  occ. eigenvalues --   -1.12805  -1.12801  -1.12599  -1.12539  -1.12535
 Alpha  occ. eigenvalues --   -0.18636  -0.12973  -0.12570  -0.10432
 Alpha virt. eigenvalues --   -0.05613  -0.05283  -0.04905  -0.02997  -0.02794
 Alpha virt. eigenvalues --   -0.02312  -0.01484  -0.01335  -0.00545  -0.00431
 Alpha virt. eigenvalues --    0.00014   0.00353   0.00808   0.00845   0.00868

  Beta  occ. eigenvalues --  -38.43966 -38.43842 -38.43789 -38.43762 -38.43331
  Beta  occ. eigenvalues --  -38.43194 -38.42847  -2.19788  -2.19698  -2.19614
  Beta  occ. eigenvalues --   -2.19589  -2.19186  -2.19010  -2.18804  -1.13465
  Beta  occ. eigenvalues --   -1.13440  -1.13427  -1.13389  -1.13344  -1.13337
  Beta  occ. eigenvalues --   -1.13285  -1.13274  -1.13264  -1.13256  -1.13236
  Beta  occ. eigenvalues --   -1.13220  -1.12868  -1.12833  -1.12824  -1.12747
  Beta  occ. eigenvalues --   -1.12681  -1.12674  -1.12521  -1.12465  -1.12456
  Beta  occ. eigenvalues --   -0.17922  -0.12737  -0.12334
  Beta virt. eigenvalues --   -0.06527  -0.05620  -0.05244  -0.04875  -0.02220
  Beta virt. eigenvalues --   -0.02038  -0.01399  -0.01275  -0.01235  -0.00605
  Beta virt. eigenvalues --   -0.00482   0.00158   0.00385   0.00825   0.00871

 Mulliken charges and spin densities:
               1          2
     1  Na   0.174514  -0.078323
     2  Na   0.116944  -0.018173
     3  Na   0.262073  -0.022702
     4  Na   0.209261  -0.090002
     5  Na  -0.397780   0.433408
     6  Na   0.107636  -0.025562
     7  Na  -0.472647   0.801354
 Sum of Mulliken charges =  -0.00000   1.00000

 Dipole moment (field-independent basis, Debye):
    X=             -0.0551    Y=             -0.2366    Z=              0.1107  Tot=              0.2669
 Quadrupole moment (field-independent basis, Debye-Ang):
   XX=            -56.4535   YY=            -59.3966   ZZ=            -76.2587
   XY=             -0.0327   XZ=              0.3028   YZ=              0.2567

 Normal termination of Gaussian 16 at Fri Dec  8 05:11:11 2023.
