 Gaussian 16, Revision B.01,
 Gaussian 16:  ES64L-G16RevB.01 20-Dec-2017

 -------------------------
 #P B3LYP/6-311+g(d) force
 -------------------------

 -----
 DPGEN
 -----
 Symbolic Z-matrix:
 Charge =  0 Multiplicity = 2

                         Standard orientation:
 ---------------------------------------------------------------------
 Center     Atomic      Atomic             Coordinates (Angstroms)
 Number     Number       Type             X           Y           Z
 ---------------------------------------------------------------------
      1         11           0       -2.030597   -1.981487    0.081381
      2         11           0       -0.256081    0.371763   -1.737471
      3         11           0       -0.216889    0.000957    2.154862
      4         11           0        1.438673   -2.493751   -0.154114
      5         11           0        2.769941   -0.009280   -0.302456
      6         11           0        1.104035    2.871261    0.288426
      7         11           0       -2.809081    1.240537   -0.330627
 ---------------------------------------------------------------------

 SCF Done:  E(UB3LYP) =  -1136.13316316     A.U. after   19 cycles

 The electronic state is 2-A.
 Alpha  occ. eigenvalues --  -38.44017 -38.43995 -38.43651 -38.43574 -38.43489
 Alpha  occ. eigenvalues --  -38.43483 -38.43280  -2.19885  -2.19875  -2.19585
 Alpha  occ. eigenvalues --   -2.19467  -2.19454  -2.19311  -2.19184  -1.13626
 Alpha  occ. eigenvalues --   -1.13545  -1.13526  -1.13508  -1.13503  -1.13495
 Alpha  occ. eigenvalues --   -1.13408  -1.13249  -1.13214  -1.13155  -1.13127
 Alpha  occ. eigenvalues --   -1.13118  -1.13101  -1.13083  -1.13070  -1.12976
 Alpha  occ. eigenvalues --   -1.12967  -1.12952  -1.12824  -1.12816  -1.12799
 Alpha  occ. eigenvalues --   -0.18929  -0.13251  -0.12397  -0.11232
 Alpha virt. eigenvalues --   -0.05492  -0.05026  -0.04515  -0.03425  -0.03064
 Alpha virt. eigenvalues --   -0.02912  -0.01313  -0.01084  -0.00168  -0.00041
 Alpha virt. eigenvalues --   -0.00001   0.00368   0.00851   0.00890   0.00943

  Beta  occ. eigenvalues --  -38.44007 -38.43896 -38.43644 -38.43567 -38.43479
  Beta  occ. eigenvalues --  -38.43424 -38.43276  -2.19869  -2.19693  -2.19575
  Beta  occ. eigenvalues --   -2.19446  -2.19349  -2.19305  -2.19181  -1.13602
  Beta  occ. eigenvalues --   -1.13512  -1.13494  -1.13419  -1.13404  -1.13376
  Beta  occ. eigenvalues --   -1.13364  -1.13235  -1.13187  -1.13136  -1.13096
  Beta  occ. eigenvalues --   -1.13076  -1.13052  -1.13015  -1.13005  -1.12963
  Beta  occ. eigenvalues --   -1.12952  -1.12942  -1.12825  -1.12809  -1.12780
  Beta  occ. eigenvalues --   -0.18184  -0.12981  -0.12168
  Beta virt. eigenvalues --   -0.07282  -0.05467  -0.04940  -0.04500  -0.02610
  Beta virt. eigenvalues --   -0.02280  -0.01854  -0.01221  -0.01000  -0.00203
  Beta virt. eigenvalues --   -0.00050   0.00101   0.00398   0.00878   0.00936

 Mulliken charges and spin densities:
               1          2
     1  Na   0.229149   0.051119
     2  Na  -0.248101   0.354959
     3  Na  -0.576087   0.660195
     4  Na  -0.003482  -0.022695
     5  Na   0.185903   0.036303
     6  Na   0.092768  -0.019963
     7  Na   0.319850  -0.059918
 Sum of Mulliken charges =  -0.00000   1.00000

 Dipole moment (field-independent basis, Debye):
    X=             -0.4679    Y=              0.2790    Z=              0.2241  Tot=              0.5890
 Quadrupole moment (field-independent basis, Debye-Ang):
   XX=            -60.6228   YY=            -63.2055   ZZ=            -71.9037
   XY=              0.1289   XZ=             -0.1346   YZ=              0.7754

 Normal termination of Gaussian 16 at Mon Dec  4 00:40:10 2023.
