 Gaussian 16, Revision B.01,
 Gaussian 16:  ES64L-G16RevB.01 20-Dec-2017

 -------------------------
 #P B3LYP/6-311+g(d) force
 -------------------------

 -----
 DPGEN
 -----
 Symbolic Z-matrix:
 Charge =  0 Multiplicity = 2

                         Standard orientation:
 ---------------------------------------------------------------------
 Center     Atomic      Atomic             Coordinates (Angstroms)
 Number     Number       Type             X           Y           Z
 ---------------------------------------------------------------------
      1         11           0       -0.080924    3.189505    0.073867
      2         11           0        0.043494   -0.772744   -1.160956
      3         11           0       -0.221853    0.386286    1.885924
      4         11           0       -3.231026    0.528771   -0.878267
      5         11           0        3.161110   -2.314133    0.033434
      6         11           0       -2.858711   -2.091318    0.432499
      7         11           0        3.187910    1.073632   -0.386501
 ---------------------------------------------------------------------

 SCF Done:  E(UB3LYP) =  -1136.12273024     A.U. after   21 cycles

 The electronic state is 2-A.
 Alpha  occ. eigenvalues --  -38.44840 -38.44616 -38.44368 -38.44167 -38.44078
 Alpha  occ. eigenvalues --  -38.43162 -38.42932  -2.20633  -2.20480  -2.20222
 Alpha  occ. eigenvalues --   -2.20042  -2.19858  -2.19055  -2.18733  -1.14326
 Alpha  occ. eigenvalues --   -1.14294  -1.14245  -1.14219  -1.14146  -1.14088
 Alpha  occ. eigenvalues --   -1.14004  -1.13871  -1.13850  -1.13696  -1.13656
 Alpha  occ. eigenvalues --   -1.13639  -1.13533  -1.13517  -1.13497  -1.12747
 Alpha  occ. eigenvalues --   -1.12688  -1.12654  -1.12405  -1.12389  -1.12379
 Alpha  occ. eigenvalues --   -0.17882  -0.13896  -0.11720  -0.10013
 Alpha virt. eigenvalues --   -0.06460  -0.05946  -0.04613  -0.03376  -0.02511
 Alpha virt. eigenvalues --   -0.02322  -0.02084  -0.01442  -0.01068  -0.00456
 Alpha virt. eigenvalues --   -0.00114   0.00176   0.00554   0.00645   0.00745

  Beta  occ. eigenvalues --  -38.44827 -38.44602 -38.44363 -38.44122 -38.44084
  Beta  occ. eigenvalues --  -38.43071 -38.42930  -2.20608  -2.20459  -2.20216
  Beta  occ. eigenvalues --   -2.19959  -2.19870  -2.18886  -2.18731  -1.14304
  Beta  occ. eigenvalues --   -1.14277  -1.14228  -1.14182  -1.14123  -1.14075
  Beta  occ. eigenvalues --   -1.13988  -1.13869  -1.13820  -1.13633  -1.13602
  Beta  occ. eigenvalues --   -1.13586  -1.13542  -1.13517  -1.13504  -1.12635
  Beta  occ. eigenvalues --   -1.12575  -1.12533  -1.12390  -1.12385  -1.12374
  Beta  occ. eigenvalues --   -0.17236  -0.13626  -0.11602
  Beta virt. eigenvalues --   -0.06404  -0.06183  -0.05753  -0.04499  -0.02815
  Beta virt. eigenvalues --   -0.02357  -0.01871  -0.01466  -0.01128  -0.01010
  Beta virt. eigenvalues --   -0.00311   0.00080   0.00288   0.00660   0.00683

 Mulliken charges and spin densities:
               1          2
     1  Na  -0.189538   0.000344
     2  Na  -0.365524   0.230057
     3  Na  -0.100693   0.457980
     4  Na   0.194273   0.300298
     5  Na   0.202125  -0.080704
     6  Na   0.210631   0.044493
     7  Na   0.048726   0.047534
 Sum of Mulliken charges =  -0.00000   1.00000

 Dipole moment (field-independent basis, Debye):
    X=              0.3468    Y=             -0.5065    Z=              0.2487  Tot=              0.6623
 Quadrupole moment (field-independent basis, Debye-Ang):
   XX=            -56.4539   YY=            -63.2116   ZZ=            -75.5035
   XY=              1.7129   XZ=             -0.6270   YZ=             -2.6501

 Normal termination of Gaussian 16 at Fri Dec  8 07:04:12 2023.
