 Gaussian 16, Revision B.01,
 Gaussian 16:  ES64L-G16RevB.01 20-Dec-2017

 -------------------------
 #P B3LYP/6-311+g(d) force
 -------------------------

 -----
 DPGEN
 -----
 Symbolic Z-matrix:
 Charge =  0 Multiplicity = 2

                         Standard orientation:
 ---------------------------------------------------------------------
 Center     Atomic      Atomic             Coordinates (Angstroms)
 Number     Number       Type             X           Y           Z
 ---------------------------------------------------------------------
      1         11           0        0.064246    0.171227   -1.343293
      2         11           0        1.030988   -1.984859    0.842133
      3         11           0        3.835111    0.042167   -0.801750
      4         11           0        1.605350    1.364557    1.145899
      5         11           0       -1.825468   -0.056180    1.440654
      6         11           0       -2.191186    2.278576   -0.458668
      7         11           0       -2.519041   -1.815488   -0.824975
 ---------------------------------------------------------------------

 SCF Done:  E(UB3LYP) =  -1136.12324256     A.U. after   24 cycles

 The electronic state is 2-A.
 Alpha  occ. eigenvalues --  -38.44908 -38.43716 -38.43687 -38.43629 -38.43554
 Alpha  occ. eigenvalues --  -38.43272 -38.42998  -2.20722  -2.19659  -2.19607
 Alpha  occ. eigenvalues --   -2.19602  -2.19573  -2.19160  -2.18875  -1.14395
 Alpha  occ. eigenvalues --   -1.14374  -1.14344  -1.13456  -1.13438  -1.13348
 Alpha  occ. eigenvalues --   -1.13310  -1.13279  -1.13259  -1.13234  -1.13228
 Alpha  occ. eigenvalues --   -1.13211  -1.13200  -1.13184  -1.13124  -1.12873
 Alpha  occ. eigenvalues --   -1.12828  -1.12740  -1.12556  -1.12542  -1.12483
 Alpha  occ. eigenvalues --   -0.19081  -0.14108  -0.11313  -0.10855
 Alpha virt. eigenvalues --   -0.06570  -0.05057  -0.04293  -0.03124  -0.02427
 Alpha virt. eigenvalues --   -0.02314  -0.02027  -0.01004  -0.00737   0.00087
 Alpha virt. eigenvalues --    0.00185   0.00242   0.00507   0.00703   0.00759

  Beta  occ. eigenvalues --  -38.44884 -38.43696 -38.43655 -38.43589 -38.43517
  Beta  occ. eigenvalues --  -38.43246 -38.42994  -2.20678  -2.19590  -2.19568
  Beta  occ. eigenvalues --   -2.19549  -2.19510  -2.19116  -2.18871  -1.14364
  Beta  occ. eigenvalues --   -1.14339  -1.14316  -1.13417  -1.13386  -1.13304
  Beta  occ. eigenvalues --   -1.13265  -1.13233  -1.13198  -1.13187  -1.13180
  Beta  occ. eigenvalues --   -1.13168  -1.13157  -1.13145  -1.13081  -1.12846
  Beta  occ. eigenvalues --   -1.12763  -1.12717  -1.12551  -1.12534  -1.12470
  Beta  occ. eigenvalues --   -0.18325  -0.13847  -0.11133
  Beta virt. eigenvalues --   -0.06975  -0.06342  -0.04976  -0.03788  -0.02946
  Beta virt. eigenvalues --   -0.02204  -0.01754  -0.01245  -0.00911  -0.00368
  Beta virt. eigenvalues --    0.00140   0.00234   0.00296   0.00636   0.00761

 Mulliken charges and spin densities:
               1          2
     1  Na  -0.627764   0.352427
     2  Na  -0.156811   0.093619
     3  Na   0.451040   0.106238
     4  Na  -0.050359   0.153799
     5  Na   0.345983   0.193946
     6  Na  -0.018821   0.029828
     7  Na   0.056732   0.070143
 Sum of Mulliken charges =  -0.00000   1.00000

 Dipole moment (field-independent basis, Debye):
    X=              0.9798    Y=             -0.2033    Z=             -0.0180  Tot=              1.0008
 Quadrupole moment (field-independent basis, Debye-Ang):
   XX=            -49.2985   YY=            -72.4635   ZZ=            -69.8058
   XY=             -0.0250   XZ=             -0.7326   YZ=              0.7921

 Normal termination of Gaussian 16 at Tue Dec  5 12:20:00 2023.
