 Gaussian 16, Revision B.01,
 Gaussian 16:  ES64L-G16RevB.01 20-Dec-2017

 -------------------------
 #P B3LYP/6-311+g(d) force
 -------------------------

 -----
 DPGEN
 -----
 Symbolic Z-matrix:
 Charge =  0 Multiplicity = 2

                         Standard orientation:
 ---------------------------------------------------------------------
 Center     Atomic      Atomic             Coordinates (Angstroms)
 Number     Number       Type             X           Y           Z
 ---------------------------------------------------------------------
      1         11           0       -0.586113   -0.952606   -1.404246
      2         11           0        2.392635   -1.568256   -1.082284
      3         11           0       -0.374019   -0.200046    1.603223
      4         11           0        0.549032    2.191854   -0.060618
      5         11           0       -2.756879   -1.928468    0.821339
      6         11           0       -2.570728    1.964557   -0.718890
      7         11           0        3.346072    0.492966    0.841477
 ---------------------------------------------------------------------

 SCF Done:  E(UB3LYP) =  -1136.12094190     A.U. after   21 cycles

 The electronic state is 2-A.
 Alpha  occ. eigenvalues --  -38.44568 -38.44026 -38.43994 -38.43992 -38.43737
 Alpha  occ. eigenvalues --  -38.43388 -38.42844  -2.20436  -2.19994  -2.19893
 Alpha  occ. eigenvalues --   -2.19864  -2.19609  -2.19384  -2.18778  -1.14157
 Alpha  occ. eigenvalues --   -1.14085  -1.14065  -1.13730  -1.13683  -1.13610
 Alpha  occ. eigenvalues --   -1.13597  -1.13534  -1.13520  -1.13518  -1.13509
 Alpha  occ. eigenvalues --   -1.13495  -1.13270  -1.13259  -1.13232  -1.13084
 Alpha  occ. eigenvalues --   -1.13009  -1.12980  -1.12503  -1.12434  -1.12385
 Alpha  occ. eigenvalues --   -0.18945  -0.13968  -0.11942  -0.11111
 Alpha virt. eigenvalues --   -0.06431  -0.05125  -0.04252  -0.03395  -0.02719
 Alpha virt. eigenvalues --   -0.02207  -0.02180  -0.01258  -0.00483   0.00168
 Alpha virt. eigenvalues --    0.00195   0.00238   0.00544   0.00700   0.00803

  Beta  occ. eigenvalues --  -38.44554 -38.44007 -38.43956 -38.43937 -38.43715
  Beta  occ. eigenvalues --  -38.43336 -38.42837  -2.20412  -2.19891  -2.19831
  Beta  occ. eigenvalues --   -2.19828  -2.19570  -2.19291  -2.18771  -1.14141
  Beta  occ. eigenvalues --   -1.14070  -1.14038  -1.13656  -1.13603  -1.13548
  Beta  occ. eigenvalues --   -1.13532  -1.13504  -1.13495  -1.13477  -1.13473
  Beta  occ. eigenvalues --   -1.13463  -1.13237  -1.13222  -1.13207  -1.13026
  Beta  occ. eigenvalues --   -1.12927  -1.12911  -1.12500  -1.12415  -1.12365
  Beta  occ. eigenvalues --   -0.18297  -0.13718  -0.11559
  Beta virt. eigenvalues --   -0.07326  -0.06286  -0.04942  -0.03754  -0.03122
  Beta virt. eigenvalues --   -0.02265  -0.01904  -0.01411  -0.01096  -0.00176
  Beta virt. eigenvalues --    0.00159   0.00227   0.00306   0.00691   0.00814

 Mulliken charges and spin densities:
               1          2
     1  Na   0.519517   0.482041
     2  Na  -0.821344   0.011390
     3  Na  -0.498387   0.402976
     4  Na  -0.405075   0.026965
     5  Na   0.173204   0.000079
     6  Na  -0.168691  -0.040045
     7  Na   1.200777   0.116593
 Sum of Mulliken charges =  -0.00000   1.00000

 Dipole moment (field-independent basis, Debye):
    X=             -0.1127    Y=              0.0965    Z=              0.1420  Tot=              0.2053
 Quadrupole moment (field-independent basis, Debye-Ang):
   XX=            -49.3020   YY=            -72.7936   ZZ=            -71.7372
   XY=              0.0440   XZ=              2.2350   YZ=             -0.1924

 Normal termination of Gaussian 16 at Wed Nov 29 04:10:16 2023.
