 Gaussian 16, Revision B.01,
 Gaussian 16:  ES64L-G16RevB.01 20-Dec-2017

 -------------------------
 #P B3LYP/6-311+g(d) force
 -------------------------

 -----
 DPGEN
 -----
 Symbolic Z-matrix:
 Charge =  0 Multiplicity = 2

                         Standard orientation:
 ---------------------------------------------------------------------
 Center     Atomic      Atomic             Coordinates (Angstroms)
 Number     Number       Type             X           Y           Z
 ---------------------------------------------------------------------
      1         11           0        1.539589   -2.550568   -0.311033
      2         11           0       -2.470069   -1.935364   -0.382982
      3         11           0       -2.898567    1.429012    0.055836
      4         11           0       -0.294157   -0.827420    1.881626
      5         11           0        0.445829    0.304698   -1.625075
      6         11           0        0.414310    3.079032    0.095677
      7         11           0        3.263065    0.500610    0.285950
 ---------------------------------------------------------------------

 SCF Done:  E(UB3LYP) =  -1136.13501375     A.U. after   19 cycles

 The electronic state is 2-A.
 Alpha  occ. eigenvalues --  -38.44549 -38.44184 -38.43980 -38.43677 -38.43546
 Alpha  occ. eigenvalues --  -38.43326 -38.43070  -2.20351  -2.19981  -2.19807
 Alpha  occ. eigenvalues --   -2.19532  -2.19355  -2.19214  -2.19011  -1.14027
 Alpha  occ. eigenvalues --   -1.14009  -1.13989  -1.13659  -1.13646  -1.13625
 Alpha  occ. eigenvalues --   -1.13485  -1.13466  -1.13442  -1.13224  -1.13208
 Alpha  occ. eigenvalues --   -1.13155  -1.13056  -1.13017  -1.12982  -1.12884
 Alpha  occ. eigenvalues --   -1.12848  -1.12830  -1.12694  -1.12647  -1.12632
 Alpha  occ. eigenvalues --   -0.18231  -0.13130  -0.12423  -0.10170
 Alpha virt. eigenvalues --   -0.05987  -0.05537  -0.04800  -0.03190  -0.02804
 Alpha virt. eigenvalues --   -0.02106  -0.01724  -0.01237  -0.00680  -0.00652
 Alpha virt. eigenvalues --    0.00003   0.00352   0.00749   0.00804   0.00821

  Beta  occ. eigenvalues --  -38.44545 -38.44183 -38.43974 -38.43666 -38.43544
  Beta  occ. eigenvalues --  -38.43250 -38.43007  -2.20344  -2.19981  -2.19798
  Beta  occ. eigenvalues --   -2.19516  -2.19353  -2.19074  -2.18897  -1.14013
  Beta  occ. eigenvalues --   -1.13996  -1.13988  -1.13651  -1.13640  -1.13627
  Beta  occ. eigenvalues --   -1.13473  -1.13447  -1.13434  -1.13216  -1.13163
  Beta  occ. eigenvalues --   -1.13147  -1.13049  -1.13005  -1.12984  -1.12790
  Beta  occ. eigenvalues --   -1.12749  -1.12729  -1.12615  -1.12560  -1.12551
  Beta  occ. eigenvalues --   -0.17542  -0.12935  -0.12216
  Beta virt. eigenvalues --   -0.06363  -0.05923  -0.05533  -0.04685  -0.02455
  Beta virt. eigenvalues --   -0.02105  -0.01627  -0.01168  -0.01135  -0.00720
  Beta virt. eigenvalues --   -0.00673   0.00169   0.00394   0.00802   0.00824

 Mulliken charges and spin densities:
               1          2
     1  Na   0.274933  -0.030246
     2  Na   0.181284  -0.027749
     3  Na  -0.054722  -0.073590
     4  Na  -0.356349   0.690683
     5  Na   0.025130   0.548548
     6  Na  -0.078662  -0.083558
     7  Na   0.008386  -0.024088
 Sum of Mulliken charges =  -0.00000   1.00000

 Dipole moment (field-independent basis, Debye):
    X=              0.1370    Y=             -0.0140    Z=              0.0778  Tot=              0.1582
 Quadrupole moment (field-independent basis, Debye-Ang):
   XX=            -53.7602   YY=            -61.9615   ZZ=            -76.7210
   XY=              0.0627   XZ=              1.6646   YZ=              2.5513

 Normal termination of Gaussian 16 at Thu Dec  7 13:32:52 2023.
