 Gaussian 16, Revision B.01,
 Gaussian 16:  ES64L-G16RevB.01 20-Dec-2017

 -------------------------
 #P B3LYP/6-311+g(d) force
 -------------------------

 -----
 DPGEN
 -----
 Symbolic Z-matrix:
 Charge =  0 Multiplicity = 2

                         Standard orientation:
 ---------------------------------------------------------------------
 Center     Atomic      Atomic             Coordinates (Angstroms)
 Number     Number       Type             X           Y           Z
 ---------------------------------------------------------------------
      1         11           0       -1.077909    1.700300    0.486529
      2         11           0        0.948034    0.082653    1.632929
      3         11           0        2.225470   -1.301413   -0.534571
      4         11           0       -0.211261   -0.138677   -1.482271
      5         11           0       -2.771005   -0.339844   -0.339671
      6         11           0       -0.610319   -1.748287    0.684929
      7         11           0        1.496990    1.745268   -0.447871
 ---------------------------------------------------------------------

 SCF Done:  E(UB3LYP) =  -1136.05794910     A.U. after   20 cycles

 The electronic state is 2-A.
 Alpha  occ. eigenvalues --  -38.44693 -38.44528 -38.44260 -38.43757 -38.43733
 Alpha  occ. eigenvalues --  -38.43717 -38.43470  -2.21025  -2.20698  -2.20603
 Alpha  occ. eigenvalues --   -2.19998  -2.19913  -2.19819  -2.19707  -1.14950
 Alpha  occ. eigenvalues --   -1.14825  -1.14702  -1.14646  -1.14476  -1.14426
 Alpha  occ. eigenvalues --   -1.14293  -1.14286  -1.14135  -1.13740  -1.13602
 Alpha  occ. eigenvalues --   -1.13592  -1.13546  -1.13532  -1.13488  -1.13467
 Alpha  occ. eigenvalues --   -1.13446  -1.13357  -1.13339  -1.13303  -1.13173
 Alpha  occ. eigenvalues --   -0.21990  -0.14267  -0.12679  -0.12438
 Alpha virt. eigenvalues --   -0.05465  -0.04189  -0.03836  -0.03766  -0.03029
 Alpha virt. eigenvalues --   -0.02745  -0.01223  -0.00427  -0.00140   0.00307
 Alpha virt. eigenvalues --    0.00816   0.00878   0.01058   0.01142   0.01233

  Beta  occ. eigenvalues --  -38.44606 -38.44520 -38.44178 -38.43726 -38.43715
  Beta  occ. eigenvalues --  -38.43698 -38.43447  -2.20869  -2.20611  -2.20536
  Beta  occ. eigenvalues --   -2.19949  -2.19884  -2.19790  -2.19673  -1.14848
  Beta  occ. eigenvalues --   -1.14726  -1.14639  -1.14527  -1.14388  -1.14353
  Beta  occ. eigenvalues --   -1.14262  -1.14254  -1.14073  -1.13716  -1.13566
  Beta  occ. eigenvalues --   -1.13532  -1.13511  -1.13499  -1.13429  -1.13409
  Beta  occ. eigenvalues --   -1.13407  -1.13335  -1.13318  -1.13223  -1.13150
  Beta  occ. eigenvalues --   -0.21170  -0.13948  -0.12359
  Beta virt. eigenvalues --   -0.08068  -0.05429  -0.04182  -0.03695  -0.02960
  Beta virt. eigenvalues --   -0.02157  -0.01617  -0.01133  -0.00405   0.00041
  Beta virt. eigenvalues --    0.00339   0.00836   0.00888   0.01071   0.01160

 Mulliken charges and spin densities:
               1          2
     1  Na   0.065342   0.184577
     2  Na  -0.512968   0.287464
     3  Na  -0.069895  -0.056888
     4  Na  -0.900327   0.326135
     5  Na   0.696426  -0.023979
     6  Na   0.260104   0.218303
     7  Na   0.461317   0.064388
 Sum of Mulliken charges =  -0.00000   1.00000

 Dipole moment (field-independent basis, Debye):
    X=              0.0179    Y=             -0.1501    Z=             -0.0602  Tot=              0.1628
 Quadrupole moment (field-independent basis, Debye-Ang):
   XX=            -57.2066   YY=            -71.6281   ZZ=            -68.4039
   XY=             -0.4470   XZ=             -1.0495   YZ=              0.1865

 Normal termination of Gaussian 16 at Fri Dec  8 20:04:17 2023.
