 Gaussian 16, Revision B.01,
 Gaussian 16:  ES64L-G16RevB.01 20-Dec-2017

 -------------------------
 #P B3LYP/6-311+g(d) force
 -------------------------

 -----
 DPGEN
 -----
 Symbolic Z-matrix:
 Charge =  0 Multiplicity = 2

                         Standard orientation:
 ---------------------------------------------------------------------
 Center     Atomic      Atomic             Coordinates (Angstroms)
 Number     Number       Type             X           Y           Z
 ---------------------------------------------------------------------
      1         11           0        2.334958   -1.949871   -0.196774
      2         11           0       -3.081588    0.059328    0.199676
      3         11           0        0.565377   -0.459268    2.037516
      4         11           0       -1.160037   -2.608548   -0.175238
      5         11           0       -0.579956    2.891771    0.600175
      6         11           0        2.464181    1.585727   -0.422639
      7         11           0       -0.542936    0.480860   -2.042716
 ---------------------------------------------------------------------

 SCF Done:  E(UB3LYP) =  -1136.13944578     A.U. after   18 cycles

 The electronic state is 2-A.
 Alpha  occ. eigenvalues --  -38.43830 -38.43829 -38.43721 -38.43639 -38.43612
 Alpha  occ. eigenvalues --  -38.43535 -38.43464  -2.19713  -2.19702  -2.19553
 Alpha  occ. eigenvalues --   -2.19475  -2.19434  -2.19381  -2.19318  -1.13393
 Alpha  occ. eigenvalues --   -1.13375  -1.13356  -1.13349  -1.13339  -1.13332
 Alpha  occ. eigenvalues --   -1.13226  -1.13215  -1.13197  -1.13151  -1.13148
 Alpha  occ. eigenvalues --   -1.13124  -1.13101  -1.13086  -1.13062  -1.13052
 Alpha  occ. eigenvalues --   -1.13042  -1.13017  -1.12992  -1.12985  -1.12937
 Alpha  occ. eigenvalues --   -0.18350  -0.12762  -0.12565  -0.11048
 Alpha virt. eigenvalues --   -0.05273  -0.05123  -0.04892  -0.03435  -0.03289
 Alpha virt. eigenvalues --   -0.02787  -0.01165  -0.01033  -0.00313  -0.00256
 Alpha virt. eigenvalues --   -0.00082   0.00412   0.00809   0.00866   0.00902

  Beta  occ. eigenvalues --  -38.43757 -38.43756 -38.43719 -38.43630 -38.43599
  Beta  occ. eigenvalues --  -38.43532 -38.43459  -2.19579  -2.19569  -2.19551
  Beta  occ. eigenvalues --   -2.19461  -2.19411  -2.19378  -2.19312  -1.13308
  Beta  occ. eigenvalues --   -1.13293  -1.13263  -1.13260  -1.13245  -1.13240
  Beta  occ. eigenvalues --   -1.13221  -1.13192  -1.13186  -1.13140  -1.13125
  Beta  occ. eigenvalues --   -1.13108  -1.13076  -1.13062  -1.13050  -1.13043
  Beta  occ. eigenvalues --   -1.13030  -1.13010  -1.12984  -1.12965  -1.12934
  Beta  occ. eigenvalues --   -0.17607  -0.12564  -0.12365
  Beta virt. eigenvalues --   -0.07196  -0.05234  -0.05125  -0.04634  -0.02741
  Beta virt. eigenvalues --   -0.02529  -0.01806  -0.01081  -0.00953  -0.00332
  Beta virt. eigenvalues --   -0.00280   0.00075   0.00439   0.00894   0.00903

 Mulliken charges and spin densities:
               1          2
     1  Na   0.244232  -0.028586
     2  Na   0.164130  -0.036841
     3  Na  -0.403569   0.593540
     4  Na   0.132341  -0.082289
     5  Na   0.058973   0.021320
     6  Na   0.150579  -0.007829
     7  Na  -0.346685   0.540685
 Sum of Mulliken charges =  -0.00000   1.00000

 Dipole moment (field-independent basis, Debye):
    X=             -0.0369    Y=              0.0537    Z=             -0.0044  Tot=              0.0653
 Quadrupole moment (field-independent basis, Debye-Ang):
   XX=            -61.1996   YY=            -63.6075   ZZ=            -70.8385
   XY=             -0.5391   XZ=             -2.2315   YZ=              1.7912

 Normal termination of Gaussian 16 at Wed Dec  6 01:07:19 2023.
