 Gaussian 16, Revision B.01,
 Gaussian 16:  ES64L-G16RevB.01 20-Dec-2017

 -------------------------
 #P B3LYP/6-311+g(d) force
 -------------------------

 -----
 DPGEN
 -----
 Symbolic Z-matrix:
 Charge =  0 Multiplicity = 2

                         Standard orientation:
 ---------------------------------------------------------------------
 Center     Atomic      Atomic             Coordinates (Angstroms)
 Number     Number       Type             X           Y           Z
 ---------------------------------------------------------------------
      1         11           0       -3.988057   -1.775711    0.500068
      2         11           0       -0.709331   -3.119385   -0.572411
      3         11           0        2.095160    2.246925   -0.473444
      4         11           0        4.472399   -0.611488    1.163172
      5         11           0        2.132991   -1.960681   -0.696176
      6         11           0       -0.460075    3.701271   -0.278252
      7         11           0       -3.543087    1.519068    0.357044
 ---------------------------------------------------------------------

 SCF Done:  E(UB3LYP) =  -1136.11228197     A.U. after   19 cycles

 The electronic state is 2-A.
 Alpha  occ. eigenvalues --  -38.45071 -38.44905 -38.44521 -38.44452 -38.44122
 Alpha  occ. eigenvalues --  -38.44077 -38.43643  -2.20840  -2.20715  -2.20300
 Alpha  occ. eigenvalues --   -2.20267  -2.19969  -2.19907  -2.19475  -1.14515
 Alpha  occ. eigenvalues --   -1.14502  -1.14467  -1.14417  -1.14385  -1.14349
 Alpha  occ. eigenvalues --   -1.13971  -1.13961  -1.13944  -1.13927  -1.13908
 Alpha  occ. eigenvalues --   -1.13884  -1.13730  -1.13641  -1.13615  -1.13548
 Alpha  occ. eigenvalues --   -1.13533  -1.13491  -1.13165  -1.13116  -1.13100
 Alpha  occ. eigenvalues --   -0.15997  -0.13972  -0.13463  -0.11108
 Alpha virt. eigenvalues --   -0.07063  -0.05346  -0.03917  -0.03617  -0.03230
 Alpha virt. eigenvalues --   -0.02352  -0.02063  -0.01877  -0.01319  -0.01166
 Alpha virt. eigenvalues --   -0.00219  -0.00089   0.00080   0.00602   0.00645

  Beta  occ. eigenvalues --  -38.45037 -38.44885 -38.44514 -38.44371 -38.44101
  Beta  occ. eigenvalues --  -38.44010 -38.43625  -2.20779  -2.20682  -2.20291
  Beta  occ. eigenvalues --   -2.20116  -2.19941  -2.19786  -2.19445  -1.14474
  Beta  occ. eigenvalues --   -1.14463  -1.14415  -1.14384  -1.14365  -1.14316
  Beta  occ. eigenvalues --   -1.13967  -1.13955  -1.13920  -1.13828  -1.13804
  Beta  occ. eigenvalues --   -1.13783  -1.13663  -1.13625  -1.13584  -1.13468
  Beta  occ. eigenvalues --   -1.13454  -1.13405  -1.13134  -1.13097  -1.13081
  Beta  occ. eigenvalues --   -0.15431  -0.13277  -0.12795
  Beta virt. eigenvalues --   -0.07807  -0.07133  -0.04894  -0.03707  -0.03301
  Beta virt. eigenvalues --   -0.02773  -0.02077  -0.01887  -0.01686  -0.01190
  Beta virt. eigenvalues --   -0.00782   0.00033   0.00177   0.00295   0.00593

 Mulliken charges and spin densities:
               1          2
     1  Na   0.237649   0.008518
     2  Na  -0.277819   0.276953
     3  Na  -0.293071   0.146361
     4  Na   0.758878   0.390481
     5  Na  -0.206298  -0.079026
     6  Na   0.235970   0.046430
     7  Na  -0.455309   0.210283
 Sum of Mulliken charges =  -0.00000   1.00000

 Dipole moment (field-independent basis, Debye):
    X=             -0.1103    Y=              0.0753    Z=              0.4161  Tot=              0.4370
 Quadrupole moment (field-independent basis, Debye-Ang):
   XX=            -60.2595   YY=            -66.8234   ZZ=            -71.6152
   XY=              1.2292   XZ=              0.8895   YZ=             -0.5935

 Normal termination of Gaussian 16 at Sun Dec  3 15:22:37 2023.
