 Gaussian 16, Revision B.01,
 Gaussian 16:  ES64L-G16RevB.01 20-Dec-2017

 -------------------------
 #P B3LYP/6-311+g(d) force
 -------------------------

 -----
 DPGEN
 -----
 Symbolic Z-matrix:
 Charge =  0 Multiplicity = 2

                         Standard orientation:
 ---------------------------------------------------------------------
 Center     Atomic      Atomic             Coordinates (Angstroms)
 Number     Number       Type             X           Y           Z
 ---------------------------------------------------------------------
      1         11           0        0.167425   -0.139055    1.834860
      2         11           0        1.757089    0.427756   -1.482714
      3         11           0        1.439730    3.213980    0.381367
      4         11           0       -3.856709   -0.690625    0.536578
      5         11           0       -0.736093   -1.657101   -1.402513
      6         11           0        2.897124   -2.445639    0.658606
      7         11           0       -1.668565    1.290684   -0.526185
 ---------------------------------------------------------------------

 SCF Done:  E(UB3LYP) =  -1136.12929931     A.U. after   20 cycles

 The electronic state is 2-A.
 Alpha  occ. eigenvalues --  -38.44450 -38.44339 -38.43874 -38.43825 -38.43460
 Alpha  occ. eigenvalues --  -38.43440 -38.43168  -2.20260  -2.20194  -2.19766
 Alpha  occ. eigenvalues --   -2.19591  -2.19391  -2.19366  -2.18974  -1.13952
 Alpha  occ. eigenvalues --   -1.13910  -1.13901  -1.13891  -1.13817  -1.13808
 Alpha  occ. eigenvalues --   -1.13506  -1.13414  -1.13357  -1.13266  -1.13255
 Alpha  occ. eigenvalues --   -1.13213  -1.13108  -1.13079  -1.13065  -1.13023
 Alpha  occ. eigenvalues --   -1.12974  -1.12957  -1.12649  -1.12635  -1.12604
 Alpha  occ. eigenvalues --   -0.18351  -0.13112  -0.11813  -0.11025
 Alpha virt. eigenvalues --   -0.06288  -0.04953  -0.04477  -0.03222  -0.02726
 Alpha virt. eigenvalues --   -0.02605  -0.01960  -0.01419  -0.00687  -0.00098
 Alpha virt. eigenvalues --    0.00191   0.00282   0.00551   0.00694   0.00755

  Beta  occ. eigenvalues --  -38.44446 -38.44272 -38.43819 -38.43812 -38.43425
  Beta  occ. eigenvalues --  -38.43418 -38.43169  -2.20253  -2.20071  -2.19669
  Beta  occ. eigenvalues --   -2.19567  -2.19368  -2.19293  -2.18976  -1.13949
  Beta  occ. eigenvalues --   -1.13896  -1.13888  -1.13816  -1.13729  -1.13716
  Beta  occ. eigenvalues --   -1.13435  -1.13325  -1.13297  -1.13251  -1.13228
  Beta  occ. eigenvalues --   -1.13201  -1.13095  -1.13020  -1.13007  -1.12962
  Beta  occ. eigenvalues --   -1.12954  -1.12917  -1.12650  -1.12628  -1.12606
  Beta  occ. eigenvalues --   -0.17565  -0.12948  -0.11617
  Beta virt. eigenvalues --   -0.07112  -0.06083  -0.04856  -0.04254  -0.02750
  Beta virt. eigenvalues --   -0.02227  -0.01868  -0.01675  -0.01300  -0.00316
  Beta virt. eigenvalues --   -0.00115   0.00207   0.00377   0.00673   0.00758

 Mulliken charges and spin densities:
               1          2
     1  Na  -0.350740   0.746306
     2  Na   0.408335   0.317416
     3  Na   0.092828  -0.180426
     4  Na   0.411796  -0.041289
     5  Na  -0.191762   0.062069
     6  Na  -0.260998  -0.131883
     7  Na  -0.109459   0.227807
 Sum of Mulliken charges =  -0.00000   1.00000

 Dipole moment (field-independent basis, Debye):
    X=             -0.5804    Y=             -0.3673    Z=              0.2624  Tot=              0.7352
 Quadrupole moment (field-independent basis, Debye-Ang):
   XX=            -54.7256   YY=            -66.3701   ZZ=            -71.1367
   XY=              2.3059   XZ=             -1.5034   YZ=              0.0581

 Normal termination of Gaussian 16 at Thu Dec  7 22:31:43 2023.
