 Gaussian 16, Revision B.01,
 Gaussian 16:  ES64L-G16RevB.01 20-Dec-2017

 -------------------------
 #P B3LYP/6-311+g(d) force
 -------------------------

 -----
 DPGEN
 -----
 Symbolic Z-matrix:
 Charge =  0 Multiplicity = 2

                         Standard orientation:
 ---------------------------------------------------------------------
 Center     Atomic      Atomic             Coordinates (Angstroms)
 Number     Number       Type             X           Y           Z
 ---------------------------------------------------------------------
      1         11           0        2.259388   -1.591332   -1.030499
      2         11           0        0.087907    1.986158   -0.919847
      3         11           0        1.107158   -0.237927    1.460554
      4         11           0        3.964835    0.944328    0.236734
      5         11           0       -3.642353    0.921305   -0.776542
      6         11           0       -2.249705   -0.286514    1.941273
      7         11           0       -1.527231   -1.736018   -0.911673
 ---------------------------------------------------------------------

 SCF Done:  E(UB3LYP) =  -1136.11400087     A.U. after   32 cycles

 The electronic state is 2-A.
 Alpha  occ. eigenvalues --  -38.45217 -38.44848 -38.44397 -38.44310 -38.43815
 Alpha  occ. eigenvalues --  -38.43620 -38.43273  -2.21029  -2.20612  -2.20227
 Alpha  occ. eigenvalues --   -2.20204  -2.19699  -2.19590  -2.19141  -1.14714
 Alpha  occ. eigenvalues --   -1.14697  -1.14654  -1.14328  -1.14301  -1.14195
 Alpha  occ. eigenvalues --   -1.13937  -1.13897  -1.13872  -1.13854  -1.13843
 Alpha  occ. eigenvalues --   -1.13798  -1.13458  -1.13361  -1.13302  -1.13293
 Alpha  occ. eigenvalues --   -1.13208  -1.13174  -1.12828  -1.12814  -1.12754
 Alpha  occ. eigenvalues --   -0.18440  -0.14738  -0.11086  -0.10628
 Alpha virt. eigenvalues --   -0.07572  -0.05333  -0.04913  -0.03190  -0.02997
 Alpha virt. eigenvalues --   -0.02245  -0.02102  -0.01395  -0.01113  -0.00238
 Alpha virt. eigenvalues --   -0.00001   0.00238   0.00255   0.00564   0.00668

  Beta  occ. eigenvalues --  -38.45222 -38.44833 -38.44385 -38.44247 -38.43787
  Beta  occ. eigenvalues --  -38.43572 -38.43249  -2.21040  -2.20585  -2.20206
  Beta  occ. eigenvalues --   -2.20090  -2.19646  -2.19506  -2.19099  -1.14714
  Beta  occ. eigenvalues --   -1.14705  -1.14661  -1.14311  -1.14268  -1.14176
  Beta  occ. eigenvalues --   -1.13910  -1.13872  -1.13840  -1.13787  -1.13765
  Beta  occ. eigenvalues --   -1.13728  -1.13416  -1.13319  -1.13267  -1.13240
  Beta  occ. eigenvalues --   -1.13133  -1.13115  -1.12799  -1.12774  -1.12721
  Beta  occ. eigenvalues --   -0.17812  -0.14573  -0.10384
  Beta virt. eigenvalues --   -0.07447  -0.07181  -0.05129  -0.04377  -0.03000
  Beta virt. eigenvalues --   -0.02792  -0.01739  -0.01353  -0.01306  -0.00593
  Beta virt. eigenvalues --   -0.00166   0.00027   0.00270   0.00390   0.00600

 Mulliken charges and spin densities:
               1          2
     1  Na   0.024982   0.141465
     2  Na  -0.558912   0.082082
     3  Na  -1.031352   0.225468
     4  Na   1.403011   0.028180
     5  Na   0.654047   0.006174
     6  Na   0.085314   0.126420
     7  Na  -0.577090   0.390210
 Sum of Mulliken charges =  -0.00000   1.00000

 Dipole moment (field-independent basis, Debye):
    X=              0.6072    Y=              0.1362    Z=             -0.0060  Tot=              0.6223
 Quadrupole moment (field-independent basis, Debye-Ang):
   XX=            -43.8945   YY=            -80.2525   ZZ=            -70.4947
   XY=              1.3192   XZ=             -1.2649   YZ=              1.1899

 Normal termination of Gaussian 16 at Tue Dec  5 15:59:05 2023.
