 Gaussian 16, Revision B.01,
 Gaussian 16:  ES64L-G16RevB.01 20-Dec-2017

 -------------------------
 #P B3LYP/6-311+g(d) force
 -------------------------

 -----
 DPGEN
 -----
 Symbolic Z-matrix:
 Charge =  0 Multiplicity = 2

                         Standard orientation:
 ---------------------------------------------------------------------
 Center     Atomic      Atomic             Coordinates (Angstroms)
 Number     Number       Type             X           Y           Z
 ---------------------------------------------------------------------
      1         11           0        0.871205   -2.676555    1.553504
      2         11           0       -3.112365    1.989795    0.805940
      3         11           0        0.104084    3.751442   -0.353124
      4         11           0       -4.155851   -1.028770   -0.168600
      5         11           0        3.207121    1.906110   -0.337529
      6         11           0        3.854975   -1.143193    0.090748
      7         11           0       -0.769169   -2.798828   -1.590940
 ---------------------------------------------------------------------

 SCF Done:  E(UB3LYP) =  -1136.10567598     A.U. after   24 cycles

 The electronic state is 2-A.
 Alpha  occ. eigenvalues --  -38.45521 -38.45240 -38.44605 -38.44318 -38.44280
 Alpha  occ. eigenvalues --  -38.43943 -38.43478  -2.21267  -2.20992  -2.20366
 Alpha  occ. eigenvalues --   -2.20103  -2.20073  -2.19772  -2.19264  -1.14944
 Alpha  occ. eigenvalues --   -1.14924  -1.14908  -1.14658  -1.14635  -1.14619
 Alpha  occ. eigenvalues --   -1.14050  -1.14039  -1.14008  -1.13773  -1.13766
 Alpha  occ. eigenvalues --   -1.13750  -1.13747  -1.13730  -1.13725  -1.13425
 Alpha  occ. eigenvalues --   -1.13419  -1.13388  -1.12920  -1.12907  -1.12890
 Alpha  occ. eigenvalues --   -0.15571  -0.13659  -0.13063  -0.10412
 Alpha virt. eigenvalues --   -0.07524  -0.05579  -0.04144  -0.03431  -0.03215
 Alpha virt. eigenvalues --   -0.02490  -0.02304  -0.01505  -0.01358  -0.01078
 Alpha virt. eigenvalues --   -0.00542   0.00025   0.00107   0.00248   0.00560

  Beta  occ. eigenvalues --  -38.45521 -38.45203 -38.44593 -38.44272 -38.44272
  Beta  occ. eigenvalues --  -38.43890 -38.43410  -2.21269  -2.20924  -2.20351
  Beta  occ. eigenvalues --   -2.20066  -2.20020  -2.19674  -2.19136  -1.14948
  Beta  occ. eigenvalues --   -1.14928  -1.14896  -1.14612  -1.14592  -1.14570
  Beta  occ. eigenvalues --   -1.14045  -1.14032  -1.13961  -1.13759  -1.13750
  Beta  occ. eigenvalues --   -1.13711  -1.13693  -1.13685  -1.13661  -1.13360
  Beta  occ. eigenvalues --   -1.13354  -1.13317  -1.12832  -1.12822  -1.12805
  Beta  occ. eigenvalues --   -0.15127  -0.12866  -0.12338
  Beta virt. eigenvalues --   -0.07642  -0.07318  -0.05310  -0.03728  -0.03237
  Beta virt. eigenvalues --   -0.02842  -0.02142  -0.02090  -0.01270  -0.01212
  Beta virt. eigenvalues --   -0.00916  -0.00174   0.00078   0.00182   0.00389

 Mulliken charges and spin densities:
               1          2
     1  Na  -0.014974   0.001622
     2  Na  -0.113747   0.045465
     3  Na  -0.032774   0.331834
     4  Na   0.063397   0.204372
     5  Na   0.153883   0.017869
     6  Na  -0.065771   0.238042
     7  Na   0.009985   0.160795
 Sum of Mulliken charges =  -0.00000   1.00000

 Dipole moment (field-independent basis, Debye):
    X=             -0.2038    Y=             -1.8021    Z=              0.1237  Tot=              1.8178
 Quadrupole moment (field-independent basis, Debye-Ang):
   XX=            -71.9606   YY=            -69.2874   ZZ=            -63.6948
   XY=              0.0960   XZ=              0.5418   YZ=              0.5981

 Normal termination of Gaussian 16 at Mon Dec  4 03:44:56 2023.
