 Gaussian 16, Revision B.01,
 Gaussian 16:  ES64L-G16RevB.01 20-Dec-2017

 -------------------------
 #P B3LYP/6-311+g(d) force
 -------------------------

 -----
 DPGEN
 -----
 Symbolic Z-matrix:
 Charge =  0 Multiplicity = 2

                         Standard orientation:
 ---------------------------------------------------------------------
 Center     Atomic      Atomic             Coordinates (Angstroms)
 Number     Number       Type             X           Y           Z
 ---------------------------------------------------------------------
      1         11           0       -4.171903   -1.551623    0.317395
      2         11           0       -0.510755    3.570100    0.151211
      3         11           0       -3.639654    2.683194   -0.100849
      4         11           0        2.033490   -2.413808   -0.211908
      5         11           0        5.036705   -0.648837    0.440283
      6         11           0        2.976948    2.225868   -0.378702
      7         11           0       -1.724831   -3.864893   -0.217430
 ---------------------------------------------------------------------

 SCF Done:  E(UB3LYP) =  -1136.10496451     A.U. after   27 cycles

 The electronic state is 2-A.
 Alpha  occ. eigenvalues --  -38.46040 -38.46007 -38.44954 -38.44448 -38.44088
 Alpha  occ. eigenvalues --  -38.44038 -38.43378  -2.21767  -2.21740  -2.20729
 Alpha  occ. eigenvalues --   -2.20235  -2.19859  -2.19812  -2.19177  -1.15452
 Alpha  occ. eigenvalues --   -1.15433  -1.15429  -1.15417  -1.15396  -1.15340
 Alpha  occ. eigenvalues --   -1.14400  -1.14387  -1.14364  -1.13904  -1.13894
 Alpha  occ. eigenvalues --   -1.13835  -1.13546  -1.13542  -1.13504  -1.13477
 Alpha  occ. eigenvalues --   -1.13467  -1.13456  -1.12830  -1.12822  -1.12811
 Alpha  occ. eigenvalues --   -0.15353  -0.13798  -0.13215  -0.10558
 Alpha virt. eigenvalues --   -0.08095  -0.05282  -0.04619  -0.03529  -0.03155
 Alpha virt. eigenvalues --   -0.02636  -0.02441  -0.02049  -0.01530  -0.00711
 Alpha virt. eigenvalues --   -0.00606  -0.00190   0.00018   0.00192   0.00305

  Beta  occ. eigenvalues --  -38.46032 -38.45978 -38.44942 -38.44373 -38.44090
  Beta  occ. eigenvalues --  -38.44018 -38.43326  -2.21756  -2.21688  -2.20708
  Beta  occ. eigenvalues --   -2.20097  -2.19869  -2.19775  -2.19079  -1.15448
  Beta  occ. eigenvalues --   -1.15429  -1.15395  -1.15381  -1.15367  -1.15295
  Beta  occ. eigenvalues --   -1.14387  -1.14367  -1.14344  -1.13812  -1.13801
  Beta  occ. eigenvalues --   -1.13731  -1.13559  -1.13555  -1.13469  -1.13452
  Beta  occ. eigenvalues --   -1.13444  -1.13427  -1.12764  -1.12762  -1.12745
  Beta  occ. eigenvalues --   -0.14842  -0.13334  -0.12622
  Beta virt. eigenvalues --   -0.08172  -0.07213  -0.05003  -0.04041  -0.03333
  Beta virt. eigenvalues --   -0.02807  -0.02381  -0.02299  -0.01885  -0.01375
  Beta virt. eigenvalues --   -0.00488  -0.00304   0.00068   0.00117   0.00322

 Mulliken charges and spin densities:
               1          2
     1  Na  -0.129696   0.071152
     2  Na  -0.220686  -0.065359
     3  Na   0.130824   0.288730
     4  Na  -0.553757   0.215685
     5  Na   0.798340  -0.027014
     6  Na  -0.274577   0.369408
     7  Na   0.249551   0.147397
 Sum of Mulliken charges =  -0.00000   1.00000

 Dipole moment (field-independent basis, Debye):
    X=              0.9988    Y=             -1.5486    Z=              0.1675  Tot=              1.8504
 Quadrupole moment (field-independent basis, Debye-Ang):
   XX=            -51.1970   YY=            -72.8087   ZZ=            -74.4404
   XY=              2.4918   XZ=              0.4545   YZ=              0.8114

 Normal termination of Gaussian 16 at Sun Dec  3 19:09:41 2023.
