 Gaussian 16, Revision B.01,
 Gaussian 16:  ES64L-G16RevB.01 20-Dec-2017

 -------------------------
 #P B3LYP/6-311+g(d) force
 -------------------------

 -----
 DPGEN
 -----
 Symbolic Z-matrix:
 Charge =  0 Multiplicity = 2

                         Standard orientation:
 ---------------------------------------------------------------------
 Center     Atomic      Atomic             Coordinates (Angstroms)
 Number     Number       Type             X           Y           Z
 ---------------------------------------------------------------------
      1         11           0        2.632681    1.800105    0.139818
      2         11           0        3.081028   -1.650408   -0.088050
      3         11           0       -0.820497    2.566653   -0.547373
      4         11           0       -3.324354    0.608504    0.264303
      5         11           0        0.329948   -0.482685   -1.339295
      6         11           0       -1.898827   -2.440419   -0.407918
      7         11           0        0.000021   -0.401749    1.978515
 ---------------------------------------------------------------------

 SCF Done:  E(UB3LYP) =  -1136.12846299     A.U. after   21 cycles

 The electronic state is 2-A.
 Alpha  occ. eigenvalues --  -38.44842 -38.44740 -38.44295 -38.43671 -38.43597
 Alpha  occ. eigenvalues --  -38.43004 -38.42755  -2.20658  -2.20550  -2.20112
 Alpha  occ. eigenvalues --   -2.19523  -2.19469  -2.19012  -2.18612  -1.14329
 Alpha  occ. eigenvalues --   -1.14324  -1.14299  -1.14235  -1.14196  -1.14195
 Alpha  occ. eigenvalues --   -1.13785  -1.13776  -1.13749  -1.13242  -1.13176
 Alpha  occ. eigenvalues --   -1.13157  -1.13153  -1.13090  -1.13070  -1.12705
 Alpha  occ. eigenvalues --   -1.12653  -1.12639  -1.12299  -1.12266  -1.12250
 Alpha  occ. eigenvalues --   -0.18465  -0.13646  -0.11900  -0.10276
 Alpha virt. eigenvalues --   -0.06555  -0.05800  -0.04018  -0.03351  -0.02426
 Alpha virt. eigenvalues --   -0.02257  -0.02152  -0.01485  -0.00702  -0.00168
 Alpha virt. eigenvalues --   -0.00019   0.00263   0.00652   0.00680   0.00775

  Beta  occ. eigenvalues --  -38.44840 -38.44739 -38.44292 -38.43660 -38.43505
  Beta  occ. eigenvalues --  -38.42950 -38.42745  -2.20658  -2.20549  -2.20110
  Beta  occ. eigenvalues --   -2.19506  -2.19298  -2.18915  -2.18596  -1.14332
  Beta  occ. eigenvalues --   -1.14306  -1.14299  -1.14227  -1.14199  -1.14183
  Beta  occ. eigenvalues --   -1.13776  -1.13766  -1.13748  -1.13223  -1.13148
  Beta  occ. eigenvalues --   -1.13135  -1.13049  -1.12972  -1.12948  -1.12627
  Beta  occ. eigenvalues --   -1.12580  -1.12568  -1.12285  -1.12245  -1.12235
  Beta  occ. eigenvalues --   -0.17773  -0.13464  -0.11656
  Beta virt. eigenvalues --   -0.06510  -0.06372  -0.05784  -0.03956  -0.02630
  Beta virt. eigenvalues --   -0.02144  -0.01753  -0.01419  -0.01111  -0.00753
  Beta virt. eigenvalues --   -0.00143   0.00141   0.00298   0.00698   0.00719

 Mulliken charges and spin densities:
               1          2
     1  Na   0.079687   0.054541
     2  Na   0.251836   0.084642
     3  Na  -0.034093   0.059582
     4  Na   0.066598   0.048845
     5  Na  -0.202181  -0.020647
     6  Na   0.317691   0.156006
     7  Na  -0.479538   0.617031
 Sum of Mulliken charges =  -0.00000   1.00000

 Dipole moment (field-independent basis, Debye):
    X=              0.3482    Y=             -0.3042    Z=              0.3059  Tot=              0.5544
 Quadrupole moment (field-independent basis, Debye-Ang):
   XX=            -47.3265   YY=            -66.7244   ZZ=            -77.1639
   XY=             -0.2309   XZ=              0.1432   YZ=              0.3910

 Normal termination of Gaussian 16 at Thu Dec  7 18:57:13 2023.
