 Gaussian 16, Revision B.01,
 Gaussian 16:  ES64L-G16RevB.01 20-Dec-2017

 -------------------------
 #P B3LYP/6-311+g(d) force
 -------------------------

 -----
 DPGEN
 -----
 Symbolic Z-matrix:
 Charge =  0 Multiplicity = 2

                         Standard orientation:
 ---------------------------------------------------------------------
 Center     Atomic      Atomic             Coordinates (Angstroms)
 Number     Number       Type             X           Y           Z
 ---------------------------------------------------------------------
      1         11           0        3.246268    1.291805   -0.115094
      2         11           0       -0.775469   -2.705943    0.896512
      3         11           0        0.693271    3.624320    0.114745
      4         11           0       -2.713558    1.743833    0.595570
      5         11           0        2.618020   -2.805398   -0.060162
      6         11           0        0.285046   -0.159387   -0.560096
      7         11           0       -3.353579   -0.989229   -0.871477
 ---------------------------------------------------------------------

 SCF Done:  E(UB3LYP) =  -1136.12336388     A.U. after   26 cycles

 The electronic state is 2-A.
 Alpha  occ. eigenvalues --  -38.44753 -38.44223 -38.44093 -38.44040 -38.44026
 Alpha  occ. eigenvalues --  -38.43492 -38.43219  -2.20597  -2.20022  -2.20005
 Alpha  occ. eigenvalues --   -2.19869  -2.19810  -2.19361  -2.19062  -1.14330
 Alpha  occ. eigenvalues --   -1.14270  -1.14187  -1.13742  -1.13698  -1.13675
 Alpha  occ. eigenvalues --   -1.13660  -1.13655  -1.13614  -1.13553  -1.13530
 Alpha  occ. eigenvalues --   -1.13505  -1.13499  -1.13467  -1.13444  -1.13020
 Alpha  occ. eigenvalues --   -1.13011  -1.12979  -1.12717  -1.12714  -1.12682
 Alpha  occ. eigenvalues --   -0.17403  -0.13650  -0.13223  -0.09271
 Alpha virt. eigenvalues --   -0.06590  -0.05782  -0.05064  -0.02801  -0.02552
 Alpha virt. eigenvalues --   -0.02284  -0.02038  -0.01659  -0.01486  -0.00423
 Alpha virt. eigenvalues --    0.00095   0.00291   0.00410   0.00505   0.00683

  Beta  occ. eigenvalues --  -38.44738 -38.44201 -38.44100 -38.44013 -38.44004
  Beta  occ. eigenvalues --  -38.43448 -38.43165  -2.20575  -2.20016  -2.19984
  Beta  occ. eigenvalues --   -2.19808  -2.19790  -2.19279  -2.18961  -1.14321
  Beta  occ. eigenvalues --   -1.14256  -1.14141  -1.13742  -1.13676  -1.13664
  Beta  occ. eigenvalues --   -1.13661  -1.13620  -1.13614  -1.13511  -1.13493
  Beta  occ. eigenvalues --   -1.13490  -1.13460  -1.13437  -1.13394  -1.12964
  Beta  occ. eigenvalues --   -1.12954  -1.12924  -1.12648  -1.12643  -1.12620
  Beta  occ. eigenvalues --   -0.17139  -0.13198  -0.12548
  Beta virt. eigenvalues --   -0.06606  -0.06029  -0.05539  -0.04752  -0.02421
  Beta virt. eigenvalues --   -0.02176  -0.02109  -0.01743  -0.01317  -0.01222
  Beta virt. eigenvalues --   -0.00253   0.00305   0.00372   0.00542   0.00639

 Mulliken charges and spin densities:
               1          2
     1  Na   0.701912   0.278810
     2  Na   0.657864   0.107013
     3  Na   0.159086   0.111329
     4  Na   0.067597   0.202607
     5  Na   0.266784   0.111614
     6  Na  -2.924691  -0.120310
     7  Na   1.071448   0.308938
 Sum of Mulliken charges =  -0.00000   1.00000

 Dipole moment (field-independent basis, Debye):
    X=              0.0943    Y=             -0.9329    Z=              0.2448  Tot=              0.9691
 Quadrupole moment (field-independent basis, Debye-Ang):
   XX=            -61.0825   YY=            -66.1936   ZZ=            -70.7271
   XY=             -0.2214   XZ=             -0.7334   YZ=             -0.8489

 Normal termination of Gaussian 16 at Tue Dec  5 15:30:48 2023.
