 Gaussian 16, Revision B.01,
 Gaussian 16:  ES64L-G16RevB.01 20-Dec-2017

 -------------------------
 #P B3LYP/6-311+g(d) force
 -------------------------

 -----
 DPGEN
 -----
 Symbolic Z-matrix:
 Charge =  0 Multiplicity = 2

                         Standard orientation:
 ---------------------------------------------------------------------
 Center     Atomic      Atomic             Coordinates (Angstroms)
 Number     Number       Type             X           Y           Z
 ---------------------------------------------------------------------
      1         11           0       -2.925248    0.858564   -0.423236
      2         11           0       -1.783189   -2.050231    0.363205
      3         11           0        2.859866    0.401535    0.114325
      4         11           0        1.475535   -2.492193   -0.446993
      5         11           0       -0.004590    0.141807   -1.644950
      6         11           0       -0.103280    0.214132    2.131641
      7         11           0        0.480905    2.926386   -0.093992
 ---------------------------------------------------------------------

 SCF Done:  E(UB3LYP) =  -1136.13812545     A.U. after   18 cycles

 The electronic state is 2-A.
 Alpha  occ. eigenvalues --  -38.43881 -38.43812 -38.43677 -38.43417 -38.43289
 Alpha  occ. eigenvalues --  -38.43184 -38.43127  -2.19780  -2.19671  -2.19559
 Alpha  occ. eigenvalues --   -2.19273  -2.19211  -2.19198  -2.19012  -1.13447
 Alpha  occ. eigenvalues --   -1.13411  -1.13402  -1.13372  -1.13329  -1.13302
 Alpha  occ. eigenvalues --   -1.13249  -1.13226  -1.13196  -1.12997  -1.12936
 Alpha  occ. eigenvalues --   -1.12911  -1.12897  -1.12872  -1.12858  -1.12846
 Alpha  occ. eigenvalues --   -1.12834  -1.12813  -1.12676  -1.12659  -1.12645
 Alpha  occ. eigenvalues --   -0.19039  -0.13059  -0.12528  -0.11202
 Alpha virt. eigenvalues --   -0.05382  -0.04815  -0.04640  -0.03353  -0.03016
 Alpha virt. eigenvalues --   -0.02860  -0.01305  -0.01026  -0.00145  -0.00069
 Alpha virt. eigenvalues --    0.00075   0.00375   0.00892   0.00912   0.00952

  Beta  occ. eigenvalues --  -38.43803 -38.43781 -38.43672 -38.43414 -38.43278
  Beta  occ. eigenvalues --  -38.43120 -38.43119  -2.19658  -2.19597  -2.19553
  Beta  occ. eigenvalues --   -2.19270  -2.19184  -2.19092  -2.19002  -1.13361
  Beta  occ. eigenvalues --   -1.13326  -1.13307  -1.13295  -1.13279  -1.13272
  Beta  occ. eigenvalues --   -1.13240  -1.13209  -1.13184  -1.12979  -1.12918
  Beta  occ. eigenvalues --   -1.12894  -1.12882  -1.12834  -1.12823  -1.12798
  Beta  occ. eigenvalues --   -1.12770  -1.12743  -1.12655  -1.12648  -1.12628
  Beta  occ. eigenvalues --   -0.18291  -0.12808  -0.12271
  Beta virt. eigenvalues --   -0.07227  -0.05369  -0.04759  -0.04622  -0.02518
  Beta virt. eigenvalues --   -0.02250  -0.01770  -0.01224  -0.00960  -0.00135
  Beta virt. eigenvalues --   -0.00071   0.00135   0.00396   0.00900   0.00933

 Mulliken charges and spin densities:
               1          2
     1  Na   0.148561  -0.059629
     2  Na   0.257720   0.131480
     3  Na   0.197428   0.034272
     4  Na   0.122173  -0.002021
     5  Na  -0.333067   0.370365
     6  Na  -0.492745   0.597691
     7  Na   0.099931  -0.072158
 Sum of Mulliken charges =  -0.00000   1.00000

 Dipole moment (field-independent basis, Debye):
    X=             -0.0741    Y=              0.2953    Z=              0.2223  Tot=              0.3770
 Quadrupole moment (field-independent basis, Debye-Ang):
   XX=            -59.5599   YY=            -62.8838   ZZ=            -72.1000
   XY=             -0.4193   XZ=              0.5068   YZ=             -0.1242

 Normal termination of Gaussian 16 at Fri Dec  8 01:12:56 2023.
