 Gaussian 16, Revision B.01,
 Gaussian 16:  ES64L-G16RevB.01 20-Dec-2017

 -------------------------
 #P B3LYP/6-311+g(d) force
 -------------------------

 -----
 DPGEN
 -----
 Symbolic Z-matrix:
 Charge =  0 Multiplicity = 2

                         Standard orientation:
 ---------------------------------------------------------------------
 Center     Atomic      Atomic             Coordinates (Angstroms)
 Number     Number       Type             X           Y           Z
 ---------------------------------------------------------------------
      1         11           0        0.462598    1.670771   -0.420527
      2         11           0       -0.922590   -0.553591    2.163769
      3         11           0        2.689227   -0.451556   -0.224773
      4         11           0        5.822963   -0.211331    0.100295
      5         11           0       -1.121328   -1.149221   -1.482039
      6         11           0       -2.741396    1.922554   -0.016155
      7         11           0       -4.189473   -1.227625   -0.120570
 ---------------------------------------------------------------------

 SCF Done:  E(UB3LYP) =  -1136.10575932     A.U. after   31 cycles

 The electronic state is 2-A.
 Alpha  occ. eigenvalues --  -38.46759 -38.45850 -38.44590 -38.43542 -38.43124
 Alpha  occ. eigenvalues --  -38.43121 -38.43007  -2.22589  -2.21664  -2.20476
 Alpha  occ. eigenvalues --   -2.19331  -2.19061  -2.18998  -2.18839  -1.16281
 Alpha  occ. eigenvalues --   -1.16249  -1.16208  -1.15333  -1.15295  -1.15272
 Alpha  occ. eigenvalues --   -1.14152  -1.14126  -1.14080  -1.13011  -1.12982
 Alpha  occ. eigenvalues --   -1.12981  -1.12818  -1.12744  -1.12689  -1.12672
 Alpha  occ. eigenvalues --   -1.12654  -1.12573  -1.12513  -1.12500  -1.12488
 Alpha  occ. eigenvalues --   -0.18535  -0.13755  -0.11424  -0.10860
 Alpha virt. eigenvalues --   -0.08591  -0.05031  -0.04183  -0.03373  -0.03255
 Alpha virt. eigenvalues --   -0.02631  -0.02283  -0.01661  -0.01494  -0.01012
 Alpha virt. eigenvalues --   -0.00127   0.00088   0.00125   0.00511   0.00612

  Beta  occ. eigenvalues --  -38.46752 -38.45770 -38.44517 -38.43529 -38.43123
  Beta  occ. eigenvalues --  -38.43108 -38.43006  -2.22579  -2.21517  -2.20343
  Beta  occ. eigenvalues --   -2.19306  -2.19039  -2.18999  -2.18840  -1.16253
  Beta  occ. eigenvalues --   -1.16241  -1.16205  -1.15222  -1.15197  -1.15170
  Beta  occ. eigenvalues --   -1.14055  -1.14042  -1.13979  -1.12995  -1.12965
  Beta  occ. eigenvalues --   -1.12964  -1.12800  -1.12734  -1.12682  -1.12667
  Beta  occ. eigenvalues --   -1.12637  -1.12554  -1.12516  -1.12498  -1.12476
  Beta  occ. eigenvalues --   -0.17870  -0.13549  -0.10801
  Beta virt. eigenvalues --   -0.08355  -0.07342  -0.04932  -0.03820  -0.03012
  Beta virt. eigenvalues --   -0.02922  -0.01991  -0.01749  -0.01500  -0.01219
  Beta virt. eigenvalues --   -0.00778  -0.00072   0.00124   0.00301   0.00596

 Mulliken charges and spin densities:
               1          2
     1  Na  -0.105722  -0.071795
     2  Na  -0.056881   0.293539
     3  Na  -0.608248   0.289933
     4  Na   0.145104   0.109477
     5  Na   0.146250  -0.010647
     6  Na   0.122047   0.349802
     7  Na   0.357449   0.039691
 Sum of Mulliken charges =  -0.00000   1.00000

 Dipole moment (field-independent basis, Debye):
    X=             -1.5573    Y=              0.1372    Z=              0.7213  Tot=              1.7217
 Quadrupole moment (field-independent basis, Debye-Ang):
   XX=            -73.6370   YY=            -73.5646   ZZ=            -62.4940
   XY=             -0.8236   XZ=             -2.6371   YZ=              3.6371

 Normal termination of Gaussian 16 at Fri Dec  8 00:14:46 2023.
