 Gaussian 16, Revision B.01,
 Gaussian 16:  ES64L-G16RevB.01 20-Dec-2017

 -------------------------
 #P B3LYP/6-311+g(d) force
 -------------------------

 -----
 DPGEN
 -----
 Symbolic Z-matrix:
 Charge =  0 Multiplicity = 2

                         Standard orientation:
 ---------------------------------------------------------------------
 Center     Atomic      Atomic             Coordinates (Angstroms)
 Number     Number       Type             X           Y           Z
 ---------------------------------------------------------------------
      1         11           0       -3.258991   -0.264371    0.051785
      2         11           0       -1.183467    2.666494    0.232837
      3         11           0       -0.920662   -2.798493   -0.267003
      4         11           0        2.111234    2.001774   -0.117444
      5         11           0       -0.164801    0.252208   -1.710259
      6         11           0        3.089042   -1.397246   -0.155161
      7         11           0        0.327644   -0.460367    1.965243
 ---------------------------------------------------------------------

 SCF Done:  E(UB3LYP) =  -1136.13753816     A.U. after   19 cycles

 The electronic state is 2-A.
 Alpha  occ. eigenvalues --  -38.44293 -38.44282 -38.43596 -38.43591 -38.43448
 Alpha  occ. eigenvalues --  -38.43234 -38.43186  -2.20104  -2.20067  -2.19461
 Alpha  occ. eigenvalues --   -2.19429  -2.19327  -2.19185  -2.19050  -1.13775
 Alpha  occ. eigenvalues --   -1.13761  -1.13752  -1.13739  -1.13725  -1.13712
 Alpha  occ. eigenvalues --   -1.13166  -1.13130  -1.13118  -1.13107  -1.13087
 Alpha  occ. eigenvalues --   -1.13054  -1.12996  -1.12956  -1.12941  -1.12879
 Alpha  occ. eigenvalues --   -1.12831  -1.12806  -1.12707  -1.12704  -1.12685
 Alpha  occ. eigenvalues --   -0.18453  -0.13043  -0.12385  -0.10509
 Alpha virt. eigenvalues --   -0.05988  -0.05196  -0.04656  -0.03146  -0.02929
 Alpha virt. eigenvalues --   -0.02363  -0.01754  -0.01142  -0.00544  -0.00339
 Alpha virt. eigenvalues --   -0.00021   0.00347   0.00765   0.00834   0.00874

  Beta  occ. eigenvalues --  -38.44291 -38.44282 -38.43588 -38.43584 -38.43364
  Beta  occ. eigenvalues --  -38.43180 -38.43166  -2.20104  -2.20069  -2.19452
  Beta  occ. eigenvalues --   -2.19419  -2.19171  -2.19062  -2.19041  -1.13765
  Beta  occ. eigenvalues --   -1.13756  -1.13752  -1.13731  -1.13720  -1.13716
  Beta  occ. eigenvalues --   -1.13155  -1.13110  -1.13097  -1.13085  -1.13072
  Beta  occ. eigenvalues --   -1.13050  -1.12895  -1.12847  -1.12829  -1.12806
  Beta  occ. eigenvalues --   -1.12756  -1.12716  -1.12689  -1.12681  -1.12664
  Beta  occ. eigenvalues --   -0.17729  -0.12832  -0.12163
  Beta virt. eigenvalues --   -0.06638  -0.05947  -0.05189  -0.04589  -0.02397
  Beta virt. eigenvalues --   -0.02149  -0.01672  -0.01349  -0.01068  -0.00589
  Beta virt. eigenvalues --   -0.00380   0.00128   0.00371   0.00817   0.00836

 Mulliken charges and spin densities:
               1          2
     1  Na   0.112010  -0.033226
     2  Na   0.050984  -0.009865
     3  Na   0.086854  -0.142220
     4  Na   0.228030  -0.011548
     5  Na  -0.140430   0.567084
     6  Na   0.107174  -0.120772
     7  Na  -0.444623   0.750548
 Sum of Mulliken charges =  -0.00000   1.00000

 Dipole moment (field-independent basis, Debye):
    X=              0.0132    Y=             -0.2664    Z=              0.0474  Tot=              0.2709
 Quadrupole moment (field-independent basis, Debye-Ang):
   XX=            -54.1881   YY=            -63.2756   ZZ=            -75.3184
   XY=             -0.8386   XZ=             -1.2681   YZ=              1.5973

 Normal termination of Gaussian 16 at Tue Dec  5 14:53:16 2023.
