 Gaussian 16, Revision B.01,
 Gaussian 16:  ES64L-G16RevB.01 20-Dec-2017

 -------------------------
 #P B3LYP/6-311+g(d) force
 -------------------------

 -----
 DPGEN
 -----
 Symbolic Z-matrix:
 Charge =  0 Multiplicity = 2

                         Standard orientation:
 ---------------------------------------------------------------------
 Center     Atomic      Atomic             Coordinates (Angstroms)
 Number     Number       Type             X           Y           Z
 ---------------------------------------------------------------------
      1         11           0       -0.237079   -2.123665   -1.463670
      2         11           0        2.414026   -0.938184    1.457344
      3         11           0       -1.292682   -0.999819    1.814931
      4         11           0       -1.818557    2.423846    0.370569
      5         11           0        0.519241    1.473612   -0.433612
      6         11           0       -3.312557   -0.497078   -0.836184
      7         11           0        3.727609    0.661287   -0.909377
 ---------------------------------------------------------------------

 SCF Done:  E(UB3LYP) =  -1136.11762925     A.U. after   22 cycles

 The electronic state is 2-A.
 Alpha  occ. eigenvalues --  -38.44921 -38.44707 -38.44293 -38.43873 -38.43827
 Alpha  occ. eigenvalues --  -38.43583 -38.43022  -2.20754  -2.20544  -2.20143
 Alpha  occ. eigenvalues --   -2.19698  -2.19678  -2.19553  -2.18940  -1.14440
 Alpha  occ. eigenvalues --   -1.14402  -1.14374  -1.14227  -1.14196  -1.14178
 Alpha  occ. eigenvalues --   -1.13815  -1.13788  -1.13776  -1.13481  -1.13382
 Alpha  occ. eigenvalues --   -1.13367  -1.13344  -1.13331  -1.13309  -1.13293
 Alpha  occ. eigenvalues --   -1.13191  -1.13180  -1.12564  -1.12544  -1.12525
 Alpha  occ. eigenvalues --   -0.18284  -0.14075  -0.11521  -0.10958
 Alpha virt. eigenvalues --   -0.06872  -0.05229  -0.04239  -0.03549  -0.02822
 Alpha virt. eigenvalues --   -0.02416  -0.02226  -0.01045  -0.00636  -0.00213
 Alpha virt. eigenvalues --    0.00006   0.00168   0.00298   0.00677   0.00804

  Beta  occ. eigenvalues --  -38.44899 -38.44686 -38.44261 -38.43838 -38.43770
  Beta  occ. eigenvalues --  -38.43575 -38.43022  -2.20714  -2.20504  -2.20086
  Beta  occ. eigenvalues --   -2.19616  -2.19594  -2.19542  -2.18941  -1.14407
  Beta  occ. eigenvalues --   -1.14376  -1.14342  -1.14201  -1.14167  -1.14149
  Beta  occ. eigenvalues --   -1.13772  -1.13752  -1.13717  -1.13472  -1.13331
  Beta  occ. eigenvalues --   -1.13307  -1.13275  -1.13257  -1.13250  -1.13237
  Beta  occ. eigenvalues --   -1.13178  -1.13162  -1.12565  -1.12535  -1.12525
  Beta  occ. eigenvalues --   -0.17643  -0.13869  -0.11285
  Beta virt. eigenvalues --   -0.07175  -0.06717  -0.04858  -0.03880  -0.03358
  Beta virt. eigenvalues --   -0.02353  -0.02137  -0.01494  -0.00768  -0.00440
  Beta virt. eigenvalues --   -0.00086   0.00079   0.00225   0.00406   0.00805

 Mulliken charges and spin densities:
               1          2
     1  Na  -0.370072   0.261585
     2  Na  -0.016016   0.059309
     3  Na   0.145938   0.332491
     4  Na  -0.237465  -0.002264
     5  Na  -0.608000   0.199378
     6  Na   0.337685   0.147078
     7  Na   0.747929   0.002424
 Sum of Mulliken charges =  -0.00000   1.00000

 Dipole moment (field-independent basis, Debye):
    X=              0.3495    Y=             -0.6259    Z=             -0.1573  Tot=              0.7340
 Quadrupole moment (field-independent basis, Debye-Ang):
   XX=            -47.6934   YY=            -77.6741   ZZ=            -68.9061
   XY=             -0.8355   XZ=             -1.5600   YZ=             -0.4421

 Normal termination of Gaussian 16 at Fri Dec  8 01:16:04 2023.
