 Gaussian 16, Revision B.01,
 Gaussian 16:  ES64L-G16RevB.01 20-Dec-2017

 -------------------------
 #P B3LYP/6-311+g(d) force
 -------------------------

 -----
 DPGEN
 -----
 Symbolic Z-matrix:
 Charge =  0 Multiplicity = 2

                         Standard orientation:
 ---------------------------------------------------------------------
 Center     Atomic      Atomic             Coordinates (Angstroms)
 Number     Number       Type             X           Y           Z
 ---------------------------------------------------------------------
      1         11           0       -2.336903    2.046973   -0.226687
      2         11           0        1.439207   -2.758923   -0.169262
      3         11           0        3.115027    0.391276   -0.019337
      4         11           0       -0.109736   -0.250010   -1.531829
      5         11           0       -0.383425   -0.303028    2.129695
      6         11           0       -2.626837   -1.870831   -0.166421
      7         11           0        0.902668    2.744543   -0.016160
 ---------------------------------------------------------------------

 SCF Done:  E(UB3LYP) =  -1136.13670726     A.U. after   19 cycles

 The electronic state is 2-A.
 Alpha  occ. eigenvalues --  -38.44212 -38.43988 -38.43879 -38.43796 -38.43569
 Alpha  occ. eigenvalues --  -38.43269 -38.43024  -2.20023  -2.19808  -2.19708
 Alpha  occ. eigenvalues --   -2.19629  -2.19430  -2.19138  -2.19007  -1.13710
 Alpha  occ. eigenvalues --   -1.13685  -1.13653  -1.13505  -1.13469  -1.13434
 Alpha  occ. eigenvalues --   -1.13390  -1.13374  -1.13343  -1.13316  -1.13291
 Alpha  occ. eigenvalues --   -1.13266  -1.13090  -1.13051  -1.13050  -1.12816
 Alpha  occ. eigenvalues --   -1.12793  -1.12784  -1.12691  -1.12643  -1.12635
 Alpha  occ. eigenvalues --   -0.18439  -0.12832  -0.12650  -0.10553
 Alpha virt. eigenvalues --   -0.05907  -0.05200  -0.04783  -0.03017  -0.02890
 Alpha virt. eigenvalues --   -0.02511  -0.01514  -0.01398  -0.00560  -0.00375
 Alpha virt. eigenvalues --   -0.00013   0.00342   0.00772   0.00840   0.00884

  Beta  occ. eigenvalues --  -38.44207 -38.43983 -38.43873 -38.43796 -38.43467
  Beta  occ. eigenvalues --  -38.43266 -38.42968  -2.20018  -2.19802  -2.19701
  Beta  occ. eigenvalues --   -2.19630  -2.19241  -2.19135  -2.18905  -1.13699
  Beta  occ. eigenvalues --   -1.13665  -1.13653  -1.13495  -1.13450  -1.13433
  Beta  occ. eigenvalues --   -1.13384  -1.13351  -1.13340  -1.13319  -1.13275
  Beta  occ. eigenvalues --   -1.13270  -1.12964  -1.12918  -1.12917  -1.12813
  Beta  occ. eigenvalues --   -1.12787  -1.12770  -1.12618  -1.12569  -1.12560
  Beta  occ. eigenvalues --   -0.17738  -0.12624  -0.12426
  Beta virt. eigenvalues --   -0.06622  -0.05911  -0.05130  -0.04762  -0.02260
  Beta virt. eigenvalues --   -0.02135  -0.01458  -0.01408  -0.01318  -0.00620
  Beta virt. eigenvalues --   -0.00416   0.00148   0.00382   0.00781   0.00880

 Mulliken charges and spin densities:
               1          2
     1  Na   0.264331   0.000718
     2  Na   0.281460  -0.046744
     3  Na   0.071445   0.006582
     4  Na  -0.329915   0.326019
     5  Na  -0.596546   0.798948
     6  Na   0.245497  -0.090883
     7  Na   0.063728   0.005359
 Sum of Mulliken charges =  -0.00000   1.00000

 Dipole moment (field-independent basis, Debye):
    X=             -0.2660    Y=             -0.3940    Z=              0.0980  Tot=              0.4854
 Quadrupole moment (field-independent basis, Debye-Ang):
   XX=            -56.8264   YY=            -60.4465   ZZ=            -75.8084
   XY=             -0.1821   XZ=              0.7501   YZ=              0.1613

 Normal termination of Gaussian 16 at Thu Dec  7 06:58:09 2023.
