 Gaussian 16, Revision B.01,
 Gaussian 16:  ES64L-G16RevB.01 20-Dec-2017

 -------------------------
 #P B3LYP/6-311+g(d) force
 -------------------------

 -----
 DPGEN
 -----
 Symbolic Z-matrix:
 Charge =  0 Multiplicity = 2

                         Standard orientation:
 ---------------------------------------------------------------------
 Center     Atomic      Atomic             Coordinates (Angstroms)
 Number     Number       Type             X           Y           Z
 ---------------------------------------------------------------------
      1         11           0       -2.725880    0.899874   -0.126344
      2         11           0       -2.100772   -2.358664   -0.090145
      3         11           0        2.928308    0.793990   -0.336379
      4         11           0        0.162695   -0.182383    1.907312
      5         11           0       -0.293962    0.266031   -1.388069
      6         11           0        1.970470   -2.487070   -0.140788
      7         11           0        0.059141    3.068223    0.174411
 ---------------------------------------------------------------------

 SCF Done:  E(UB3LYP) =  -1136.13438987     A.U. after   19 cycles

 The electronic state is 2-A.
 Alpha  occ. eigenvalues --  -38.43904 -38.43862 -38.43816 -38.43799 -38.43478
 Alpha  occ. eigenvalues --  -38.43096 -38.43014  -2.19751  -2.19714  -2.19704
 Alpha  occ. eigenvalues --   -2.19633  -2.19335  -2.19085  -2.19018  -1.13586
 Alpha  occ. eigenvalues --   -1.13406  -1.13391  -1.13389  -1.13377  -1.13368
 Alpha  occ. eigenvalues --   -1.13364  -1.13359  -1.13313  -1.13303  -1.13282
 Alpha  occ. eigenvalues --   -1.13260  -1.13030  -1.12992  -1.12971  -1.12785
 Alpha  occ. eigenvalues --   -1.12723  -1.12681  -1.12669  -1.12635  -1.12626
 Alpha  occ. eigenvalues --   -0.18840  -0.13164  -0.12592  -0.10310
 Alpha virt. eigenvalues --   -0.05516  -0.05212  -0.05080  -0.03021  -0.02737
 Alpha virt. eigenvalues --   -0.02080  -0.01450  -0.01350  -0.00556  -0.00393
 Alpha virt. eigenvalues --    0.00039   0.00346   0.00824   0.00845   0.00874

  Beta  occ. eigenvalues --  -38.43901 -38.43852 -38.43806 -38.43796 -38.43473
  Beta  occ. eigenvalues --  -38.43002 -38.42962  -2.19737  -2.19712  -2.19688
  Beta  occ. eigenvalues --   -2.19630  -2.19328  -2.18991  -2.18845  -1.13568
  Beta  occ. eigenvalues --   -1.13401  -1.13378  -1.13371  -1.13363  -1.13359
  Beta  occ. eigenvalues --   -1.13340  -1.13337  -1.13308  -1.13292  -1.13273
  Beta  occ. eigenvalues --   -1.13256  -1.13023  -1.12971  -1.12963  -1.12704
  Beta  occ. eigenvalues --   -1.12653  -1.12605  -1.12572  -1.12514  -1.12499
  Beta  occ. eigenvalues --   -0.18130  -0.12886  -0.12373
  Beta virt. eigenvalues --   -0.06429  -0.05514  -0.05155  -0.05043  -0.02234
  Beta virt. eigenvalues --   -0.02000  -0.01371  -0.01277  -0.01069  -0.00597
  Beta virt. eigenvalues --   -0.00431   0.00179   0.00390   0.00837   0.00863

 Mulliken charges and spin densities:
               1          2
     1  Na   0.632513   0.082097
     2  Na   0.083022  -0.073618
     3  Na   0.087047  -0.008144
     4  Na  -0.441733   0.762209
     5  Na  -0.604162   0.292851
     6  Na   0.016396  -0.071516
     7  Na   0.226917   0.016121
 Sum of Mulliken charges =  -0.00000   1.00000

 Dipole moment (field-independent basis, Debye):
    X=              0.1349    Y=             -0.1793    Z=              0.1826  Tot=              0.2893
 Quadrupole moment (field-independent basis, Debye-Ang):
   XX=            -57.8725   YY=            -57.1970   ZZ=            -76.7009
   XY=              0.6452   XZ=             -0.9820   YZ=              1.0732

 Normal termination of Gaussian 16 at Tue Dec  5 17:18:02 2023.
