 Gaussian 16, Revision B.01,
 Gaussian 16:  ES64L-G16RevB.01 20-Dec-2017

 -------------------------
 #P B3LYP/6-311+g(d) force
 -------------------------

 -----
 DPGEN
 -----
 Symbolic Z-matrix:
 Charge =  0 Multiplicity = 2

                         Standard orientation:
 ---------------------------------------------------------------------
 Center     Atomic      Atomic             Coordinates (Angstroms)
 Number     Number       Type             X           Y           Z
 ---------------------------------------------------------------------
      1         11           0       -5.210690    0.919199   -1.315134
      2         11           0       -3.523145   -0.750553    0.795131
      3         11           0        3.008816   -3.245902   -0.859409
      4         11           0        3.039160    0.566597   -0.412741
      5         11           0        2.458312    3.846740   -0.516025
      6         11           0       -0.242134   -1.911643    0.037604
      7         11           0        0.469681    0.575562    2.270574
 ---------------------------------------------------------------------

 SCF Done:  E(UB3LYP) =  -1136.11391869     A.U. after   20 cycles

 The electronic state is 2-A.
 Alpha  occ. eigenvalues --  -38.45919 -38.44608 -38.44184 -38.43893 -38.43882
 Alpha  occ. eigenvalues --  -38.43879 -38.43867  -2.21701  -2.20409  -2.19998
 Alpha  occ. eigenvalues --   -2.19698  -2.19696  -2.19666  -2.19632  -1.15365
 Alpha  occ. eigenvalues --   -1.15357  -1.15297  -1.14056  -1.14047  -1.14045
 Alpha  occ. eigenvalues --   -1.13693  -1.13690  -1.13611  -1.13405  -1.13385
 Alpha  occ. eigenvalues --   -1.13381  -1.13370  -1.13339  -1.13337  -1.13324
 Alpha  occ. eigenvalues --   -1.13318  -1.13298  -1.13286  -1.13279  -1.13230
 Alpha  occ. eigenvalues --   -0.16480  -0.13710  -0.11901  -0.11417
 Alpha virt. eigenvalues --   -0.06704  -0.05131  -0.04839  -0.03580  -0.02891
 Alpha virt. eigenvalues --   -0.02371  -0.02076  -0.01543  -0.01424  -0.00986
 Alpha virt. eigenvalues --   -0.00741  -0.00038   0.00228   0.00350   0.00483

  Beta  occ. eigenvalues --  -38.45844 -38.44541 -38.44176 -38.43902 -38.43866
  Beta  occ. eigenvalues --  -38.43863 -38.43829  -2.21562  -2.20283  -2.19989
  Beta  occ. eigenvalues --   -2.19719  -2.19668  -2.19625  -2.19572  -1.15276
  Beta  occ. eigenvalues --   -1.15264  -1.15189  -1.13974  -1.13961  -1.13959
  Beta  occ. eigenvalues --   -1.13690  -1.13676  -1.13590  -1.13403  -1.13389
  Beta  occ. eigenvalues --   -1.13386  -1.13362  -1.13319  -1.13312  -1.13293
  Beta  occ. eigenvalues --   -1.13278  -1.13260  -1.13252  -1.13226  -1.13213
  Beta  occ. eigenvalues --   -0.15822  -0.13161  -0.11539
  Beta virt. eigenvalues --   -0.08107  -0.06311  -0.04758  -0.04551  -0.03345
  Beta virt. eigenvalues --   -0.02552  -0.02072  -0.01771  -0.01310  -0.01280
  Beta virt. eigenvalues --   -0.00688  -0.00490   0.00113   0.00343   0.00457

 Mulliken charges and spin densities:
               1          2
     1  Na   0.229494   0.342469
     2  Na   0.253356   0.028084
     3  Na   0.931954   0.216848
     4  Na  -0.601355   0.216135
     5  Na   0.232305   0.042058
     6  Na  -1.226765  -0.101410
     7  Na   0.181010   0.255816
 Sum of Mulliken charges =  -0.00000   1.00000

 Dipole moment (field-independent basis, Debye):
    X=             -0.3876    Y=              0.4698    Z=              0.4724  Tot=              0.7708
 Quadrupole moment (field-independent basis, Debye-Ang):
   XX=            -68.9221   YY=            -64.4696   ZZ=            -65.4138
   XY=             -4.9910   XZ=              2.6062   YZ=             -1.4233

 Normal termination of Gaussian 16 at Mon Dec  4 03:04:57 2023.
