 Gaussian 16, Revision B.01,
 Gaussian 16:  ES64L-G16RevB.01 20-Dec-2017

 -------------------------
 #P B3LYP/6-311+g(d) force
 -------------------------

 -----
 DPGEN
 -----
 Symbolic Z-matrix:
 Charge =  0 Multiplicity = 2

                         Standard orientation:
 ---------------------------------------------------------------------
 Center     Atomic      Atomic             Coordinates (Angstroms)
 Number     Number       Type             X           Y           Z
 ---------------------------------------------------------------------
      1         11           0       -0.779042   -2.267988   -0.550450
      2         11           0       -1.740546    0.941552   -2.157733
      3         11           0        5.137048   -0.619739    0.211494
      4         11           0        2.545248    0.321121   -0.825069
      5         11           0        0.193059    2.409103    1.004556
      6         11           0       -3.858756   -0.253805   -0.044047
      7         11           0       -1.497011   -0.530244    2.361248
 ---------------------------------------------------------------------

 SCF Done:  E(UB3LYP) =  -1136.10336907     A.U. after   32 cycles

 The electronic state is 2-A.
 Alpha  occ. eigenvalues --  -38.45743 -38.45632 -38.45016 -38.44621 -38.44466
 Alpha  occ. eigenvalues --  -38.43504 -38.41947  -2.21567  -2.21411  -2.20861
 Alpha  occ. eigenvalues --   -2.20417  -2.20321  -2.19345  -2.17741  -1.15269
 Alpha  occ. eigenvalues --   -1.15230  -1.15185  -1.15099  -1.15093  -1.15015
 Alpha  occ. eigenvalues --   -1.14538  -1.14496  -1.14442  -1.14135  -1.14059
 Alpha  occ. eigenvalues --   -1.14055  -1.14004  -1.13967  -1.13904  -1.13038
 Alpha  occ. eigenvalues --   -1.13012  -1.12959  -1.11415  -1.11405  -1.11396
 Alpha  occ. eigenvalues --   -0.17770  -0.13508  -0.11987  -0.10682
 Alpha virt. eigenvalues --   -0.08120  -0.04691  -0.04169  -0.03480  -0.03278
 Alpha virt. eigenvalues --   -0.02931  -0.02696  -0.01601  -0.00815  -0.00640
 Alpha virt. eigenvalues --   -0.00297  -0.00115   0.00058   0.00605   0.00861

  Beta  occ. eigenvalues --  -38.45731 -38.45618 -38.44915 -38.44625 -38.44383
  Beta  occ. eigenvalues --  -38.43503 -38.41950  -2.21553  -2.21388  -2.20675
  Beta  occ. eigenvalues --   -2.20423  -2.20170  -2.19342  -2.17749  -1.15238
  Beta  occ. eigenvalues --   -1.15200  -1.15181  -1.15082  -1.15050  -1.15005
  Beta  occ. eigenvalues --   -1.14409  -1.14376  -1.14306  -1.14140  -1.14064
  Beta  occ. eigenvalues --   -1.14059  -1.13900  -1.13868  -1.13793  -1.13035
  Beta  occ. eigenvalues --   -1.13008  -1.12958  -1.11422  -1.11408  -1.11394
  Beta  occ. eigenvalues --   -0.16914  -0.13408  -0.10570
  Beta virt. eigenvalues --   -0.08041  -0.07798  -0.04341  -0.03804  -0.03024
  Beta virt. eigenvalues --   -0.02939  -0.02663  -0.02010  -0.01265  -0.00790
  Beta virt. eigenvalues --   -0.00540  -0.00104   0.00022   0.00076   0.00665

 Mulliken charges and spin densities:
               1          2
     1  Na  -0.266753   0.056771
     2  Na   0.191106   0.593915
     3  Na   0.453282   0.035195
     4  Na  -0.705846  -0.024013
     5  Na  -0.316307  -0.107581
     6  Na   0.442698  -0.081388
     7  Na   0.201819   0.527100
 Sum of Mulliken charges =  -0.00000   1.00000

 Dipole moment (field-independent basis, Debye):
    X=             -1.2120    Y=             -0.8031    Z=              0.1985  Tot=              1.4675
 Quadrupole moment (field-independent basis, Debye-Ang):
   XX=            -53.5548   YY=            -74.8296   ZZ=            -70.0129
   XY=             -3.8080   XZ=              0.6427   YZ=             -4.8626

 Normal termination of Gaussian 16 at Fri Dec  8 17:36:52 2023.
