 Gaussian 16, Revision B.01,
 Gaussian 16:  ES64L-G16RevB.01 20-Dec-2017

 -------------------------
 #P B3LYP/6-311+g(d) force
 -------------------------

 -----
 DPGEN
 -----
 Symbolic Z-matrix:
 Charge =  0 Multiplicity = 2

                         Standard orientation:
 ---------------------------------------------------------------------
 Center     Atomic      Atomic             Coordinates (Angstroms)
 Number     Number       Type             X           Y           Z
 ---------------------------------------------------------------------
      1         11           0       -3.693948    1.158016   -0.359206
      2         11           0       -2.491365   -2.521370   -1.373104
      3         11           0       -3.215036   -2.799487    1.546631
      4         11           0       -1.214932    3.588315   -0.601318
      5         11           0        1.491226    2.703666    0.788716
      6         11           0        3.776517   -0.451292    1.064806
      7         11           0        5.347539   -1.677848   -1.066526
 ---------------------------------------------------------------------

 SCF Done:  E(UB3LYP) =  -1136.10596350     A.U. after   17 cycles

 The electronic state is 2-A.
 Alpha  occ. eigenvalues --  -38.45447 -38.45255 -38.44482 -38.43875 -38.43656
 Alpha  occ. eigenvalues --  -38.43589 -38.43473  -2.21246  -2.21061  -2.20279
 Alpha  occ. eigenvalues --   -2.19702  -2.19471  -2.19406  -2.19277  -1.14981
 Alpha  occ. eigenvalues --   -1.14901  -1.14885  -1.14707  -1.14702  -1.14662
 Alpha  occ. eigenvalues --   -1.13945  -1.13923  -1.13877  -1.13461  -1.13335
 Alpha  occ. eigenvalues --   -1.13332  -1.13146  -1.13118  -1.13109  -1.13060
 Alpha  occ. eigenvalues --   -1.13053  -1.13029  -1.12949  -1.12939  -1.12921
 Alpha  occ. eigenvalues --   -0.15510  -0.13989  -0.12817  -0.10569
 Alpha virt. eigenvalues --   -0.06356  -0.06097  -0.04228  -0.03610  -0.02843
 Alpha virt. eigenvalues --   -0.02427  -0.01950  -0.01719  -0.01437  -0.01132
 Alpha virt. eigenvalues --   -0.00613  -0.00313   0.00029   0.00329   0.00342

  Beta  occ. eigenvalues --  -38.45445 -38.45232 -38.44391 -38.43838 -38.43594
  Beta  occ. eigenvalues --  -38.43583 -38.43485  -2.21244  -2.21018  -2.20111
  Beta  occ. eigenvalues --   -2.19633  -2.19421  -2.19334  -2.19306  -1.14969
  Beta  occ. eigenvalues --   -1.14902  -1.14876  -1.14678  -1.14667  -1.14640
  Beta  occ. eigenvalues --   -1.13830  -1.13812  -1.13760  -1.13424  -1.13287
  Beta  occ. eigenvalues --   -1.13284  -1.13080  -1.13074  -1.13064  -1.13026
  Beta  occ. eigenvalues --   -1.13019  -1.13003  -1.12974  -1.12954  -1.12886
  Beta  occ. eigenvalues --   -0.14984  -0.13480  -0.12361
  Beta virt. eigenvalues --   -0.07320  -0.06208  -0.05589  -0.03808  -0.03468
  Beta virt. eigenvalues --   -0.02634  -0.02081  -0.01780  -0.01479  -0.01255
  Beta virt. eigenvalues --   -0.00914  -0.00303  -0.00126   0.00266   0.00364

 Mulliken charges and spin densities:
               1          2
     1  Na  -0.289914   0.455261
     2  Na  -0.042842   0.047532
     3  Na   0.291773   0.093073
     4  Na   0.489606  -0.024292
     5  Na  -0.299012   0.327436
     6  Na  -0.608700  -0.067742
     7  Na   0.459088   0.168731
 Sum of Mulliken charges =  -0.00000   1.00000

 Dipole moment (field-independent basis, Debye):
    X=             -1.8143    Y=             -2.1016    Z=             -0.2246  Tot=              2.7855
 Quadrupole moment (field-independent basis, Debye-Ang):
   XX=            -70.5354   YY=            -71.3545   ZZ=            -59.7783
   XY=              2.9531   XZ=             -6.4188   YZ=              0.9365

 Normal termination of Gaussian 16 at Mon Dec  4 05:34:45 2023.
