 Gaussian 16, Revision B.01,
 Gaussian 16:  ES64L-G16RevB.01 20-Dec-2017

 -------------------------
 #P B3LYP/6-311+g(d) force
 -------------------------

 -----
 DPGEN
 -----
 Symbolic Z-matrix:
 Charge =  0 Multiplicity = 2

                         Standard orientation:
 ---------------------------------------------------------------------
 Center     Atomic      Atomic             Coordinates (Angstroms)
 Number     Number       Type             X           Y           Z
 ---------------------------------------------------------------------
      1         11           0       -2.894239    0.554059   -0.908588
      2         11           0       -0.665619    3.316536   -0.184340
      3         11           0        3.076762    1.303511    0.286931
      4         11           0        3.561187   -2.009078   -0.329017
      5         11           0       -2.278365   -3.067530    0.033308
      6         11           0        0.148206   -0.115073   -1.225453
      7         11           0       -0.947932    0.017574    2.327159
 ---------------------------------------------------------------------

 SCF Done:  E(UB3LYP) =  -1136.12211524     A.U. after   22 cycles

 The electronic state is 2-A.
 Alpha  occ. eigenvalues --  -38.44632 -38.44549 -38.44134 -38.44110 -38.44012
 Alpha  occ. eigenvalues --  -38.43961 -38.43481  -2.20413  -2.20311  -2.19995
 Alpha  occ. eigenvalues --   -2.19894  -2.19855  -2.19774  -2.19264  -1.14096
 Alpha  occ. eigenvalues --   -1.14087  -1.14046  -1.13980  -1.13970  -1.13930
 Alpha  occ. eigenvalues --   -1.13751  -1.13657  -1.13599  -1.13582  -1.13533
 Alpha  occ. eigenvalues --   -1.13523  -1.13518  -1.13511  -1.13486  -1.13433
 Alpha  occ. eigenvalues --   -1.13408  -1.13368  -1.12937  -1.12923  -1.12912
 Alpha  occ. eigenvalues --   -0.17369  -0.13286  -0.11641  -0.10403
 Alpha virt. eigenvalues --   -0.06253  -0.05732  -0.05103  -0.03033  -0.02585
 Alpha virt. eigenvalues --   -0.02461  -0.01980  -0.01658  -0.01174  -0.00708
 Alpha virt. eigenvalues --   -0.00164   0.00220   0.00534   0.00621   0.00712

  Beta  occ. eigenvalues --  -38.44630 -38.44547 -38.44114 -38.44100 -38.43982
  Beta  occ. eigenvalues --  -38.43849 -38.43481  -2.20411  -2.20308  -2.19934
  Beta  occ. eigenvalues --   -2.19865  -2.19842  -2.19566  -2.19266  -1.14091
  Beta  occ. eigenvalues --   -1.14084  -1.14043  -1.13976  -1.13968  -1.13929
  Beta  occ. eigenvalues --   -1.13705  -1.13601  -1.13547  -1.13545  -1.13537
  Beta  occ. eigenvalues --   -1.13516  -1.13493  -1.13484  -1.13469  -1.13292
  Beta  occ. eigenvalues --   -1.13268  -1.13219  -1.12939  -1.12916  -1.12908
  Beta  occ. eigenvalues --   -0.16710  -0.13126  -0.11522
  Beta virt. eigenvalues --   -0.06561  -0.05996  -0.05578  -0.05044  -0.02568
  Beta virt. eigenvalues --   -0.01986  -0.01850  -0.01646  -0.01434  -0.01137
  Beta virt. eigenvalues --   -0.00654   0.00091   0.00289   0.00615   0.00681

 Mulliken charges and spin densities:
               1          2
     1  Na   0.730652   0.125550
     2  Na   0.020358  -0.009661
     3  Na   0.019606   0.043763
     4  Na   0.150331   0.023061
     5  Na  -0.099676  -0.010283
     6  Na  -0.246300   0.049526
     7  Na  -0.574973   0.778045
 Sum of Mulliken charges =  -0.00000   1.00000

 Dipole moment (field-independent basis, Debye):
    X=              0.5941    Y=             -0.2524    Z=             -0.0186  Tot=              0.6458
 Quadrupole moment (field-independent basis, Debye-Ang):
   XX=            -57.9537   YY=            -58.5614   ZZ=            -77.0999
   XY=             -0.5641   XZ=              1.6339   YZ=              1.0060

 Normal termination of Gaussian 16 at Thu Dec  7 20:37:03 2023.
