 Gaussian 16, Revision B.01,
 Gaussian 16:  ES64L-G16RevB.01 20-Dec-2017

 -------------------------
 #P B3LYP/6-311+g(d) force
 -------------------------

 -----
 DPGEN
 -----
 Symbolic Z-matrix:
 Charge =  0 Multiplicity = 2

                         Standard orientation:
 ---------------------------------------------------------------------
 Center     Atomic      Atomic             Coordinates (Angstroms)
 Number     Number       Type             X           Y           Z
 ---------------------------------------------------------------------
      1         11           0       -0.411220   -1.973375    0.455931
      2         11           0       -3.512024   -3.080096   -0.364447
      3         11           0       -2.649275    0.572752   -0.575533
      4         11           0       -1.872941    4.078611   -0.257611
      5         11           0        0.049249    1.107577    1.091464
      6         11           0        2.750610   -0.502855    0.407115
      7         11           0        5.645602   -0.202614   -0.756919
 ---------------------------------------------------------------------

 SCF Done:  E(UB3LYP) =  -1136.12374141     A.U. after   19 cycles

 The electronic state is 2-A.
 Alpha  occ. eigenvalues --  -38.44465 -38.44363 -38.44118 -38.44105 -38.43935
 Alpha  occ. eigenvalues --  -38.43816 -38.42990  -2.20293  -2.20210  -2.20035
 Alpha  occ. eigenvalues --   -2.19892  -2.19737  -2.19723  -2.18875  -1.13969
 Alpha  occ. eigenvalues --   -1.13938  -1.13914  -1.13913  -1.13913  -1.13773
 Alpha  occ. eigenvalues --   -1.13748  -1.13709  -1.13625  -1.13561  -1.13559
 Alpha  occ. eigenvalues --   -1.13503  -1.13420  -1.13408  -1.13404  -1.13393
 Alpha  occ. eigenvalues --   -1.13370  -1.13289  -1.12566  -1.12542  -1.12537
 Alpha  occ. eigenvalues --   -0.17431  -0.13862  -0.12560  -0.11327
 Alpha virt. eigenvalues --   -0.05967  -0.05115  -0.04640  -0.03870  -0.02387
 Alpha virt. eigenvalues --   -0.02107  -0.01965  -0.01877  -0.01352  -0.00830
 Alpha virt. eigenvalues --   -0.00295   0.00053   0.00172   0.00560   0.00678

  Beta  occ. eigenvalues --  -38.44359 -38.44353 -38.44102 -38.44066 -38.43906
  Beta  occ. eigenvalues --  -38.43791 -38.42982  -2.20193  -2.20094  -2.19968
  Beta  occ. eigenvalues --   -2.19863  -2.19681  -2.19681  -2.18873  -1.13950
  Beta  occ. eigenvalues --   -1.13902  -1.13807  -1.13778  -1.13778  -1.13757
  Beta  occ. eigenvalues --   -1.13708  -1.13669  -1.13558  -1.13540  -1.13535
  Beta  occ. eigenvalues --   -1.13484  -1.13391  -1.13383  -1.13368  -1.13356
  Beta  occ. eigenvalues --   -1.13328  -1.13235  -1.12570  -1.12549  -1.12456
  Beta  occ. eigenvalues --   -0.16848  -0.12897  -0.12349
  Beta virt. eigenvalues --   -0.07906  -0.05761  -0.04882  -0.04226  -0.03607
  Beta virt. eigenvalues --   -0.02197  -0.01832  -0.01735  -0.01333  -0.01067
  Beta virt. eigenvalues --   -0.00535  -0.00025   0.00154   0.00343   0.00636

 Mulliken charges and spin densities:
               1          2
     1  Na  -0.553647  -0.039886
     2  Na   1.201223   0.126045
     3  Na  -0.449172   0.168383
     4  Na   0.763319   0.078547
     5  Na  -0.947847   0.059115
     6  Na   0.172357   0.084306
     7  Na  -0.186232   0.523491
 Sum of Mulliken charges =  -0.00000   1.00000

 Dipole moment (field-independent basis, Debye):
    X=             -0.6853    Y=              0.3603    Z=             -0.1881  Tot=              0.7968
 Quadrupole moment (field-independent basis, Debye-Ang):
   XX=            -63.4451   YY=            -59.1299   ZZ=            -70.8615
   XY=              2.3401   XZ=             -0.4137   YZ=             -0.2738

 Normal termination of Gaussian 16 at Wed Nov 29 02:35:18 2023.
