 Gaussian 16, Revision B.01,
 Gaussian 16:  ES64L-G16RevB.01 20-Dec-2017

 -------------------------
 #P B3LYP/6-311+g(d) force
 -------------------------

 -----
 DPGEN
 -----
 Symbolic Z-matrix:
 Charge =  0 Multiplicity = 2

                         Standard orientation:
 ---------------------------------------------------------------------
 Center     Atomic      Atomic             Coordinates (Angstroms)
 Number     Number       Type             X           Y           Z
 ---------------------------------------------------------------------
      1         11           0       -0.606974   -1.544436    1.194932
      2         11           0       -2.729294   -3.428876   -0.504223
      3         11           0       -3.305735    0.357242   -0.480696
      4         11           0        0.297182    1.565118   -0.774076
      5         11           0        2.492251   -0.219158    0.509815
      6         11           0       -2.201789    3.492215    0.437119
      7         11           0        6.054360   -0.222105   -0.382870
 ---------------------------------------------------------------------

 SCF Done:  E(UB3LYP) =  -1136.12228795     A.U. after   19 cycles

 The electronic state is 2-A.
 Alpha  occ. eigenvalues --  -38.44581 -38.44440 -38.44281 -38.44073 -38.44050
 Alpha  occ. eigenvalues --  -38.43989 -38.42795  -2.20376  -2.20249  -2.20149
 Alpha  occ. eigenvalues --   -2.19925  -2.19841  -2.19797  -2.18655  -1.14005
 Alpha  occ. eigenvalues --   -1.14004  -1.13979  -1.13958  -1.13944  -1.13839
 Alpha  occ. eigenvalues --   -1.13829  -1.13817  -1.13778  -1.13619  -1.13604
 Alpha  occ. eigenvalues --   -1.13563  -1.13505  -1.13492  -1.13462  -1.13458
 Alpha  occ. eigenvalues --   -1.13449  -1.13424  -1.12357  -1.12318  -1.12300
 Alpha  occ. eigenvalues --   -0.17000  -0.13530  -0.12616  -0.11083
 Alpha virt. eigenvalues --   -0.06022  -0.05808  -0.04459  -0.03726  -0.02504
 Alpha virt. eigenvalues --   -0.02370  -0.01834  -0.01676  -0.01515  -0.00700
 Alpha virt. eigenvalues --   -0.00373  -0.00042   0.00427   0.00471   0.00545

  Beta  occ. eigenvalues --  -38.44445 -38.44421 -38.44265 -38.44051 -38.44042
  Beta  occ. eigenvalues --  -38.43985 -38.42789  -2.20214  -2.20123  -2.20120
  Beta  occ. eigenvalues --   -2.19887  -2.19826  -2.19789  -2.18653  -1.13934
  Beta  occ. eigenvalues --   -1.13920  -1.13833  -1.13832  -1.13821  -1.13811
  Beta  occ. eigenvalues --   -1.13801  -1.13788  -1.13761  -1.13598  -1.13582
  Beta  occ. eigenvalues --   -1.13531  -1.13495  -1.13474  -1.13456  -1.13450
  Beta  occ. eigenvalues --   -1.13432  -1.13419  -1.12360  -1.12325  -1.12239
  Beta  occ. eigenvalues --   -0.16604  -0.12640  -0.12486
  Beta virt. eigenvalues --   -0.07356  -0.05826  -0.05716  -0.03874  -0.03576
  Beta virt. eigenvalues --   -0.02297  -0.02241  -0.01709  -0.01058  -0.01011
  Beta virt. eigenvalues --   -0.00304  -0.00155   0.00116   0.00547   0.00564

 Mulliken charges and spin densities:
               1          2
     1  Na  -0.053363  -0.154990
     2  Na   0.487196   0.059487
     3  Na  -0.081150   0.266997
     4  Na  -0.471556  -0.153241
     5  Na  -0.005559   0.344330
     6  Na   0.351548   0.051725
     7  Na  -0.227116   0.585691
 Sum of Mulliken charges =  -0.00000   1.00000

 Dipole moment (field-independent basis, Debye):
    X=             -1.3697    Y=              0.1821    Z=             -0.1171  Tot=              1.3867
 Quadrupole moment (field-independent basis, Debye-Ang):
   XX=            -70.3023   YY=            -61.4736   ZZ=            -67.6604
   XY=              1.3391   XZ=             -0.3159   YZ=              2.6687

 Normal termination of Gaussian 16 at Wed Nov 29 02:40:34 2023.
