 Gaussian 16, Revision B.01,
 Gaussian 16:  ES64L-G16RevB.01 20-Dec-2017

 -------------------------
 #P B3LYP/6-311+g(d) force
 -------------------------

 -----
 DPGEN
 -----
 Symbolic Z-matrix:
 Charge =  0 Multiplicity = 2

                         Standard orientation:
 ---------------------------------------------------------------------
 Center     Atomic      Atomic             Coordinates (Angstroms)
 Number     Number       Type             X           Y           Z
 ---------------------------------------------------------------------
      1         11           0        0.043225   -2.921898    0.559713
      2         11           0        3.056736   -2.803728   -0.290438
      3         11           0        3.280413    0.483411   -0.665259
      4         11           0       -0.070118    0.879958    0.389552
      5         11           0       -2.877792    0.502915    1.500199
      6         11           0        1.828441    4.079838   -0.066024
      7         11           0       -5.260904   -0.220496   -1.427743
 ---------------------------------------------------------------------

 SCF Done:  E(UB3LYP) =  -1136.11340235     A.U. after   22 cycles

 The electronic state is 2-A.
 Alpha  occ. eigenvalues --  -38.44967 -38.44771 -38.44591 -38.44487 -38.43968
 Alpha  occ. eigenvalues --  -38.43868 -38.43618  -2.20760  -2.20508  -2.20374
 Alpha  occ. eigenvalues --   -2.20293  -2.19766  -2.19711  -2.19493  -1.14434
 Alpha  occ. eigenvalues --   -1.14427  -1.14391  -1.14187  -1.14177  -1.14128
 Alpha  occ. eigenvalues --   -1.14008  -1.14008  -1.13983  -1.13977  -1.13971
 Alpha  occ. eigenvalues --   -1.13893  -1.13522  -1.13415  -1.13408  -1.13375
 Alpha  occ. eigenvalues --   -1.13362  -1.13357  -1.13181  -1.13166  -1.13074
 Alpha  occ. eigenvalues --   -0.16508  -0.13553  -0.12498  -0.10862
 Alpha virt. eigenvalues --   -0.06937  -0.05497  -0.04515  -0.03832  -0.02513
 Alpha virt. eigenvalues --   -0.02224  -0.01998  -0.01692  -0.01465  -0.00953
 Alpha virt. eigenvalues --   -0.00443  -0.00018   0.00080   0.00263   0.00537

  Beta  occ. eigenvalues --  -38.44951 -38.44776 -38.44459 -38.44456 -38.43981
  Beta  occ. eigenvalues --  -38.43857 -38.43591  -2.20729  -2.20518  -2.20242
  Beta  occ. eigenvalues --   -2.20124  -2.19795  -2.19691  -2.19444  -1.14413
  Beta  occ. eigenvalues --   -1.14410  -1.14365  -1.14194  -1.14181  -1.14135
  Beta  occ. eigenvalues --   -1.13950  -1.13943  -1.13850  -1.13838  -1.13837
  Beta  occ. eigenvalues --   -1.13805  -1.13527  -1.13436  -1.13410  -1.13353
  Beta  occ. eigenvalues --   -1.13350  -1.13343  -1.13146  -1.13139  -1.13035
  Beta  occ. eigenvalues --   -0.16133  -0.12896  -0.12393
  Beta virt. eigenvalues --   -0.07211  -0.06494  -0.05235  -0.04268  -0.03527
  Beta virt. eigenvalues --   -0.02333  -0.02018  -0.01756  -0.01332  -0.01151
  Beta virt. eigenvalues --   -0.00729   0.00038   0.00138   0.00258   0.00490

 Mulliken charges and spin densities:
               1          2
     1  Na   1.380225  -0.056518
     2  Na  -0.730856   0.056746
     3  Na   0.835318   0.340995
     4  Na  -2.929268   0.130949
     5  Na   0.834972  -0.251124
     6  Na   0.392357   0.064306
     7  Na   0.217251   0.714646
 Sum of Mulliken charges =  -0.00000   1.00000

 Dipole moment (field-independent basis, Debye):
    X=              1.0385    Y=              0.0734    Z=              0.1461  Tot=              1.0513
 Quadrupole moment (field-independent basis, Debye-Ang):
   XX=            -71.5311   YY=            -56.0298   ZZ=            -70.8734
   XY=              1.4854   XZ=             -2.5299   YZ=              0.6399

 Normal termination of Gaussian 16 at Tue Nov 28 20:35:09 2023.
