 Gaussian 16, Revision B.01,
 Gaussian 16:  ES64L-G16RevB.01 20-Dec-2017

 -------------------------
 #P B3LYP/6-311+g(d) force
 -------------------------

 -----
 DPGEN
 -----
 Symbolic Z-matrix:
 Charge =  0 Multiplicity = 2

                         Standard orientation:
 ---------------------------------------------------------------------
 Center     Atomic      Atomic             Coordinates (Angstroms)
 Number     Number       Type             X           Y           Z
 ---------------------------------------------------------------------
      1         11           0        0.222207    0.241723   -1.652075
      2         11           0        0.244125   -0.553492    2.003399
      3         11           0       -3.531924   -0.275823   -0.021476
      4         11           0       -0.864352   -2.589675   -0.270278
      5         11           0        3.336600   -1.289132   -0.268431
      6         11           0        2.051228    2.189055    0.219058
      7         11           0       -1.457884    2.277344   -0.010196
 ---------------------------------------------------------------------

 SCF Done:  E(UB3LYP) =  -1136.13022658     A.U. after   21 cycles

 The electronic state is 2-A.
 Alpha  occ. eigenvalues --  -38.44954 -38.44833 -38.43640 -38.43459 -38.43391
 Alpha  occ. eigenvalues --  -38.43352 -38.43001  -2.20713  -2.20629  -2.19488
 Alpha  occ. eigenvalues --   -2.19357  -2.19340  -2.19206  -2.18890  -1.14388
 Alpha  occ. eigenvalues --   -1.14368  -1.14349  -1.14307  -1.14290  -1.14264
 Alpha  occ. eigenvalues --   -1.13198  -1.13155  -1.13114  -1.13066  -1.13035
 Alpha  occ. eigenvalues --   -1.13013  -1.12981  -1.12968  -1.12948  -1.12878
 Alpha  occ. eigenvalues --   -1.12864  -1.12811  -1.12584  -1.12543  -1.12514
 Alpha  occ. eigenvalues --   -0.18439  -0.13230  -0.12050  -0.10497
 Alpha virt. eigenvalues --   -0.06652  -0.05281  -0.04047  -0.03208  -0.02778
 Alpha virt. eigenvalues --   -0.02375  -0.02256  -0.01285  -0.00470  -0.00140
 Alpha virt. eigenvalues --   -0.00084   0.00250   0.00692   0.00740   0.00815

  Beta  occ. eigenvalues --  -38.44950 -38.44835 -38.43634 -38.43368 -38.43342
  Beta  occ. eigenvalues --  -38.43329 -38.42995  -2.20707  -2.20635  -2.19479
  Beta  occ. eigenvalues --   -2.19244  -2.19193  -2.19171  -2.18883  -1.14369
  Beta  occ. eigenvalues --   -1.14365  -1.14347  -1.14312  -1.14282  -1.14270
  Beta  occ. eigenvalues --   -1.13186  -1.13124  -1.13112  -1.12991  -1.12959
  Beta  occ. eigenvalues --   -1.12926  -1.12891  -1.12871  -1.12845  -1.12833
  Beta  occ. eigenvalues --   -1.12807  -1.12802  -1.12573  -1.12522  -1.12505
  Beta  occ. eigenvalues --   -0.17721  -0.13048  -0.11808
  Beta virt. eigenvalues --   -0.06646  -0.06545  -0.05274  -0.04014  -0.02505
  Beta virt. eigenvalues --   -0.02218  -0.01966  -0.01318  -0.01222  -0.00497
  Beta virt. eigenvalues --   -0.00165   0.00076   0.00281   0.00746   0.00822

 Mulliken charges and spin densities:
               1          2
     1  Na  -0.297168   0.540339
     2  Na  -0.520816   0.655914
     3  Na   0.020667  -0.026360
     4  Na   0.260782  -0.097131
     5  Na   0.126553  -0.096153
     6  Na   0.166863   0.011167
     7  Na   0.243118   0.012223
 Sum of Mulliken charges =  -0.00000   1.00000

 Dipole moment (field-independent basis, Debye):
    X=              0.2430    Y=             -0.2925    Z=              0.1038  Tot=              0.3942
 Quadrupole moment (field-independent basis, Debye-Ang):
   XX=            -48.3488   YY=            -67.7591   ZZ=            -75.5396
   XY=             -0.1471   XZ=             -0.1741   YZ=              1.8426

 Normal termination of Gaussian 16 at Thu Dec  7 19:17:37 2023.
