 Gaussian 16, Revision B.01,
 Gaussian 16:  ES64L-G16RevB.01 20-Dec-2017

 -------------------------
 #P B3LYP/6-311+g(d) force
 -------------------------

 -----
 DPGEN
 -----
 Symbolic Z-matrix:
 Charge =  0 Multiplicity = 2

                         Standard orientation:
 ---------------------------------------------------------------------
 Center     Atomic      Atomic             Coordinates (Angstroms)
 Number     Number       Type             X           Y           Z
 ---------------------------------------------------------------------
      1         11           0       -0.098407    0.024585   -1.827342
      2         11           0        0.441746   -2.139502   -0.039278
      3         11           0        2.477950   -0.356641   -0.095947
      4         11           0       -1.762023    1.533389   -0.019344
      5         11           0        0.124180    0.033473    1.885321
      6         11           0        0.919867    2.127510    0.003384
      7         11           0       -2.103313   -1.222814    0.093205
 ---------------------------------------------------------------------

 SCF Done:  E(UB3LYP) =  -1136.08119056     A.U. after   17 cycles

 The electronic state is 2-A.
 Alpha  occ. eigenvalues --  -38.44249 -38.44230 -38.43693 -38.43688 -38.43674
 Alpha  occ. eigenvalues --  -38.43656 -38.43434  -2.20486  -2.20425  -2.19917
 Alpha  occ. eigenvalues --   -2.19838  -2.19789  -2.19760  -2.19569  -1.14308
 Alpha  occ. eigenvalues --   -1.14224  -1.14163  -1.14136  -1.14118  -1.14063
 Alpha  occ. eigenvalues --   -1.13928  -1.13754  -1.13696  -1.13624  -1.13495
 Alpha  occ. eigenvalues --   -1.13489  -1.13416  -1.13381  -1.13362  -1.13329
 Alpha  occ. eigenvalues --   -1.13272  -1.13186  -1.13184  -1.13168  -1.13050
 Alpha  occ. eigenvalues --   -0.21802  -0.13611  -0.13235  -0.12552
 Alpha virt. eigenvalues --   -0.04920  -0.04241  -0.04182  -0.03657  -0.03506
 Alpha virt. eigenvalues --   -0.03100  -0.00790  -0.00509  -0.00140   0.00356
 Alpha virt. eigenvalues --    0.00889   0.00930   0.01096   0.01206   0.01240

  Beta  occ. eigenvalues --  -38.44152 -38.44131 -38.43676 -38.43676 -38.43663
  Beta  occ. eigenvalues --  -38.43642 -38.43421  -2.20310  -2.20246  -2.19895
  Beta  occ. eigenvalues --   -2.19821  -2.19773  -2.19746  -2.19552  -1.14221
  Beta  occ. eigenvalues --   -1.14107  -1.14056  -1.14027  -1.13994  -1.13945
  Beta  occ. eigenvalues --   -1.13900  -1.13745  -1.13667  -1.13603  -1.13481
  Beta  occ. eigenvalues --   -1.13414  -1.13342  -1.13325  -1.13314  -1.13298
  Beta  occ. eigenvalues --   -1.13266  -1.13180  -1.13162  -1.13114  -1.13046
  Beta  occ. eigenvalues --   -0.20937  -0.13232  -0.12844
  Beta virt. eigenvalues --   -0.08337  -0.04959  -0.04228  -0.04165  -0.02687
  Beta virt. eigenvalues --   -0.02531  -0.02006  -0.00732  -0.00462   0.00015
  Beta virt. eigenvalues --    0.00373   0.00855   0.00894   0.01146   0.01197

 Mulliken charges and spin densities:
               1          2
     1  Na  -0.252106   0.415769
     2  Na   0.176768   0.085615
     3  Na   0.025226  -0.030254
     4  Na   0.157177   0.042895
     5  Na  -0.304220   0.456193
     6  Na   0.156278   0.031876
     7  Na   0.040878  -0.002094
 Sum of Mulliken charges =  -0.00000   1.00000

 Dipole moment (field-independent basis, Debye):
    X=              0.0865    Y=              0.0839    Z=              0.0991  Tot=              0.1561
 Quadrupole moment (field-independent basis, Debye-Ang):
   XX=            -63.6761   YY=            -68.3138   ZZ=            -67.0509
   XY=              0.3247   XZ=             -0.4409   YZ=             -0.0421

 Normal termination of Gaussian 16 at Sat Dec  9 06:33:17 2023.
