 Gaussian 16, Revision B.01,
 Gaussian 16:  ES64L-G16RevB.01 20-Dec-2017

 -------------------------
 #P B3LYP/6-311+g(d) force
 -------------------------

 -----
 DPGEN
 -----
 Symbolic Z-matrix:
 Charge =  0 Multiplicity = 2

                         Standard orientation:
 ---------------------------------------------------------------------
 Center     Atomic      Atomic             Coordinates (Angstroms)
 Number     Number       Type             X           Y           Z
 ---------------------------------------------------------------------
      1         11           0        1.623091   -0.975580   -1.501967
      2         11           0       -1.754289    0.411978   -1.780157
      3         11           0       -2.544856    1.028367    0.919023
      4         11           0        3.642207   -0.068939    0.357701
      5         11           0        0.550592    2.489674   -0.088629
      6         11           0       -1.763348   -2.246374    0.058068
      7         11           0        0.246602   -0.639125    2.035962
 ---------------------------------------------------------------------

 SCF Done:  E(UB3LYP) =  -1136.12474019     A.U. after   23 cycles

 The electronic state is 2-A.
 Alpha  occ. eigenvalues --  -38.44792 -38.44183 -38.44157 -38.44145 -38.43976
 Alpha  occ. eigenvalues --  -38.42868 -38.42706  -2.20628  -2.20115  -2.20049
 Alpha  occ. eigenvalues --   -2.20033  -2.19935  -2.18692  -2.18598  -1.14404
 Alpha  occ. eigenvalues --   -1.14263  -1.14245  -1.13961  -1.13793  -1.13713
 Alpha  occ. eigenvalues --   -1.13707  -1.13695  -1.13686  -1.13670  -1.13656
 Alpha  occ. eigenvalues --   -1.13645  -1.13583  -1.13552  -1.13507  -1.12384
 Alpha  occ. eigenvalues --   -1.12376  -1.12301  -1.12277  -1.12270  -1.12233
 Alpha  occ. eigenvalues --   -0.18846  -0.13784  -0.11831  -0.11318
 Alpha virt. eigenvalues --   -0.06324  -0.04855  -0.04314  -0.03377  -0.03141
 Alpha virt. eigenvalues --   -0.02811  -0.01842  -0.00702  -0.00449  -0.00023
 Alpha virt. eigenvalues --    0.00206   0.00366   0.00409   0.00835   0.00896

  Beta  occ. eigenvalues --  -38.44794 -38.44164 -38.44118 -38.44069 -38.43920
  Beta  occ. eigenvalues --  -38.42862 -38.42701  -2.20633  -2.20084  -2.19977
  Beta  occ. eigenvalues --   -2.19894  -2.19834  -2.18685  -2.18594  -1.14402
  Beta  occ. eigenvalues --   -1.14260  -1.14248  -1.13924  -1.13748  -1.13676
  Beta  occ. eigenvalues --   -1.13658  -1.13645  -1.13615  -1.13606  -1.13567
  Beta  occ. eigenvalues --   -1.13545  -1.13509  -1.13494  -1.13433  -1.12382
  Beta  occ. eigenvalues --   -1.12350  -1.12301  -1.12279  -1.12250  -1.12216
  Beta  occ. eigenvalues --   -0.18038  -0.13656  -0.11114
  Beta virt. eigenvalues --   -0.07805  -0.06150  -0.04463  -0.03938  -0.03225
  Beta virt. eigenvalues --   -0.02315  -0.02062  -0.01733  -0.00488  -0.00267
  Beta virt. eigenvalues --    0.00052   0.00288   0.00372   0.00527   0.00913

 Mulliken charges and spin densities:
               1          2
     1  Na  -0.263681   0.054771
     2  Na   0.210724   0.427004
     3  Na   0.475887   0.083949
     4  Na   0.375584  -0.000326
     5  Na  -0.470062  -0.050572
     6  Na   0.006324  -0.037953
     7  Na  -0.334777   0.523128
 Sum of Mulliken charges =  -0.00000   1.00000

 Dipole moment (field-independent basis, Debye):
    X=              0.7173    Y=              0.0444    Z=              0.2897  Tot=              0.7749
 Quadrupole moment (field-independent basis, Debye-Ang):
   XX=            -54.0198   YY=            -75.7846   ZZ=            -66.2736
   XY=              0.6555   XZ=              1.2212   YZ=              2.4874

 Normal termination of Gaussian 16 at Fri Dec  8 07:15:28 2023.
