 Gaussian 16, Revision B.01,
 Gaussian 16:  ES64L-G16RevB.01 20-Dec-2017

 -------------------------
 #P B3LYP/6-311+g(d) force
 -------------------------

 -----
 DPGEN
 -----
 Symbolic Z-matrix:
 Charge =  0 Multiplicity = 2

                         Standard orientation:
 ---------------------------------------------------------------------
 Center     Atomic      Atomic             Coordinates (Angstroms)
 Number     Number       Type             X           Y           Z
 ---------------------------------------------------------------------
      1         11           0       -4.079455    1.699110   -0.681242
      2         11           0        2.157696   -1.433862   -0.199354
      3         11           0       -4.976369   -2.175098    0.382529
      4         11           0       -1.741119   -0.485773   -0.382695
      5         11           0       -0.440904    2.056425    1.087569
      6         11           0        5.254978   -1.423554    0.111151
      7         11           0        3.825173    1.762753   -0.317957
 ---------------------------------------------------------------------

 SCF Done:  E(UB3LYP) =  -1136.10598052     A.U. after   29 cycles

 The electronic state is 2-A.
 Alpha  occ. eigenvalues --  -38.45540 -38.45374 -38.44574 -38.44103 -38.43854
 Alpha  occ. eigenvalues --  -38.43485 -38.43189  -2.21318  -2.21156  -2.20389
 Alpha  occ. eigenvalues --   -2.19851  -2.19711  -2.19375  -2.18974  -1.14997
 Alpha  occ. eigenvalues --   -1.14970  -1.14923  -1.14852  -1.14815  -1.14750
 Alpha  occ. eigenvalues --   -1.14093  -1.14051  -1.14021  -1.13525  -1.13520
 Alpha  occ. eigenvalues --   -1.13464  -1.13392  -1.13360  -1.13322  -1.13084
 Alpha  occ. eigenvalues --   -1.13072  -1.12975  -1.12660  -1.12640  -1.12608
 Alpha  occ. eigenvalues --   -0.16365  -0.14742  -0.10951  -0.10278
 Alpha virt. eigenvalues --   -0.07583  -0.05449  -0.04766  -0.03411  -0.02919
 Alpha virt. eigenvalues --   -0.02602  -0.01906  -0.01662  -0.01305  -0.00573
 Alpha virt. eigenvalues --   -0.00374  -0.00005   0.00036   0.00237   0.00312

  Beta  occ. eigenvalues --  -38.45491 -38.45341 -38.44588 -38.44079 -38.43797
  Beta  occ. eigenvalues --  -38.43455 -38.43197  -2.21225  -2.21094  -2.20417
  Beta  occ. eigenvalues --   -2.19807  -2.19606  -2.19324  -2.18990  -1.14933
  Beta  occ. eigenvalues --   -1.14905  -1.14860  -1.14811  -1.14774  -1.14700
  Beta  occ. eigenvalues --   -1.14109  -1.14072  -1.14027  -1.13494  -1.13488
  Beta  occ. eigenvalues --   -1.13436  -1.13323  -1.13290  -1.13239  -1.13055
  Beta  occ. eigenvalues --   -1.13015  -1.12925  -1.12665  -1.12649  -1.12615
  Beta  occ. eigenvalues --   -0.15807  -0.14453  -0.10836
  Beta virt. eigenvalues --   -0.07108  -0.06776  -0.05216  -0.04313  -0.03244
  Beta virt. eigenvalues --   -0.02872  -0.01973  -0.01594  -0.01342  -0.01224
  Beta virt. eigenvalues --   -0.00333  -0.00082   0.00085   0.00177   0.00332

 Mulliken charges and spin densities:
               1          2
     1  Na   0.585668   0.149339
     2  Na  -1.228413   0.090023
     3  Na   0.377745   0.137128
     4  Na  -1.197762  -0.027012
     5  Na  -0.059779  -0.016307
     6  Na   1.569865   0.373265
     7  Na  -0.047323   0.293562
 Sum of Mulliken charges =  -0.00000   1.00000

 Dipole moment (field-independent basis, Debye):
    X=              0.9492    Y=              0.6420    Z=             -0.0466  Tot=              1.1469
 Quadrupole moment (field-independent basis, Debye-Ang):
   XX=            -55.7342   YY=            -65.1915   ZZ=            -71.1325
   XY=             -5.5034   XZ=              0.5266   YZ=             -3.3345

 Normal termination of Gaussian 16 at Sun Dec  3 12:06:42 2023.
