 Gaussian 16, Revision B.01,
 Gaussian 16:  ES64L-G16RevB.01 20-Dec-2017

 -------------------------
 #P B3LYP/6-311+g(d) force
 -------------------------

 -----
 DPGEN
 -----
 Symbolic Z-matrix:
 Charge =  0 Multiplicity = 2

                         Standard orientation:
 ---------------------------------------------------------------------
 Center     Atomic      Atomic             Coordinates (Angstroms)
 Number     Number       Type             X           Y           Z
 ---------------------------------------------------------------------
      1         11           0        1.978466    3.228387   -0.412762
      2         11           0       -1.178308    3.670580   -0.211364
      3         11           0       -3.445983   -2.171831    0.880945
      4         11           0       -0.270391   -3.523397   -0.837450
      5         11           0       -3.823038    1.065802   -0.080742
      6         11           0        2.850795   -2.313519   -0.478451
      7         11           0        3.888459    0.043978    1.139823
 ---------------------------------------------------------------------

 SCF Done:  E(UB3LYP) =  -1136.10755395     A.U. after   21 cycles

 The electronic state is 2-A.
 Alpha  occ. eigenvalues --  -38.45138 -38.44994 -38.44773 -38.44432 -38.44146
 Alpha  occ. eigenvalues --  -38.44141 -38.44065  -2.20912  -2.20748  -2.20550
 Alpha  occ. eigenvalues --   -2.20256  -2.19942  -2.19940  -2.19897  -1.14583
 Alpha  occ. eigenvalues --   -1.14581  -1.14546  -1.14427  -1.14417  -1.14398
 Alpha  occ. eigenvalues --   -1.14217  -1.14204  -1.14172  -1.13982  -1.13920
 Alpha  occ. eigenvalues --   -1.13917  -1.13605  -1.13604  -1.13591  -1.13586
 Alpha  occ. eigenvalues --   -1.13584  -1.13560  -1.13537  -1.13529  -1.13514
 Alpha  occ. eigenvalues --   -0.15564  -0.13914  -0.13568  -0.10852
 Alpha virt. eigenvalues --   -0.07702  -0.04748  -0.04472  -0.03579  -0.03404
 Alpha virt. eigenvalues --   -0.02414  -0.02152  -0.01756  -0.01494  -0.01087
 Alpha virt. eigenvalues --   -0.00511  -0.00015   0.00048   0.00315   0.00714

  Beta  occ. eigenvalues --  -38.45114 -38.44996 -38.44737 -38.44421 -38.44129
  Beta  occ. eigenvalues --  -38.44060 -38.43999  -2.20873  -2.20755  -2.20482
  Beta  occ. eigenvalues --   -2.20246  -2.19913  -2.19793  -2.19774  -1.14558
  Beta  occ. eigenvalues --   -1.14555  -1.14500  -1.14435  -1.14423  -1.14380
  Beta  occ. eigenvalues --   -1.14172  -1.14161  -1.14123  -1.13945  -1.13920
  Beta  occ. eigenvalues --   -1.13884  -1.13587  -1.13585  -1.13553  -1.13491
  Beta  occ. eigenvalues --   -1.13488  -1.13465  -1.13453  -1.13444  -1.13431
  Beta  occ. eigenvalues --   -0.15002  -0.13219  -0.12818
  Beta virt. eigenvalues --   -0.07897  -0.07644  -0.04361  -0.03979  -0.03346
  Beta virt. eigenvalues --   -0.03056  -0.02186  -0.01959  -0.01644  -0.01349
  Beta virt. eigenvalues --   -0.00722  -0.00256   0.00198   0.00278   0.00279

 Mulliken charges and spin densities:
               1          2
     1  Na  -0.146518   0.106694
     2  Na   0.185702   0.037965
     3  Na   0.140494  -0.021069
     4  Na   0.014309   0.326600
     5  Na  -0.168021   0.195123
     6  Na   0.008071   0.091763
     7  Na  -0.034038   0.262924
 Sum of Mulliken charges =  -0.00000   1.00000

 Dipole moment (field-independent basis, Debye):
    X=             -0.3692    Y=              0.3509    Z=              0.1722  Tot=              0.5377
 Quadrupole moment (field-independent basis, Debye-Ang):
   XX=            -63.7110   YY=            -66.7208   ZZ=            -70.7847
   XY=              2.8349   XZ=             -0.8478   YZ=             -1.2087

 Normal termination of Gaussian 16 at Sun Dec  3 18:34:12 2023.
