 Gaussian 16, Revision B.01,
 Gaussian 16:  ES64L-G16RevB.01 20-Dec-2017

 -------------------------
 #P B3LYP/6-311+g(d) force
 -------------------------

 -----
 DPGEN
 -----
 Symbolic Z-matrix:
 Charge =  0 Multiplicity = 2

                         Standard orientation:
 ---------------------------------------------------------------------
 Center     Atomic      Atomic             Coordinates (Angstroms)
 Number     Number       Type             X           Y           Z
 ---------------------------------------------------------------------
      1         11           0       -1.272988   -2.891569   -0.138654
      2         11           0        2.312700    1.995728   -0.421282
      3         11           0       -3.327682   -0.117018    0.051816
      4         11           0        3.346920   -1.499950    0.012750
      5         11           0       -1.323810    2.796143    0.002853
      6         11           0       -0.113281   -0.291124   -1.516183
      7         11           0        0.378141    0.007790    2.008700
 ---------------------------------------------------------------------

 SCF Done:  E(UB3LYP) =  -1136.13192640     A.U. after   21 cycles

 The electronic state is 2-A.
 Alpha  occ. eigenvalues --  -38.44855 -38.44584 -38.44017 -38.43621 -38.43497
 Alpha  occ. eigenvalues --  -38.43265 -38.43192  -2.20606  -2.20394  -2.19835
 Alpha  occ. eigenvalues --   -2.19452  -2.19350  -2.19202  -2.19005  -1.14279
 Alpha  occ. eigenvalues --   -1.14266  -1.14244  -1.14071  -1.14053  -1.14034
 Alpha  occ. eigenvalues --   -1.13519  -1.13503  -1.13455  -1.13172  -1.13105
 Alpha  occ. eigenvalues --   -1.13080  -1.13031  -1.12979  -1.12957  -1.12894
 Alpha  occ. eigenvalues --   -1.12837  -1.12816  -1.12676  -1.12669  -1.12651
 Alpha  occ. eigenvalues --   -0.18053  -0.13210  -0.12035  -0.10188
 Alpha virt. eigenvalues --   -0.06408  -0.05473  -0.04656  -0.03171  -0.02532
 Alpha virt. eigenvalues --   -0.02276  -0.02061  -0.01384  -0.00808  -0.00547
 Alpha virt. eigenvalues --   -0.00045   0.00284   0.00681   0.00741   0.00798

  Beta  occ. eigenvalues --  -38.44857 -38.44583 -38.44003 -38.43617 -38.43401
  Beta  occ. eigenvalues --  -38.43211 -38.43190  -2.20611  -2.20394  -2.19813
  Beta  occ. eigenvalues --   -2.19447  -2.19175  -2.19104  -2.19005  -1.14274
  Beta  occ. eigenvalues --   -1.14265  -1.14249  -1.14062  -1.14050  -1.14034
  Beta  occ. eigenvalues --   -1.13498  -1.13472  -1.13443  -1.13160  -1.13090
  Beta  occ. eigenvalues --   -1.13076  -1.12914  -1.12857  -1.12830  -1.12818
  Beta  occ. eigenvalues --   -1.12768  -1.12746  -1.12673  -1.12657  -1.12647
  Beta  occ. eigenvalues --   -0.17363  -0.13016  -0.11830
  Beta virt. eigenvalues --   -0.06429  -0.06262  -0.05420  -0.04634  -0.02454
  Beta virt. eigenvalues --   -0.02002  -0.01838  -0.01318  -0.01202  -0.00833
  Beta virt. eigenvalues --   -0.00577   0.00123   0.00324   0.00724   0.00779

 Mulliken charges and spin densities:
               1          2
     1  Na   0.198652  -0.085558
     2  Na   0.150443   0.042065
     3  Na   0.122287   0.008858
     4  Na   0.060158  -0.083031
     5  Na  -0.024242  -0.028947
     6  Na  -0.092727   0.349795
     7  Na  -0.414571   0.796818
 Sum of Mulliken charges =  -0.00000   1.00000

 Dipole moment (field-independent basis, Debye):
    X=              0.2332    Y=             -0.3349    Z=              0.0508  Tot=              0.4113
 Quadrupole moment (field-independent basis, Debye-Ang):
   XX=            -51.2811   YY=            -62.6145   ZZ=            -77.6757
   XY=             -1.1492   XZ=             -1.2089   YZ=             -0.6963

 Normal termination of Gaussian 16 at Fri Dec  8 05:10:11 2023.
