 Gaussian 16, Revision B.01,
 Gaussian 16:  ES64L-G16RevB.01 20-Dec-2017

 -------------------------
 #P B3LYP/6-311+g(d) force
 -------------------------

 -----
 DPGEN
 -----
 Symbolic Z-matrix:
 Charge =  0 Multiplicity = 2

                         Standard orientation:
 ---------------------------------------------------------------------
 Center     Atomic      Atomic             Coordinates (Angstroms)
 Number     Number       Type             X           Y           Z
 ---------------------------------------------------------------------
      1         11           0       -1.651124    0.087059    1.944087
      2         11           0        0.115632   -0.502804   -1.299127
      3         11           0        1.972847   -1.609851    1.158645
      4         11           0        3.608761    0.006408   -1.158173
      5         11           0       -2.233841    1.871664   -1.151048
      6         11           0       -2.856169   -1.892725   -0.552509
      7         11           0        1.043894    2.040249    1.058125
 ---------------------------------------------------------------------

 SCF Done:  E(UB3LYP) =  -1136.12753712     A.U. after   25 cycles

 The electronic state is 2-A.
 Alpha  occ. eigenvalues --  -38.44765 -38.44542 -38.44291 -38.43907 -38.43438
 Alpha  occ. eigenvalues --  -38.43119 -38.42537  -2.20587  -2.20394  -2.20120
 Alpha  occ. eigenvalues --   -2.19785  -2.19392  -2.18945  -2.18375  -1.14261
 Alpha  occ. eigenvalues --   -1.14238  -1.14223  -1.14089  -1.14028  -1.14009
 Alpha  occ. eigenvalues --   -1.13816  -1.13762  -1.13718  -1.13465  -1.13432
 Alpha  occ. eigenvalues --   -1.13403  -1.13113  -1.13046  -1.13013  -1.12621
 Alpha  occ. eigenvalues --   -1.12602  -1.12585  -1.12071  -1.12048  -1.11993
 Alpha  occ. eigenvalues --   -0.18354  -0.13889  -0.11302  -0.10835
 Alpha virt. eigenvalues --   -0.06194  -0.05466  -0.04667  -0.03015  -0.02674
 Alpha virt. eigenvalues --   -0.02514  -0.02062  -0.01110  -0.00752  -0.00140
 Alpha virt. eigenvalues --    0.00192   0.00264   0.00435   0.00497   0.00741

  Beta  occ. eigenvalues --  -38.44746 -38.44515 -38.44243 -38.43854 -38.43407
  Beta  occ. eigenvalues --  -38.43119 -38.42530  -2.20551  -2.20346  -2.20032
  Beta  occ. eigenvalues --   -2.19688  -2.19339  -2.18947  -2.18367  -1.14233
  Beta  occ. eigenvalues --   -1.14214  -1.14200  -1.14058  -1.13994  -1.13960
  Beta  occ. eigenvalues --   -1.13745  -1.13706  -1.13657  -1.13396  -1.13357
  Beta  occ. eigenvalues --   -1.13332  -1.13051  -1.13007  -1.12978  -1.12617
  Beta  occ. eigenvalues --   -1.12605  -1.12579  -1.12065  -1.12017  -1.11992
  Beta  occ. eigenvalues --   -0.17621  -0.13661  -0.10671
  Beta virt. eigenvalues --   -0.07507  -0.05892  -0.05116  -0.04342  -0.02848
  Beta virt. eigenvalues --   -0.02072  -0.01937  -0.01781  -0.00734  -0.00559
  Beta virt. eigenvalues --    0.00013   0.00272   0.00353   0.00487   0.00568

 Mulliken charges and spin densities:
               1          2
     1  Na   0.203266   0.422436
     2  Na  -0.261178   0.423979
     3  Na  -0.015164   0.158357
     4  Na   0.391330  -0.035422
     5  Na   0.001243   0.011542
     6  Na   0.002940  -0.021650
     7  Na  -0.322437   0.040758
 Sum of Mulliken charges =  -0.00000   1.00000

 Dipole moment (field-independent basis, Debye):
    X=              0.7504    Y=              0.2064    Z=             -0.0466  Tot=              0.7797
 Quadrupole moment (field-independent basis, Debye-Ang):
   XX=            -51.2126   YY=            -74.0120   ZZ=            -67.7531
   XY=             -0.7812   XZ=             -1.1907   YZ=             -5.7489

 Normal termination of Gaussian 16 at Thu Dec  7 16:44:23 2023.
