 Gaussian 16, Revision B.01,
 Gaussian 16:  ES64L-G16RevB.01 20-Dec-2017

 -------------------------
 #P B3LYP/6-311+g(d) force
 -------------------------

 -----
 DPGEN
 -----
 Symbolic Z-matrix:
 Charge =  0 Multiplicity = 2

                         Standard orientation:
 ---------------------------------------------------------------------
 Center     Atomic      Atomic             Coordinates (Angstroms)
 Number     Number       Type             X           Y           Z
 ---------------------------------------------------------------------
      1         11           0       -0.905493   -0.543566    1.794863
      2         11           0        3.723811   -1.488929   -1.180299
      3         11           0        2.769289    0.711762    1.071015
      4         11           0        0.353052    3.341517   -0.010246
      5         11           0       -3.757345   -1.350788   -0.040179
      6         11           0       -2.110242    1.582022   -1.368400
      7         11           0       -0.073073   -2.252018   -0.266755
 ---------------------------------------------------------------------

 SCF Done:  E(UB3LYP) =  -1136.11822152     A.U. after   21 cycles

 The electronic state is 2-A.
 Alpha  occ. eigenvalues --  -38.45012 -38.44911 -38.44467 -38.44242 -38.43797
 Alpha  occ. eigenvalues --  -38.43724 -38.43268  -2.20855  -2.20712  -2.20259
 Alpha  occ. eigenvalues --   -2.20165  -2.19609  -2.19534  -2.19053  -1.14704
 Alpha  occ. eigenvalues --   -1.14519  -1.14414  -1.14395  -1.14364  -1.14334
 Alpha  occ. eigenvalues --   -1.13950  -1.13922  -1.13904  -1.13862  -1.13770
 Alpha  occ. eigenvalues --   -1.13732  -1.13289  -1.13271  -1.13232  -1.13188
 Alpha  occ. eigenvalues --   -1.13181  -1.13152  -1.12727  -1.12715  -1.12701
 Alpha  occ. eigenvalues --   -0.17430  -0.13688  -0.12200  -0.10542
 Alpha virt. eigenvalues --   -0.06725  -0.05357  -0.04876  -0.03573  -0.03029
 Alpha virt. eigenvalues --   -0.02345  -0.01978  -0.01235  -0.00801  -0.00428
 Alpha virt. eigenvalues --   -0.00237   0.00134   0.00262   0.00458   0.00573

  Beta  occ. eigenvalues --  -38.45003 -38.44894 -38.44462 -38.44169 -38.43763
  Beta  occ. eigenvalues --  -38.43660 -38.43273  -2.20843  -2.20683  -2.20254
  Beta  occ. eigenvalues --   -2.20032  -2.19547  -2.19415  -2.19063  -1.14662
  Beta  occ. eigenvalues --   -1.14506  -1.14415  -1.14376  -1.14336  -1.14309
  Beta  occ. eigenvalues --   -1.13939  -1.13917  -1.13881  -1.13777  -1.13674
  Beta  occ. eigenvalues --   -1.13637  -1.13247  -1.13229  -1.13187  -1.13107
  Beta  occ. eigenvalues --   -1.13099  -1.13075  -1.12733  -1.12724  -1.12698
  Beta  occ. eigenvalues --   -0.16858  -0.13169  -0.12007
  Beta virt. eigenvalues --   -0.07121  -0.06577  -0.05095  -0.04348  -0.03285
  Beta virt. eigenvalues --   -0.02539  -0.02226  -0.01454  -0.01048  -0.00604
  Beta virt. eigenvalues --   -0.00308  -0.00036   0.00240   0.00433   0.00601

 Mulliken charges and spin densities:
               1          2
     1  Na   0.079551   0.418464
     2  Na   0.154704   0.412598
     3  Na  -0.005881  -0.067478
     4  Na  -0.013742   0.014762
     5  Na   0.562838   0.145054
     6  Na  -0.279413   0.160204
     7  Na  -0.498057  -0.083604
 Sum of Mulliken charges =  -0.00000   1.00000

 Dipole moment (field-independent basis, Debye):
    X=             -0.9684    Y=             -0.8084    Z=              0.3093  Tot=              1.2988
 Quadrupole moment (field-independent basis, Debye-Ang):
   XX=            -60.0681   YY=            -69.7821   ZZ=            -69.3552
   XY=              6.9229   XZ=             -0.3117   YZ=              3.7140

 Normal termination of Gaussian 16 at Sun Dec  3 16:09:55 2023.
