 Gaussian 16, Revision B.01,
 Gaussian 16:  ES64L-G16RevB.01 20-Dec-2017

 -------------------------
 #P B3LYP/6-311+g(d) force
 -------------------------

 -----
 DPGEN
 -----
 Symbolic Z-matrix:
 Charge =  0 Multiplicity = 2

                         Standard orientation:
 ---------------------------------------------------------------------
 Center     Atomic      Atomic             Coordinates (Angstroms)
 Number     Number       Type             X           Y           Z
 ---------------------------------------------------------------------
      1         11           0        0.550837    2.986552    0.454481
      2         11           0       -2.780877    1.579189   -0.176163
      3         11           0        0.476546   -0.210472    2.166357
      4         11           0        2.923696    0.258454   -0.463847
      5         11           0        1.226277   -2.702960   -0.000481
      6         11           0        0.148252    0.201743   -2.025751
      7         11           0       -2.544731   -2.112506    0.045404
 ---------------------------------------------------------------------

 SCF Done:  E(UB3LYP) =  -1136.13593357     A.U. after   19 cycles

 The electronic state is 2-A.
 Alpha  occ. eigenvalues --  -38.44191 -38.44073 -38.43849 -38.43848 -38.43668
 Alpha  occ. eigenvalues --  -38.43564 -38.43563  -2.20046  -2.19954  -2.19628
 Alpha  occ. eigenvalues --   -2.19610  -2.19542  -2.19402  -2.19375  -1.13706
 Alpha  occ. eigenvalues --   -1.13681  -1.13668  -1.13641  -1.13591  -1.13574
 Alpha  occ. eigenvalues --   -1.13311  -1.13296  -1.13292  -1.13275  -1.13263
 Alpha  occ. eigenvalues --   -1.13245  -1.13230  -1.13194  -1.13172  -1.13083
 Alpha  occ. eigenvalues --   -1.13067  -1.13053  -1.13032  -1.13026  -1.13013
 Alpha  occ. eigenvalues --   -0.18126  -0.12627  -0.12316  -0.11242
 Alpha virt. eigenvalues --   -0.05428  -0.05200  -0.04958  -0.03282  -0.03153
 Alpha virt. eigenvalues --   -0.03056  -0.01221  -0.01132  -0.00516  -0.00415
 Alpha virt. eigenvalues --   -0.00085   0.00390   0.00804   0.00822   0.00856

  Beta  occ. eigenvalues --  -38.44101 -38.43994 -38.43852 -38.43849 -38.43654
  Beta  occ. eigenvalues --  -38.43559 -38.43555  -2.19880  -2.19808  -2.19630
  Beta  occ. eigenvalues --   -2.19618  -2.19520  -2.19398  -2.19361  -1.13599
  Beta  occ. eigenvalues --   -1.13564  -1.13547  -1.13546  -1.13484  -1.13471
  Beta  occ. eigenvalues --   -1.13301  -1.13298  -1.13289  -1.13278  -1.13268
  Beta  occ. eigenvalues --   -1.13249  -1.13205  -1.13169  -1.13150  -1.13073
  Beta  occ. eigenvalues --   -1.13049  -1.13033  -1.13024  -1.13013  -1.13006
  Beta  occ. eigenvalues --   -0.17351  -0.12433  -0.12118
  Beta virt. eigenvalues --   -0.07300  -0.05455  -0.05168  -0.04717  -0.02543
  Beta virt. eigenvalues --   -0.02415  -0.02069  -0.01137  -0.01046  -0.00548
  Beta virt. eigenvalues --   -0.00473   0.00069   0.00428   0.00864   0.00884

 Mulliken charges and spin densities:
               1          2
     1  Na  -0.020447  -0.026152
     2  Na  -0.048691  -0.098432
     3  Na  -0.264913   0.699139
     4  Na   0.481008   0.047977
     5  Na   0.098789  -0.081294
     6  Na  -0.121945   0.581898
     7  Na  -0.123800  -0.123136
 Sum of Mulliken charges =  -0.00000   1.00000

 Dipole moment (field-independent basis, Debye):
    X=              0.0779    Y=              0.0050    Z=              0.0565  Tot=              0.0964
 Quadrupole moment (field-independent basis, Debye-Ang):
   XX=            -61.6590   YY=            -62.9756   ZZ=            -71.2714
   XY=             -0.0262   XZ=             -0.5030   YZ=              0.7627

 Normal termination of Gaussian 16 at Tue Dec  5 20:04:28 2023.
