 Gaussian 16, Revision B.01,
 Gaussian 16:  ES64L-G16RevB.01 20-Dec-2017

 -------------------------
 #P B3LYP/6-311+g(d) force
 -------------------------

 -----
 DPGEN
 -----
 Symbolic Z-matrix:
 Charge =  0 Multiplicity = 2

                         Standard orientation:
 ---------------------------------------------------------------------
 Center     Atomic      Atomic             Coordinates (Angstroms)
 Number     Number       Type             X           Y           Z
 ---------------------------------------------------------------------
      1         11           0       -0.242975   -0.384382    2.180248
      2         11           0        0.506269   -1.400962   -1.397757
      3         11           0        2.451247    1.370904   -0.515902
      4         11           0       -2.839145   -2.450453   -0.296237
      5         11           0       -2.675479    1.038725   -0.169296
      6         11           0       -0.561776    3.329051   -0.137414
      7         11           0        3.361858   -1.502883    0.336358
 ---------------------------------------------------------------------

 SCF Done:  E(UB3LYP) =  -1136.12704483     A.U. after   20 cycles

 The electronic state is 2-A.
 Alpha  occ. eigenvalues --  -38.44771 -38.44333 -38.44199 -38.44173 -38.43939
 Alpha  occ. eigenvalues --  -38.43864 -38.43042  -2.20608  -2.20180  -2.20044
 Alpha  occ. eigenvalues --   -2.20016  -2.19727  -2.19685  -2.18863  -1.14304
 Alpha  occ. eigenvalues --   -1.14269  -1.14243  -1.13870  -1.13845  -1.13798
 Alpha  occ. eigenvalues --   -1.13733  -1.13726  -1.13703  -1.13694  -1.13655
 Alpha  occ. eigenvalues --   -1.13638  -1.13396  -1.13387  -1.13360  -1.13342
 Alpha  occ. eigenvalues --   -1.13312  -1.13299  -1.12549  -1.12511  -1.12505
 Alpha  occ. eigenvalues --   -0.17778  -0.13689  -0.12196  -0.10343
 Alpha virt. eigenvalues --   -0.06197  -0.05957  -0.04782  -0.03502  -0.02532
 Alpha virt. eigenvalues --   -0.02403  -0.02079  -0.01410  -0.00959  -0.00417
 Alpha virt. eigenvalues --   -0.00086   0.00252   0.00566   0.00720   0.00761

  Beta  occ. eigenvalues --  -38.44770 -38.44321 -38.44171 -38.44167 -38.43933
  Beta  occ. eigenvalues --  -38.43752 -38.43041  -2.20608  -2.20159  -2.20014
  Beta  occ. eigenvalues --   -2.19985  -2.19718  -2.19478  -2.18864  -1.14306
  Beta  occ. eigenvalues --   -1.14269  -1.14224  -1.13851  -1.13818  -1.13787
  Beta  occ. eigenvalues --   -1.13705  -1.13694  -1.13673  -1.13672  -1.13657
  Beta  occ. eigenvalues --   -1.13596  -1.13391  -1.13368  -1.13356  -1.13201
  Beta  occ. eigenvalues --   -1.13169  -1.13154  -1.12551  -1.12508  -1.12501
  Beta  occ. eigenvalues --   -0.17149  -0.13534  -0.12010
  Beta virt. eigenvalues --   -0.06535  -0.06031  -0.05867  -0.04643  -0.02828
  Beta virt. eigenvalues --   -0.02025  -0.01917  -0.01491  -0.01275  -0.00982
  Beta virt. eigenvalues --   -0.00361   0.00127   0.00333   0.00677   0.00727

 Mulliken charges and spin densities:
               1          2
     1  Na  -0.430084   0.630396
     2  Na  -0.420780   0.165851
     3  Na  -0.252358   0.095566
     4  Na   0.493548   0.073353
     5  Na  -0.128569   0.082368
     6  Na  -0.025462  -0.089029
     7  Na   0.763704   0.041496
 Sum of Mulliken charges =  -0.00000   1.00000

 Dipole moment (field-independent basis, Debye):
    X=              0.7466    Y=             -0.8247    Z=              0.0244  Tot=              1.1127
 Quadrupole moment (field-independent basis, Debye-Ang):
   XX=            -53.6855   YY=            -65.3292   ZZ=            -76.4511
   XY=             -0.4852   XZ=              1.0491   YZ=             -0.6955

 Normal termination of Gaussian 16 at Thu Dec  7 07:30:59 2023.
