 Gaussian 16, Revision B.01,
 Gaussian 16:  ES64L-G16RevB.01 20-Dec-2017

 -------------------------
 #P B3LYP/6-311+g(d) force
 -------------------------

 -----
 DPGEN
 -----
 Symbolic Z-matrix:
 Charge =  0 Multiplicity = 2

                         Standard orientation:
 ---------------------------------------------------------------------
 Center     Atomic      Atomic             Coordinates (Angstroms)
 Number     Number       Type             X           Y           Z
 ---------------------------------------------------------------------
      1         11           0       -3.564440   -0.228896    1.248510
      2         11           0       -1.848250   -1.742921   -1.023079
      3         11           0        2.060238    2.070189   -0.409446
      4         11           0        0.192270   -0.132045    1.447631
      5         11           0        1.231557   -1.414594   -1.453848
      6         11           0        3.623810   -0.767006    0.984684
      7         11           0       -1.695185    2.215273   -0.794452
 ---------------------------------------------------------------------

 SCF Done:  E(UB3LYP) =  -1136.12649922     A.U. after   22 cycles

 The electronic state is 2-A.
 Alpha  occ. eigenvalues --  -38.44737 -38.44638 -38.44511 -38.43541 -38.43482
 Alpha  occ. eigenvalues --  -38.43204 -38.43203  -2.20628  -2.20477  -2.20351
 Alpha  occ. eigenvalues --   -2.19373  -2.19274  -2.19120  -2.19100  -1.14354
 Alpha  occ. eigenvalues --   -1.14274  -1.14256  -1.14140  -1.14115  -1.14099
 Alpha  occ. eigenvalues --   -1.14017  -1.13996  -1.13969  -1.13056  -1.13054
 Alpha  occ. eigenvalues --   -1.12993  -1.12954  -1.12939  -1.12902  -1.12894
 Alpha  occ. eigenvalues --   -1.12775  -1.12759  -1.12746  -1.12734  -1.12691
 Alpha  occ. eigenvalues --   -0.18327  -0.14308  -0.11319  -0.10860
 Alpha virt. eigenvalues --   -0.06580  -0.05437  -0.04792  -0.03284  -0.02665
 Alpha virt. eigenvalues --   -0.02546  -0.01993  -0.01104  -0.00792  -0.00342
 Alpha virt. eigenvalues --    0.00109   0.00319   0.00367   0.00424   0.00726

  Beta  occ. eigenvalues --  -38.44718 -38.44599 -38.44465 -38.43534 -38.43470
  Beta  occ. eigenvalues --  -38.43180 -38.43158  -2.20595  -2.20403  -2.20263
  Beta  occ. eigenvalues --   -2.19363  -2.19254  -2.19065  -2.19036  -1.14312
  Beta  occ. eigenvalues --   -1.14259  -1.14227  -1.14085  -1.14067  -1.14053
  Beta  occ. eigenvalues --   -1.13960  -1.13934  -1.13912  -1.13050  -1.13042
  Beta  occ. eigenvalues --   -1.12972  -1.12934  -1.12928  -1.12880  -1.12835
  Beta  occ. eigenvalues --   -1.12724  -1.12721  -1.12717  -1.12683  -1.12625
  Beta  occ. eigenvalues --   -0.17737  -0.13942  -0.10897
  Beta virt. eigenvalues --   -0.07368  -0.06337  -0.05327  -0.04214  -0.03066
  Beta virt. eigenvalues --   -0.02389  -0.02011  -0.01318  -0.00950  -0.00504
  Beta virt. eigenvalues --   -0.00219   0.00193   0.00344   0.00468   0.00568

 Mulliken charges and spin densities:
               1          2
     1  Na   1.001666   0.281012
     2  Na  -0.119722   0.064030
     3  Na  -0.019254   0.058635
     4  Na  -1.465125   0.039479
     5  Na  -0.394928   0.264019
     6  Na   1.334236   0.175072
     7  Na  -0.336872   0.117754
 Sum of Mulliken charges =  -0.00000   1.00000

 Dipole moment (field-independent basis, Debye):
    X=              0.3485    Y=             -0.0355    Z=              0.3727  Tot=              0.5114
 Quadrupole moment (field-independent basis, Debye-Ang):
   XX=            -48.5623   YY=            -77.8512   ZZ=            -68.4753
   XY=             -0.6498   XZ=             -0.2391   YZ=             -2.0998

 Normal termination of Gaussian 16 at Wed Dec  6 01:04:30 2023.
