 Gaussian 16, Revision B.01,
 Gaussian 16:  ES64L-G16RevB.01 20-Dec-2017

 -------------------------
 #P B3LYP/6-311+g(d) force
 -------------------------

 -----
 DPGEN
 -----
 Symbolic Z-matrix:
 Charge =  0 Multiplicity = 2

                         Standard orientation:
 ---------------------------------------------------------------------
 Center     Atomic      Atomic             Coordinates (Angstroms)
 Number     Number       Type             X           Y           Z
 ---------------------------------------------------------------------
      1         11           0       -0.982543   -2.384670   -0.333144
      2         11           0       -0.129647   -0.289511    1.863197
      3         11           0       -3.527015    0.011431   -0.002997
      4         11           0        2.484308    1.547202    0.167760
      5         11           0       -0.763374    2.823375   -0.101164
      6         11           0        2.374874   -1.692985    0.150509
      7         11           0        0.543397   -0.014841   -1.744161
 ---------------------------------------------------------------------

 SCF Done:  E(UB3LYP) =  -1136.13329873     A.U. after   19 cycles

 The electronic state is 2-A.
 Alpha  occ. eigenvalues --  -38.44639 -38.43646 -38.43508 -38.43479 -38.43394
 Alpha  occ. eigenvalues --  -38.43282 -38.43153  -2.20405  -2.19552  -2.19446
 Alpha  occ. eigenvalues --   -2.19426  -2.19299  -2.19208  -2.19079  -1.14081
 Alpha  occ. eigenvalues --   -1.14063  -1.14044  -1.13298  -1.13222  -1.13197
 Alpha  occ. eigenvalues --   -1.13170  -1.13138  -1.13096  -1.13066  -1.13060
 Alpha  occ. eigenvalues --   -1.13017  -1.12981  -1.12935  -1.12911  -1.12881
 Alpha  occ. eigenvalues --   -1.12866  -1.12834  -1.12756  -1.12742  -1.12671
 Alpha  occ. eigenvalues --   -0.19054  -0.13140  -0.12415  -0.10816
 Alpha virt. eigenvalues --   -0.06085  -0.04934  -0.04426  -0.03224  -0.02807
 Alpha virt. eigenvalues --   -0.02473  -0.01769  -0.00976  -0.00347  -0.00107
 Alpha virt. eigenvalues --   -0.00015   0.00329   0.00783   0.00891   0.00907

  Beta  occ. eigenvalues --  -38.44643 -38.43637 -38.43496 -38.43397 -38.43393
  Beta  occ. eigenvalues --  -38.43204 -38.43139  -2.20414  -2.19540  -2.19430
  Beta  occ. eigenvalues --   -2.19276  -2.19208  -2.19156  -2.19058  -1.14077
  Beta  occ. eigenvalues --   -1.14071  -1.14051  -1.13285  -1.13197  -1.13175
  Beta  occ. eigenvalues --   -1.13143  -1.13075  -1.13053  -1.13022  -1.12960
  Beta  occ. eigenvalues --   -1.12914  -1.12894  -1.12889  -1.12866  -1.12839
  Beta  occ. eigenvalues --   -1.12835  -1.12789  -1.12730  -1.12684  -1.12660
  Beta  occ. eigenvalues --   -0.18285  -0.12936  -0.12153
  Beta virt. eigenvalues --   -0.06829  -0.06037  -0.04938  -0.04399  -0.02462
  Beta virt. eigenvalues --   -0.02023  -0.01720  -0.01388  -0.00927  -0.00372
  Beta virt. eigenvalues --   -0.00149   0.00125   0.00359   0.00822   0.00897

 Mulliken charges and spin densities:
               1          2
     1  Na   0.236145  -0.079631
     2  Na  -0.487798   0.710527
     3  Na  -0.143583  -0.123343
     4  Na   0.138233  -0.026873
     5  Na  -0.166177  -0.167466
     6  Na   0.629435   0.070657
     7  Na  -0.206254   0.616129
 Sum of Mulliken charges =  -0.00000   1.00000

 Dipole moment (field-independent basis, Debye):
    X=             -0.3975    Y=              0.1081    Z=              0.1273  Tot=              0.4312
 Quadrupole moment (field-independent basis, Debye-Ang):
   XX=            -53.4786   YY=            -65.5694   ZZ=            -74.0746
   XY=             -0.8659   XZ=              1.2503   YZ=              0.4803

 Normal termination of Gaussian 16 at Fri Dec  8 02:07:04 2023.
