 Gaussian 16, Revision B.01,
 Gaussian 16:  ES64L-G16RevB.01 20-Dec-2017

 -------------------------
 #P B3LYP/6-311+g(d) force
 -------------------------

 -----
 DPGEN
 -----
 Symbolic Z-matrix:
 Charge =  0 Multiplicity = 2

                         Standard orientation:
 ---------------------------------------------------------------------
 Center     Atomic      Atomic             Coordinates (Angstroms)
 Number     Number       Type             X           Y           Z
 ---------------------------------------------------------------------
      1         11           0       -2.115123    1.890245   -0.399354
      2         11           0       -1.261578   -1.345714   -1.305289
      3         11           0        3.797177    0.751503    0.920333
      4         11           0       -4.028836   -0.591109    0.852539
      5         11           0        1.028202    1.579345   -1.136479
      6         11           0        0.186129   -0.412166    1.784602
      7         11           0        2.394029   -1.872104   -0.716352
 ---------------------------------------------------------------------

 SCF Done:  E(UB3LYP) =  -1136.12069370     A.U. after   52 cycles

 The electronic state is 2-A.
 Alpha  occ. eigenvalues --  -38.46079 -38.44843 -38.44576 -38.43923 -38.43861
 Alpha  occ. eigenvalues --  -38.42951 -38.42176  -2.21871  -2.20668  -2.20382
 Alpha  occ. eigenvalues --   -2.19758  -2.19738  -2.18835  -2.18073  -1.15576
 Alpha  occ. eigenvalues --   -1.15525  -1.15481  -1.14334  -1.14303  -1.14293
 Alpha  occ. eigenvalues --   -1.14048  -1.14042  -1.14005  -1.13440  -1.13429
 Alpha  occ. eigenvalues --   -1.13416  -1.13404  -1.13379  -1.13359  -1.12519
 Alpha  occ. eigenvalues --   -1.12509  -1.12467  -1.11765  -1.11734  -1.11702
 Alpha  occ. eigenvalues --   -0.18346  -0.14402  -0.11142  -0.10650
 Alpha virt. eigenvalues --   -0.07380  -0.05256  -0.04773  -0.03120  -0.02993
 Alpha virt. eigenvalues --   -0.02366  -0.02078  -0.01339  -0.01093  -0.00318
 Alpha virt. eigenvalues --   -0.00080   0.00239   0.00242   0.00553   0.00648

  Beta  occ. eigenvalues --  -38.46057 -38.44791 -38.44548 -38.43908 -38.43811
  Beta  occ. eigenvalues --  -38.42946 -38.42159  -2.21831  -2.20570  -2.20329
  Beta  occ. eigenvalues --   -2.19736  -2.19651  -2.18828  -2.18045  -1.15537
  Beta  occ. eigenvalues --   -1.15498  -1.15452  -1.14266  -1.14236  -1.14227
  Beta  occ. eigenvalues --   -1.14010  -1.14004  -1.13972  -1.13415  -1.13406
  Beta  occ. eigenvalues --   -1.13379  -1.13359  -1.13310  -1.13279  -1.12514
  Beta  occ. eigenvalues --   -1.12501  -1.12453  -1.11752  -1.11701  -1.11673
  Beta  occ. eigenvalues --   -0.17691  -0.14027  -0.10444
  Beta virt. eigenvalues --   -0.07505  -0.07071  -0.05098  -0.04241  -0.02833
  Beta virt. eigenvalues --   -0.02790  -0.01800  -0.01475  -0.01045  -0.00903
  Beta virt. eigenvalues --   -0.00240   0.00000   0.00270   0.00364   0.00649

 Mulliken charges and spin densities:
               1          2
     1  Na  -0.064657   0.042047
     2  Na  -0.159453   0.196039
     3  Na   0.667404   0.242554
     4  Na   0.543579   0.188168
     5  Na  -0.573055   0.107767
     6  Na  -0.518381   0.185124
     7  Na   0.104561   0.038300
 Sum of Mulliken charges =  -0.00000   1.00000

 Dipole moment (field-independent basis, Debye):
    X=              0.2656    Y=             -0.3351    Z=              0.6193  Tot=              0.7525
 Quadrupole moment (field-independent basis, Debye-Ang):
   XX=            -49.6391   YY=            -79.5283   ZZ=            -67.0392
   XY=             -0.0657   XZ=             -0.6011   YZ=              4.2639

 Normal termination of Gaussian 16 at Tue Dec  5 18:24:31 2023.
