 Gaussian 16, Revision B.01,
 Gaussian 16:  ES64L-G16RevB.01 20-Dec-2017

 -------------------------
 #P B3LYP/6-311+g(d) force
 -------------------------

 -----
 DPGEN
 -----
 Symbolic Z-matrix:
 Charge =  0 Multiplicity = 2

                         Standard orientation:
 ---------------------------------------------------------------------
 Center     Atomic      Atomic             Coordinates (Angstroms)
 Number     Number       Type             X           Y           Z
 ---------------------------------------------------------------------
      1         11           0       -2.812540    1.869957   -0.267562
      2         11           0        0.364132    0.620275   -1.596607
      3         11           0        0.111189   -0.173855    2.083897
      4         11           0        2.968217   -0.885605   -0.489468
      5         11           0       -2.663677   -1.558242   -0.142927
      6         11           0        1.618870    2.886212    0.413681
      7         11           0        0.413808   -2.758742   -0.001015
 ---------------------------------------------------------------------

 SCF Done:  E(UB3LYP) =  -1136.13286191     A.U. after   19 cycles

 The electronic state is 2-A.
 Alpha  occ. eigenvalues --  -38.44246 -38.44085 -38.44053 -38.43780 -38.43763
 Alpha  occ. eigenvalues --  -38.43376 -38.43103  -2.20025  -2.19915  -2.19878
 Alpha  occ. eigenvalues --   -2.19650  -2.19592  -2.19301  -2.19005  -1.13699
 Alpha  occ. eigenvalues --   -1.13683  -1.13667  -1.13615  -1.13570  -1.13559
 Alpha  occ. eigenvalues --   -1.13543  -1.13535  -1.13515  -1.13321  -1.13284
 Alpha  occ. eigenvalues --   -1.13274  -1.13267  -1.13247  -1.13234  -1.12984
 Alpha  occ. eigenvalues --   -1.12940  -1.12931  -1.12678  -1.12665  -1.12649
 Alpha  occ. eigenvalues --   -0.18304  -0.12942  -0.12455  -0.10700
 Alpha virt. eigenvalues --   -0.05994  -0.05271  -0.04681  -0.03148  -0.02945
 Alpha virt. eigenvalues --   -0.02525  -0.01608  -0.01367  -0.00617  -0.00318
 Alpha virt. eigenvalues --   -0.00032   0.00333   0.00740   0.00805   0.00883

  Beta  occ. eigenvalues --  -38.44242 -38.44076 -38.44034 -38.43762 -38.43683
  Beta  occ. eigenvalues --  -38.43329 -38.43097  -2.20018  -2.19884  -2.19862
  Beta  occ. eigenvalues --   -2.19592  -2.19471  -2.19217  -2.18998  -1.13684
  Beta  occ. eigenvalues --   -1.13679  -1.13663  -1.13587  -1.13548  -1.13542
  Beta  occ. eigenvalues --   -1.13516  -1.13510  -1.13506  -1.13276  -1.13250
  Beta  occ. eigenvalues --   -1.13226  -1.13199  -1.13160  -1.13129  -1.12926
  Beta  occ. eigenvalues --   -1.12881  -1.12862  -1.12674  -1.12663  -1.12615
  Beta  occ. eigenvalues --   -0.17608  -0.12689  -0.12232
  Beta virt. eigenvalues --   -0.06867  -0.05937  -0.05129  -0.04638  -0.02438
  Beta virt. eigenvalues --   -0.02266  -0.01578  -0.01429  -0.01249  -0.00645
  Beta virt. eigenvalues --   -0.00349   0.00122   0.00387   0.00763   0.00872

 Mulliken charges and spin densities:
               1          2
     1  Na   0.051920  -0.016579
     2  Na  -0.119377   0.257250
     3  Na  -0.334933   0.651525
     4  Na   0.369721   0.075511
     5  Na  -0.048785  -0.020802
     6  Na  -0.076579  -0.019807
     7  Na   0.158033   0.072901
 Sum of Mulliken charges =  -0.00000   1.00000

 Dipole moment (field-independent basis, Debye):
    X=              0.0738    Y=              0.4530    Z=              0.1397  Tot=              0.4798
 Quadrupole moment (field-independent basis, Debye-Ang):
   XX=            -58.0679   YY=            -61.5762   ZZ=            -74.4653
   XY=             -0.0138   XZ=              0.2930   YZ=              1.6527

 Normal termination of Gaussian 16 at Thu Dec  7 20:11:24 2023.
