 Gaussian 16, Revision B.01,
 Gaussian 16:  ES64L-G16RevB.01 20-Dec-2017

 -------------------------
 #P B3LYP/6-311+g(d) force
 -------------------------

 -----
 DPGEN
 -----
 Symbolic Z-matrix:
 Charge =  0 Multiplicity = 2

                         Standard orientation:
 ---------------------------------------------------------------------
 Center     Atomic      Atomic             Coordinates (Angstroms)
 Number     Number       Type             X           Y           Z
 ---------------------------------------------------------------------
      1         11           0       -0.929056    2.821463    0.211482
      2         11           0        2.088302   -1.935127   -0.524493
      3         11           0        0.108249    0.188204   -1.601841
      4         11           0        3.093788    1.296862   -0.071245
      5         11           0       -1.225585   -2.308730    0.406299
      6         11           0       -3.304418    0.054456   -0.551952
      7         11           0        0.168720   -0.117129    2.131749
 ---------------------------------------------------------------------

 SCF Done:  E(UB3LYP) =  -1136.13340155     A.U. after   19 cycles

 The electronic state is 2-A.
 Alpha  occ. eigenvalues --  -38.44400 -38.44326 -38.43833 -38.43480 -38.43416
 Alpha  occ. eigenvalues --  -38.43400 -38.42808  -2.20197  -2.20145  -2.19736
 Alpha  occ. eigenvalues --   -2.19397  -2.19374  -2.19209  -2.18730  -1.13872
 Alpha  occ. eigenvalues --   -1.13858  -1.13837  -1.13816  -1.13810  -1.13774
 Alpha  occ. eigenvalues --   -1.13420  -1.13359  -1.13347  -1.13183  -1.13081
 Alpha  occ. eigenvalues --   -1.13022  -1.13019  -1.12992  -1.12972  -1.12884
 Alpha  occ. eigenvalues --   -1.12879  -1.12831  -1.12429  -1.12383  -1.12357
 Alpha  occ. eigenvalues --   -0.18674  -0.13196  -0.12053  -0.11071
 Alpha virt. eigenvalues --   -0.06101  -0.04930  -0.04220  -0.03317  -0.02908
 Alpha virt. eigenvalues --   -0.02782  -0.01870  -0.00992  -0.00386  -0.00125
 Alpha virt. eigenvalues --    0.00050   0.00324   0.00787   0.00815   0.00882

  Beta  occ. eigenvalues --  -38.44400 -38.44314 -38.43727 -38.43466 -38.43396
  Beta  occ. eigenvalues --  -38.43363 -38.42796  -2.20200  -2.20124  -2.19543
  Beta  occ. eigenvalues --   -2.19354  -2.19300  -2.19205  -2.18713  -1.13867
  Beta  occ. eigenvalues --   -1.13858  -1.13835  -1.13801  -1.13785  -1.13762
  Beta  occ. eigenvalues --   -1.13290  -1.13222  -1.13210  -1.13140  -1.13016
  Beta  occ. eigenvalues --   -1.12995  -1.12974  -1.12961  -1.12918  -1.12870
  Beta  occ. eigenvalues --   -1.12864  -1.12827  -1.12411  -1.12353  -1.12340
  Beta  occ. eigenvalues --   -0.17941  -0.12933  -0.11818
  Beta virt. eigenvalues --   -0.07135  -0.06038  -0.04900  -0.04161  -0.02614
  Beta virt. eigenvalues --   -0.02122  -0.01817  -0.01671  -0.00928  -0.00386
  Beta virt. eigenvalues --   -0.00071   0.00113   0.00361   0.00824   0.00888

 Mulliken charges and spin densities:
               1          2
     1  Na  -0.088635  -0.009468
     2  Na   0.296363   0.044439
     3  Na  -0.213640   0.271839
     4  Na   0.002369  -0.050954
     5  Na   0.368906   0.144832
     6  Na   0.019988  -0.005524
     7  Na  -0.385351   0.604836
 Sum of Mulliken charges =  -0.00000   1.00000

 Dipole moment (field-independent basis, Debye):
    X=              0.2082    Y=              0.3145    Z=              0.0652  Tot=              0.3828
 Quadrupole moment (field-independent basis, Debye-Ang):
   XX=            -53.8724   YY=            -66.7847   ZZ=            -72.7684
   XY=              0.6713   XZ=              0.8047   YZ=              1.1280

 Normal termination of Gaussian 16 at Thu Dec  7 02:21:43 2023.
