 Gaussian 16, Revision B.01,
 Gaussian 16:  ES64L-G16RevB.01 20-Dec-2017

 -------------------------
 #P B3LYP/6-311+g(d) force
 -------------------------

 -----
 DPGEN
 -----
 Symbolic Z-matrix:
 Charge =  0 Multiplicity = 2

                         Standard orientation:
 ---------------------------------------------------------------------
 Center     Atomic      Atomic             Coordinates (Angstroms)
 Number     Number       Type             X           Y           Z
 ---------------------------------------------------------------------
      1         11           0       -3.079232   -0.837353   -0.330433
      2         11           0        3.448946   -0.930775   -0.246594
      3         11           0       -0.150398   -0.066954   -1.813928
      4         11           0       -0.598668   -0.149173    1.937358
      5         11           0       -0.027587   -2.638674    0.268732
      6         11           0        1.911422    2.170650    0.294380
      7         11           0       -1.504482    2.452278   -0.109515
 ---------------------------------------------------------------------

 SCF Done:  E(UB3LYP) =  -1136.13494576     A.U. after   20 cycles

 The electronic state is 2-A.
 Alpha  occ. eigenvalues --  -38.44329 -38.44316 -38.43628 -38.43545 -38.43520
 Alpha  occ. eigenvalues --  -38.43254 -38.43093  -2.20171  -2.20095  -2.19567
 Alpha  occ. eigenvalues --   -2.19494  -2.19347  -2.19144  -2.18969  -1.13850
 Alpha  occ. eigenvalues --   -1.13835  -1.13802  -1.13770  -1.13757  -1.13732
 Alpha  occ. eigenvalues --   -1.13258  -1.13218  -1.13204  -1.13179  -1.13129
 Alpha  occ. eigenvalues --   -1.13106  -1.13023  -1.13018  -1.12980  -1.12831
 Alpha  occ. eigenvalues --   -1.12812  -1.12731  -1.12649  -1.12636  -1.12595
 Alpha  occ. eigenvalues --   -0.18694  -0.13012  -0.12302  -0.10914
 Alpha virt. eigenvalues --   -0.06081  -0.05074  -0.04343  -0.03179  -0.02918
 Alpha virt. eigenvalues --   -0.02660  -0.01848  -0.01037  -0.00342  -0.00162
 Alpha virt. eigenvalues --   -0.00055   0.00317   0.00763   0.00825   0.00886

  Beta  occ. eigenvalues --  -38.44332 -38.44305 -38.43555 -38.43517 -38.43455
  Beta  occ. eigenvalues --  -38.43242 -38.43086  -2.20154  -2.20101  -2.19433
  Beta  occ. eigenvalues --   -2.19344  -2.19329  -2.19125  -2.18962  -1.13830
  Beta  occ. eigenvalues --   -1.13810  -1.13786  -1.13768  -1.13762  -1.13737
  Beta  occ. eigenvalues --   -1.13172  -1.13125  -1.13099  -1.13076  -1.13023
  Beta  occ. eigenvalues --   -1.13012  -1.13008  -1.12986  -1.12976  -1.12811
  Beta  occ. eigenvalues --   -1.12763  -1.12723  -1.12644  -1.12611  -1.12584
  Beta  occ. eigenvalues --   -0.17940  -0.12823  -0.12032
  Beta virt. eigenvalues --   -0.06969  -0.05995  -0.05074  -0.04304  -0.02492
  Beta virt. eigenvalues --   -0.02107  -0.01789  -0.01559  -0.01001  -0.00340
  Beta virt. eigenvalues --   -0.00204   0.00087   0.00350   0.00843   0.00870

 Mulliken charges and spin densities:
               1          2
     1  Na   0.390959  -0.044103
     2  Na  -0.081311  -0.077831
     3  Na  -0.261958   0.744250
     4  Na  -0.102099   0.632911
     5  Na   0.102465  -0.108216
     6  Na  -0.099172  -0.069647
     7  Na   0.051116  -0.077365
 Sum of Mulliken charges =  -0.00000   1.00000

 Dipole moment (field-independent basis, Debye):
    X=             -0.1163    Y=             -0.1623    Z=             -0.0702  Tot=              0.2116
 Quadrupole moment (field-independent basis, Debye-Ang):
   XX=            -53.5433   YY=            -66.5042   ZZ=            -73.4959
   XY=             -0.2044   XZ=              0.7090   YZ=              0.6545

 Normal termination of Gaussian 16 at Thu Dec  7 22:54:17 2023.
