 Gaussian 16, Revision B.01,
 Gaussian 16:  ES64L-G16RevB.01 20-Dec-2017

 -------------------------
 #P B3LYP/6-311+g(d) force
 -------------------------

 -----
 DPGEN
 -----
 Symbolic Z-matrix:
 Charge =  0 Multiplicity = 2

                         Standard orientation:
 ---------------------------------------------------------------------
 Center     Atomic      Atomic             Coordinates (Angstroms)
 Number     Number       Type             X           Y           Z
 ---------------------------------------------------------------------
      1         11           0       -0.175296    2.685215   -0.334889
      2         11           0        1.158339   -0.140109    2.006806
      3         11           0       -3.176735    1.151988   -0.295690
      4         11           0        3.253497    1.153483   -0.076765
      5         11           0       -1.842777   -1.701819    1.460160
      6         11           0       -0.988069   -1.080136   -1.632886
      7         11           0        1.771042   -2.068622   -1.126735
 ---------------------------------------------------------------------

 SCF Done:  E(UB3LYP) =  -1136.12888586     A.U. after   20 cycles

 The electronic state is 2-A.
 Alpha  occ. eigenvalues --  -38.44228 -38.44209 -38.44113 -38.43880 -38.43745
 Alpha  occ. eigenvalues --  -38.43628 -38.43477  -2.20081  -2.20043  -2.19971
 Alpha  occ. eigenvalues --   -2.19713  -2.19610  -2.19555  -2.19269  -1.13795
 Alpha  occ. eigenvalues --   -1.13754  -1.13716  -1.13702  -1.13674  -1.13660
 Alpha  occ. eigenvalues --   -1.13631  -1.13620  -1.13592  -1.13441  -1.13389
 Alpha  occ. eigenvalues --   -1.13372  -1.13353  -1.13242  -1.13226  -1.13191
 Alpha  occ. eigenvalues --   -1.13188  -1.13123  -1.12957  -1.12949  -1.12887
 Alpha  occ. eigenvalues --   -0.18130  -0.13428  -0.11970  -0.11569
 Alpha virt. eigenvalues --   -0.05953  -0.05164  -0.04586  -0.03619  -0.03008
 Alpha virt. eigenvalues --   -0.02867  -0.01629  -0.01031  -0.00479  -0.00080
 Alpha virt. eigenvalues --   -0.00016   0.00328   0.00564   0.00742   0.00852

  Beta  occ. eigenvalues --  -38.44227 -38.44142 -38.44059 -38.43876 -38.43705
  Beta  occ. eigenvalues --  -38.43584 -38.43477  -2.20042  -2.19958  -2.19874
  Beta  occ. eigenvalues --   -2.19708  -2.19540  -2.19478  -2.19269  -1.13755
  Beta  occ. eigenvalues --   -1.13697  -1.13679  -1.13670  -1.13635  -1.13595
  Beta  occ. eigenvalues --   -1.13569  -1.13539  -1.13525  -1.13393  -1.13370
  Beta  occ. eigenvalues --   -1.13362  -1.13348  -1.13187  -1.13178  -1.13141
  Beta  occ. eigenvalues --   -1.13132  -1.13063  -1.12951  -1.12951  -1.12885
  Beta  occ. eigenvalues --   -0.17460  -0.13293  -0.11663
  Beta virt. eigenvalues --   -0.07583  -0.05803  -0.05127  -0.04088  -0.03272
  Beta virt. eigenvalues --   -0.02402  -0.01927  -0.01584  -0.00884  -0.00257
  Beta virt. eigenvalues --   -0.00058   0.00073   0.00388   0.00732   0.00851

 Mulliken charges and spin densities:
               1          2
     1  Na  -0.573683  -0.083107
     2  Na   0.092036   0.418905
     3  Na   0.509281   0.060973
     4  Na   0.414250   0.065625
     5  Na  -0.265723   0.084022
     6  Na   0.312460   0.434496
     7  Na  -0.488621   0.019086
 Sum of Mulliken charges =  -0.00000   1.00000

 Dipole moment (field-independent basis, Debye):
    X=              0.1688    Y=             -0.0328    Z=              0.1646  Tot=              0.2381
 Quadrupole moment (field-independent basis, Debye-Ang):
   XX=            -54.6732   YY=            -72.0549   ZZ=            -70.0760
   XY=              0.9749   XZ=             -2.2169   YZ=             -1.5451

 Normal termination of Gaussian 16 at Mon Dec  4 02:37:14 2023.
