 Gaussian 16, Revision B.01,
 Gaussian 16:  ES64L-G16RevB.01 20-Dec-2017

 -------------------------
 #P B3LYP/6-311+g(d) force
 -------------------------

 -----
 DPGEN
 -----
 Symbolic Z-matrix:
 Charge =  0 Multiplicity = 2

                         Standard orientation:
 ---------------------------------------------------------------------
 Center     Atomic      Atomic             Coordinates (Angstroms)
 Number     Number       Type             X           Y           Z
 ---------------------------------------------------------------------
      1         11           0       -4.152604    1.731771    0.502453
      2         11           0        0.245677   -1.014645    1.605561
      3         11           0       -3.115289   -1.443700   -0.351318
      4         11           0        0.199784   -1.629444   -1.544191
      5         11           0       -0.066095    1.595611   -0.536477
      6         11           0        3.198410   -1.155362    0.660694
      7         11           0        3.690117    1.915769   -0.336722
 ---------------------------------------------------------------------

 SCF Done:  E(UB3LYP) =  -1136.11188793     A.U. after   27 cycles

 The electronic state is 2-A.
 Alpha  occ. eigenvalues --  -38.45134 -38.44783 -38.44619 -38.44167 -38.44116
 Alpha  occ. eigenvalues --  -38.43661 -38.43515  -2.20932  -2.20691  -2.20446
 Alpha  occ. eigenvalues --   -2.20053  -2.19903  -2.19438  -2.19421  -1.14629
 Alpha  occ. eigenvalues --   -1.14584  -1.14558  -1.14390  -1.14359  -1.14308
 Alpha  occ. eigenvalues --   -1.14164  -1.14116  -1.14013  -1.13735  -1.13704
 Alpha  occ. eigenvalues --   -1.13688  -1.13571  -1.13555  -1.13532  -1.13103
 Alpha  occ. eigenvalues --   -1.13096  -1.13094  -1.13071  -1.13065  -1.13048
 Alpha  occ. eigenvalues --   -0.18158  -0.13987  -0.11434  -0.10612
 Alpha virt. eigenvalues --   -0.07385  -0.06128  -0.03833  -0.03357  -0.03156
 Alpha virt. eigenvalues --   -0.02552  -0.01964  -0.01870  -0.00822  -0.00632
 Alpha virt. eigenvalues --   -0.00157   0.00089   0.00378   0.00464   0.00494

  Beta  occ. eigenvalues --  -38.45124 -38.44749 -38.44572 -38.44121 -38.44113
  Beta  occ. eigenvalues --  -38.43633 -38.43477  -2.20918  -2.20632  -2.20362
  Beta  occ. eigenvalues --   -2.19970  -2.19899  -2.19387  -2.19353  -1.14615
  Beta  occ. eigenvalues --   -1.14578  -1.14532  -1.14348  -1.14311  -1.14256
  Beta  occ. eigenvalues --   -1.14106  -1.14045  -1.13958  -1.13669  -1.13657
  Beta  occ. eigenvalues --   -1.13635  -1.13568  -1.13531  -1.13524  -1.13069
  Beta  occ. eigenvalues --   -1.13054  -1.13048  -1.13041  -1.13019  -1.12987
  Beta  occ. eigenvalues --   -0.17558  -0.13559  -0.11119
  Beta virt. eigenvalues --   -0.07249  -0.07032  -0.05926  -0.03485  -0.02995
  Beta virt. eigenvalues --   -0.02890  -0.02105  -0.01787  -0.01320  -0.00710
  Beta virt. eigenvalues --   -0.00305  -0.00084   0.00143   0.00459   0.00538

 Mulliken charges and spin densities:
               1          2
     1  Na   0.077342   0.261099
     2  Na  -0.088706   0.132321
     3  Na   0.318460   0.075465
     4  Na   0.092768   0.168834
     5  Na  -0.761280   0.157041
     6  Na   0.349883   0.343401
     7  Na   0.011533  -0.138161
 Sum of Mulliken charges =  -0.00000   1.00000

 Dipole moment (field-independent basis, Debye):
    X=              0.1944    Y=             -0.9067    Z=             -0.5297  Tot=              1.0680
 Quadrupole moment (field-independent basis, Debye-Ang):
   XX=            -62.2232   YY=            -69.6138   ZZ=            -70.4463
   XY=              2.9836   XZ=             -1.5482   YZ=              3.9051

 Normal termination of Gaussian 16 at Tue Dec  5 14:27:17 2023.
