 Gaussian 16, Revision B.01,
 Gaussian 16:  ES64L-G16RevB.01 20-Dec-2017

 -------------------------
 #P B3LYP/6-311+g(d) force
 -------------------------

 -----
 DPGEN
 -----
 Symbolic Z-matrix:
 Charge =  0 Multiplicity = 2

                         Standard orientation:
 ---------------------------------------------------------------------
 Center     Atomic      Atomic             Coordinates (Angstroms)
 Number     Number       Type             X           Y           Z
 ---------------------------------------------------------------------
      1         11           0        2.279284   -1.714215    0.569066
      2         11           0       -2.892812    2.222546   -0.024762
      3         11           0       -1.288374   -0.853780    1.988260
      4         11           0       -3.109749   -1.393431   -1.055281
      5         11           0        0.029406   -0.880198   -1.242346
      6         11           0        4.065958    0.803079   -0.583213
      7         11           0        0.916287    1.815999    0.348275
 ---------------------------------------------------------------------

 SCF Done:  E(UB3LYP) =  -1136.11730941     A.U. after   26 cycles

 The electronic state is 2-A.
 Alpha  occ. eigenvalues --  -38.44782 -38.44276 -38.44202 -38.44128 -38.44116
 Alpha  occ. eigenvalues --  -38.43863 -38.43543  -2.20602  -2.20225  -2.20049
 Alpha  occ. eigenvalues --   -2.20000  -2.19979  -2.19626  -2.19391  -1.14273
 Alpha  occ. eigenvalues --   -1.14253  -1.14230  -1.13996  -1.13909  -1.13863
 Alpha  occ. eigenvalues --   -1.13722  -1.13698  -1.13679  -1.13658  -1.13646
 Alpha  occ. eigenvalues --   -1.13635  -1.13608  -1.13601  -1.13590  -1.13307
 Alpha  occ. eigenvalues --   -1.13282  -1.13267  -1.13133  -1.13062  -1.12975
 Alpha  occ. eigenvalues --   -0.18310  -0.14282  -0.11059  -0.10761
 Alpha virt. eigenvalues --   -0.07015  -0.05931  -0.04243  -0.03141  -0.02880
 Alpha virt. eigenvalues --   -0.02291  -0.02182  -0.01532  -0.00918  -0.00484
 Alpha virt. eigenvalues --   -0.00011   0.00201   0.00367   0.00541   0.00657

  Beta  occ. eigenvalues --  -38.44755 -38.44260 -38.44138 -38.44108 -38.44069
  Beta  occ. eigenvalues --  -38.43861 -38.43534  -2.20551  -2.20200  -2.19988
  Beta  occ. eigenvalues --   -2.19932  -2.19872  -2.19623  -2.19378  -1.14238
  Beta  occ. eigenvalues --   -1.14217  -1.14197  -1.13957  -1.13891  -1.13845
  Beta  occ. eigenvalues --   -1.13662  -1.13633  -1.13630  -1.13618  -1.13581
  Beta  occ. eigenvalues --   -1.13571  -1.13563  -1.13534  -1.13515  -1.13304
  Beta  occ. eigenvalues --   -1.13274  -1.13261  -1.13128  -1.13034  -1.12962
  Beta  occ. eigenvalues --   -0.17714  -0.13874  -0.10864
  Beta virt. eigenvalues --   -0.07098  -0.06689  -0.05884  -0.03667  -0.03000
  Beta virt. eigenvalues --   -0.02675  -0.01751  -0.01555  -0.01347  -0.00451
  Beta virt. eigenvalues --   -0.00386   0.00062   0.00220   0.00498   0.00598

 Mulliken charges and spin densities:
               1          2
     1  Na   0.625718   0.173737
     2  Na  -0.203128   0.010270
     3  Na  -0.019419   0.337831
     4  Na   0.385551   0.324493
     5  Na  -0.512224   0.023026
     6  Na   0.520801   0.156184
     7  Na  -0.797300  -0.025541
 Sum of Mulliken charges =  -0.00000   1.00000

 Dipole moment (field-independent basis, Debye):
    X=              0.5890    Y=             -0.4988    Z=              0.5242  Tot=              0.9330
 Quadrupole moment (field-independent basis, Debye-Ang):
   XX=            -49.0337   YY=            -76.0320   ZZ=            -69.8691
   XY=             -0.2708   XZ=             -2.0505   YZ=             -2.6834

 Normal termination of Gaussian 16 at Sun Dec  3 23:58:50 2023.
