 Gaussian 16, Revision B.01,
 Gaussian 16:  ES64L-G16RevB.01 20-Dec-2017

 -------------------------
 #P B3LYP/6-311+g(d) force
 -------------------------

 -----
 DPGEN
 -----
 Symbolic Z-matrix:
 Charge =  0 Multiplicity = 2

                         Standard orientation:
 ---------------------------------------------------------------------
 Center     Atomic      Atomic             Coordinates (Angstroms)
 Number     Number       Type             X           Y           Z
 ---------------------------------------------------------------------
      1         11           0        2.873580    1.159487    0.008602
      2         11           0       -0.332709    2.909368   -0.469880
      3         11           0       -3.080246   -1.017572   -0.611850
      4         11           0        5.455963   -0.904429   -0.257631
      5         11           0       -6.332619   -0.610569   -0.025390
      6         11           0       -0.687848    0.429158    1.316044
      7         11           0        2.103879   -1.965443    0.040105
 ---------------------------------------------------------------------

 SCF Done:  E(UB3LYP) =  -1136.11767630     A.U. after   20 cycles

 The electronic state is 2-A.
 Alpha  occ. eigenvalues --  -38.44642 -38.44477 -38.44394 -38.44178 -38.44002
 Alpha  occ. eigenvalues --  -38.43790 -38.43613  -2.20482  -2.20289  -2.20264
 Alpha  occ. eigenvalues --   -2.20051  -2.19838  -2.19563  -2.19406  -1.14195
 Alpha  occ. eigenvalues --   -1.14154  -1.14071  -1.13972  -1.13965  -1.13957
 Alpha  occ. eigenvalues --   -1.13946  -1.13915  -1.13816  -1.13770  -1.13720
 Alpha  occ. eigenvalues --   -1.13691  -1.13489  -1.13472  -1.13449  -1.13220
 Alpha  occ. eigenvalues --   -1.13219  -1.13207  -1.13096  -1.13079  -1.13023
 Alpha  occ. eigenvalues --   -0.17126  -0.13964  -0.12084  -0.10674
 Alpha virt. eigenvalues --   -0.06437  -0.05512  -0.05104  -0.03246  -0.02914
 Alpha virt. eigenvalues --   -0.02451  -0.02073  -0.01461  -0.01039  -0.00869
 Alpha virt. eigenvalues --   -0.00300  -0.00044   0.00076   0.00371   0.00573

  Beta  occ. eigenvalues --  -38.44586 -38.44462 -38.44372 -38.44158 -38.43967
  Beta  occ. eigenvalues --  -38.43758 -38.43619  -2.20378  -2.20260  -2.20223
  Beta  occ. eigenvalues --   -2.20018  -2.19773  -2.19502  -2.19421  -1.14131
  Beta  occ. eigenvalues --   -1.14085  -1.13988  -1.13944  -1.13940  -1.13927
  Beta  occ. eigenvalues --   -1.13908  -1.13892  -1.13789  -1.13743  -1.13690
  Beta  occ. eigenvalues --   -1.13657  -1.13444  -1.13426  -1.13407  -1.13177
  Beta  occ. eigenvalues --   -1.13177  -1.13171  -1.13106  -1.13092  -1.13008
  Beta  occ. eigenvalues --   -0.16514  -0.13825  -0.11644
  Beta virt. eigenvalues --   -0.07268  -0.06091  -0.05080  -0.04762  -0.03019
  Beta virt. eigenvalues --   -0.02596  -0.02295  -0.01709  -0.01255  -0.00812
  Beta virt. eigenvalues --   -0.00471  -0.00076   0.00103   0.00257   0.00486

 Mulliken charges and spin densities:
               1          2
     1  Na  -0.671999   0.229433
     2  Na   0.231229   0.086705
     3  Na  -0.398001  -0.093927
     4  Na   0.840735   0.152520
     5  Na   0.322618   0.181280
     6  Na  -0.010824   0.320833
     7  Na  -0.313758   0.123157
 Sum of Mulliken charges =  -0.00000   1.00000

 Dipole moment (field-independent basis, Debye):
    X=              1.9405    Y=              0.1114    Z=             -0.0263  Tot=              1.9439
 Quadrupole moment (field-independent basis, Debye-Ang):
   XX=            -57.3840   YY=            -69.5116   ZZ=            -69.6793
   XY=             -7.8156   XZ=             -2.2266   YZ=              0.0555

 Normal termination of Gaussian 16 at Tue Nov 28 20:21:30 2023.
