 Gaussian 16, Revision B.01,
 Gaussian 16:  ES64L-G16RevB.01 20-Dec-2017

 -------------------------
 #P B3LYP/6-311+g(d) force
 -------------------------

 -----
 DPGEN
 -----
 Symbolic Z-matrix:
 Charge =  0 Multiplicity = 2

                         Standard orientation:
 ---------------------------------------------------------------------
 Center     Atomic      Atomic             Coordinates (Angstroms)
 Number     Number       Type             X           Y           Z
 ---------------------------------------------------------------------
      1         11           0        1.686202   -2.327068    0.534955
      2         11           0        1.829268    1.417414   -0.626545
      3         11           0       -1.516709    0.712400   -1.293182
      4         11           0       -1.461109   -1.642773    0.878521
      5         11           0       -4.557454   -0.635614   -0.445688
      6         11           0       -0.371001    2.888720    1.395410
      7         11           0        4.390803   -0.413080   -0.443471
 ---------------------------------------------------------------------

 SCF Done:  E(UB3LYP) =  -1136.12403986     A.U. after   20 cycles

 The electronic state is 2-A.
 Alpha  occ. eigenvalues --  -38.44671 -38.44137 -38.43956 -38.43621 -38.43558
 Alpha  occ. eigenvalues --  -38.43515 -38.43457  -2.20542  -2.19931  -2.19782
 Alpha  occ. eigenvalues --   -2.19510  -2.19410  -2.19357  -2.19348  -1.14261
 Alpha  occ. eigenvalues --   -1.14232  -1.14128  -1.13608  -1.13592  -1.13554
 Alpha  occ. eigenvalues --   -1.13437  -1.13430  -1.13396  -1.13218  -1.13168
 Alpha  occ. eigenvalues --   -1.13148  -1.13132  -1.13064  -1.13049  -1.13042
 Alpha  occ. eigenvalues --   -1.13026  -1.13020  -1.13010  -1.12953  -1.12913
 Alpha  occ. eigenvalues --   -0.17448  -0.14012  -0.12270  -0.10824
 Alpha virt. eigenvalues --   -0.06588  -0.05035  -0.04352  -0.03531  -0.02748
 Alpha virt. eigenvalues --   -0.02682  -0.01810  -0.01188  -0.00937  -0.00473
 Alpha virt. eigenvalues --   -0.00242   0.00014   0.00449   0.00680   0.00768

  Beta  occ. eigenvalues --  -38.44666 -38.44134 -38.43896 -38.43578 -38.43505
  Beta  occ. eigenvalues --  -38.43476 -38.43443  -2.20534  -2.19924  -2.19669
  Beta  occ. eigenvalues --   -2.19438  -2.19328  -2.19311  -2.19291  -1.14249
  Beta  occ. eigenvalues --   -1.14228  -1.14115  -1.13605  -1.13587  -1.13549
  Beta  occ. eigenvalues --   -1.13356  -1.13352  -1.13327  -1.13168  -1.13122
  Beta  occ. eigenvalues --   -1.13075  -1.13063  -1.13042  -1.13005  -1.12990
  Beta  occ. eigenvalues --   -1.12979  -1.12977  -1.12961  -1.12880  -1.12873
  Beta  occ. eigenvalues --   -0.16949  -0.13412  -0.11855
  Beta virt. eigenvalues --   -0.07262  -0.06450  -0.04871  -0.03808  -0.03206
  Beta virt. eigenvalues --   -0.02574  -0.02397  -0.01381  -0.00913  -0.00611
  Beta virt. eigenvalues --   -0.00308  -0.00094   0.00211   0.00612   0.00800

 Mulliken charges and spin densities:
               1          2
     1  Na  -0.284868   0.043421
     2  Na  -0.447944   0.162409
     3  Na   0.049843  -0.031824
     4  Na  -0.222435   0.192983
     5  Na   0.462710   0.302061
     6  Na   0.102840   0.085296
     7  Na   0.339854   0.245654
 Sum of Mulliken charges =  -0.00000   1.00000

 Dipole moment (field-independent basis, Debye):
    X=             -0.7419    Y=              0.6021    Z=              0.5766  Tot=              1.1160
 Quadrupole moment (field-independent basis, Debye-Ang):
   XX=            -62.0932   YY=            -71.6299   ZZ=            -65.0846
   XY=             -2.0496   XZ=             -1.5754   YZ=              2.1130

 Normal termination of Gaussian 16 at Tue Nov 28 23:34:13 2023.
