 Gaussian 16, Revision B.01,
 Gaussian 16:  ES64L-G16RevB.01 20-Dec-2017

 -------------------------
 #P B3LYP/6-311+g(d) force
 -------------------------

 -----
 DPGEN
 -----
 Symbolic Z-matrix:
 Charge =  0 Multiplicity = 2

                         Standard orientation:
 ---------------------------------------------------------------------
 Center     Atomic      Atomic             Coordinates (Angstroms)
 Number     Number       Type             X           Y           Z
 ---------------------------------------------------------------------
      1         11           0        0.148705   -0.051468    2.232750
      2         11           0        0.628951   -2.779363   -0.362149
      3         11           0        1.585462    2.757120   -0.156468
      4         11           0       -0.243352    0.298670   -1.421977
      5         11           0        2.998922   -0.695218   -0.168358
      6         11           0       -2.352541    2.037748   -0.096144
      7         11           0       -2.766147   -1.567488   -0.027654
 ---------------------------------------------------------------------

 SCF Done:  E(UB3LYP) =  -1136.13591033     A.U. after   19 cycles

 The electronic state is 2-A.
 Alpha  occ. eigenvalues --  -38.44117 -38.43903 -38.43838 -38.43826 -38.43704
 Alpha  occ. eigenvalues --  -38.43268 -38.42969  -2.19953  -2.19720  -2.19685
 Alpha  occ. eigenvalues --   -2.19631  -2.19554  -2.19143  -2.18985  -1.13685
 Alpha  occ. eigenvalues --   -1.13606  -1.13563  -1.13396  -1.13380  -1.13378
 Alpha  occ. eigenvalues --   -1.13359  -1.13347  -1.13333  -1.13315  -1.13288
 Alpha  occ. eigenvalues --   -1.13262  -1.13210  -1.13176  -1.13170  -1.12836
 Alpha  occ. eigenvalues --   -1.12794  -1.12779  -1.12670  -1.12633  -1.12600
 Alpha  occ. eigenvalues --   -0.18484  -0.12962  -0.12469  -0.10637
 Alpha virt. eigenvalues --   -0.05698  -0.05314  -0.04750  -0.03067  -0.02787
 Alpha virt. eigenvalues --   -0.02605  -0.01489  -0.01329  -0.00550  -0.00386
 Alpha virt. eigenvalues --   -0.00018   0.00337   0.00782   0.00823   0.00889

  Beta  occ. eigenvalues --  -38.44113 -38.43901 -38.43834 -38.43824 -38.43594
  Beta  occ. eigenvalues --  -38.43259 -38.42922  -2.19949  -2.19719  -2.19680
  Beta  occ. eigenvalues --   -2.19629  -2.19350  -2.19130  -2.18901  -1.13677
  Beta  occ. eigenvalues --   -1.13588  -1.13565  -1.13390  -1.13376  -1.13367
  Beta  occ. eigenvalues --   -1.13362  -1.13333  -1.13319  -1.13307  -1.13277
  Beta  occ. eigenvalues --   -1.13263  -1.13074  -1.13033  -1.13025  -1.12823
  Beta  occ. eigenvalues --   -1.12777  -1.12761  -1.12605  -1.12573  -1.12540
  Beta  occ. eigenvalues --   -0.17780  -0.12751  -0.12261
  Beta virt. eigenvalues --   -0.06656  -0.05707  -0.05260  -0.04715  -0.02296
  Beta virt. eigenvalues --   -0.02061  -0.01475  -0.01409  -0.01259  -0.00600
  Beta virt. eigenvalues --   -0.00426   0.00151   0.00379   0.00808   0.00867

 Mulliken charges and spin densities:
               1          2
     1  Na  -0.650915   0.804273
     2  Na   0.195563   0.044198
     3  Na   0.170696  -0.027263
     4  Na  -0.413863   0.140282
     5  Na   0.231643   0.027310
     6  Na   0.276093  -0.015494
     7  Na   0.190782   0.026694
 Sum of Mulliken charges =  -0.00000   1.00000

 Dipole moment (field-independent basis, Debye):
    X=             -0.1865    Y=              0.2649    Z=              0.2008  Tot=              0.3812
 Quadrupole moment (field-independent basis, Debye-Ang):
   XX=            -56.5717   YY=            -60.9420   ZZ=            -75.5248
   XY=              0.6828   XZ=             -0.8038   YZ=              0.7011

 Normal termination of Gaussian 16 at Sat Dec  9 05:45:19 2023.
