 Gaussian 16, Revision B.01,
 Gaussian 16:  ES64L-G16RevB.01 20-Dec-2017

 -------------------------
 #P B3LYP/6-311+g(d) force
 -------------------------

 -----
 DPGEN
 -----
 Symbolic Z-matrix:
 Charge =  0 Multiplicity = 2

                         Standard orientation:
 ---------------------------------------------------------------------
 Center     Atomic      Atomic             Coordinates (Angstroms)
 Number     Number       Type             X           Y           Z
 ---------------------------------------------------------------------
      1         11           0       -0.625334   -3.113925   -0.951774
      2         11           0        2.495810   -1.800515   -0.966725
      3         11           0       -3.393573   -1.094368    1.915731
      4         11           0       -1.442291    3.415992   -0.663898
      5         11           0        4.195023   -0.259437    1.228291
      6         11           0       -3.423426    0.250900   -0.612510
      7         11           0        2.193790    2.601352    0.050886
 ---------------------------------------------------------------------

 SCF Done:  E(UB3LYP) =  -1136.10819324     A.U. after   20 cycles

 The electronic state is 2-A.
 Alpha  occ. eigenvalues --  -38.44905 -38.44898 -38.44720 -38.44389 -38.44358
 Alpha  occ. eigenvalues --  -38.44124 -38.43569  -2.20740  -2.20629  -2.20552
 Alpha  occ. eigenvalues --   -2.20182  -2.20172  -2.19938  -2.19336  -1.14573
 Alpha  occ. eigenvalues --   -1.14363  -1.14346  -1.14334  -1.14316  -1.14246
 Alpha  occ. eigenvalues --   -1.14192  -1.14187  -1.14140  -1.13870  -1.13836
 Alpha  occ. eigenvalues --   -1.13834  -1.13828  -1.13802  -1.13785  -1.13617
 Alpha  occ. eigenvalues --   -1.13607  -1.13561  -1.13002  -1.12988  -1.12965
 Alpha  occ. eigenvalues --   -0.15854  -0.14275  -0.12546  -0.10836
 Alpha virt. eigenvalues --   -0.06741  -0.05412  -0.04663  -0.03662  -0.03051
 Alpha virt. eigenvalues --   -0.02235  -0.01936  -0.01618  -0.01231  -0.01045
 Alpha virt. eigenvalues --   -0.00475  -0.00112  -0.00040   0.00361   0.00588

  Beta  occ. eigenvalues --  -38.44916 -38.44838 -38.44714 -38.44323 -38.44309
  Beta  occ. eigenvalues --  -38.44113 -38.43528  -2.20652  -2.20631  -2.20544
  Beta  occ. eigenvalues --   -2.20089  -2.20053  -2.19925  -2.19260  -1.14510
  Beta  occ. eigenvalues --   -1.14353  -1.14335  -1.14288  -1.14274  -1.14240
  Beta  occ. eigenvalues --   -1.14184  -1.14180  -1.14100  -1.13815  -1.13764
  Beta  occ. eigenvalues --   -1.13756  -1.13753  -1.13738  -1.13696  -1.13612
  Beta  occ. eigenvalues --   -1.13600  -1.13508  -1.12949  -1.12937  -1.12915
  Beta  occ. eigenvalues --   -0.15340  -0.13716  -0.11727
  Beta virt. eigenvalues --   -0.07708  -0.06780  -0.05034  -0.04303  -0.03438
  Beta virt. eigenvalues --   -0.02616  -0.01919  -0.01789  -0.01243  -0.01099
  Beta virt. eigenvalues --   -0.00840  -0.00288   0.00117   0.00182   0.00405

 Mulliken charges and spin densities:
               1          2
     1  Na  -0.015272   0.242506
     2  Na  -0.294319   0.026401
     3  Na   0.060426   0.181837
     4  Na  -0.002940   0.191710
     5  Na   0.368364   0.249716
     6  Na   0.000947   0.134856
     7  Na  -0.117206  -0.027027
 Sum of Mulliken charges =  -0.00000   1.00000

 Dipole moment (field-independent basis, Debye):
    X=             -0.0494    Y=             -0.6127    Z=              0.9160  Tot=              1.1031
 Quadrupole moment (field-independent basis, Debye-Ang):
   XX=            -62.3249   YY=            -73.0511   ZZ=            -65.6506
   XY=              1.7573   XZ=              2.8192   YZ=             -1.7755

 Normal termination of Gaussian 16 at Sun Dec  3 21:33:55 2023.
