 Gaussian 16, Revision B.01,
 Gaussian 16:  ES64L-G16RevB.01 20-Dec-2017

 -------------------------
 #P B3LYP/6-311+g(d) force
 -------------------------

 -----
 DPGEN
 -----
 Symbolic Z-matrix:
 Charge =  0 Multiplicity = 2

                         Standard orientation:
 ---------------------------------------------------------------------
 Center     Atomic      Atomic             Coordinates (Angstroms)
 Number     Number       Type             X           Y           Z
 ---------------------------------------------------------------------
      1         11           0       -0.078221    3.125004   -0.080431
      2         11           0        2.708336    1.543971   -0.899926
      3         11           0       -2.333300    0.276259   -0.459875
      4         11           0        0.695600   -2.113392   -1.619215
      5         11           0       -5.107962   -0.905470    0.329912
      6         11           0        0.869865    0.082159    1.973938
      7         11           0        3.245682   -2.008531    0.755597
 ---------------------------------------------------------------------

 SCF Done:  E(UB3LYP) =  -1136.11569345     A.U. after   23 cycles

 The electronic state is 2-A.
 Alpha  occ. eigenvalues --  -38.45468 -38.44777 -38.44533 -38.44181 -38.43850
 Alpha  occ. eigenvalues --  -38.43540 -38.43422  -2.21262  -2.20547  -2.20370
 Alpha  occ. eigenvalues --   -2.19980  -2.19669  -2.19366  -2.19239  -1.14938
 Alpha  occ. eigenvalues --   -1.14920  -1.14888  -1.14221  -1.14202  -1.14200
 Alpha  occ. eigenvalues --   -1.14041  -1.14020  -1.13979  -1.13639  -1.13628
 Alpha  occ. eigenvalues --   -1.13594  -1.13343  -1.13330  -1.13305  -1.13051
 Alpha  occ. eigenvalues --   -1.13035  -1.13004  -1.12905  -1.12900  -1.12888
 Alpha  occ. eigenvalues --   -0.17352  -0.13232  -0.12154  -0.10536
 Alpha virt. eigenvalues --   -0.07596  -0.05266  -0.04313  -0.03399  -0.02870
 Alpha virt. eigenvalues --   -0.02773  -0.02308  -0.01507  -0.00925  -0.00668
 Alpha virt. eigenvalues --   -0.00332  -0.00070   0.00171   0.00556   0.00609

  Beta  occ. eigenvalues --  -38.45448 -38.44785 -38.44457 -38.44105 -38.43841
  Beta  occ. eigenvalues --  -38.43534 -38.43423  -2.21226  -2.20561  -2.20231
  Beta  occ. eigenvalues --   -2.19838  -2.19657  -2.19356  -2.19245  -1.14902
  Beta  occ. eigenvalues --   -1.14891  -1.14867  -1.14231  -1.14211  -1.14209
  Beta  occ. eigenvalues --   -1.13941  -1.13928  -1.13876  -1.13542  -1.13525
  Beta  occ. eigenvalues --   -1.13503  -1.13337  -1.13313  -1.13277  -1.13045
  Beta  occ. eigenvalues --   -1.13015  -1.13003  -1.12904  -1.12898  -1.12891
  Beta  occ. eigenvalues --   -0.16703  -0.13185  -0.11885
  Beta virt. eigenvalues --   -0.07330  -0.06750  -0.05170  -0.04095  -0.02974
  Beta virt. eigenvalues --   -0.02604  -0.02274  -0.01623  -0.01363  -0.00890
  Beta virt. eigenvalues --   -0.00429  -0.00202   0.00069   0.00342   0.00609

 Mulliken charges and spin densities:
               1          2
     1  Na   0.679966  -0.077103
     2  Na  -0.009921   0.208141
     3  Na  -1.151774   0.149190
     4  Na   0.039189   0.339956
     5  Na   0.274871  -0.069203
     6  Na  -0.118308   0.403096
     7  Na   0.285977   0.045923
 Sum of Mulliken charges =  -0.00000   1.00000

 Dipole moment (field-independent basis, Debye):
    X=              0.4034    Y=              0.1051    Z=              0.0744  Tot=              0.4234
 Quadrupole moment (field-independent basis, Debye-Ang):
   XX=            -50.8001   YY=            -68.8394   ZZ=            -74.5043
   XY=              2.2917   XZ=             -4.1024   YZ=             -1.4577

 Normal termination of Gaussian 16 at Sun Dec  3 17:31:00 2023.
