 Gaussian 16, Revision B.01,
 Gaussian 16:  ES64L-G16RevB.01 20-Dec-2017

 -------------------------
 #P B3LYP/6-311+g(d) force
 -------------------------

 -----
 DPGEN
 -----
 Symbolic Z-matrix:
 Charge =  0 Multiplicity = 2

                         Standard orientation:
 ---------------------------------------------------------------------
 Center     Atomic      Atomic             Coordinates (Angstroms)
 Number     Number       Type             X           Y           Z
 ---------------------------------------------------------------------
      1         11           0       -0.041641    0.236210   -1.565105
      2         11           0        1.329682   -1.175368    1.796376
      3         11           0       -3.772482    0.125335   -0.703238
      4         11           0       -1.626352   -2.305796    0.403408
      5         11           0        3.192147   -1.085533   -1.036041
      6         11           0        2.102153    2.050576    0.049867
      7         11           0       -1.183507    2.154575    1.054733
 ---------------------------------------------------------------------

 SCF Done:  E(UB3LYP) =  -1136.13058074     A.U. after   21 cycles

 The electronic state is 2-A.
 Alpha  occ. eigenvalues --  -38.44724 -38.44239 -38.44156 -38.43505 -38.43482
 Alpha  occ. eigenvalues --  -38.43460 -38.43211  -2.20520  -2.20080  -2.20062
 Alpha  occ. eigenvalues --   -2.19358  -2.19326  -2.19323  -2.19045  -1.14192
 Alpha  occ. eigenvalues --   -1.14169  -1.14153  -1.13770  -1.13750  -1.13733
 Alpha  occ. eigenvalues --   -1.13723  -1.13716  -1.13670  -1.13049  -1.13031
 Alpha  occ. eigenvalues --   -1.13027  -1.13004  -1.12981  -1.12977  -1.12960
 Alpha  occ. eigenvalues --   -1.12960  -1.12933  -1.12723  -1.12701  -1.12671
 Alpha  occ. eigenvalues --   -0.18207  -0.13757  -0.11616  -0.10843
 Alpha virt. eigenvalues --   -0.06492  -0.05259  -0.04420  -0.03319  -0.02877
 Alpha virt. eigenvalues --   -0.02315  -0.02250  -0.01019  -0.00716  -0.00249
 Alpha virt. eigenvalues --    0.00153   0.00214   0.00381   0.00720   0.00781

  Beta  occ. eigenvalues --  -38.44709 -38.44208 -38.44121 -38.43496 -38.43475
  Beta  occ. eigenvalues --  -38.43398 -38.43189  -2.20491  -2.20024  -2.19999
  Beta  occ. eigenvalues --   -2.19349  -2.19313  -2.19209  -2.19005  -1.14168
  Beta  occ. eigenvalues --   -1.14150  -1.14134  -1.13721  -1.13704  -1.13695
  Beta  occ. eigenvalues --   -1.13684  -1.13671  -1.13618  -1.13045  -1.13010
  Beta  occ. eigenvalues --   -1.13009  -1.12983  -1.12958  -1.12943  -1.12900
  Beta  occ. eigenvalues --   -1.12878  -1.12862  -1.12698  -1.12666  -1.12638
  Beta  occ. eigenvalues --   -0.17560  -0.13482  -0.11319
  Beta virt. eigenvalues --   -0.07158  -0.06288  -0.05258  -0.03893  -0.03070
  Beta virt. eigenvalues --   -0.02260  -0.02057  -0.01445  -0.00989  -0.00451
  Beta virt. eigenvalues --   -0.00127   0.00157   0.00268   0.00524   0.00783

 Mulliken charges and spin densities:
               1          2
     1  Na  -0.334232   0.145951
     2  Na  -0.119982   0.343670
     3  Na   0.561641   0.078670
     4  Na  -0.297228   0.064809
     5  Na   0.333520   0.099039
     6  Na   0.172538   0.116188
     7  Na  -0.316257   0.151672
 Sum of Mulliken charges =  -0.00000   1.00000

 Dipole moment (field-independent basis, Debye):
    X=             -0.2732    Y=              0.0843    Z=             -0.2052  Tot=              0.3519
 Quadrupole moment (field-independent basis, Debye-Ang):
   XX=            -49.8992   YY=            -73.3990   ZZ=            -70.5996
   XY=             -0.8939   XZ=              0.0925   YZ=              1.7342

 Normal termination of Gaussian 16 at Tue Dec  5 10:19:41 2023.
