 Gaussian 16, Revision B.01,
 Gaussian 16:  ES64L-G16RevB.01 20-Dec-2017

 -------------------------
 #P B3LYP/6-311+g(d) force
 -------------------------

 -----
 DPGEN
 -----
 Symbolic Z-matrix:
 Charge =  0 Multiplicity = 2

                         Standard orientation:
 ---------------------------------------------------------------------
 Center     Atomic      Atomic             Coordinates (Angstroms)
 Number     Number       Type             X           Y           Z
 ---------------------------------------------------------------------
      1         11           0        3.049830   -0.472969    0.081841
      2         11           0       -2.603954   -1.520841   -0.526076
      3         11           0       -0.178353   -0.045701    1.906086
      4         11           0        1.369747    2.590461   -0.332408
      5         11           0       -2.279926    1.821286    0.419071
      6         11           0        0.710007   -2.677695    0.034664
      7         11           0       -0.067352    0.305460   -1.583177
 ---------------------------------------------------------------------

 SCF Done:  E(UB3LYP) =  -1136.13738260     A.U. after   20 cycles

 The electronic state is 2-A.
 Alpha  occ. eigenvalues --  -38.43860 -38.43695 -38.43662 -38.43456 -38.43417
 Alpha  occ. eigenvalues --  -38.43124 -38.43074  -2.19715  -2.19579  -2.19524
 Alpha  occ. eigenvalues --   -2.19410  -2.19295  -2.19113  -2.19017  -1.13397
 Alpha  occ. eigenvalues --   -1.13378  -1.13358  -1.13306  -1.13252  -1.13216
 Alpha  occ. eigenvalues --   -1.13203  -1.13171  -1.13147  -1.13092  -1.13077
 Alpha  occ. eigenvalues --   -1.13035  -1.13016  -1.12938  -1.12904  -1.12782
 Alpha  occ. eigenvalues --   -1.12735  -1.12715  -1.12689  -1.12675  -1.12644
 Alpha  occ. eigenvalues --   -0.19087  -0.13163  -0.12582  -0.10882
 Alpha virt. eigenvalues --   -0.05424  -0.05135  -0.04558  -0.03235  -0.02907
 Alpha virt. eigenvalues --   -0.02472  -0.01458  -0.01107  -0.00235  -0.00109
 Alpha virt. eigenvalues --    0.00042   0.00352   0.00839   0.00906   0.00933

  Beta  occ. eigenvalues --  -38.43858 -38.43680 -38.43647 -38.43408 -38.43368
  Beta  occ. eigenvalues --  -38.43119 -38.43010  -2.19715  -2.19556  -2.19498
  Beta  occ. eigenvalues --   -2.19283  -2.19248  -2.19012  -2.18997  -1.13399
  Beta  occ. eigenvalues --   -1.13371  -1.13348  -1.13278  -1.13212  -1.13197
  Beta  occ. eigenvalues --   -1.13178  -1.13148  -1.13129  -1.13059  -1.12978
  Beta  occ. eigenvalues --   -1.12927  -1.12916  -1.12902  -1.12893  -1.12715
  Beta  occ. eigenvalues --   -1.12686  -1.12665  -1.12645  -1.12633  -1.12621
  Beta  occ. eigenvalues --   -0.18376  -0.12896  -0.12293
  Beta virt. eigenvalues --   -0.06957  -0.05391  -0.05098  -0.04539  -0.02446
  Beta virt. eigenvalues --   -0.02145  -0.01442  -0.01338  -0.01013  -0.00248
  Beta virt. eigenvalues --   -0.00147   0.00144   0.00382   0.00898   0.00906

 Mulliken charges and spin densities:
               1          2
     1  Na  -0.010323  -0.057216
     2  Na   0.131660   0.002890
     3  Na  -0.312684   0.624945
     4  Na   0.256403  -0.049597
     5  Na   0.207552   0.024716
     6  Na   0.110245  -0.022224
     7  Na  -0.382854   0.476487
 Sum of Mulliken charges =  -0.00000   1.00000

 Dipole moment (field-independent basis, Debye):
    X=             -0.0453    Y=              0.0734    Z=              0.1512  Tot=              0.1741
 Quadrupole moment (field-independent basis, Debye-Ang):
   XX=            -56.4091   YY=            -62.9525   ZZ=            -73.9949
   XY=              0.1718   XZ=              0.5550   YZ=              0.9820

 Normal termination of Gaussian 16 at Fri Dec  8 02:16:55 2023.
