 Gaussian 16, Revision B.01,
 Gaussian 16:  ES64L-G16RevB.01 20-Dec-2017

 -------------------------
 #P B3LYP/6-311+g(d) force
 -------------------------

 -----
 DPGEN
 -----
 Symbolic Z-matrix:
 Charge =  0 Multiplicity = 2

                         Standard orientation:
 ---------------------------------------------------------------------
 Center     Atomic      Atomic             Coordinates (Angstroms)
 Number     Number       Type             X           Y           Z
 ---------------------------------------------------------------------
      1         11           0        0.329977   -0.524107   -1.555169
      2         11           0        0.059057    2.889006   -0.965305
      3         11           0       -2.118680    1.215706    0.768090
      4         11           0        1.792680    1.134605    1.393969
      5         11           0       -2.920986   -1.649923   -0.743679
      6         11           0       -0.204205   -1.564744    1.790520
      7         11           0        3.062157   -1.500543   -0.688426
 ---------------------------------------------------------------------

 SCF Done:  E(UB3LYP) =  -1136.13410670     A.U. after   19 cycles

 The electronic state is 2-A.
 Alpha  occ. eigenvalues --  -38.44006 -38.43871 -38.43835 -38.43722 -38.43648
 Alpha  occ. eigenvalues --  -38.43406 -38.42838  -2.19879  -2.19714  -2.19708
 Alpha  occ. eigenvalues --   -2.19547  -2.19533  -2.19372  -2.18704  -1.13587
 Alpha  occ. eigenvalues --   -1.13523  -1.13484  -1.13453  -1.13397  -1.13375
 Alpha  occ. eigenvalues --   -1.13349  -1.13335  -1.13305  -1.13244  -1.13220
 Alpha  occ. eigenvalues --   -1.13218  -1.13203  -1.13183  -1.13126  -1.13040
 Alpha  occ. eigenvalues --   -1.13007  -1.12990  -1.12372  -1.12354  -1.12342
 Alpha  occ. eigenvalues --   -0.18594  -0.13000  -0.12026  -0.11513
 Alpha virt. eigenvalues --   -0.05451  -0.05194  -0.04222  -0.03444  -0.03086
 Alpha virt. eigenvalues --   -0.02850  -0.01493  -0.01045  -0.00523   0.00183
 Alpha virt. eigenvalues --    0.00307   0.00348   0.00651   0.00742   0.00773

  Beta  occ. eigenvalues --  -38.43941 -38.43859 -38.43797 -38.43714 -38.43640
  Beta  occ. eigenvalues --  -38.43347 -38.42826  -2.19762  -2.19689  -2.19647
  Beta  occ. eigenvalues --   -2.19533  -2.19522  -2.19264  -2.18682  -1.13505
  Beta  occ. eigenvalues --   -1.13431  -1.13423  -1.13405  -1.13349  -1.13339
  Beta  occ. eigenvalues --   -1.13316  -1.13300  -1.13272  -1.13236  -1.13208
  Beta  occ. eigenvalues --   -1.13195  -1.13181  -1.13171  -1.13122  -1.12964
  Beta  occ. eigenvalues --   -1.12929  -1.12913  -1.12352  -1.12340  -1.12324
  Beta  occ. eigenvalues --   -0.17817  -0.12797  -0.11858
  Beta virt. eigenvalues --   -0.07511  -0.05315  -0.04983  -0.04029  -0.02892
  Beta virt. eigenvalues --   -0.02581  -0.01872  -0.01411  -0.00931  -0.00211
  Beta virt. eigenvalues --    0.00171   0.00379   0.00394   0.00779   0.00796

 Mulliken charges and spin densities:
               1          2
     1  Na  -0.340802   0.598077
     2  Na   0.293287  -0.190736
     3  Na  -0.110157   0.217944
     4  Na   0.093717   0.249765
     5  Na   0.326254  -0.136197
     6  Na  -0.293373   0.324964
     7  Na   0.031075  -0.063817
 Sum of Mulliken charges =  -0.00000   1.00000

 Dipole moment (field-independent basis, Debye):
    X=              0.0601    Y=             -0.3704    Z=              0.2025  Tot=              0.4264
 Quadrupole moment (field-independent basis, Debye-Ang):
   XX=            -58.3670   YY=            -67.9234   ZZ=            -67.8743
   XY=              0.5409   XZ=              1.0898   YZ=              0.0882

 Normal termination of Gaussian 16 at Wed Nov 29 16:11:42 2023.
