 Gaussian 16, Revision B.01,
 Gaussian 16:  ES64L-G16RevB.01 20-Dec-2017

 -------------------------
 #P B3LYP/6-311+g(d) force
 -------------------------

 -----
 DPGEN
 -----
 Symbolic Z-matrix:
 Charge =  0 Multiplicity = 2

                         Standard orientation:
 ---------------------------------------------------------------------
 Center     Atomic      Atomic             Coordinates (Angstroms)
 Number     Number       Type             X           Y           Z
 ---------------------------------------------------------------------
      1         11           0        1.618106    0.984134    1.988647
      2         11           0       -0.589946   -0.188160   -0.577330
      3         11           0        0.161606    3.275858   -0.160743
      4         11           0        1.428208   -2.629557   -0.535901
      5         11           0        3.678453   -0.132201   -0.966367
      6         11           0       -2.390554   -2.051030    1.168554
      7         11           0       -3.905873    0.740957   -0.916861
 ---------------------------------------------------------------------

 SCF Done:  E(UB3LYP) =  -1136.11975024     A.U. after   21 cycles

 The electronic state is 2-A.
 Alpha  occ. eigenvalues --  -38.44389 -38.44294 -38.44281 -38.44095 -38.43896
 Alpha  occ. eigenvalues --  -38.43724 -38.43344  -2.20205  -2.20098  -2.20093
 Alpha  occ. eigenvalues --   -2.19889  -2.19667  -2.19551  -2.19311  -1.13877
 Alpha  occ. eigenvalues --   -1.13848  -1.13824  -1.13791  -1.13764  -1.13747
 Alpha  occ. eigenvalues --   -1.13733  -1.13724  -1.13707  -1.13552  -1.13529
 Alpha  occ. eigenvalues --   -1.13508  -1.13353  -1.13331  -1.13303  -1.13290
 Alpha  occ. eigenvalues --   -1.13211  -1.13163  -1.13028  -1.12959  -1.12934
 Alpha  occ. eigenvalues --   -0.17340  -0.13406  -0.12090  -0.10149
 Alpha virt. eigenvalues --   -0.06635  -0.05374  -0.04614  -0.03528  -0.02680
 Alpha virt. eigenvalues --   -0.02406  -0.01786  -0.01335  -0.00914  -0.00437
 Alpha virt. eigenvalues --   -0.00294   0.00130   0.00297   0.00601   0.00655

  Beta  occ. eigenvalues --  -38.44345 -38.44254 -38.44243 -38.44034 -38.43908
  Beta  occ. eigenvalues --  -38.43722 -38.43338  -2.20123  -2.20044  -2.20003
  Beta  occ. eigenvalues --   -2.19774  -2.19691  -2.19553  -2.19303  -1.13816
  Beta  occ. eigenvalues --   -1.13792  -1.13771  -1.13758  -1.13715  -1.13699
  Beta  occ. eigenvalues --   -1.13669  -1.13661  -1.13658  -1.13471  -1.13451
  Beta  occ. eigenvalues --   -1.13434  -1.13369  -1.13347  -1.13310  -1.13296
  Beta  occ. eigenvalues --   -1.13213  -1.13135  -1.12994  -1.12951  -1.12933
  Beta  occ. eigenvalues --   -0.16877  -0.12899  -0.11787
  Beta virt. eigenvalues --   -0.06879  -0.06451  -0.04873  -0.04423  -0.03197
  Beta virt. eigenvalues --   -0.02286  -0.02097  -0.01363  -0.01069  -0.00736
  Beta virt. eigenvalues --   -0.00253  -0.00127   0.00246   0.00434   0.00696

 Mulliken charges and spin densities:
               1          2
     1  Na   0.142062   0.276598
     2  Na  -1.205817  -0.030411
     3  Na  -0.080680  -0.073655
     4  Na   0.601555   0.122484
     5  Na  -0.013383   0.245156
     6  Na   0.096137   0.171510
     7  Na   0.460125   0.288318
 Sum of Mulliken charges =  -0.00000   1.00000

 Dipole moment (field-independent basis, Debye):
    X=              0.1308    Y=              0.0822    Z=              0.8384  Tot=              0.8525
 Quadrupole moment (field-independent basis, Debye-Ang):
   XX=            -60.1060   YY=            -66.0702   ZZ=            -69.0710
   XY=              3.5636   XZ=             -0.3832   YZ=             -4.1185

 Normal termination of Gaussian 16 at Tue Dec  5 15:35:29 2023.
