 Gaussian 16, Revision B.01,
 Gaussian 16:  ES64L-G16RevB.01 20-Dec-2017

 -------------------------
 #P B3LYP/6-311+g(d) force
 -------------------------

 -----
 DPGEN
 -----
 Symbolic Z-matrix:
 Charge =  0 Multiplicity = 2

                         Standard orientation:
 ---------------------------------------------------------------------
 Center     Atomic      Atomic             Coordinates (Angstroms)
 Number     Number       Type             X           Y           Z
 ---------------------------------------------------------------------
      1         11           0       -0.067787   -0.410892    1.961513
      2         11           0        1.153147    2.863080    0.099631
      3         11           0        1.867924   -2.517326   -0.626082
      4         11           0        3.448208    0.311288    0.261646
      5         11           0       -3.264397    1.533891   -0.304443
      6         11           0       -2.948742   -1.800954    0.351662
      7         11           0       -0.188353    0.020914   -1.743927
 ---------------------------------------------------------------------

 SCF Done:  E(UB3LYP) =  -1136.12597590     A.U. after   22 cycles

 The electronic state is 2-A.
 Alpha  occ. eigenvalues --  -38.44937 -38.44898 -38.44513 -38.44186 -38.43929
 Alpha  occ. eigenvalues --  -38.43117 -38.42910  -2.20711  -2.20706  -2.20310
 Alpha  occ. eigenvalues --   -2.20015  -2.19791  -2.18946  -2.18709  -1.14383
 Alpha  occ. eigenvalues --   -1.14382  -1.14362  -1.14359  -1.14355  -1.14350
 Alpha  occ. eigenvalues --   -1.13978  -1.13964  -1.13954  -1.13695  -1.13648
 Alpha  occ. eigenvalues --   -1.13627  -1.13482  -1.13428  -1.13408  -1.12615
 Alpha  occ. eigenvalues --   -1.12604  -1.12588  -1.12386  -1.12376  -1.12355
 Alpha  occ. eigenvalues --   -0.17769  -0.13617  -0.11472  -0.10568
 Alpha virt. eigenvalues --   -0.06686  -0.05782  -0.04206  -0.03428  -0.02662
 Alpha virt. eigenvalues --   -0.02396  -0.02274  -0.01564  -0.00730  -0.00419
 Alpha virt. eigenvalues --   -0.00152   0.00248   0.00548   0.00586   0.00726

  Beta  occ. eigenvalues --  -38.44928 -38.44896 -38.44504 -38.44106 -38.43862
  Beta  occ. eigenvalues --  -38.43103 -38.42914  -2.20704  -2.20695  -2.20295
  Beta  occ. eigenvalues --   -2.19867  -2.19668  -2.18922  -2.18717  -1.14373
  Beta  occ. eigenvalues --   -1.14363  -1.14359  -1.14352  -1.14346  -1.14344
  Beta  occ. eigenvalues --   -1.13955  -1.13954  -1.13939  -1.13595  -1.13549
  Beta  occ. eigenvalues --   -1.13515  -1.13397  -1.13345  -1.13313  -1.12595
  Beta  occ. eigenvalues --   -1.12588  -1.12563  -1.12391  -1.12379  -1.12352
  Beta  occ. eigenvalues --   -0.17093  -0.13434  -0.11221
  Beta virt. eigenvalues --   -0.06831  -0.06547  -0.05638  -0.04104  -0.02827
  Beta virt. eigenvalues --   -0.02189  -0.01924  -0.01556  -0.01376  -0.00732
  Beta virt. eigenvalues --   -0.00431   0.00020   0.00295   0.00667   0.00725

 Mulliken charges and spin densities:
               1          2
     1  Na  -0.068660   0.556173
     2  Na  -0.291745  -0.051170
     3  Na  -0.020132   0.037736
     4  Na   0.168928   0.007633
     5  Na  -0.042387  -0.005949
     6  Na   0.094776   0.033741
     7  Na   0.159220   0.421837
 Sum of Mulliken charges =  -0.00000   1.00000

 Dipole moment (field-independent basis, Debye):
    X=             -0.6229    Y=             -0.0955    Z=              0.1630  Tot=              0.6510
 Quadrupole moment (field-independent basis, Debye-Ang):
   XX=            -49.7824   YY=            -68.5046   ZZ=            -75.5437
   XY=             -0.8002   XZ=              0.7907   YZ=              0.5315

 Normal termination of Gaussian 16 at Fri Dec  8 03:47:03 2023.
