 Gaussian 16, Revision B.01,
 Gaussian 16:  ES64L-G16RevB.01 20-Dec-2017

 -------------------------
 #P B3LYP/6-311+g(d) force
 -------------------------

 -----
 DPGEN
 -----
 Symbolic Z-matrix:
 Charge =  0 Multiplicity = 2

                         Standard orientation:
 ---------------------------------------------------------------------
 Center     Atomic      Atomic             Coordinates (Angstroms)
 Number     Number       Type             X           Y           Z
 ---------------------------------------------------------------------
      1         11           0       -2.998855    1.465020    0.097137
      2         11           0        2.968860   -2.138640   -0.093286
      3         11           0       -0.106609   -0.362460    1.792813
      4         11           0        3.308160    1.014158    0.184140
      5         11           0        0.231694    2.575568   -0.380170
      6         11           0        0.079071   -0.600971   -1.498182
      7         11           0       -3.482321   -1.952675   -0.102451
 ---------------------------------------------------------------------

 SCF Done:  E(UB3LYP) =  -1136.11995071     A.U. after   27 cycles

 The electronic state is 2-A.
 Alpha  occ. eigenvalues --  -38.45334 -38.44986 -38.44550 -38.44142 -38.44111
 Alpha  occ. eigenvalues --  -38.43840 -38.42186  -2.21154  -2.20792  -2.20307
 Alpha  occ. eigenvalues --   -2.19963  -2.19958  -2.19728  -2.18062  -1.14822
 Alpha  occ. eigenvalues --   -1.14818  -1.14799  -1.14471  -1.14450  -1.14432
 Alpha  occ. eigenvalues --   -1.13984  -1.13976  -1.13946  -1.13689  -1.13639
 Alpha  occ. eigenvalues --   -1.13616  -1.13605  -1.13586  -1.13553  -1.13439
 Alpha  occ. eigenvalues --   -1.13366  -1.13319  -1.11749  -1.11716  -1.11711
 Alpha  occ. eigenvalues --   -0.18158  -0.13933  -0.11485  -0.09939
 Alpha virt. eigenvalues --   -0.07197  -0.06337  -0.03814  -0.03461  -0.02791
 Alpha virt. eigenvalues --   -0.02222  -0.02095  -0.01732  -0.01083  -0.00264
 Alpha virt. eigenvalues --   -0.00119   0.00123   0.00505   0.00557   0.00600

  Beta  occ. eigenvalues --  -38.45328 -38.44984 -38.44561 -38.44140 -38.44030
  Beta  occ. eigenvalues --  -38.43771 -38.42176  -2.21145  -2.20791  -2.20329
  Beta  occ. eigenvalues --   -2.19960  -2.19813  -2.19602  -2.18046  -1.14821
  Beta  occ. eigenvalues --   -1.14795  -1.14790  -1.14453  -1.14449  -1.14438
  Beta  occ. eigenvalues --   -1.14001  -1.13980  -1.13960  -1.13643  -1.13610
  Beta  occ. eigenvalues --   -1.13590  -1.13581  -1.13482  -1.13446  -1.13344
  Beta  occ. eigenvalues --   -1.13271  -1.13230  -1.11740  -1.11708  -1.11674
  Beta  occ. eigenvalues --   -0.17443  -0.13828  -0.11288
  Beta virt. eigenvalues --   -0.07041  -0.06340  -0.06095  -0.03822  -0.02783
  Beta virt. eigenvalues --   -0.02637  -0.01884  -0.01484  -0.01174  -0.00911
  Beta virt. eigenvalues --   -0.00167   0.00038   0.00154   0.00562   0.00595

 Mulliken charges and spin densities:
               1          2
     1  Na   0.235570   0.031881
     2  Na   0.363467   0.012319
     3  Na  -0.396527   0.535148
     4  Na   0.165723   0.091569
     5  Na  -0.076209  -0.041656
     6  Na  -0.456165   0.443788
     7  Na   0.164141  -0.073049
 Sum of Mulliken charges =  -0.00000   1.00000

 Dipole moment (field-independent basis, Debye):
    X=              0.0016    Y=             -0.0586    Z=              0.1265  Tot=              0.1395
 Quadrupole moment (field-independent basis, Debye-Ang):
   XX=            -45.9902   YY=            -66.7030   ZZ=            -79.1564
   XY=              0.1635   XZ=              0.4477   YZ=              0.1571

 Normal termination of Gaussian 16 at Fri Dec  8 03:17:19 2023.
