 Gaussian 16, Revision B.01,
 Gaussian 16:  ES64L-G16RevB.01 20-Dec-2017

 -------------------------
 #P B3LYP/6-311+g(d) force
 -------------------------

 -----
 DPGEN
 -----
 Symbolic Z-matrix:
 Charge =  0 Multiplicity = 2

                         Standard orientation:
 ---------------------------------------------------------------------
 Center     Atomic      Atomic             Coordinates (Angstroms)
 Number     Number       Type             X           Y           Z
 ---------------------------------------------------------------------
      1         11           0       -0.207255   -0.272376    1.964998
      2         11           0        3.513932    0.945172    1.184695
      3         11           0        4.045219   -1.281994   -1.001708
      4         11           0        0.227656    2.004701   -0.854886
      5         11           0       -0.412908   -1.454958   -1.152680
      6         11           0       -3.224553    1.373375   -0.750388
      7         11           0       -3.942092   -1.313921    0.609969
 ---------------------------------------------------------------------

 SCF Done:  E(UB3LYP) =  -1136.10238234     A.U. after   34 cycles

 The electronic state is 2-A.
 Alpha  occ. eigenvalues --  -38.47062 -38.45374 -38.44840 -38.44189 -38.43583
 Alpha  occ. eigenvalues --  -38.43570 -38.42194  -2.22838  -2.21164  -2.20688
 Alpha  occ. eigenvalues --   -2.20054  -2.19400  -2.19372  -2.18042  -1.16540
 Alpha  occ. eigenvalues --   -1.16489  -1.16449  -1.14850  -1.14829  -1.14789
 Alpha  occ. eigenvalues --   -1.14365  -1.14318  -1.14281  -1.13738  -1.13713
 Alpha  occ. eigenvalues --   -1.13663  -1.13093  -1.13061  -1.13034  -1.13025
 Alpha  occ. eigenvalues --   -1.13022  -1.13013  -1.11743  -1.11699  -1.11672
 Alpha  occ. eigenvalues --   -0.17763  -0.14147  -0.10956  -0.10619
 Alpha virt. eigenvalues --   -0.08267  -0.05415  -0.04530  -0.03634  -0.03083
 Alpha virt. eigenvalues --   -0.02372  -0.02157  -0.01844  -0.01366  -0.00405
 Alpha virt. eigenvalues --   -0.00269   0.00061   0.00185   0.00297   0.00568

  Beta  occ. eigenvalues --  -38.47049 -38.45368 -38.44747 -38.44126 -38.43579
  Beta  occ. eigenvalues --  -38.43543 -38.42191  -2.22817  -2.21156  -2.20516
  Beta  occ. eigenvalues --   -2.19938  -2.19397  -2.19323  -2.18037  -1.16500
  Beta  occ. eigenvalues --   -1.16476  -1.16443  -1.14835  -1.14826  -1.14775
  Beta  occ. eigenvalues --   -1.14243  -1.14206  -1.14158  -1.13659  -1.13636
  Beta  occ. eigenvalues --   -1.13581  -1.13084  -1.13053  -1.13011  -1.12999
  Beta  occ. eigenvalues --   -1.12991  -1.12979  -1.11743  -1.11696  -1.11657
  Beta  occ. eigenvalues --   -0.17153  -0.13695  -0.10367
  Beta virt. eigenvalues --   -0.08096  -0.07354  -0.05138  -0.04267  -0.03163
  Beta virt. eigenvalues --   -0.02804  -0.02074  -0.01707  -0.01548  -0.01071
  Beta virt. eigenvalues --   -0.00257  -0.00119   0.00089   0.00285   0.00411

 Mulliken charges and spin densities:
               1          2
     1  Na  -0.298744   0.268044
     2  Na   0.514179   0.172437
     3  Na  -0.124324   0.062827
     4  Na  -0.386802   0.046148
     5  Na  -0.101794   0.152946
     6  Na  -0.005758   0.249027
     7  Na   0.403243   0.048570
 Sum of Mulliken charges =  -0.00000   1.00000

 Dipole moment (field-independent basis, Debye):
    X=              0.0969    Y=              0.0706    Z=              0.6384  Tot=              0.6496
 Quadrupole moment (field-independent basis, Debye-Ang):
   XX=            -74.6097   YY=            -74.3703   ZZ=            -61.6388
   XY=              2.3872   XZ=              1.1989   YZ=              7.4202

 Normal termination of Gaussian 16 at Sun Dec  3 19:14:33 2023.
