 Gaussian 16, Revision B.01,
 Gaussian 16:  ES64L-G16RevB.01 20-Dec-2017

 -------------------------
 #P B3LYP/6-311+g(d) force
 -------------------------

 -----
 DPGEN
 -----
 Symbolic Z-matrix:
 Charge =  0 Multiplicity = 2

                         Standard orientation:
 ---------------------------------------------------------------------
 Center     Atomic      Atomic             Coordinates (Angstroms)
 Number     Number       Type             X           Y           Z
 ---------------------------------------------------------------------
      1         11           0        2.536795    1.655638    0.196526
      2         11           0       -0.219170   -0.134041   -1.757640
      3         11           0        2.255488   -1.868372   -0.592623
      4         11           0       -1.380275   -2.442665    0.117608
      5         11           0       -0.596611    2.801161   -0.112842
      6         11           0       -2.954902    0.516494    0.067265
      7         11           0        0.358675   -0.528216    2.081706
 ---------------------------------------------------------------------

 SCF Done:  E(UB3LYP) =  -1136.13862843     A.U. after   19 cycles

 The electronic state is 2-A.
 Alpha  occ. eigenvalues --  -38.43818 -38.43706 -38.43640 -38.43602 -38.43427
 Alpha  occ. eigenvalues --  -38.43383 -38.43217  -2.19712  -2.19565  -2.19473
 Alpha  occ. eigenvalues --   -2.19473  -2.19373  -2.19333  -2.19082  -1.13387
 Alpha  occ. eigenvalues --   -1.13348  -1.13337  -1.13277  -1.13212  -1.13194
 Alpha  occ. eigenvalues --   -1.13177  -1.13147  -1.13142  -1.13139  -1.13129
 Alpha  occ. eigenvalues --   -1.13110  -1.13084  -1.13027  -1.13001  -1.12985
 Alpha  occ. eigenvalues --   -1.12951  -1.12938  -1.12756  -1.12742  -1.12716
 Alpha  occ. eigenvalues --   -0.18873  -0.12928  -0.12668  -0.11124
 Alpha virt. eigenvalues --   -0.05282  -0.05137  -0.04657  -0.03289  -0.03107
 Alpha virt. eigenvalues --   -0.02806  -0.01256  -0.01044  -0.00205  -0.00123
 Alpha virt. eigenvalues --   -0.00020   0.00374   0.00850   0.00911   0.00928

  Beta  occ. eigenvalues --  -38.43728 -38.43689 -38.43637 -38.43600 -38.43417
  Beta  occ. eigenvalues --  -38.43311 -38.43215  -2.19547  -2.19537  -2.19472
  Beta  occ. eigenvalues --   -2.19470  -2.19321  -2.19243  -2.19082  -1.13285
  Beta  occ. eigenvalues --   -1.13244  -1.13231  -1.13222  -1.13179  -1.13172
  Beta  occ. eigenvalues --   -1.13166  -1.13146  -1.13142  -1.13118  -1.13109
  Beta  occ. eigenvalues --   -1.13108  -1.13046  -1.12965  -1.12943  -1.12936
  Beta  occ. eigenvalues --   -1.12893  -1.12885  -1.12749  -1.12734  -1.12712
  Beta  occ. eigenvalues --   -0.18134  -0.12696  -0.12419
  Beta virt. eigenvalues --   -0.07165  -0.05276  -0.05094  -0.04583  -0.02515
  Beta virt. eigenvalues --   -0.02325  -0.01737  -0.01169  -0.00967  -0.00237
  Beta virt. eigenvalues --   -0.00164   0.00115   0.00407   0.00897   0.00925

 Mulliken charges and spin densities:
               1          2
     1  Na  -0.006893  -0.023585
     2  Na  -0.253641   0.479580
     3  Na   0.242342  -0.034775
     4  Na   0.458294   0.027879
     5  Na   0.035564  -0.057668
     6  Na   0.059725  -0.036132
     7  Na  -0.535391   0.644702
 Sum of Mulliken charges =  -0.00000   1.00000

 Dipole moment (field-independent basis, Debye):
    X=              0.1302    Y=             -0.1689    Z=              0.1725  Tot=              0.2742
 Quadrupole moment (field-independent basis, Debye-Ang):
   XX=            -59.2657   YY=            -63.5762   ZZ=            -72.1662
   XY=             -0.1244   XZ=             -1.0512   YZ=              0.8408

 Normal termination of Gaussian 16 at Tue Dec  5 21:50:56 2023.
