 Gaussian 16, Revision B.01,
 Gaussian 16:  ES64L-G16RevB.01 20-Dec-2017

 -------------------------
 #P B3LYP/6-311+g(d) force
 -------------------------

 -----
 DPGEN
 -----
 Symbolic Z-matrix:
 Charge =  0 Multiplicity = 2

                         Standard orientation:
 ---------------------------------------------------------------------
 Center     Atomic      Atomic             Coordinates (Angstroms)
 Number     Number       Type             X           Y           Z
 ---------------------------------------------------------------------
      1         11           0       -3.129563   -0.085415    0.410638
      2         11           0       -0.838567   -3.076713    0.072451
      3         11           0        2.498367   -1.550801   -0.395943
      4         11           0        0.739309    0.044980    1.588003
      5         11           0        2.721261    1.706063   -0.063148
      6         11           0       -0.780869   -0.151652   -1.439207
      7         11           0       -1.209938    3.113538   -0.172793
 ---------------------------------------------------------------------

 SCF Done:  E(UB3LYP) =  -1136.12889261     A.U. after   20 cycles

 The electronic state is 2-A.
 Alpha  occ. eigenvalues --  -38.44436 -38.44179 -38.44133 -38.43818 -38.43778
 Alpha  occ. eigenvalues --  -38.42997 -38.42913  -2.20278  -2.20031  -2.19910
 Alpha  occ. eigenvalues --   -2.19708  -2.19604  -2.18976  -2.18903  -1.14014
 Alpha  occ. eigenvalues --   -1.13927  -1.13881  -1.13747  -1.13692  -1.13657
 Alpha  occ. eigenvalues --   -1.13587  -1.13564  -1.13550  -1.13421  -1.13363
 Alpha  occ. eigenvalues --   -1.13325  -1.13286  -1.13261  -1.13241  -1.12681
 Alpha  occ. eigenvalues --   -1.12609  -1.12597  -1.12578  -1.12559  -1.12498
 Alpha  occ. eigenvalues --   -0.18520  -0.13410  -0.12512  -0.09719
 Alpha virt. eigenvalues --   -0.05925  -0.05388  -0.05267  -0.03177  -0.02530
 Alpha virt. eigenvalues --   -0.01627  -0.01563  -0.01521  -0.00821  -0.00642
 Alpha virt. eigenvalues --    0.00048   0.00343   0.00747   0.00801   0.00837

  Beta  occ. eigenvalues --  -38.44426 -38.44174 -38.44129 -38.43804 -38.43773
  Beta  occ. eigenvalues --  -38.42930 -38.42861  -2.20261  -2.20027  -2.19905
  Beta  occ. eigenvalues --   -2.19685  -2.19599  -2.18854  -2.18809  -1.13999
  Beta  occ. eigenvalues --   -1.13902  -1.13870  -1.13739  -1.13678  -1.13648
  Beta  occ. eigenvalues --   -1.13570  -1.13559  -1.13550  -1.13403  -1.13331
  Beta  occ. eigenvalues --   -1.13305  -1.13279  -1.13250  -1.13228  -1.12596
  Beta  occ. eigenvalues --   -1.12525  -1.12511  -1.12496  -1.12489  -1.12428
  Beta  occ. eigenvalues --   -0.17857  -0.13181  -0.12278
  Beta virt. eigenvalues --   -0.06032  -0.05831  -0.05362  -0.05160  -0.02401
  Beta virt. eigenvalues --   -0.01873  -0.01473  -0.01463  -0.00874  -0.00795
  Beta virt. eigenvalues --   -0.00591   0.00202   0.00407   0.00763   0.00814

 Mulliken charges and spin densities:
               1          2
     1  Na   0.050768   0.025800
     2  Na   0.149502   0.035722
     3  Na   0.101924   0.038324
     4  Na  -0.248347   0.570490
     5  Na   0.179953  -0.052879
     6  Na  -0.179800   0.486639
     7  Na  -0.054001  -0.104096
 Sum of Mulliken charges =  -0.00000   1.00000

 Dipole moment (field-independent basis, Debye):
    X=             -0.1438    Y=              0.1855    Z=              0.0503  Tot=              0.2401
 Quadrupole moment (field-independent basis, Debye-Ang):
   XX=            -55.6201   YY=            -56.3296   ZZ=            -78.8319
   XY=              0.8846   XZ=             -3.1216   YZ=             -0.5033

 Normal termination of Gaussian 16 at Tue Nov 28 20:55:55 2023.
