 Gaussian 16, Revision B.01,
 Gaussian 16:  ES64L-G16RevB.01 20-Dec-2017

 -------------------------
 #P B3LYP/6-311+g(d) force
 -------------------------

 -----
 DPGEN
 -----
 Symbolic Z-matrix:
 Charge =  0 Multiplicity = 2

                         Standard orientation:
 ---------------------------------------------------------------------
 Center     Atomic      Atomic             Coordinates (Angstroms)
 Number     Number       Type             X           Y           Z
 ---------------------------------------------------------------------
      1         11           0        2.482811   -2.106907   -0.043736
      2         11           0       -0.538090    2.858811   -0.063999
      3         11           0        0.098678    0.147583    2.172970
      4         11           0        0.331208   -0.273700   -1.424475
      5         11           0       -3.242614    0.424876   -0.345144
      6         11           0       -1.699812   -2.559045    0.006691
      7         11           0        2.567820    1.508382   -0.302307
 ---------------------------------------------------------------------

 SCF Done:  E(UB3LYP) =  -1136.13552209     A.U. after   19 cycles

 The electronic state is 2-A.
 Alpha  occ. eigenvalues --  -38.44096 -38.43975 -38.43872 -38.43813 -38.43584
 Alpha  occ. eigenvalues --  -38.43191 -38.43083  -2.19901  -2.19799  -2.19755
 Alpha  occ. eigenvalues --   -2.19633  -2.19450  -2.19097  -2.19042  -1.13572
 Alpha  occ. eigenvalues --   -1.13561  -1.13549  -1.13509  -1.13482  -1.13453
 Alpha  occ. eigenvalues --   -1.13433  -1.13404  -1.13366  -1.13318  -1.13296
 Alpha  occ. eigenvalues --   -1.13260  -1.13112  -1.13071  -1.13066  -1.12783
 Alpha  occ. eigenvalues --   -1.12748  -1.12731  -1.12706  -1.12694  -1.12681
 Alpha  occ. eigenvalues --   -0.18504  -0.13091  -0.12380  -0.10595
 Alpha virt. eigenvalues --   -0.05693  -0.05421  -0.04704  -0.03065  -0.02787
 Alpha virt. eigenvalues --   -0.02519  -0.01585  -0.01257  -0.00592  -0.00388
 Alpha virt. eigenvalues --   -0.00015   0.00326   0.00779   0.00822   0.00878

  Beta  occ. eigenvalues --  -38.44090 -38.43973 -38.43861 -38.43812 -38.43475
  Beta  occ. eigenvalues --  -38.43186 -38.43037  -2.19893  -2.19798  -2.19739
  Beta  occ. eigenvalues --   -2.19631  -2.19248  -2.19037  -2.19015  -1.13558
  Beta  occ. eigenvalues --   -1.13554  -1.13544  -1.13502  -1.13468  -1.13443
  Beta  occ. eigenvalues --   -1.13427  -1.13373  -1.13359  -1.13314  -1.13283
  Beta  occ. eigenvalues --   -1.13259  -1.12978  -1.12931  -1.12922  -1.12735
  Beta  occ. eigenvalues --   -1.12708  -1.12684  -1.12679  -1.12672  -1.12651
  Beta  occ. eigenvalues --   -0.17797  -0.12862  -0.12176
  Beta virt. eigenvalues --   -0.06645  -0.05673  -0.05372  -0.04664  -0.02335
  Beta virt. eigenvalues --   -0.02029  -0.01508  -0.01430  -0.01179  -0.00630
  Beta virt. eigenvalues --   -0.00425   0.00149   0.00372   0.00822   0.00852

 Mulliken charges and spin densities:
               1          2
     1  Na   0.237996  -0.013264
     2  Na   0.173420   0.029091
     3  Na  -0.571597   0.774155
     4  Na  -0.427871   0.180791
     5  Na   0.025983   0.002208
     6  Na   0.147869  -0.004938
     7  Na   0.414201   0.031956
 Sum of Mulliken charges =  -0.00000   1.00000

 Dipole moment (field-independent basis, Debye):
    X=              0.0599    Y=             -0.2159    Z=              0.1681  Tot=              0.2801
 Quadrupole moment (field-independent basis, Debye-Ang):
   XX=            -55.8840   YY=            -61.6013   ZZ=            -75.5485
   XY=             -0.8498   XZ=              0.5939   YZ=             -1.1102

 Normal termination of Gaussian 16 at Thu Dec  7 04:53:28 2023.
