 Gaussian 16, Revision B.01,
 Gaussian 16:  ES64L-G16RevB.01 20-Dec-2017

 -------------------------
 #P B3LYP/6-311+g(d) force
 -------------------------

 -----
 DPGEN
 -----
 Symbolic Z-matrix:
 Charge =  0 Multiplicity = 2

                         Standard orientation:
 ---------------------------------------------------------------------
 Center     Atomic      Atomic             Coordinates (Angstroms)
 Number     Number       Type             X           Y           Z
 ---------------------------------------------------------------------
      1         11           0       -1.977721   -1.349010    0.862461
      2         11           0       -5.594376   -1.038553   -0.517904
      3         11           0       -4.627134    1.716188    0.336021
      4         11           0       -0.819408    1.474356   -0.624056
      5         11           0        1.132906   -1.217974   -0.502265
      6         11           0        4.620960    0.364576    1.065652
      7         11           0        7.264772    0.050417   -0.619910
 ---------------------------------------------------------------------

 SCF Done:  E(UB3LYP) =  -1136.11387184     A.U. after   19 cycles

 The electronic state is 2-A.
 Alpha  occ. eigenvalues --  -38.44708 -38.44521 -38.44363 -38.44144 -38.44046
 Alpha  occ. eigenvalues --  -38.44010 -38.43948  -2.20536  -2.20295  -2.20145
 Alpha  occ. eigenvalues --   -2.19967  -2.19870  -2.19839  -2.19798  -1.14229
 Alpha  occ. eigenvalues --   -1.14220  -1.14130  -1.13983  -1.13954  -1.13953
 Alpha  occ. eigenvalues --   -1.13810  -1.13803  -1.13754  -1.13647  -1.13643
 Alpha  occ. eigenvalues --   -1.13630  -1.13600  -1.13526  -1.13512  -1.13494
 Alpha  occ. eigenvalues --   -1.13477  -1.13467  -1.13459  -1.13409  -1.13387
 Alpha  occ. eigenvalues --   -0.16591  -0.13859  -0.12385  -0.10378
 Alpha virt. eigenvalues --   -0.06751  -0.05470  -0.04975  -0.03442  -0.02841
 Alpha virt. eigenvalues --   -0.02555  -0.02414  -0.01803  -0.00962  -0.00937
 Alpha virt. eigenvalues --   -0.00325  -0.00189   0.00152   0.00308   0.00407

  Beta  occ. eigenvalues --  -38.44668 -38.44522 -38.44362 -38.44135 -38.44021
  Beta  occ. eigenvalues --  -38.43985 -38.43882  -2.20464  -2.20297  -2.20144
  Beta  occ. eigenvalues --   -2.19950  -2.19823  -2.19794  -2.19676  -1.14179
  Beta  occ. eigenvalues --   -1.14155  -1.14076  -1.13984  -1.13956  -1.13954
  Beta  occ. eigenvalues --   -1.13809  -1.13802  -1.13755  -1.13629  -1.13617
  Beta  occ. eigenvalues --   -1.13612  -1.13584  -1.13494  -1.13480  -1.13458
  Beta  occ. eigenvalues --   -1.13435  -1.13389  -1.13380  -1.13368  -1.13291
  Beta  occ. eigenvalues --   -0.15938  -0.13763  -0.12303
  Beta virt. eigenvalues --   -0.06657  -0.06530  -0.05251  -0.04455  -0.03188
  Beta virt. eigenvalues --   -0.02723  -0.02344  -0.01760  -0.01710  -0.00942
  Beta virt. eigenvalues --   -0.00431  -0.00110   0.00016   0.00323   0.00405

 Mulliken charges and spin densities:
               1          2
     1  Na  -0.258925   0.371934
     2  Na   0.209235   0.090688
     3  Na   0.120411   0.069319
     4  Na  -0.071774   0.382787
     5  Na  -0.043341   0.111160
     6  Na  -0.189778  -0.029423
     7  Na   0.234172   0.003535
 Sum of Mulliken charges =  -0.00000   1.00000

 Dipole moment (field-independent basis, Debye):
    X=              0.5801    Y=             -0.3088    Z=             -0.3496  Tot=              0.7444
 Quadrupole moment (field-independent basis, Debye-Ang):
   XX=            -56.1583   YY=            -72.8278   ZZ=            -67.4237
   XY=             -0.8881   XZ=             -4.5362   YZ=              2.6950

 Normal termination of Gaussian 16 at Tue Nov 28 19:45:25 2023.
