 Gaussian 16, Revision B.01,
 Gaussian 16:  ES64L-G16RevB.01 20-Dec-2017

 -------------------------
 #P B3LYP/6-311+g(d) force
 -------------------------

 -----
 DPGEN
 -----
 Symbolic Z-matrix:
 Charge =  0 Multiplicity = 2

                         Standard orientation:
 ---------------------------------------------------------------------
 Center     Atomic      Atomic             Coordinates (Angstroms)
 Number     Number       Type             X           Y           Z
 ---------------------------------------------------------------------
      1         11           0       -0.182202   -0.398023    2.607136
      2         11           0        3.157180   -0.534058    0.168112
      3         11           0        0.426823   -2.813514   -0.263072
      4         11           0       -2.860500   -1.210851   -0.410216
      5         11           0       -2.219055    2.073935    0.345266
      6         11           0        0.143494    0.337594   -2.447552
      7         11           0        1.534260    2.544916    0.000327
 ---------------------------------------------------------------------

 SCF Done:  E(UB3LYP) =  -1136.13119526     A.U. after   19 cycles

 The electronic state is 2-A.
 Alpha  occ. eigenvalues --  -38.45281 -38.45081 -38.43962 -38.43840 -38.43593
 Alpha  occ. eigenvalues --  -38.43274 -38.43139  -2.21063  -2.20883  -2.19750
 Alpha  occ. eigenvalues --   -2.19636  -2.19386  -2.19076  -2.18944  -1.14709
 Alpha  occ. eigenvalues --   -1.14694  -1.14684  -1.14539  -1.14515  -1.14508
 Alpha  occ. eigenvalues --   -1.13427  -1.13412  -1.13396  -1.13309  -1.13302
 Alpha  occ. eigenvalues --   -1.13284  -1.13061  -1.13049  -1.13027  -1.12753
 Alpha  occ. eigenvalues --   -1.12747  -1.12715  -1.12622  -1.12614  -1.12584
 Alpha  occ. eigenvalues --   -0.17611  -0.12513  -0.11872  -0.11780
 Alpha virt. eigenvalues --   -0.05764  -0.05071  -0.04803  -0.03596  -0.03505
 Alpha virt. eigenvalues --   -0.03279  -0.01228  -0.00822  -0.00447  -0.00281
 Alpha virt. eigenvalues --   -0.00227   0.00211   0.00482   0.00564   0.00717

  Beta  occ. eigenvalues --  -38.45186 -38.45001 -38.43963 -38.43838 -38.43590
  Beta  occ. eigenvalues --  -38.43274 -38.43136  -2.20886  -2.20735  -2.19754
  Beta  occ. eigenvalues --   -2.19634  -2.19383  -2.19078  -2.18942  -1.14590
  Beta  occ. eigenvalues --   -1.14571  -1.14557  -1.14443  -1.14409  -1.14400
  Beta  occ. eigenvalues --   -1.13421  -1.13413  -1.13398  -1.13306  -1.13287
  Beta  occ. eigenvalues --   -1.13285  -1.13051  -1.13040  -1.13026  -1.12751
  Beta  occ. eigenvalues --   -1.12737  -1.12718  -1.12619  -1.12598  -1.12582
  Beta  occ. eigenvalues --   -0.16819  -0.12402  -0.11713
  Beta virt. eigenvalues --   -0.07891  -0.05431  -0.05102  -0.04369  -0.03059
  Beta virt. eigenvalues --   -0.02807  -0.02454  -0.01136  -0.00745  -0.00338
  Beta virt. eigenvalues --   -0.00291  -0.00098   0.00467   0.00516   0.00777

 Mulliken charges and spin densities:
               1          2
     1  Na  -0.191744   0.545453
     2  Na   0.153432  -0.043912
     3  Na  -0.062618   0.010492
     4  Na   0.154314  -0.017139
     5  Na  -0.006088   0.023069
     6  Na  -0.041748   0.465368
     7  Na  -0.005548   0.016670
 Sum of Mulliken charges =  -0.00000   1.00000

 Dipole moment (field-independent basis, Debye):
    X=             -0.0094    Y=             -0.0353    Z=              0.0756  Tot=              0.0840
 Quadrupole moment (field-independent basis, Debye-Ang):
   XX=            -63.2258   YY=            -70.1091   ZZ=            -64.7428
   XY=             -0.0052   XZ=              0.6582   YZ=              1.1498

 Normal termination of Gaussian 16 at Mon Dec  4 04:59:38 2023.
