 Gaussian 16, Revision B.01,
 Gaussian 16:  ES64L-G16RevB.01 20-Dec-2017

 -------------------------
 #P B3LYP/6-311+g(d) force
 -------------------------

 -----
 DPGEN
 -----
 Symbolic Z-matrix:
 Charge =  0 Multiplicity = 2

                         Standard orientation:
 ---------------------------------------------------------------------
 Center     Atomic      Atomic             Coordinates (Angstroms)
 Number     Number       Type             X           Y           Z
 ---------------------------------------------------------------------
      1         11           0       -3.551764   -2.167889   -0.262095
      2         11           0        3.010581   -1.881334    1.148172
      3         11           0       -1.070190    3.413129    0.167685
      4         11           0        4.790642    0.543913   -1.008519
      5         11           0       -4.417588    1.230987    0.024633
      6         11           0        1.774149    1.661861    0.300749
      7         11           0       -0.535830   -2.800667   -0.370624
 ---------------------------------------------------------------------

 SCF Done:  E(UB3LYP) =  -1136.11065112     A.U. after   23 cycles

 The electronic state is 2-A.
 Alpha  occ. eigenvalues --  -38.45839 -38.44952 -38.44744 -38.44399 -38.44081
 Alpha  occ. eigenvalues --  -38.43874 -38.43362  -2.21588  -2.20707  -2.20554
 Alpha  occ. eigenvalues --   -2.20212  -2.19890  -2.19669  -2.19146  -1.15281
 Alpha  occ. eigenvalues --   -1.15251  -1.15206  -1.14382  -1.14361  -1.14330
 Alpha  occ. eigenvalues --   -1.14213  -1.14201  -1.14156  -1.13910  -1.13894
 Alpha  occ. eigenvalues --   -1.13819  -1.13612  -1.13559  -1.13535  -1.13334
 Alpha  occ. eigenvalues --   -1.13328  -1.13283  -1.12814  -1.12811  -1.12778
 Alpha  occ. eigenvalues --   -0.16039  -0.14064  -0.12527  -0.10843
 Alpha virt. eigenvalues --   -0.07451  -0.05538  -0.04407  -0.03287  -0.03074
 Alpha virt. eigenvalues --   -0.02667  -0.02195  -0.01676  -0.01062  -0.00862
 Alpha virt. eigenvalues --   -0.00565  -0.00259   0.00087   0.00348   0.00474

  Beta  occ. eigenvalues --  -38.45827 -38.44912 -38.44666 -38.44367 -38.44087
  Beta  occ. eigenvalues --  -38.43858 -38.43336  -2.21568  -2.20635  -2.20408
  Beta  occ. eigenvalues --   -2.20157  -2.19903  -2.19637  -2.19102  -1.15270
  Beta  occ. eigenvalues --   -1.15238  -1.15168  -1.14334  -1.14313  -1.14275
  Beta  occ. eigenvalues --   -1.14112  -1.14101  -1.14062  -1.13876  -1.13853
  Beta  occ. eigenvalues --   -1.13752  -1.13621  -1.13570  -1.13532  -1.13312
  Beta  occ. eigenvalues --   -1.13305  -1.13267  -1.12784  -1.12776  -1.12742
  Beta  occ. eigenvalues --   -0.15457  -0.13643  -0.12036
  Beta virt. eigenvalues --   -0.07539  -0.07247  -0.05075  -0.04131  -0.02989
  Beta virt. eigenvalues --   -0.02688  -0.02431  -0.01991  -0.01464  -0.00775
  Beta virt. eigenvalues --   -0.00649  -0.00290  -0.00085   0.00306   0.00426

 Mulliken charges and spin densities:
               1          2
     1  Na   0.642578   0.235610
     2  Na   0.238686   0.027026
     3  Na  -0.030614  -0.115778
     4  Na   0.593883   0.381141
     5  Na  -0.332251   0.213803
     6  Na  -0.516924   0.346414
     7  Na  -0.595358  -0.088217
 Sum of Mulliken charges =  -0.00000   1.00000

 Dipole moment (field-independent basis, Debye):
    X=              1.2924    Y=             -0.5201    Z=              0.1036  Tot=              1.3970
 Quadrupole moment (field-independent basis, Debye-Ang):
   XX=            -56.5308   YY=            -70.3778   ZZ=            -70.0233
   XY=             -4.6614   XZ=              0.1376   YZ=             -2.4540

 Normal termination of Gaussian 16 at Sun Dec  3 18:11:25 2023.
