 Gaussian 16, Revision B.01,
 Gaussian 16:  ES64L-G16RevB.01 20-Dec-2017

 -------------------------
 #P B3LYP/6-311+g(d) force
 -------------------------

 -----
 DPGEN
 -----
 Symbolic Z-matrix:
 Charge =  0 Multiplicity = 2

                         Standard orientation:
 ---------------------------------------------------------------------
 Center     Atomic      Atomic             Coordinates (Angstroms)
 Number     Number       Type             X           Y           Z
 ---------------------------------------------------------------------
      1         11           0       -3.464131    0.426473    0.208838
      2         11           0        3.138461    1.051434    0.012699
      3         11           0        2.117484   -2.253048   -0.391317
      4         11           0       -1.253947   -2.444187   -0.095589
      5         11           0        0.061161    3.164162    0.020597
      6         11           0       -0.707803    0.387150   -1.670929
      7         11           0        0.108775   -0.331983    1.915701
 ---------------------------------------------------------------------

 SCF Done:  E(UB3LYP) =  -1136.13307710     A.U. after   19 cycles

 The electronic state is 2-A.
 Alpha  occ. eigenvalues --  -38.44803 -38.44373 -38.43810 -38.43526 -38.43409
 Alpha  occ. eigenvalues --  -38.43399 -38.43255  -2.20591  -2.20154  -2.19601
 Alpha  occ. eigenvalues --   -2.19360  -2.19312  -2.19293  -2.19179  -1.14267
 Alpha  occ. eigenvalues --   -1.14242  -1.14236  -1.13832  -1.13816  -1.13792
 Alpha  occ. eigenvalues --   -1.13294  -1.13265  -1.13230  -1.13078  -1.13027
 Alpha  occ. eigenvalues --   -1.13022  -1.13017  -1.13002  -1.12949  -1.12913
 Alpha  occ. eigenvalues --   -1.12900  -1.12896  -1.12851  -1.12810  -1.12799
 Alpha  occ. eigenvalues --   -0.18252  -0.12994  -0.12416  -0.10307
 Alpha virt. eigenvalues --   -0.06322  -0.05080  -0.04899  -0.03117  -0.02832
 Alpha virt. eigenvalues --   -0.02234  -0.01941  -0.01119  -0.00770  -0.00428
 Alpha virt. eigenvalues --   -0.00025   0.00321   0.00747   0.00776   0.00827

  Beta  occ. eigenvalues --  -38.44801 -38.44372 -38.43809 -38.43517 -38.43396
  Beta  occ. eigenvalues --  -38.43312 -38.43195  -2.20591  -2.20155  -2.19602
  Beta  occ. eigenvalues --   -2.19346  -2.19294  -2.19133  -2.19069  -1.14255
  Beta  occ. eigenvalues --   -1.14243  -1.14230  -1.13821  -1.13816  -1.13796
  Beta  occ. eigenvalues --   -1.13288  -1.13255  -1.13233  -1.13055  -1.13012
  Beta  occ. eigenvalues --   -1.13004  -1.12992  -1.12951  -1.12901  -1.12851
  Beta  occ. eigenvalues --   -1.12800  -1.12783  -1.12776  -1.12730  -1.12722
  Beta  occ. eigenvalues --   -0.17541  -0.12811  -0.12192
  Beta virt. eigenvalues --   -0.06468  -0.06281  -0.05056  -0.04793  -0.02418
  Beta virt. eigenvalues --   -0.02088  -0.01853  -0.01255  -0.01026  -0.00803
  Beta virt. eigenvalues --   -0.00467   0.00134   0.00358   0.00781   0.00809

 Mulliken charges and spin densities:
               1          2
     1  Na   0.191698  -0.101968
     2  Na  -0.008745  -0.049953
     3  Na  -0.116866  -0.005209
     4  Na   0.333509   0.111074
     5  Na  -0.070018  -0.174626
     6  Na  -0.061090   0.518446
     7  Na  -0.268487   0.702236
 Sum of Mulliken charges =  -0.00000   1.00000

 Dipole moment (field-independent basis, Debye):
    X=             -0.3382    Y=              0.3245    Z=              0.1195  Tot=              0.4837
 Quadrupole moment (field-independent basis, Debye-Ang):
   XX=            -52.6984   YY=            -63.2867   ZZ=            -76.3934
   XY=             -0.6143   XZ=             -1.8021   YZ=              1.6850

 Normal termination of Gaussian 16 at Fri Dec  8 03:33:54 2023.
