 Gaussian 16, Revision B.01,
 Gaussian 16:  ES64L-G16RevB.01 20-Dec-2017

 -------------------------
 #P B3LYP/6-311+g(d) force
 -------------------------

 -----
 DPGEN
 -----
 Symbolic Z-matrix:
 Charge =  0 Multiplicity = 2

                         Standard orientation:
 ---------------------------------------------------------------------
 Center     Atomic      Atomic             Coordinates (Angstroms)
 Number     Number       Type             X           Y           Z
 ---------------------------------------------------------------------
      1         11           0        0.881532   -0.757672    2.339720
      2         11           0       -3.782023   -1.001913   -1.321129
      3         11           0        0.029617   -0.294091   -1.367340
      4         11           0       -2.469783    0.326635    1.368480
      5         11           0        2.490592   -2.114545   -0.062981
      6         11           0       -0.003668    2.800555    0.263023
      7         11           0        2.853732    1.041031   -1.219774
 ---------------------------------------------------------------------

 SCF Done:  E(UB3LYP) =  -1136.12447856     A.U. after   24 cycles

 The electronic state is 2-A.
 Alpha  occ. eigenvalues --  -38.44489 -38.44348 -38.44224 -38.44201 -38.44067
 Alpha  occ. eigenvalues --  -38.43089 -38.42843  -2.20294  -2.20200  -2.20150
 Alpha  occ. eigenvalues --   -2.20063  -2.19907  -2.18970  -2.18661  -1.13953
 Alpha  occ. eigenvalues --   -1.13936  -1.13927  -1.13875  -1.13860  -1.13846
 Alpha  occ. eigenvalues --   -1.13836  -1.13823  -1.13794  -1.13725  -1.13686
 Alpha  occ. eigenvalues --   -1.13662  -1.13585  -1.13563  -1.13550  -1.12641
 Alpha  occ. eigenvalues --   -1.12637  -1.12614  -1.12335  -1.12334  -1.12287
 Alpha  occ. eigenvalues --   -0.18135  -0.13810  -0.11863  -0.11246
 Alpha virt. eigenvalues --   -0.06062  -0.05298  -0.04706  -0.03345  -0.02868
 Alpha virt. eigenvalues --   -0.02743  -0.02110  -0.00972  -0.00657  -0.00012
 Alpha virt. eigenvalues --    0.00036   0.00265   0.00351   0.00469   0.00779

  Beta  occ. eigenvalues --  -38.44437 -38.44268 -38.44195 -38.44184 -38.44054
  Beta  occ. eigenvalues --  -38.43090 -38.42832  -2.20196  -2.20098  -2.20052
  Beta  occ. eigenvalues --   -2.20032  -2.19888  -2.18976  -2.18642  -1.13890
  Beta  occ. eigenvalues --   -1.13869  -1.13861  -1.13835  -1.13800  -1.13765
  Beta  occ. eigenvalues --   -1.13756  -1.13745  -1.13709  -1.13699  -1.13657
  Beta  occ. eigenvalues --   -1.13645  -1.13571  -1.13553  -1.13502  -1.12648
  Beta  occ. eigenvalues --   -1.12638  -1.12600  -1.12325  -1.12316  -1.12269
  Beta  occ. eigenvalues --   -0.17464  -0.13377  -0.11081
  Beta virt. eigenvalues --   -0.08129  -0.05849  -0.04684  -0.04403  -0.02991
  Beta virt. eigenvalues --   -0.02442  -0.02221  -0.01865  -0.00697  -0.00525
  Beta virt. eigenvalues --    0.00110   0.00214   0.00308   0.00461   0.00601

 Mulliken charges and spin densities:
               1          2
     1  Na  -0.446532   0.390152
     2  Na   0.082307   0.308051
     3  Na  -1.098184   0.114790
     4  Na   0.365378  -0.043952
     5  Na   0.572559   0.133388
     6  Na  -0.110905   0.154002
     7  Na   0.635378  -0.056431
 Sum of Mulliken charges =  -0.00000   1.00000

 Dipole moment (field-independent basis, Debye):
    X=             -0.0245    Y=             -0.0125    Z=             -0.1280  Tot=              0.1309
 Quadrupole moment (field-independent basis, Debye-Ang):
   XX=            -56.0213   YY=            -74.2375   ZZ=            -65.9832
   XY=              0.8616   XZ=             -0.6701   YZ=              4.8021

 Normal termination of Gaussian 16 at Tue Dec  5 16:17:11 2023.
