 Gaussian 16, Revision B.01,
 Gaussian 16:  ES64L-G16RevB.01 20-Dec-2017

 -------------------------
 #P B3LYP/6-311+g(d) force
 -------------------------

 -----
 DPGEN
 -----
 Symbolic Z-matrix:
 Charge =  0 Multiplicity = 2

                         Standard orientation:
 ---------------------------------------------------------------------
 Center     Atomic      Atomic             Coordinates (Angstroms)
 Number     Number       Type             X           Y           Z
 ---------------------------------------------------------------------
      1         11           0       -0.744956   -2.387292   -1.551079
      2         11           0       -3.076994   -0.864791    1.143538
      3         11           0       -2.647143    2.339195   -0.386141
      4         11           0        0.328317   -0.556721    1.628111
      5         11           0        3.238274    1.875235    0.480605
      6         11           0        2.447201   -1.984170   -0.075869
      7         11           0        0.455302    1.578545   -1.239165
 ---------------------------------------------------------------------

 SCF Done:  E(UB3LYP) =  -1136.12458771     A.U. after   20 cycles

 The electronic state is 2-A.
 Alpha  occ. eigenvalues --  -38.44436 -38.44315 -38.44186 -38.44113 -38.43976
 Alpha  occ. eigenvalues --  -38.43849 -38.43310  -2.20267  -2.20103  -2.19973
 Alpha  occ. eigenvalues --   -2.19924  -2.19873  -2.19656  -2.19178  -1.14012
 Alpha  occ. eigenvalues --   -1.13926  -1.13875  -1.13782  -1.13770  -1.13733
 Alpha  occ. eigenvalues --   -1.13653  -1.13636  -1.13619  -1.13606  -1.13573
 Alpha  occ. eigenvalues --   -1.13554  -1.13543  -1.13526  -1.13467  -1.13321
 Alpha  occ. eigenvalues --   -1.13296  -1.13284  -1.12866  -1.12824  -1.12808
 Alpha  occ. eigenvalues --   -0.17740  -0.13248  -0.12165  -0.10606
 Alpha virt. eigenvalues --   -0.06376  -0.05832  -0.04128  -0.03551  -0.03013
 Alpha virt. eigenvalues --   -0.02197  -0.01985  -0.01532  -0.00699  -0.00330
 Alpha virt. eigenvalues --    0.00083   0.00219   0.00262   0.00548   0.00726

  Beta  occ. eigenvalues --  -38.44434 -38.44315 -38.44179 -38.44073 -38.43931
  Beta  occ. eigenvalues --  -38.43794 -38.43277  -2.20267  -2.20104  -2.19963
  Beta  occ. eigenvalues --   -2.19852  -2.19790  -2.19556  -2.19117  -1.14009
  Beta  occ. eigenvalues --   -1.13917  -1.13862  -1.13782  -1.13770  -1.13729
  Beta  occ. eigenvalues --   -1.13639  -1.13627  -1.13605  -1.13545  -1.13521
  Beta  occ. eigenvalues --   -1.13502  -1.13492  -1.13473  -1.13404  -1.13246
  Beta  occ. eigenvalues --   -1.13222  -1.13218  -1.12827  -1.12778  -1.12760
  Beta  occ. eigenvalues --   -0.17153  -0.12977  -0.11843
  Beta virt. eigenvalues --   -0.07013  -0.06266  -0.05661  -0.03743  -0.03101
  Beta virt. eigenvalues --   -0.02428  -0.01861  -0.01607  -0.01276  -0.00562
  Beta virt. eigenvalues --   -0.00176   0.00136   0.00304   0.00389   0.00579

 Mulliken charges and spin densities:
               1          2
     1  Na  -0.260674   0.224496
     2  Na   0.301362   0.257179
     3  Na  -0.098273  -0.030744
     4  Na  -0.342404   0.165655
     5  Na   0.347552  -0.020276
     6  Na   0.400056   0.109101
     7  Na  -0.347620   0.294588
 Sum of Mulliken charges =  -0.00000   1.00000

 Dipole moment (field-independent basis, Debye):
    X=              0.3956    Y=             -0.1272    Z=              0.0805  Tot=              0.4233
 Quadrupole moment (field-independent basis, Debye-Ang):
   XX=            -52.3839   YY=            -68.2644   ZZ=            -73.2489
   XY=              0.1509   XZ=              1.3315   YZ=              2.0951

 Normal termination of Gaussian 16 at Sun Dec  3 20:19:09 2023.
