 Gaussian 16, Revision B.01,
 Gaussian 16:  ES64L-G16RevB.01 20-Dec-2017

 -------------------------
 #P B3LYP/6-311+g(d) force
 -------------------------

 -----
 DPGEN
 -----
 Symbolic Z-matrix:
 Charge =  0 Multiplicity = 2

                         Standard orientation:
 ---------------------------------------------------------------------
 Center     Atomic      Atomic             Coordinates (Angstroms)
 Number     Number       Type             X           Y           Z
 ---------------------------------------------------------------------
      1         11           0       -0.181793   -0.286493   -1.735082
      2         11           0       -0.266480    0.406448    1.992381
      3         11           0        0.782132    2.981399   -0.569305
      4         11           0        3.230726    0.231196    0.343623
      5         11           0       -2.469818   -2.000459    0.027065
      6         11           0        1.803636   -2.514709   -0.117526
      7         11           0       -2.898403    1.182617    0.058845
 ---------------------------------------------------------------------

 SCF Done:  E(UB3LYP) =  -1136.13333555     A.U. after   19 cycles

 The electronic state is 2-A.
 Alpha  occ. eigenvalues --  -38.44360 -38.44357 -38.43962 -38.43864 -38.43443
 Alpha  occ. eigenvalues --  -38.43357 -38.43226  -2.20213  -2.20182  -2.19805
 Alpha  occ. eigenvalues --   -2.19726  -2.19281  -2.19280  -2.19023  -1.13900
 Alpha  occ. eigenvalues --   -1.13883  -1.13867  -1.13850  -1.13848  -1.13814
 Alpha  occ. eigenvalues --   -1.13481  -1.13461  -1.13446  -1.13397  -1.13362
 Alpha  occ. eigenvalues --   -1.13340  -1.12988  -1.12954  -1.12942  -1.12926
 Alpha  occ. eigenvalues --   -1.12904  -1.12888  -1.12697  -1.12674  -1.12667
 Alpha  occ. eigenvalues --   -0.18291  -0.13460  -0.11948  -0.10672
 Alpha virt. eigenvalues --   -0.05968  -0.05454  -0.04529  -0.03429  -0.02815
 Alpha virt. eigenvalues --   -0.02444  -0.01749  -0.01176  -0.00566  -0.00421
 Alpha virt. eigenvalues --   -0.00027   0.00369   0.00717   0.00808   0.00835

  Beta  occ. eigenvalues --  -38.44356 -38.44351 -38.43958 -38.43785 -38.43442
  Beta  occ. eigenvalues --  -38.43284 -38.43212  -2.20206  -2.20175  -2.19801
  Beta  occ. eigenvalues --   -2.19581  -2.19282  -2.19147  -2.19001  -1.13896
  Beta  occ. eigenvalues --   -1.13866  -1.13861  -1.13837  -1.13828  -1.13811
  Beta  occ. eigenvalues --   -1.13475  -1.13454  -1.13430  -1.13300  -1.13259
  Beta  occ. eigenvalues --   -1.13235  -1.12970  -1.12931  -1.12923  -1.12869
  Beta  occ. eigenvalues --   -1.12815  -1.12801  -1.12671  -1.12655  -1.12654
  Beta  occ. eigenvalues --   -0.17578  -0.13247  -0.11708
  Beta virt. eigenvalues --   -0.06852  -0.05828  -0.05454  -0.04442  -0.02677
  Beta virt. eigenvalues --   -0.02105  -0.01630  -0.01473  -0.01104  -0.00594
  Beta virt. eigenvalues --   -0.00455   0.00120   0.00395   0.00789   0.00828

 Mulliken charges and spin densities:
               1          2
     1  Na   0.033936   0.616814
     2  Na  -0.269523   0.589984
     3  Na  -0.128463  -0.033434
     4  Na   0.036053   0.015245
     5  Na   0.011542  -0.103192
     6  Na  -0.019020  -0.108419
     7  Na   0.335475   0.023003
 Sum of Mulliken charges =  -0.00000   1.00000

 Dipole moment (field-independent basis, Debye):
    X=             -0.2967    Y=             -0.0175    Z=              0.1944  Tot=              0.3551
 Quadrupole moment (field-independent basis, Debye-Ang):
   XX=            -54.9536   YY=            -64.6012   ZZ=            -74.7051
   XY=              0.6914   XZ=              0.5863   YZ=             -1.3965

 Normal termination of Gaussian 16 at Thu Dec  7 06:25:59 2023.
