 Gaussian 16, Revision B.01,
 Gaussian 16:  ES64L-G16RevB.01 20-Dec-2017

 -------------------------
 #P B3LYP/6-311+g(d) force
 -------------------------

 -----
 DPGEN
 -----
 Symbolic Z-matrix:
 Charge =  0 Multiplicity = 2

                         Standard orientation:
 ---------------------------------------------------------------------
 Center     Atomic      Atomic             Coordinates (Angstroms)
 Number     Number       Type             X           Y           Z
 ---------------------------------------------------------------------
      1         11           0        2.865635    1.162821    0.285079
      2         11           0       -0.280580    3.170876   -0.436708
      3         11           0       -3.220677   -0.851433   -0.749686
      4         11           0        5.431260   -1.002002   -0.315142
      5         11           0       -6.097469   -0.650330    0.121276
      6         11           0       -0.661702    0.043741    1.163051
      7         11           0        1.963533   -1.873673   -0.067870
 ---------------------------------------------------------------------

 SCF Done:  E(UB3LYP) =  -1136.11859296     A.U. after   20 cycles

 The electronic state is 2-A.
 Alpha  occ. eigenvalues --  -38.44602 -38.44489 -38.44135 -38.44075 -38.43892
 Alpha  occ. eigenvalues --  -38.43830 -38.43618  -2.20464  -2.20347  -2.19938
 Alpha  occ. eigenvalues --   -2.19867  -2.19760  -2.19637  -2.19458  -1.14200
 Alpha  occ. eigenvalues --   -1.14137  -1.14061  -1.14047  -1.14019  -1.13917
 Alpha  occ. eigenvalues --   -1.13604  -1.13601  -1.13556  -1.13528  -1.13517
 Alpha  occ. eigenvalues --   -1.13488  -1.13462  -1.13422  -1.13372  -1.13367
 Alpha  occ. eigenvalues --   -1.13281  -1.13279  -1.13125  -1.13107  -1.13061
 Alpha  occ. eigenvalues --   -0.17068  -0.13935  -0.12087  -0.10968
 Alpha virt. eigenvalues --   -0.06268  -0.05474  -0.04775  -0.03292  -0.03029
 Alpha virt. eigenvalues --   -0.02348  -0.02056  -0.01406  -0.01100  -0.00872
 Alpha virt. eigenvalues --   -0.00335   0.00035   0.00128   0.00470   0.00618

  Beta  occ. eigenvalues --  -38.44549 -38.44469 -38.44119 -38.44023 -38.43860
  Beta  occ. eigenvalues --  -38.43808 -38.43619  -2.20368  -2.20311  -2.19909
  Beta  occ. eigenvalues --   -2.19770  -2.19706  -2.19597  -2.19464  -1.14147
  Beta  occ. eigenvalues --   -1.14074  -1.14024  -1.13993  -1.13952  -1.13886
  Beta  occ. eigenvalues --   -1.13582  -1.13578  -1.13540  -1.13462  -1.13450
  Beta  occ. eigenvalues --   -1.13431  -1.13425  -1.13372  -1.13346  -1.13312
  Beta  occ. eigenvalues --   -1.13253  -1.13251  -1.13129  -1.13113  -1.13044
  Beta  occ. eigenvalues --   -0.16396  -0.13774  -0.11633
  Beta virt. eigenvalues --   -0.07448  -0.06033  -0.04970  -0.04513  -0.03006
  Beta virt. eigenvalues --   -0.02708  -0.02244  -0.01643  -0.01214  -0.00836
  Beta virt. eigenvalues --   -0.00513  -0.00119   0.00187   0.00307   0.00536

 Mulliken charges and spin densities:
               1          2
     1  Na  -0.502240   0.254222
     2  Na   0.144534   0.273432
     3  Na  -0.433469   0.021038
     4  Na   0.674232   0.097030
     5  Na   0.393838   0.082269
     6  Na  -0.011215   0.090544
     7  Na  -0.265681   0.181465
 Sum of Mulliken charges =  -0.00000   1.00000

 Dipole moment (field-independent basis, Debye):
    X=              1.2135    Y=             -0.0387    Z=             -0.0389  Tot=              1.2147
 Quadrupole moment (field-independent basis, Debye-Ang):
   XX=            -57.9433   YY=            -68.6259   ZZ=            -69.5741
   XY=             -5.9352   XZ=             -2.9155   YZ=              0.3792

 Normal termination of Gaussian 16 at Wed Nov 29 00:08:12 2023.
