 Gaussian 16, Revision B.01,
 Gaussian 16:  ES64L-G16RevB.01 20-Dec-2017

 -------------------------
 #P B3LYP/6-311+g(d) force
 -------------------------

 -----
 DPGEN
 -----
 Symbolic Z-matrix:
 Charge =  0 Multiplicity = 2

                         Standard orientation:
 ---------------------------------------------------------------------
 Center     Atomic      Atomic             Coordinates (Angstroms)
 Number     Number       Type             X           Y           Z
 ---------------------------------------------------------------------
      1         11           0        0.032476   -0.025384    1.797482
      2         11           0        1.797718    1.638438    0.054605
      3         11           0        2.423075   -1.065210   -0.129720
      4         11           0        0.024331    0.270472   -1.754323
      5         11           0       -2.551436   -0.726398   -0.167580
      6         11           0       -0.270413   -1.988707    0.053463
      7         11           0       -1.455750    1.896790    0.146073
 ---------------------------------------------------------------------

 SCF Done:  E(UB3LYP) =  -1136.08368336     A.U. after   19 cycles

 The electronic state is 2-A.
 Alpha  occ. eigenvalues --  -38.44245 -38.44227 -38.43947 -38.43874 -38.43606
 Alpha  occ. eigenvalues --  -38.43545 -38.43278  -2.20472  -2.20325  -2.20168
 Alpha  occ. eigenvalues --   -2.19951  -2.19833  -2.19637  -2.19366  -1.14432
 Alpha  occ. eigenvalues --   -1.14302  -1.14159  -1.14081  -1.14030  -1.13936
 Alpha  occ. eigenvalues --   -1.13922  -1.13871  -1.13812  -1.13745  -1.13679
 Alpha  occ. eigenvalues --   -1.13541  -1.13375  -1.13369  -1.13282  -1.13268
 Alpha  occ. eigenvalues --   -1.13259  -1.13174  -1.13039  -1.13008  -1.12947
 Alpha  occ. eigenvalues --   -0.21555  -0.14141  -0.12673  -0.12195
 Alpha virt. eigenvalues --   -0.05384  -0.04472  -0.03856  -0.03839  -0.03034
 Alpha virt. eigenvalues --   -0.02779  -0.01234  -0.00513  -0.00077   0.00335
 Alpha virt. eigenvalues --    0.00698   0.00762   0.00979   0.01110   0.01156

  Beta  occ. eigenvalues --  -38.44217 -38.44147 -38.43865 -38.43857 -38.43586
  Beta  occ. eigenvalues --  -38.43532 -38.43265  -2.20315  -2.20295  -2.20007
  Beta  occ. eigenvalues --   -2.19939  -2.19805  -2.19621  -2.19349  -1.14371
  Beta  occ. eigenvalues --   -1.14252  -1.14059  -1.14019  -1.13948  -1.13859
  Beta  occ. eigenvalues --   -1.13850  -1.13784  -1.13754  -1.13691  -1.13634
  Beta  occ. eigenvalues --   -1.13485  -1.13346  -1.13279  -1.13269  -1.13257
  Beta  occ. eigenvalues --   -1.13194  -1.13170  -1.13030  -1.12944  -1.12942
  Beta  occ. eigenvalues --   -0.20721  -0.13762  -0.12315
  Beta virt. eigenvalues --   -0.08005  -0.05412  -0.04460  -0.03799  -0.02856
  Beta virt. eigenvalues --   -0.02138  -0.01711  -0.01147  -0.00473   0.00065
  Beta virt. eigenvalues --    0.00360   0.00672   0.00743   0.01015   0.01131

 Mulliken charges and spin densities:
               1          2
     1  Na  -0.243152   0.473084
     2  Na   0.116601   0.008404
     3  Na  -0.072169  -0.040457
     4  Na  -0.227629   0.468631
     5  Na  -0.062417  -0.052395
     6  Na   0.353164   0.139956
     7  Na   0.135601   0.002777
 Sum of Mulliken charges =  -0.00000   1.00000

 Dipole moment (field-independent basis, Debye):
    X=              0.0628    Y=              0.2604    Z=             -0.0444  Tot=              0.2715
 Quadrupole moment (field-independent basis, Debye-Ang):
   XX=            -58.0629   YY=            -70.6140   ZZ=            -68.8826
   XY=             -0.4213   XZ=              0.0665   YZ=              0.7986

 Normal termination of Gaussian 16 at Sat Dec  9 07:21:53 2023.
