 Gaussian 16, Revision B.01,
 Gaussian 16:  ES64L-G16RevB.01 20-Dec-2017

 -------------------------
 #P B3LYP/6-311+g(d) force
 -------------------------

 -----
 DPGEN
 -----
 Symbolic Z-matrix:
 Charge =  0 Multiplicity = 2

                         Standard orientation:
 ---------------------------------------------------------------------
 Center     Atomic      Atomic             Coordinates (Angstroms)
 Number     Number       Type             X           Y           Z
 ---------------------------------------------------------------------
      1         11           0       -2.435798   -2.076809    1.371046
      2         11           0       -1.256167    0.801110   -0.654417
      3         11           0        2.755626    1.025503    0.749207
      4         11           0        1.107319   -1.788732   -0.365461
      5         11           0        4.291037   -1.375638   -0.579550
      6         11           0       -0.084048    3.715535    0.247885
      7         11           0       -4.377969   -0.300969   -0.768710
 ---------------------------------------------------------------------

 SCF Done:  E(UB3LYP) =  -1136.12160679     A.U. after   20 cycles

 The electronic state is 2-A.
 Alpha  occ. eigenvalues --  -38.44839 -38.44815 -38.43835 -38.43744 -38.43651
 Alpha  occ. eigenvalues --  -38.43610 -38.43100  -2.20647  -2.20626  -2.19715
 Alpha  occ. eigenvalues --   -2.19618  -2.19503  -2.19495  -2.18890  -1.14347
 Alpha  occ. eigenvalues --   -1.14331  -1.14312  -1.14276  -1.14268  -1.14256
 Alpha  occ. eigenvalues --   -1.13414  -1.13394  -1.13358  -1.13276  -1.13254
 Alpha  occ. eigenvalues --   -1.13225  -1.13210  -1.13196  -1.13160  -1.13138
 Alpha  occ. eigenvalues --   -1.13120  -1.13070  -1.12563  -1.12555  -1.12521
 Alpha  occ. eigenvalues --   -0.17164  -0.14440  -0.11968  -0.10338
 Alpha virt. eigenvalues --   -0.06681  -0.05392  -0.04194  -0.03834  -0.03103
 Alpha virt. eigenvalues --   -0.02213  -0.01511  -0.01348  -0.00906  -0.00563
 Alpha virt. eigenvalues --   -0.00343  -0.00322   0.00399   0.00588   0.00661

  Beta  occ. eigenvalues --  -38.44831 -38.44801 -38.43791 -38.43709 -38.43595
  Beta  occ. eigenvalues --  -38.43569 -38.43104  -2.20624  -2.20616  -2.19637
  Beta  occ. eigenvalues --   -2.19552  -2.19472  -2.19350  -2.18898  -1.14327
  Beta  occ. eigenvalues --   -1.14318  -1.14310  -1.14269  -1.14228  -1.14223
  Beta  occ. eigenvalues --   -1.13359  -1.13343  -1.13299  -1.13222  -1.13209
  Beta  occ. eigenvalues --   -1.13193  -1.13162  -1.13142  -1.13114  -1.13038
  Beta  occ. eigenvalues --   -1.13026  -1.13006  -1.12568  -1.12560  -1.12525
  Beta  occ. eigenvalues --   -0.16553  -0.13898  -0.11848
  Beta virt. eigenvalues --   -0.06689  -0.06484  -0.05232  -0.03799  -0.03439
  Beta virt. eigenvalues --   -0.02752  -0.02100  -0.01357  -0.01007  -0.00514
  Beta virt. eigenvalues --   -0.00367  -0.00104   0.00045   0.00462   0.00669

 Mulliken charges and spin densities:
               1          2
     1  Na   0.529751   0.031479
     2  Na  -1.283745   0.118815
     3  Na  -0.048949   0.198296
     4  Na  -0.632058   0.075719
     5  Na   0.523095   0.255331
     6  Na   0.732672  -0.024372
     7  Na   0.179234   0.344731
 Sum of Mulliken charges =  -0.00000   1.00000

 Dipole moment (field-independent basis, Debye):
    X=              0.5764    Y=             -0.8756    Z=              0.6751  Tot=              1.2468
 Quadrupole moment (field-independent basis, Debye-Ang):
   XX=            -65.9697   YY=            -66.5642   ZZ=            -65.6980
   XY=              1.3346   XZ=             -2.0502   YZ=              0.3644

 Normal termination of Gaussian 16 at Tue Nov 28 20:50:39 2023.
