 Gaussian 16, Revision B.01,
 Gaussian 16:  ES64L-G16RevB.01 20-Dec-2017

 -------------------------
 #P B3LYP/6-311+g(d) force
 -------------------------

 -----
 DPGEN
 -----
 Symbolic Z-matrix:
 Charge =  0 Multiplicity = 2

                         Standard orientation:
 ---------------------------------------------------------------------
 Center     Atomic      Atomic             Coordinates (Angstroms)
 Number     Number       Type             X           Y           Z
 ---------------------------------------------------------------------
      1         11           0       -0.255133   -2.623686   -0.649734
      2         11           0        2.075569    2.076528   -0.240497
      3         11           0       -3.275986   -0.573635    0.287966
      4         11           0        2.799740   -1.222180    0.300087
      5         11           0        0.193874   -0.225537    1.928558
      6         11           0       -1.443695    2.335010    0.067271
      7         11           0       -0.094369    0.233501   -1.693651
 ---------------------------------------------------------------------

 SCF Done:  E(UB3LYP) =  -1136.13593962     A.U. after   19 cycles

 The electronic state is 2-A.
 Alpha  occ. eigenvalues --  -38.44252 -38.43779 -38.43677 -38.43371 -38.43274
 Alpha  occ. eigenvalues --  -38.43259 -38.43140  -2.20054  -2.19649  -2.19603
 Alpha  occ. eigenvalues --   -2.19291  -2.19249  -2.19171  -2.19030  -1.13724
 Alpha  occ. eigenvalues --   -1.13713  -1.13695  -1.13376  -1.13306  -1.13289
 Alpha  occ. eigenvalues --   -1.13269  -1.13227  -1.13204  -1.13067  -1.12995
 Alpha  occ. eigenvalues --   -1.12983  -1.12904  -1.12880  -1.12857  -1.12832
 Alpha  occ. eigenvalues --   -1.12812  -1.12770  -1.12701  -1.12673  -1.12631
 Alpha  occ. eigenvalues --   -0.19001  -0.13142  -0.12392  -0.11011
 Alpha virt. eigenvalues --   -0.05762  -0.04967  -0.04288  -0.03314  -0.02952
 Alpha virt. eigenvalues --   -0.02615  -0.01680  -0.00986  -0.00182  -0.00060
 Alpha virt. eigenvalues --    0.00047   0.00350   0.00813   0.00917   0.00926

  Beta  occ. eigenvalues --  -38.44249 -38.43771 -38.43597 -38.43365 -38.43267
  Beta  occ. eigenvalues --  -38.43182 -38.43118  -2.20050  -2.19638  -2.19456
  Beta  occ. eigenvalues --   -2.19241  -2.19167  -2.19148  -2.18994  -1.13717
  Beta  occ. eigenvalues --   -1.13704  -1.13693  -1.13344  -1.13294  -1.13272
  Beta  occ. eigenvalues --   -1.13178  -1.13129  -1.13102  -1.13003  -1.12945
  Beta  occ. eigenvalues --   -1.12912  -1.12888  -1.12868  -1.12812  -1.12791
  Beta  occ. eigenvalues --   -1.12766  -1.12752  -1.12659  -1.12626  -1.12611
  Beta  occ. eigenvalues --   -0.18271  -0.12889  -0.12106
  Beta virt. eigenvalues --   -0.07088  -0.05689  -0.04968  -0.04259  -0.02543
  Beta virt. eigenvalues --   -0.02177  -0.01574  -0.01547  -0.00938  -0.00139
  Beta virt. eigenvalues --   -0.00106   0.00126   0.00374   0.00860   0.00917

 Mulliken charges and spin densities:
               1          2
     1  Na   0.135136  -0.016207
     2  Na   0.158332  -0.069746
     3  Na  -0.039311  -0.031818
     4  Na   0.246001   0.028749
     5  Na  -0.461686   0.687281
     6  Na   0.094401  -0.045875
     7  Na  -0.132872   0.447615
 Sum of Mulliken charges =  -0.00000   1.00000

 Dipole moment (field-independent basis, Debye):
    X=             -0.1574    Y=             -0.0803    Z=              0.2797  Tot=              0.3309
 Quadrupole moment (field-independent basis, Debye-Ang):
   XX=            -54.5394   YY=            -65.6907   ZZ=            -73.1544
   XY=              0.5422   XZ=             -0.8289   YZ=              0.6470

 Normal termination of Gaussian 16 at Tue Dec  5 18:21:09 2023.
