 Gaussian 16, Revision B.01,
 Gaussian 16:  ES64L-G16RevB.01 20-Dec-2017

 -------------------------
 #P B3LYP/6-311+g(d) force
 -------------------------

 -----
 DPGEN
 -----
 Symbolic Z-matrix:
 Charge =  0 Multiplicity = 2

                         Standard orientation:
 ---------------------------------------------------------------------
 Center     Atomic      Atomic             Coordinates (Angstroms)
 Number     Number       Type             X           Y           Z
 ---------------------------------------------------------------------
      1         11           0        3.733256   -1.292275   -0.704607
      2         11           0       -1.378319   -2.708779    0.592337
      3         11           0        2.984401    2.150685    1.156784
      4         11           0        1.248926   -3.741255   -0.249939
      5         11           0       -2.679266    2.539927   -0.214549
      6         11           0       -4.511096   -0.843426   -0.015871
      7         11           0        0.602098    3.895122   -0.564153
 ---------------------------------------------------------------------

 SCF Done:  E(UB3LYP) =  -1136.10496909     A.U. after   23 cycles

 The electronic state is 2-A.
 Alpha  occ. eigenvalues --  -38.45571 -38.45306 -38.45140 -38.45035 -38.43989
 Alpha  occ. eigenvalues --  -38.43760 -38.43629  -2.21306  -2.21054  -2.20888
 Alpha  occ. eigenvalues --   -2.20851  -2.19786  -2.19616  -2.19416  -1.15000
 Alpha  occ. eigenvalues --   -1.14985  -1.14920  -1.14733  -1.14712  -1.14680
 Alpha  occ. eigenvalues --   -1.14570  -1.14556  -1.14556  -1.14519  -1.14513
 Alpha  occ. eigenvalues --   -1.14491  -1.13451  -1.13442  -1.13421  -1.13309
 Alpha  occ. eigenvalues --   -1.13252  -1.13233  -1.13071  -1.13061  -1.13042
 Alpha  occ. eigenvalues --   -0.15546  -0.13889  -0.13346  -0.10606
 Alpha virt. eigenvalues --   -0.07838  -0.04974  -0.04445  -0.03477  -0.03286
 Alpha virt. eigenvalues --   -0.02571  -0.02249  -0.01785  -0.01719  -0.00774
 Alpha virt. eigenvalues --   -0.00520  -0.00119   0.00098   0.00359   0.00579

  Beta  occ. eigenvalues --  -38.45550 -38.45278 -38.45135 -38.45001 -38.43957
  Beta  occ. eigenvalues --  -38.43725 -38.43568  -2.21273  -2.21003  -2.20880
  Beta  occ. eigenvalues --   -2.20798  -2.19728  -2.19554  -2.19303  -1.14982
  Beta  occ. eigenvalues --   -1.14967  -1.14860  -1.14699  -1.14679  -1.14636
  Beta  occ. eigenvalues --   -1.14568  -1.14553  -1.14502  -1.14500  -1.14482
  Beta  occ. eigenvalues --   -1.14433  -1.13413  -1.13406  -1.13373  -1.13253
  Beta  occ. eigenvalues --   -1.13212  -1.13193  -1.12995  -1.12984  -1.12969
  Beta  occ. eigenvalues --   -0.15046  -0.13307  -0.12645
  Beta virt. eigenvalues --   -0.07925  -0.07383  -0.04595  -0.04091  -0.03195
  Beta virt. eigenvalues --   -0.02896  -0.02368  -0.01935  -0.01602  -0.01589
  Beta virt. eigenvalues --   -0.00479  -0.00302   0.00049   0.00220   0.00397

 Mulliken charges and spin densities:
               1          2
     1  Na  -0.105667   0.192365
     2  Na  -0.692406   0.213434
     3  Na  -0.049337   0.033560
     4  Na   0.585274   0.010598
     5  Na  -0.027643   0.143946
     6  Na   0.378987   0.319516
     7  Na  -0.089208   0.086581
 Sum of Mulliken charges =  -0.00000   1.00000

 Dipole moment (field-independent basis, Debye):
    X=              0.6986    Y=              0.2543    Z=             -0.0065  Tot=              0.7434
 Quadrupole moment (field-independent basis, Debye-Ang):
   XX=            -64.9180   YY=            -66.4204   ZZ=            -70.0252
   XY=             -1.9592   XZ=             -0.5937   YZ=              1.0414

 Normal termination of Gaussian 16 at Sun Dec  3 12:16:19 2023.
