 Gaussian 16, Revision B.01,
 Gaussian 16:  ES64L-G16RevB.01 20-Dec-2017

 -------------------------
 #P B3LYP/6-311+g(d) force
 -------------------------

 -----
 DPGEN
 -----
 Symbolic Z-matrix:
 Charge =  0 Multiplicity = 2

                         Standard orientation:
 ---------------------------------------------------------------------
 Center     Atomic      Atomic             Coordinates (Angstroms)
 Number     Number       Type             X           Y           Z
 ---------------------------------------------------------------------
      1         11           0       -4.450659    0.082710   -0.368760
      2         11           0        4.558119   -0.333321   -0.481080
      3         11           0       -1.375507    2.713816   -0.123201
      4         11           0        1.914721    2.187368    0.060087
      5         11           0       -0.482601   -0.300434    1.047110
      6         11           0        1.840176   -1.933097    0.130979
      7         11           0       -2.004250   -2.417042   -0.265134
 ---------------------------------------------------------------------

 SCF Done:  E(UB3LYP) =  -1136.12391510     A.U. after   20 cycles

 The electronic state is 2-A.
 Alpha  occ. eigenvalues --  -38.44504 -38.44115 -38.44041 -38.43994 -38.43826
 Alpha  occ. eigenvalues --  -38.43823 -38.43446  -2.20307  -2.19972  -2.19877
 Alpha  occ. eigenvalues --   -2.19834  -2.19813  -2.19703  -2.19268  -1.13961
 Alpha  occ. eigenvalues --   -1.13943  -1.13921  -1.13799  -1.13642  -1.13627
 Alpha  occ. eigenvalues --   -1.13568  -1.13545  -1.13518  -1.13507  -1.13505
 Alpha  occ. eigenvalues --   -1.13501  -1.13476  -1.13425  -1.13395  -1.13369
 Alpha  occ. eigenvalues --   -1.13341  -1.13279  -1.12944  -1.12941  -1.12893
 Alpha  occ. eigenvalues --   -0.17587  -0.14219  -0.12418  -0.11034
 Alpha virt. eigenvalues --   -0.06022  -0.05177  -0.04674  -0.03946  -0.02768
 Alpha virt. eigenvalues --   -0.02401  -0.01439  -0.01393  -0.01000  -0.00481
 Alpha virt. eigenvalues --   -0.00440   0.00195   0.00530   0.00629   0.00695

  Beta  occ. eigenvalues --  -38.44414 -38.44113 -38.43989 -38.43969 -38.43810
  Beta  occ. eigenvalues --  -38.43782 -38.43448  -2.20138  -2.19974  -2.19808
  Beta  occ. eigenvalues --   -2.19756  -2.19742  -2.19687  -2.19273  -1.13845
  Beta  occ. eigenvalues --   -1.13828  -1.13813  -1.13784  -1.13642  -1.13579
  Beta  occ. eigenvalues --   -1.13536  -1.13506  -1.13490  -1.13462  -1.13434
  Beta  occ. eigenvalues --   -1.13428  -1.13424  -1.13394  -1.13363  -1.13349
  Beta  occ. eigenvalues --   -1.13314  -1.13223  -1.12949  -1.12945  -1.12883
  Beta  occ. eigenvalues --   -0.17054  -0.13405  -0.12108
  Beta virt. eigenvalues --   -0.07604  -0.05911  -0.05003  -0.03954  -0.03758
  Beta virt. eigenvalues --   -0.02197  -0.02020  -0.01327  -0.01055  -0.00868
  Beta virt. eigenvalues --   -0.00371  -0.00080   0.00356   0.00654   0.00722

 Mulliken charges and spin densities:
               1          2
     1  Na   0.060323   0.515094
     2  Na   0.590174   0.448026
     3  Na   0.064221  -0.082398
     4  Na  -0.147949  -0.011354
     5  Na  -0.447390   0.202525
     6  Na  -0.295605  -0.021389
     7  Na   0.176226  -0.050504
 Sum of Mulliken charges =  -0.00000   1.00000

 Dipole moment (field-independent basis, Debye):
    X=             -0.1021    Y=             -0.0120    Z=             -0.3170  Tot=              0.3332
 Quadrupole moment (field-independent basis, Debye-Ang):
   XX=            -60.6719   YY=            -66.4962   ZZ=            -70.9207
   XY=              0.6828   XZ=              0.1725   YZ=              0.5670

 Normal termination of Gaussian 16 at Sun Dec  3 12:36:00 2023.
