 Gaussian 16, Revision B.01,
 Gaussian 16:  ES64L-G16RevB.01 20-Dec-2017

 -------------------------
 #P B3LYP/6-311+g(d) force
 -------------------------

 -----
 DPGEN
 -----
 Symbolic Z-matrix:
 Charge =  0 Multiplicity = 2

                         Standard orientation:
 ---------------------------------------------------------------------
 Center     Atomic      Atomic             Coordinates (Angstroms)
 Number     Number       Type             X           Y           Z
 ---------------------------------------------------------------------
      1         11           0       -2.100640   -2.692069   -0.498272
      2         11           0       -3.091884   -0.016828    1.410319
      3         11           0       -2.978795    0.067190   -1.412528
      4         11           0       -1.463487    3.008230    0.224486
      5         11           0        0.320282    0.121675    0.121987
      6         11           0        4.026187   -1.139591    1.124080
      7         11           0        5.288338    0.651394   -0.970072
 ---------------------------------------------------------------------

 SCF Done:  E(UB3LYP) =  -1136.10843722     A.U. after   23 cycles

 The electronic state is 2-A.
 Alpha  occ. eigenvalues --  -38.45365 -38.44835 -38.44236 -38.44183 -38.43246
 Alpha  occ. eigenvalues --  -38.42875 -38.42629  -2.21295  -2.20814  -2.20047
 Alpha  occ. eigenvalues --   -2.19980  -2.19126  -2.18756  -2.18461  -1.15130
 Alpha  occ. eigenvalues --   -1.14946  -1.14852  -1.14489  -1.14465  -1.14387
 Alpha  occ. eigenvalues --   -1.13805  -1.13692  -1.13684  -1.13637  -1.13620
 Alpha  occ. eigenvalues --   -1.13565  -1.12824  -1.12756  -1.12729  -1.12453
 Alpha  occ. eigenvalues --   -1.12411  -1.12381  -1.12138  -1.12122  -1.12100
 Alpha  occ. eigenvalues --   -0.17917  -0.13779  -0.11567  -0.10215
 Alpha virt. eigenvalues --   -0.06805  -0.05516  -0.04373  -0.03359  -0.02922
 Alpha virt. eigenvalues --   -0.01847  -0.01714  -0.01262  -0.01054  -0.00872
 Alpha virt. eigenvalues --   -0.00441  -0.00157   0.00250   0.00550   0.00640

  Beta  occ. eigenvalues --  -38.45325 -38.44803 -38.44194 -38.44191 -38.43164
  Beta  occ. eigenvalues --  -38.42867 -38.42628  -2.21225  -2.20760  -2.20000
  Beta  occ. eigenvalues --   -2.19966  -2.18975  -2.18744  -2.18463  -1.15076
  Beta  occ. eigenvalues --   -1.14870  -1.14807  -1.14447  -1.14399  -1.14355
  Beta  occ. eigenvalues --   -1.13779  -1.13664  -1.13640  -1.13627  -1.13610
  Beta  occ. eigenvalues --   -1.13541  -1.12721  -1.12657  -1.12619  -1.12449
  Beta  occ. eigenvalues --   -1.12406  -1.12346  -1.12142  -1.12112  -1.12095
  Beta  occ. eigenvalues --   -0.17203  -0.13332  -0.11388
  Beta virt. eigenvalues --   -0.06653  -0.06578  -0.05128  -0.04325  -0.02875
  Beta virt. eigenvalues --   -0.02576  -0.01835  -0.01352  -0.01022  -0.00813
  Beta virt. eigenvalues --   -0.00631  -0.00166   0.00136   0.00289   0.00626

 Mulliken charges and spin densities:
               1          2
     1  Na  -0.251666  -0.130682
     2  Na   0.924549   0.409551
     3  Na   1.026794   0.509873
     4  Na   0.523500   0.012964
     5  Na  -2.196886   0.010597
     6  Na   0.003508  -0.043316
     7  Na  -0.029798   0.231013
 Sum of Mulliken charges =  -0.00000   1.00000

 Dipole moment (field-independent basis, Debye):
    X=             -0.1876    Y=              0.0288    Z=              0.0698  Tot=              0.2023
 Quadrupole moment (field-independent basis, Debye-Ang):
   XX=            -73.8573   YY=            -68.7300   ZZ=            -58.6211
   XY=              1.1536   XZ=             -3.0489   YZ=             -6.3081

 Normal termination of Gaussian 16 at Sat Dec  9 06:56:33 2023.
