 Gaussian 16, Revision B.01,
 Gaussian 16:  ES64L-G16RevB.01 20-Dec-2017

 -------------------------
 #P B3LYP/6-311+g(d) force
 -------------------------

 -----
 DPGEN
 -----
 Symbolic Z-matrix:
 Charge =  0 Multiplicity = 2

                         Standard orientation:
 ---------------------------------------------------------------------
 Center     Atomic      Atomic             Coordinates (Angstroms)
 Number     Number       Type             X           Y           Z
 ---------------------------------------------------------------------
      1         11           0       -1.434408   -2.111127   -1.171509
      2         11           0        2.622005   -1.994512   -1.062346
      3         11           0        0.416034    1.230062   -1.757605
      4         11           0       -2.452008   -0.922234    1.625185
      5         11           0       -2.735471    1.957586   -0.553539
      6         11           0        2.312644    2.346703    0.571684
      7         11           0        1.271203   -0.506478    2.348130
 ---------------------------------------------------------------------

 SCF Done:  E(UB3LYP) =  -1136.11960524     A.U. after   23 cycles

 The electronic state is 2-A.
 Alpha  occ. eigenvalues --  -38.44661 -38.44580 -38.44566 -38.44141 -38.44060
 Alpha  occ. eigenvalues --  -38.44038 -38.43459  -2.20411  -2.20373  -2.20359
 Alpha  occ. eigenvalues --   -2.19944  -2.19887  -2.19810  -2.19310  -1.14080
 Alpha  occ. eigenvalues --   -1.14056  -1.14051  -1.14048  -1.14041  -1.14032
 Alpha  occ. eigenvalues --   -1.14007  -1.14000  -1.13977  -1.13626  -1.13609
 Alpha  occ. eigenvalues --   -1.13570  -1.13553  -1.13545  -1.13516  -1.13490
 Alpha  occ. eigenvalues --   -1.13473  -1.13439  -1.12984  -1.12975  -1.12933
 Alpha  occ. eigenvalues --   -0.17304  -0.12948  -0.11812  -0.11537
 Alpha virt. eigenvalues --   -0.06152  -0.05327  -0.04927  -0.03437  -0.03286
 Alpha virt. eigenvalues --   -0.03054  -0.01616  -0.01043  -0.00569  -0.00206
 Alpha virt. eigenvalues --    0.00029   0.00219   0.00326   0.00366   0.00485

  Beta  occ. eigenvalues --  -38.44627 -38.44550 -38.44511 -38.44126 -38.44040
  Beta  occ. eigenvalues --  -38.44031 -38.43430  -2.20350  -2.20330  -2.20246
  Beta  occ. eigenvalues --   -2.19918  -2.19833  -2.19815  -2.19258  -1.14032
  Beta  occ. eigenvalues --   -1.14028  -1.14014  -1.14007  -1.14005  -1.13955
  Beta  occ. eigenvalues --   -1.13953  -1.13916  -1.13911  -1.13609  -1.13581
  Beta  occ. eigenvalues --   -1.13553  -1.13519  -1.13509  -1.13489  -1.13479
  Beta  occ. eigenvalues --   -1.13470  -1.13439  -1.12950  -1.12935  -1.12893
  Beta  occ. eigenvalues --   -0.16607  -0.12762  -0.11299
  Beta virt. eigenvalues --   -0.08059  -0.06120  -0.04841  -0.04267  -0.03249
  Beta virt. eigenvalues --   -0.02878  -0.02313  -0.01508  -0.00917  -0.00283
  Beta virt. eigenvalues --   -0.00069   0.00069   0.00249   0.00449   0.00515

 Mulliken charges and spin densities:
               1          2
     1  Na  -0.243054  -0.097668
     2  Na  -0.113989   0.170178
     3  Na   0.653515   0.350682
     4  Na   0.138593   0.361946
     5  Na  -0.189052  -0.081603
     6  Na  -0.088877  -0.060813
     7  Na  -0.157137   0.357279
 Sum of Mulliken charges =  -0.00000   1.00000

 Dipole moment (field-independent basis, Debye):
    X=              0.1265    Y=             -0.1645    Z=              0.2197  Tot=              0.3022
 Quadrupole moment (field-independent basis, Debye-Ang):
   XX=            -60.2231   YY=            -70.6640   ZZ=            -66.5837
   XY=             -0.5574   XZ=             -0.8676   YZ=              4.0713

 Normal termination of Gaussian 16 at Sun Dec  3 19:38:01 2023.
