 Gaussian 16, Revision B.01,
 Gaussian 16:  ES64L-G16RevB.01 20-Dec-2017

 -------------------------
 #P B3LYP/6-311+g(d) force
 -------------------------

 -----
 DPGEN
 -----
 Symbolic Z-matrix:
 Charge =  0 Multiplicity = 2

                         Standard orientation:
 ---------------------------------------------------------------------
 Center     Atomic      Atomic             Coordinates (Angstroms)
 Number     Number       Type             X           Y           Z
 ---------------------------------------------------------------------
      1         11           0        0.913818   -1.415812   -0.492873
      2         11           0        5.988999   -0.510194   -0.688378
      3         11           0        3.211065    1.023554    0.551287
      4         11           0       -0.216717    2.220063   -0.131845
      5         11           0       -2.411940   -0.741447   -0.834062
      6         11           0       -1.404697   -0.801553    2.238389
      7         11           0       -6.080528    0.225390   -0.642518
 ---------------------------------------------------------------------

 SCF Done:  E(UB3LYP) =  -1136.10298328     A.U. after   28 cycles

 The electronic state is 2-A.
 Alpha  occ. eigenvalues --  -38.46952 -38.45674 -38.44840 -38.43969 -38.43945
 Alpha  occ. eigenvalues --  -38.43887 -38.43179  -2.22744  -2.21507  -2.20676
 Alpha  occ. eigenvalues --   -2.19810  -2.19731  -2.19705  -2.18907  -1.16414
 Alpha  occ. eigenvalues --   -1.16404  -1.16353  -1.15211  -1.15159  -1.15111
 Alpha  occ. eigenvalues --   -1.14340  -1.14300  -1.14278  -1.13524  -1.13493
 Alpha  occ. eigenvalues --   -1.13400  -1.13400  -1.13398  -1.13397  -1.13389
 Alpha  occ. eigenvalues --   -1.13376  -1.13295  -1.12584  -1.12583  -1.12537
 Alpha  occ. eigenvalues --   -0.17981  -0.13545  -0.11507  -0.10708
 Alpha virt. eigenvalues --   -0.07832  -0.06432  -0.04282  -0.03566  -0.03043
 Alpha virt. eigenvalues --   -0.02624  -0.02198  -0.01891  -0.01603  -0.01152
 Alpha virt. eigenvalues --   -0.00443   0.00002   0.00145   0.00188   0.00330

  Beta  occ. eigenvalues --  -38.46922 -38.45647 -38.44733 -38.43954 -38.43933
  Beta  occ. eigenvalues --  -38.43880 -38.43186  -2.22692  -2.21460  -2.20477
  Beta  occ. eigenvalues --   -2.19791  -2.19702  -2.19696  -2.18921  -1.16377
  Beta  occ. eigenvalues --   -1.16352  -1.16318  -1.15179  -1.15115  -1.15072
  Beta  occ. eigenvalues --   -1.14205  -1.14158  -1.14146  -1.13513  -1.13466
  Beta  occ. eigenvalues --   -1.13395  -1.13391  -1.13382  -1.13378  -1.13373
  Beta  occ. eigenvalues --   -1.13357  -1.13267  -1.12594  -1.12592  -1.12546
  Beta  occ. eigenvalues --   -0.17281  -0.13262  -0.10604
  Beta virt. eigenvalues --   -0.07766  -0.07535  -0.06104  -0.04028  -0.03039
  Beta virt. eigenvalues --   -0.02569  -0.02339  -0.01825  -0.01548  -0.01292
  Beta virt. eigenvalues --   -0.01026  -0.00349   0.00160   0.00241   0.00324

 Mulliken charges and spin densities:
               1          2
     1  Na   0.035501   0.498524
     2  Na   0.117187   0.099578
     3  Na  -0.194239  -0.083366
     4  Na  -0.026270   0.529445
     5  Na  -0.376183  -0.033499
     6  Na   0.226172   0.070386
     7  Na   0.217833  -0.081069
 Sum of Mulliken charges =  -0.00000   1.00000

 Dipole moment (field-independent basis, Debye):
    X=              1.1009    Y=             -0.5151    Z=              1.7510  Tot=              2.1315
 Quadrupole moment (field-independent basis, Debye-Ang):
   XX=            -84.3049   YY=            -71.5846   ZZ=            -61.1058
   XY=             -3.9475   XZ=             -7.9144   YZ=              2.7043

 Normal termination of Gaussian 16 at Tue Nov 28 21:43:33 2023.
