 Gaussian 16, Revision B.01,
 Gaussian 16:  ES64L-G16RevB.01 20-Dec-2017

 -------------------------
 #P B3LYP/6-311+g(d) force
 -------------------------

 -----
 DPGEN
 -----
 Symbolic Z-matrix:
 Charge =  0 Multiplicity = 2

                         Standard orientation:
 ---------------------------------------------------------------------
 Center     Atomic      Atomic             Coordinates (Angstroms)
 Number     Number       Type             X           Y           Z
 ---------------------------------------------------------------------
      1         11           0       -4.266653    0.011849    0.213429
      2         11           0       -1.798515   -1.826448   -0.720842
      3         11           0        3.180337   -1.621432    0.624525
      4         11           0       -0.711068    0.120399    2.192441
      5         11           0        1.589901   -0.406466   -1.862175
      6         11           0        2.685620    1.540404    0.547832
      7         11           0       -0.679621    2.181694   -0.995211
 ---------------------------------------------------------------------

 SCF Done:  E(UB3LYP) =  -1136.11548208     A.U. after   30 cycles

 The electronic state is 2-A.
 Alpha  occ. eigenvalues --  -38.45816 -38.45301 -38.44409 -38.44192 -38.43838
 Alpha  occ. eigenvalues --  -38.43272 -38.42307  -2.21582  -2.21083  -2.20268
 Alpha  occ. eigenvalues --   -2.20011  -2.19744  -2.19124  -2.18128  -1.15263
 Alpha  occ. eigenvalues --   -1.15242  -1.15216  -1.14769  -1.14714  -1.14691
 Alpha  occ. eigenvalues --   -1.13965  -1.13945  -1.13875  -1.13693  -1.13668
 Alpha  occ. eigenvalues --   -1.13643  -1.13416  -1.13409  -1.13358  -1.12798
 Alpha  occ. eigenvalues --   -1.12779  -1.12765  -1.11815  -1.11782  -1.11761
 Alpha  occ. eigenvalues --   -0.17838  -0.14104  -0.11226  -0.10623
 Alpha virt. eigenvalues --   -0.07348  -0.05217  -0.04658  -0.03127  -0.03059
 Alpha virt. eigenvalues --   -0.02619  -0.02417  -0.01134  -0.00844  -0.00386
 Alpha virt. eigenvalues --    0.00033   0.00054   0.00206   0.00588   0.00689

  Beta  occ. eigenvalues --  -38.45828 -38.45232 -38.44395 -38.44167 -38.43780
  Beta  occ. eigenvalues --  -38.43269 -38.42290  -2.21604  -2.20954  -2.20245
  Beta  occ. eigenvalues --   -2.19967  -2.19638  -2.19119  -2.18098  -1.15275
  Beta  occ. eigenvalues --   -1.15258  -1.15230  -1.14680  -1.14627  -1.14597
  Beta  occ. eigenvalues --   -1.13951  -1.13910  -1.13863  -1.13663  -1.13634
  Beta  occ. eigenvalues --   -1.13602  -1.13349  -1.13329  -1.13277  -1.12797
  Beta  occ. eigenvalues --   -1.12766  -1.12756  -1.11789  -1.11749  -1.11744
  Beta  occ. eigenvalues --   -0.17101  -0.14058  -0.10443
  Beta virt. eigenvalues --   -0.07400  -0.07024  -0.05074  -0.04122  -0.02887
  Beta virt. eigenvalues --   -0.02714  -0.02092  -0.01739  -0.00968  -0.00612
  Beta virt. eigenvalues --   -0.00302   0.00041   0.00205   0.00278   0.00678

 Mulliken charges and spin densities:
               1          2
     1  Na   0.403666  -0.070142
     2  Na  -0.176855   0.073019
     3  Na   0.068609  -0.016304
     4  Na  -0.228323   0.449359
     5  Na   0.203956   0.315299
     6  Na   0.140983   0.193540
     7  Na  -0.412037   0.055228
 Sum of Mulliken charges =  -0.00000   1.00000

 Dipole moment (field-independent basis, Debye):
    X=             -1.5353    Y=              0.4259    Z=              0.6991  Tot=              1.7399
 Quadrupole moment (field-independent basis, Debye-Ang):
   XX=            -50.3344   YY=            -76.8183   ZZ=            -69.1553
   XY=             -0.6297   XZ=              0.8132   YZ=             -0.4059

 Normal termination of Gaussian 16 at Fri Dec  8 00:01:17 2023.
