 Gaussian 16, Revision B.01,
 Gaussian 16:  ES64L-G16RevB.01 20-Dec-2017

 -------------------------
 #P B3LYP/6-311+g(d) force
 -------------------------

 -----
 DPGEN
 -----
 Symbolic Z-matrix:
 Charge =  0 Multiplicity = 2

                         Standard orientation:
 ---------------------------------------------------------------------
 Center     Atomic      Atomic             Coordinates (Angstroms)
 Number     Number       Type             X           Y           Z
 ---------------------------------------------------------------------
      1         11           0        0.075051   -0.211429   -1.771297
      2         11           0       -0.125392   -0.208129    1.982142
      3         11           0        3.103660    0.409863   -0.529586
      4         11           0       -2.414486   -1.742741   -0.247731
      5         11           0        1.372248   -2.433081    0.377492
      6         11           0       -2.812258    1.523392   -0.209655
      7         11           0        0.801178    2.662124    0.398636
 ---------------------------------------------------------------------

 SCF Done:  E(UB3LYP) =  -1136.13709576     A.U. after   19 cycles

 The electronic state is 2-A.
 Alpha  occ. eigenvalues --  -38.44000 -38.43975 -38.43728 -38.43645 -38.43603
 Alpha  occ. eigenvalues --  -38.43162 -38.43027  -2.19859  -2.19793  -2.19596
 Alpha  occ. eigenvalues --   -2.19582  -2.19556  -2.19055  -2.18876  -1.13546
 Alpha  occ. eigenvalues --   -1.13509  -1.13501  -1.13473  -1.13466  -1.13434
 Alpha  occ. eigenvalues --   -1.13313  -1.13278  -1.13256  -1.13229  -1.13219
 Alpha  occ. eigenvalues --   -1.13212  -1.13191  -1.13182  -1.13167  -1.12744
 Alpha  occ. eigenvalues --   -1.12711  -1.12670  -1.12562  -1.12537  -1.12507
 Alpha  occ. eigenvalues --   -0.18814  -0.13310  -0.12140  -0.11129
 Alpha virt. eigenvalues --   -0.05650  -0.05205  -0.04243  -0.03418  -0.02930
 Alpha virt. eigenvalues --   -0.02775  -0.01606  -0.01023  -0.00277  -0.00068
 Alpha virt. eigenvalues --    0.00007   0.00359   0.00781   0.00890   0.00920

  Beta  occ. eigenvalues --  -38.43987 -38.43974 -38.43721 -38.43551 -38.43537
  Beta  occ. eigenvalues --  -38.43150 -38.43019  -2.19839  -2.19793  -2.19586
  Beta  occ. eigenvalues --   -2.19436  -2.19409  -2.19037  -2.18864  -1.13521
  Beta  occ. eigenvalues --   -1.13492  -1.13485  -1.13477  -1.13455  -1.13428
  Beta  occ. eigenvalues --   -1.13286  -1.13245  -1.13204  -1.13165  -1.13137
  Beta  occ. eigenvalues --   -1.13104  -1.13090  -1.13081  -1.13077  -1.12724
  Beta  occ. eigenvalues --   -1.12676  -1.12658  -1.12549  -1.12515  -1.12499
  Beta  occ. eigenvalues --   -0.18079  -0.13042  -0.11878
  Beta virt. eigenvalues --   -0.07208  -0.05561  -0.05225  -0.04178  -0.02670
  Beta virt. eigenvalues --   -0.02145  -0.01724  -0.01483  -0.00980  -0.00266
  Beta virt. eigenvalues --   -0.00101   0.00110   0.00389   0.00863   0.00880

 Mulliken charges and spin densities:
               1          2
     1  Na  -0.184184   0.503564
     2  Na  -0.242770   0.650787
     3  Na   0.110438   0.030996
     4  Na   0.228024  -0.057992
     5  Na   0.240161  -0.024848
     6  Na  -0.108812  -0.068310
     7  Na  -0.042857  -0.034197
 Sum of Mulliken charges =  -0.00000   1.00000

 Dipole moment (field-independent basis, Debye):
    X=             -0.1665    Y=             -0.0589    Z=             -0.0885  Tot=              0.1975
 Quadrupole moment (field-independent basis, Debye-Ang):
   XX=            -55.6855   YY=            -66.1899   ZZ=            -72.4495
   XY=             -0.4735   XZ=             -0.1545   YZ=             -0.0675

 Normal termination of Gaussian 16 at Thu Dec  7 23:02:16 2023.
