 Gaussian 16, Revision B.01,
 Gaussian 16:  ES64L-G16RevB.01 20-Dec-2017

 -------------------------
 #P B3LYP/6-311+g(d) force
 -------------------------

 -----
 DPGEN
 -----
 Symbolic Z-matrix:
 Charge =  0 Multiplicity = 2

                         Standard orientation:
 ---------------------------------------------------------------------
 Center     Atomic      Atomic             Coordinates (Angstroms)
 Number     Number       Type             X           Y           Z
 ---------------------------------------------------------------------
      1         11           0       -3.079944    1.588529    0.489122
      2         11           0       -0.955311   -0.184026    1.795292
      3         11           0        3.594912    0.852866   -0.448972
      4         11           0        0.260914    2.607901   -0.842611
      5         11           0        2.769623   -1.378779    1.310935
      6         11           0       -2.984197   -1.824271   -0.690394
      7         11           0        0.394003   -1.662220   -1.613372
 ---------------------------------------------------------------------

 SCF Done:  E(UB3LYP) =  -1136.11815259     A.U. after   22 cycles

 The electronic state is 2-A.
 Alpha  occ. eigenvalues --  -38.45052 -38.44582 -38.44224 -38.44217 -38.44174
 Alpha  occ. eigenvalues --  -38.44056 -38.43454  -2.20869  -2.20444  -2.20079
 Alpha  occ. eigenvalues --   -2.20060  -2.19978  -2.19855  -2.19227  -1.14603
 Alpha  occ. eigenvalues --   -1.14519  -1.14498  -1.14142  -1.14109  -1.14066
 Alpha  occ. eigenvalues --   -1.13746  -1.13739  -1.13716  -1.13710  -1.13699
 Alpha  occ. eigenvalues --   -1.13678  -1.13652  -1.13635  -1.13620  -1.13533
 Alpha  occ. eigenvalues --   -1.13516  -1.13459  -1.12908  -1.12900  -1.12842
 Alpha  occ. eigenvalues --   -0.17587  -0.14171  -0.11541  -0.10812
 Alpha virt. eigenvalues --   -0.06952  -0.05564  -0.04823  -0.03370  -0.02986
 Alpha virt. eigenvalues --   -0.02376  -0.02205  -0.01450  -0.00769  -0.00339
 Alpha virt. eigenvalues --   -0.00105   0.00160   0.00273   0.00478   0.00634

  Beta  occ. eigenvalues --  -38.45048 -38.44531 -38.44212 -38.44181 -38.44169
  Beta  occ. eigenvalues --  -38.44007 -38.43427  -2.20866  -2.20351  -2.20051
  Beta  occ. eigenvalues --   -2.20000  -2.19971  -2.19766  -2.19177  -1.14589
  Beta  occ. eigenvalues --   -1.14519  -1.14485  -1.14074  -1.14041  -1.14009
  Beta  occ. eigenvalues --   -1.13716  -1.13706  -1.13697  -1.13676  -1.13656
  Beta  occ. eigenvalues --   -1.13646  -1.13645  -1.13626  -1.13604  -1.13474
  Beta  occ. eigenvalues --   -1.13447  -1.13395  -1.12872  -1.12866  -1.12803
  Beta  occ. eigenvalues --   -0.17019  -0.13952  -0.11159
  Beta virt. eigenvalues --   -0.07295  -0.06782  -0.05384  -0.04145  -0.03120
  Beta virt. eigenvalues --   -0.02462  -0.02260  -0.01544  -0.01345  -0.00512
  Beta virt. eigenvalues --   -0.00185  -0.00002   0.00225   0.00400   0.00625

 Mulliken charges and spin densities:
               1          2
     1  Na   0.678523   0.096663
     2  Na  -0.463296   0.162119
     3  Na   0.109189   0.070322
     4  Na  -0.310598   0.087976
     5  Na   0.166132   0.237342
     6  Na   0.030837   0.009157
     7  Na  -0.210788   0.336421
 Sum of Mulliken charges =  -0.00000   1.00000

 Dipole moment (field-independent basis, Debye):
    X=             -0.0866    Y=             -0.1809    Z=             -0.0378  Tot=              0.2041
 Quadrupole moment (field-independent basis, Debye-Ang):
   XX=            -49.2942   YY=            -75.7341   ZZ=            -72.2408
   XY=             -0.0768   XZ=             -0.2115   YZ=             -1.8348

 Normal termination of Gaussian 16 at Mon Dec  4 03:08:45 2023.
