 Gaussian 16, Revision B.01,
 Gaussian 16:  ES64L-G16RevB.01 20-Dec-2017

 -------------------------
 #P B3LYP/6-311+g(d) force
 -------------------------

 -----
 DPGEN
 -----
 Symbolic Z-matrix:
 Charge =  0 Multiplicity = 2

                         Standard orientation:
 ---------------------------------------------------------------------
 Center     Atomic      Atomic             Coordinates (Angstroms)
 Number     Number       Type             X           Y           Z
 ---------------------------------------------------------------------
      1         11           0       -1.859032    2.453826   -0.588967
      2         11           0        0.756405    0.777713   -1.181246
      3         11           0       -3.803284   -0.411309    0.758215
      4         11           0        1.860655   -1.767432   -0.565401
      5         11           0        0.217668   -0.163170    2.012131
      6         11           0        4.160993    0.827573    0.494443
      7         11           0       -1.333404   -1.717201   -0.929174
 ---------------------------------------------------------------------

 SCF Done:  E(UB3LYP) =  -1136.11136131     A.U. after   35 cycles

 The electronic state is 2-A.
 Alpha  occ. eigenvalues --  -38.45719 -38.45098 -38.44880 -38.43571 -38.43312
 Alpha  occ. eigenvalues --  -38.43281 -38.42722  -2.21535  -2.20899  -2.20623
 Alpha  occ. eigenvalues --   -2.19617  -2.19257  -2.19145  -2.18662  -1.15239
 Alpha  occ. eigenvalues --   -1.15177  -1.15135  -1.14585  -1.14542  -1.14514
 Alpha  occ. eigenvalues --   -1.14309  -1.14302  -1.14260  -1.13434  -1.13300
 Alpha  occ. eigenvalues --   -1.13213  -1.12927  -1.12900  -1.12837  -1.12821
 Alpha  occ. eigenvalues --   -1.12794  -1.12757  -1.12351  -1.12315  -1.12286
 Alpha  occ. eigenvalues --   -0.18653  -0.13826  -0.11404  -0.11012
 Alpha virt. eigenvalues --   -0.07541  -0.04826  -0.04347  -0.03176  -0.03071
 Alpha virt. eigenvalues --   -0.02503  -0.02253  -0.01261  -0.00952  -0.00195
 Alpha virt. eigenvalues --   -0.00041   0.00160   0.00304   0.00674   0.00725

  Beta  occ. eigenvalues --  -38.45669 -38.45063 -38.44910 -38.43495 -38.43272
  Beta  occ. eigenvalues --  -38.43269 -38.42696  -2.21440  -2.20834  -2.20681
  Beta  occ. eigenvalues --   -2.19486  -2.19237  -2.19077  -2.18617  -1.15170
  Beta  occ. eigenvalues --   -1.15117  -1.15059  -1.14536  -1.14494  -1.14474
  Beta  occ. eigenvalues --   -1.14348  -1.14340  -1.14296  -1.13342  -1.13216
  Beta  occ. eigenvalues --   -1.13102  -1.12900  -1.12877  -1.12813  -1.12761
  Beta  occ. eigenvalues --   -1.12744  -1.12711  -1.12316  -1.12273  -1.12247
  Beta  occ. eigenvalues --   -0.17954  -0.13679  -0.10828
  Beta virt. eigenvalues --   -0.07606  -0.07017  -0.04807  -0.04023  -0.02821
  Beta virt. eigenvalues --   -0.02716  -0.01712  -0.01609  -0.01136  -0.00727
  Beta virt. eigenvalues --   -0.00172  -0.00043   0.00184   0.00435   0.00750

 Mulliken charges and spin densities:
               1          2
     1  Na  -0.223561  -0.137286
     2  Na  -0.641076   0.465732
     3  Na   0.340420   0.247250
     4  Na   1.042856   0.100160
     5  Na  -0.506014   0.500776
     6  Na   0.269589  -0.125535
     7  Na  -0.282213  -0.051098
 Sum of Mulliken charges =  -0.00000   1.00000

 Dipole moment (field-independent basis, Debye):
    X=              0.1322    Y=             -0.3766    Z=              0.8548  Tot=              0.9434
 Quadrupole moment (field-independent basis, Debye-Ang):
   XX=            -49.9715   YY=            -74.6880   ZZ=            -70.1191
   XY=              0.4976   XZ=             -0.6960   YZ=             -0.1920

 Normal termination of Gaussian 16 at Tue Dec  5 13:26:13 2023.
