 Gaussian 16, Revision B.01,
 Gaussian 16:  ES64L-G16RevB.01 20-Dec-2017

 -------------------------
 #P B3LYP/6-311+g(d) force
 -------------------------

 -----
 DPGEN
 -----
 Symbolic Z-matrix:
 Charge =  0 Multiplicity = 2

                         Standard orientation:
 ---------------------------------------------------------------------
 Center     Atomic      Atomic             Coordinates (Angstroms)
 Number     Number       Type             X           Y           Z
 ---------------------------------------------------------------------
      1         11           0        1.470880   -0.422610    1.211525
      2         11           0        6.824375   -1.228327   -0.804671
      3         11           0        5.025623    1.218690    0.020991
      4         11           0       -2.465101   -1.587088   -0.213219
      5         11           0       -5.829374   -1.446490   -0.000613
      6         11           0       -3.939702    1.997423   -0.996187
      7         11           0       -1.086700    1.468402    0.782174
 ---------------------------------------------------------------------

 SCF Done:  E(UB3LYP) =  -1136.11365243     A.U. after   19 cycles

 The electronic state is 2-A.
 Alpha  occ. eigenvalues --  -38.44813 -38.44467 -38.44376 -38.44375 -38.44145
 Alpha  occ. eigenvalues --  -38.43721 -38.43611  -2.20621  -2.20243  -2.20196
 Alpha  occ. eigenvalues --   -2.20160  -2.19930  -2.19519  -2.19478  -1.14318
 Alpha  occ. eigenvalues --   -1.14296  -1.14217  -1.13947  -1.13902  -1.13900
 Alpha  occ. eigenvalues --   -1.13856  -1.13854  -1.13825  -1.13811  -1.13788
 Alpha  occ. eigenvalues --   -1.13759  -1.13593  -1.13587  -1.13551  -1.13225
 Alpha  occ. eigenvalues --   -1.13187  -1.13166  -1.13151  -1.13149  -1.13062
 Alpha  occ. eigenvalues --   -0.16318  -0.13808  -0.11957  -0.11102
 Alpha virt. eigenvalues --   -0.06660  -0.05119  -0.04764  -0.03422  -0.02826
 Alpha virt. eigenvalues --   -0.02619  -0.02479  -0.01752  -0.01030  -0.00833
 Alpha virt. eigenvalues --   -0.00463  -0.00211   0.00167   0.00278   0.00544

  Beta  occ. eigenvalues --  -38.44779 -38.44464 -38.44377 -38.44281 -38.44112
  Beta  occ. eigenvalues --  -38.43705 -38.43586  -2.20559  -2.20237  -2.20161
  Beta  occ. eigenvalues --   -2.20024  -2.19869  -2.19491  -2.19437  -1.14277
  Beta  occ. eigenvalues --   -1.14246  -1.14168  -1.13945  -1.13899  -1.13896
  Beta  occ. eigenvalues --   -1.13826  -1.13812  -1.13758  -1.13739  -1.13730
  Beta  occ. eigenvalues --   -1.13667  -1.13553  -1.13533  -1.13517  -1.13200
  Beta  occ. eigenvalues --   -1.13167  -1.13142  -1.13129  -1.13124  -1.13003
  Beta  occ. eigenvalues --   -0.15590  -0.13666  -0.11673
  Beta virt. eigenvalues --   -0.07248  -0.06466  -0.04993  -0.04370  -0.03216
  Beta virt. eigenvalues --   -0.02532  -0.02242  -0.01990  -0.01578  -0.00976
  Beta virt. eigenvalues --   -0.00419  -0.00232   0.00042   0.00274   0.00322

 Mulliken charges and spin densities:
               1          2
     1  Na  -0.234313   0.050633
     2  Na   0.031972   0.014980
     3  Na   0.147423  -0.007984
     4  Na  -0.494021   0.366675
     5  Na   0.507929   0.049618
     6  Na   0.168838   0.315550
     7  Na  -0.127829   0.210528
 Sum of Mulliken charges =  -0.00000   1.00000

 Dipole moment (field-independent basis, Debye):
    X=              0.0316    Y=             -0.3784    Z=             -0.2954  Tot=              0.4811
 Quadrupole moment (field-independent basis, Debye-Ang):
   XX=            -56.5117   YY=            -65.1300   ZZ=            -72.2687
   XY=             -5.6253   XZ=             -1.0034   YZ=              1.3406

 Normal termination of Gaussian 16 at Mon Dec  4 03:05:15 2023.
