 Gaussian 16, Revision B.01,
 Gaussian 16:  ES64L-G16RevB.01 20-Dec-2017

 -------------------------
 #P B3LYP/6-311+g(d) force
 -------------------------

 -----
 DPGEN
 -----
 Symbolic Z-matrix:
 Charge =  0 Multiplicity = 2

                         Standard orientation:
 ---------------------------------------------------------------------
 Center     Atomic      Atomic             Coordinates (Angstroms)
 Number     Number       Type             X           Y           Z
 ---------------------------------------------------------------------
      1         11           0        2.343745   -2.759500   -0.322437
      2         11           0       -0.977554    3.923926   -0.163327
      3         11           0        4.527083   -0.355763   -0.045326
      4         11           0       -3.855004   -1.968979   -0.658574
      5         11           0       -3.423545    1.509290    0.301460
      6         11           0        2.550605    2.444610    0.088686
      7         11           0       -1.165330   -2.793583    0.799517
 ---------------------------------------------------------------------

 SCF Done:  E(UB3LYP) =  -1136.11106540     A.U. after   23 cycles

 The electronic state is 2-A.
 Alpha  occ. eigenvalues --  -38.45602 -38.45104 -38.45034 -38.44393 -38.43974
 Alpha  occ. eigenvalues --  -38.43849 -38.43558  -2.21361  -2.20865  -2.20823
 Alpha  occ. eigenvalues --   -2.20202  -2.19781  -2.19682  -2.19340  -1.15052
 Alpha  occ. eigenvalues --   -1.15033  -1.14975  -1.14547  -1.14534  -1.14515
 Alpha  occ. eigenvalues --   -1.14495  -1.14479  -1.14457  -1.13874  -1.13868
 Alpha  occ. eigenvalues --   -1.13852  -1.13442  -1.13432  -1.13410  -1.13344
 Alpha  occ. eigenvalues --   -1.13325  -1.13310  -1.13006  -1.12996  -1.12982
 Alpha  occ. eigenvalues --   -0.15727  -0.14168  -0.13272  -0.10585
 Alpha virt. eigenvalues --   -0.07667  -0.05014  -0.04335  -0.03436  -0.03212
 Alpha virt. eigenvalues --   -0.02736  -0.02243  -0.02087  -0.01402  -0.00566
 Alpha virt. eigenvalues --   -0.00056   0.00050   0.00227   0.00296   0.00458

  Beta  occ. eigenvalues --  -38.45574 -38.45067 -38.45017 -38.44385 -38.43924
  Beta  occ. eigenvalues --  -38.43804 -38.43534  -2.21314  -2.20800  -2.20796
  Beta  occ. eigenvalues --   -2.20189  -2.19691  -2.19598  -2.19298  -1.15025
  Beta  occ. eigenvalues --   -1.15006  -1.14908  -1.14505  -1.14500  -1.14493
  Beta  occ. eigenvalues --   -1.14482  -1.14419  -1.14398  -1.13869  -1.13862
  Beta  occ. eigenvalues --   -1.13819  -1.13381  -1.13370  -1.13345  -1.13290
  Beta  occ. eigenvalues --   -1.13268  -1.13253  -1.12979  -1.12969  -1.12947
  Beta  occ. eigenvalues --   -0.15183  -0.13610  -0.12623
  Beta virt. eigenvalues --   -0.07798  -0.07235  -0.04650  -0.03999  -0.03123
  Beta virt. eigenvalues --   -0.02694  -0.02571  -0.02023  -0.01929  -0.01278
  Beta virt. eigenvalues --   -0.00280   0.00129   0.00238   0.00300   0.00413

 Mulliken charges and spin densities:
               1          2
     1  Na  -0.239937   0.208083
     2  Na   0.289020   0.193311
     3  Na   0.323013  -0.053608
     4  Na   0.304155   0.230824
     5  Na  -0.210572   0.199987
     6  Na  -0.158491   0.217520
     7  Na  -0.307186   0.003884
 Sum of Mulliken charges =  -0.00000   1.00000

 Dipole moment (field-independent basis, Debye):
    X=             -0.2876    Y=             -0.1519    Z=              0.0335  Tot=              0.3269
 Quadrupole moment (field-independent basis, Debye-Ang):
   XX=            -59.0025   YY=            -69.7249   ZZ=            -71.4864
   XY=             -0.4164   XZ=              0.1421   YZ=              0.2397

 Normal termination of Gaussian 16 at Sun Dec  3 12:25:43 2023.
