 Gaussian 16, Revision B.01,
 Gaussian 16:  ES64L-G16RevB.01 20-Dec-2017

 -------------------------
 #P B3LYP/6-311+g(d) force
 -------------------------

 -----
 DPGEN
 -----
 Symbolic Z-matrix:
 Charge =  0 Multiplicity = 2

                         Standard orientation:
 ---------------------------------------------------------------------
 Center     Atomic      Atomic             Coordinates (Angstroms)
 Number     Number       Type             X           Y           Z
 ---------------------------------------------------------------------
      1         11           0       -2.945693    2.479378   -0.913967
      2         11           0       -0.077693    3.752370    1.232265
      3         11           0        3.094906    1.934421    0.187269
      4         11           0        3.986195   -1.347742   -0.630171
      5         11           0       -2.286659   -3.358114    1.621925
      6         11           0       -3.014475   -0.846495   -1.152320
      7         11           0        1.243419   -2.613818   -0.345000
 ---------------------------------------------------------------------

 SCF Done:  E(UB3LYP) =  -1136.10936007     A.U. after   20 cycles

 The electronic state is 2-A.
 Alpha  occ. eigenvalues --  -38.45270 -38.45223 -38.44702 -38.44461 -38.44271
 Alpha  occ. eigenvalues --  -38.44070 -38.43914  -2.21051  -2.20972  -2.20471
 Alpha  occ. eigenvalues --   -2.20205  -2.20043  -2.19863  -2.19762  -1.14734
 Alpha  occ. eigenvalues --   -1.14723  -1.14701  -1.14660  -1.14643  -1.14587
 Alpha  occ. eigenvalues --   -1.14159  -1.14153  -1.14094  -1.13885  -1.13865
 Alpha  occ. eigenvalues --   -1.13837  -1.13698  -1.13691  -1.13653  -1.13526
 Alpha  occ. eigenvalues --   -1.13524  -1.13484  -1.13444  -1.13402  -1.13387
 Alpha  occ. eigenvalues --   -0.15614  -0.13842  -0.13070  -0.10868
 Alpha virt. eigenvalues --   -0.07162  -0.05532  -0.04240  -0.03545  -0.03318
 Alpha virt. eigenvalues --   -0.02345  -0.01960  -0.01786  -0.01409  -0.01218
 Alpha virt. eigenvalues --   -0.00458  -0.00306  -0.00069   0.00522   0.00577

  Beta  occ. eigenvalues --  -38.45255 -38.45200 -38.44682 -38.44444 -38.44198
  Beta  occ. eigenvalues --  -38.44025 -38.43890  -2.21027  -2.20931  -2.20441
  Beta  occ. eigenvalues --   -2.20176  -2.19906  -2.19781  -2.19718  -1.14722
  Beta  occ. eigenvalues --   -1.14711  -1.14656  -1.14634  -1.14617  -1.14545
  Beta  occ. eigenvalues --   -1.14144  -1.14135  -1.14036  -1.13867  -1.13847
  Beta  occ. eigenvalues --   -1.13806  -1.13604  -1.13596  -1.13564  -1.13473
  Beta  occ. eigenvalues --   -1.13466  -1.13423  -1.13406  -1.13373  -1.13363
  Beta  occ. eigenvalues --   -0.15191  -0.13201  -0.12375
  Beta virt. eigenvalues --   -0.07605  -0.07227  -0.05088  -0.03896  -0.03393
  Beta virt. eigenvalues --   -0.02966  -0.02039  -0.01751  -0.01623  -0.01112
  Beta virt. eigenvalues --   -0.01039  -0.00207  -0.00009   0.00164   0.00517

 Mulliken charges and spin densities:
               1          2
     1  Na   0.006901   0.128988
     2  Na  -0.042986   0.029681
     3  Na  -0.242428   0.176058
     4  Na   0.263746   0.047910
     5  Na   0.438748   0.387096
     6  Na   0.022728   0.075976
     7  Na  -0.446710   0.154290
 Sum of Mulliken charges =  -0.00000   1.00000

 Dipole moment (field-independent basis, Debye):
    X=              0.6150    Y=             -0.1794    Z=              0.0669  Tot=              0.6441
 Quadrupole moment (field-independent basis, Debye-Ang):
   XX=            -62.4719   YY=            -67.9307   ZZ=            -69.5800
   XY=             -0.8468   XZ=             -1.9949   YZ=              0.5495

 Normal termination of Gaussian 16 at Sun Dec  3 15:06:39 2023.
