 Gaussian 16, Revision B.01,
 Gaussian 16:  ES64L-G16RevB.01 20-Dec-2017

 -------------------------
 #P B3LYP/6-311+g(d) force
 -------------------------

 -----
 DPGEN
 -----
 Symbolic Z-matrix:
 Charge =  0 Multiplicity = 2

                         Standard orientation:
 ---------------------------------------------------------------------
 Center     Atomic      Atomic             Coordinates (Angstroms)
 Number     Number       Type             X           Y           Z
 ---------------------------------------------------------------------
      1         11           0        1.433227   -2.493990    0.317057
      2         11           0       -1.878229   -1.782100   -0.913807
      3         11           0        0.671278    2.655483    0.694634
      4         11           0        3.484201    0.399376   -0.401373
      5         11           0       -1.369375   -0.494537    2.181725
      6         11           0        0.298816    0.308114   -1.092093
      7         11           0       -2.639917    1.407654   -0.786143
 ---------------------------------------------------------------------

 SCF Done:  E(UB3LYP) =  -1136.13059660     A.U. after   19 cycles

 The electronic state is 2-A.
 Alpha  occ. eigenvalues --  -38.44209 -38.43929 -38.43850 -38.43548 -38.43413
 Alpha  occ. eigenvalues --  -38.43409 -38.42794  -2.20019  -2.19787  -2.19731
 Alpha  occ. eigenvalues --   -2.19394  -2.19346  -2.19242  -2.18916  -1.13707
 Alpha  occ. eigenvalues --   -1.13674  -1.13647  -1.13448  -1.13440  -1.13429
 Alpha  occ. eigenvalues --   -1.13398  -1.13374  -1.13355  -1.13166  -1.13093
 Alpha  occ. eigenvalues --   -1.13045  -1.12989  -1.12987  -1.12957  -1.12926
 Alpha  occ. eigenvalues --   -1.12911  -1.12860  -1.12590  -1.12558  -1.12530
 Alpha  occ. eigenvalues --   -0.18687  -0.13253  -0.12145  -0.10978
 Alpha virt. eigenvalues --   -0.05785  -0.05053  -0.04386  -0.03195  -0.02855
 Alpha virt. eigenvalues --   -0.02596  -0.01665  -0.00959  -0.00436  -0.00025
 Alpha virt. eigenvalues --    0.00001   0.00336   0.00705   0.00840   0.00860

  Beta  occ. eigenvalues --  -38.44208 -38.43833 -38.43828 -38.43536 -38.43411
  Beta  occ. eigenvalues --  -38.43384 -38.42761  -2.20019  -2.19696  -2.19608
  Beta  occ. eigenvalues --   -2.19374  -2.19304  -2.19240  -2.18858  -1.13702
  Beta  occ. eigenvalues --   -1.13674  -1.13649  -1.13413  -1.13360  -1.13320
  Beta  occ. eigenvalues --   -1.13314  -1.13306  -1.13265  -1.13151  -1.13062
  Beta  occ. eigenvalues --   -1.13018  -1.12976  -1.12953  -1.12936  -1.12905
  Beta  occ. eigenvalues --   -1.12891  -1.12855  -1.12533  -1.12520  -1.12483
  Beta  occ. eigenvalues --   -0.17985  -0.13016  -0.11968
  Beta virt. eigenvalues --   -0.06956  -0.05635  -0.05036  -0.04253  -0.02647
  Beta virt. eigenvalues --   -0.02170  -0.01693  -0.01406  -0.00925  -0.00259
  Beta virt. eigenvalues --   -0.00029   0.00135   0.00392   0.00843   0.00882

 Mulliken charges and spin densities:
               1          2
     1  Na  -0.229076   0.033837
     2  Na   0.399049   0.030056
     3  Na  -0.373732   0.072550
     4  Na   0.409243   0.018468
     5  Na  -0.603427   0.675852
     6  Na   0.032894   0.189922
     7  Na   0.365049  -0.020685
 Sum of Mulliken charges =  -0.00000   1.00000

 Dipole moment (field-independent basis, Debye):
    X=              0.1916    Y=              0.0938    Z=              0.3476  Tot=              0.4078
 Quadrupole moment (field-independent basis, Debye-Ang):
   XX=            -54.4637   YY=            -65.9324   ZZ=            -71.8643
   XY=             -0.7735   XZ=              1.3748   YZ=              0.7370

 Normal termination of Gaussian 16 at Thu Dec  7 18:37:06 2023.
