 Gaussian 16, Revision B.01,
 Gaussian 16:  ES64L-G16RevB.01 20-Dec-2017

 -------------------------
 #P B3LYP/6-311+g(d) force
 -------------------------

 -----
 DPGEN
 -----
 Symbolic Z-matrix:
 Charge =  0 Multiplicity = 2

                         Standard orientation:
 ---------------------------------------------------------------------
 Center     Atomic      Atomic             Coordinates (Angstroms)
 Number     Number       Type             X           Y           Z
 ---------------------------------------------------------------------
      1         11           0       -2.380674    0.565814    1.441119
      2         11           0        2.848844    1.275415   -1.134279
      3         11           0        3.718123   -1.591689    0.376378
      4         11           0        0.459824   -0.652090    1.728145
      5         11           0       -0.137855    2.384526   -0.018430
      6         11           0       -0.457698   -1.048717   -1.454859
      7         11           0       -4.050564   -0.933259   -0.938074
 ---------------------------------------------------------------------

 SCF Done:  E(UB3LYP) =  -1136.11712594     A.U. after   29 cycles

 The electronic state is 2-A.
 Alpha  occ. eigenvalues --  -38.45473 -38.44648 -38.44280 -38.44133 -38.44040
 Alpha  occ. eigenvalues --  -38.43803 -38.42617  -2.21284  -2.20486  -2.20207
 Alpha  occ. eigenvalues --   -2.19978  -2.19926  -2.19601  -2.18505  -1.15007
 Alpha  occ. eigenvalues --   -1.14947  -1.14863  -1.14159  -1.14134  -1.14115
 Alpha  occ. eigenvalues --   -1.13923  -1.13862  -1.13818  -1.13658  -1.13624
 Alpha  occ. eigenvalues --   -1.13598  -1.13591  -1.13585  -1.13562  -1.13280
 Alpha  occ. eigenvalues --   -1.13263  -1.13233  -1.12182  -1.12175  -1.12143
 Alpha  occ. eigenvalues --   -0.18433  -0.13991  -0.11533  -0.11228
 Alpha virt. eigenvalues --   -0.07281  -0.05090  -0.04700  -0.03218  -0.02974
 Alpha virt. eigenvalues --   -0.02690  -0.02252  -0.01304  -0.01045  -0.00054
 Alpha virt. eigenvalues --   -0.00000   0.00287   0.00291   0.00403   0.00654

  Beta  occ. eigenvalues --  -38.45431 -38.44604 -38.44197 -38.44132 -38.44014
  Beta  occ. eigenvalues --  -38.43813 -38.42606  -2.21209  -2.20405  -2.20057
  Beta  occ. eigenvalues --   -2.19933  -2.19926  -2.19619  -2.18488  -1.14941
  Beta  occ. eigenvalues --   -1.14893  -1.14809  -1.14099  -1.14082  -1.14056
  Beta  occ. eigenvalues --   -1.13826  -1.13748  -1.13721  -1.13613  -1.13601
  Beta  occ. eigenvalues --   -1.13587  -1.13579  -1.13561  -1.13551  -1.13293
  Beta  occ. eigenvalues --   -1.13274  -1.13239  -1.12171  -1.12165  -1.12106
  Beta  occ. eigenvalues --   -0.17728  -0.13876  -0.10901
  Beta virt. eigenvalues --   -0.07689  -0.07177  -0.04665  -0.04255  -0.02870
  Beta virt. eigenvalues --   -0.02801  -0.02138  -0.01640  -0.01135  -0.00729
  Beta virt. eigenvalues --   -0.00052   0.00017   0.00315   0.00413   0.00581

 Mulliken charges and spin densities:
               1          2
     1  Na   0.865781   0.232454
     2  Na   0.160658   0.148318
     3  Na   0.362869  -0.098196
     4  Na  -0.627552   0.359963
     5  Na  -0.313482   0.050445
     6  Na  -0.421273   0.462703
     7  Na  -0.027001  -0.155687
 Sum of Mulliken charges =  -0.00000   1.00000

 Dipole moment (field-independent basis, Debye):
    X=              0.3830    Y=              0.2191    Z=             -0.0289  Tot=              0.4422
 Quadrupole moment (field-independent basis, Debye-Ang):
   XX=            -55.3080   YY=            -73.2943   ZZ=            -70.4248
   XY=             -2.0709   XZ=             -3.0687   YZ=             -2.0040

 Normal termination of Gaussian 16 at Thu Dec  7 06:50:47 2023.
