 Gaussian 16, Revision B.01,
 Gaussian 16:  ES64L-G16RevB.01 20-Dec-2017

 -------------------------
 #P B3LYP/6-311+g(d) force
 -------------------------

 -----
 DPGEN
 -----
 Symbolic Z-matrix:
 Charge =  0 Multiplicity = 2

                         Standard orientation:
 ---------------------------------------------------------------------
 Center     Atomic      Atomic             Coordinates (Angstroms)
 Number     Number       Type             X           Y           Z
 ---------------------------------------------------------------------
      1         11           0       -4.539003    0.057202   -0.172138
      2         11           0        3.910060    1.034888   -0.380661
      3         11           0       -3.172411   -2.833345    0.192184
      4         11           0        0.748151   -3.533113   -0.535280
      5         11           0        4.114759   -1.600699    0.791274
      6         11           0        0.930881    3.472959   -0.455037
      7         11           0       -1.992436    3.402109    0.559659
 ---------------------------------------------------------------------

 SCF Done:  E(UB3LYP) =  -1136.10195494     A.U. after   20 cycles

 The electronic state is 2-A.
 Alpha  occ. eigenvalues --  -38.44919 -38.44853 -38.44740 -38.44626 -38.44574
 Alpha  occ. eigenvalues --  -38.44281 -38.44280  -2.20733  -2.20621  -2.20523
 Alpha  occ. eigenvalues --   -2.20460  -2.20333  -2.20077  -2.20074  -1.14535
 Alpha  occ. eigenvalues --   -1.14383  -1.14362  -1.14269  -1.14257  -1.14226
 Alpha  occ. eigenvalues --   -1.14214  -1.14183  -1.14166  -1.14096  -1.14085
 Alpha  occ. eigenvalues --   -1.14070  -1.14022  -1.14014  -1.13989  -1.13733
 Alpha  occ. eigenvalues --   -1.13731  -1.13727  -1.13715  -1.13714  -1.13703
 Alpha  occ. eigenvalues --   -0.15351  -0.13892  -0.13391  -0.11055
 Alpha virt. eigenvalues --   -0.07640  -0.05086  -0.04365  -0.03591  -0.03267
 Alpha virt. eigenvalues --   -0.02742  -0.02358  -0.01867  -0.01437  -0.00740
 Alpha virt. eigenvalues --   -0.00571  -0.00301  -0.00003   0.00304   0.00382

  Beta  occ. eigenvalues --  -38.44918 -38.44738 -38.44727 -38.44589 -38.44584
  Beta  occ. eigenvalues --  -38.44269 -38.44225  -2.20736  -2.20504  -2.20408
  Beta  occ. eigenvalues --   -2.20394  -2.20358  -2.20057  -2.19973  -1.14514
  Beta  occ. eigenvalues --   -1.14388  -1.14354  -1.14194  -1.14171  -1.14148
  Beta  occ. eigenvalues --   -1.14124  -1.14114  -1.14084  -1.14051  -1.14044
  Beta  occ. eigenvalues --   -1.14038  -1.14034  -1.14027  -1.13973  -1.13723
  Beta  occ. eigenvalues --   -1.13720  -1.13693  -1.13656  -1.13647  -1.13634
  Beta  occ. eigenvalues --   -0.14885  -0.13367  -0.12649
  Beta virt. eigenvalues --   -0.07734  -0.07666  -0.04655  -0.03933  -0.03408
  Beta virt. eigenvalues --   -0.02914  -0.02508  -0.02150  -0.01789  -0.01279
  Beta virt. eigenvalues --   -0.00459  -0.00222   0.00018   0.00114   0.00367

 Mulliken charges and spin densities:
               1          2
     1  Na   0.002089   0.259046
     2  Na  -0.017601   0.167177
     3  Na  -0.014262  -0.066129
     4  Na  -0.130355   0.605182
     5  Na   0.041606  -0.027014
     6  Na   0.093252   0.038086
     7  Na   0.025271   0.023651
 Sum of Mulliken charges =  -0.00000   1.00000

 Dipole moment (field-independent basis, Debye):
    X=              0.4419    Y=              0.2270    Z=              0.1653  Tot=              0.5236
 Quadrupole moment (field-independent basis, Debye-Ang):
   XX=            -63.1301   YY=            -67.0207   ZZ=            -71.9202
   XY=             -4.2119   XZ=             -0.8517   YZ=             -2.4727

 Normal termination of Gaussian 16 at Mon Dec  4 05:05:37 2023.
