 Gaussian 16, Revision B.01,
 Gaussian 16:  ES64L-G16RevB.01 20-Dec-2017

 -------------------------
 #P B3LYP/6-311+g(d) force
 -------------------------

 -----
 DPGEN
 -----
 Symbolic Z-matrix:
 Charge =  0 Multiplicity = 2

                         Standard orientation:
 ---------------------------------------------------------------------
 Center     Atomic      Atomic             Coordinates (Angstroms)
 Number     Number       Type             X           Y           Z
 ---------------------------------------------------------------------
      1         11           0       -0.472910    1.755629   -0.156830
      2         11           0       -6.334927   -0.687939    0.052339
      3         11           0       -4.452997    1.809914    0.178337
      4         11           0       -2.618307   -1.894450   -0.073414
      5         11           0        1.104430   -0.897911   -0.508701
      6         11           0        5.073476   -0.464144    0.948780
      7         11           0        7.701237    0.378901   -0.440511
 ---------------------------------------------------------------------

 SCF Done:  E(UB3LYP) =  -1136.11143562     A.U. after   19 cycles

 The electronic state is 2-A.
 Alpha  occ. eigenvalues --  -38.45167 -38.44526 -38.44468 -38.44248 -38.44232
 Alpha  occ. eigenvalues --  -38.44196 -38.44191  -2.20933  -2.20307  -2.20266
 Alpha  occ. eigenvalues --   -2.20067  -2.20020  -2.20014  -2.19997  -1.14622
 Alpha  occ. eigenvalues --   -1.14592  -1.14518  -1.13998  -1.13967  -1.13962
 Alpha  occ. eigenvalues --   -1.13962  -1.13929  -1.13901  -1.13794  -1.13732
 Alpha  occ. eigenvalues --   -1.13713  -1.13682  -1.13681  -1.13676  -1.13663
 Alpha  occ. eigenvalues --   -1.13663  -1.13644  -1.13631  -1.13626  -1.13595
 Alpha  occ. eigenvalues --   -0.16118  -0.13801  -0.12506  -0.10863
 Alpha virt. eigenvalues --   -0.07128  -0.05350  -0.04821  -0.03669  -0.02816
 Alpha virt. eigenvalues --   -0.02748  -0.02467  -0.01813  -0.01284  -0.00889
 Alpha virt. eigenvalues --   -0.00499  -0.00222  -0.00047   0.00189   0.00452

  Beta  occ. eigenvalues --  -38.45092 -38.44529 -38.44467 -38.44231 -38.44199
  Beta  occ. eigenvalues --  -38.44190 -38.44150  -2.20795  -2.20313  -2.20265
  Beta  occ. eigenvalues --   -2.20018  -2.19996  -2.19976  -2.19929  -1.14529
  Beta  occ. eigenvalues --   -1.14494  -1.14416  -1.14001  -1.13966  -1.13966
  Beta  occ. eigenvalues --   -1.13962  -1.13929  -1.13892  -1.13759  -1.13680
  Beta  occ. eigenvalues --   -1.13679  -1.13674  -1.13656  -1.13654  -1.13644
  Beta  occ. eigenvalues --   -1.13625  -1.13613  -1.13606  -1.13563  -1.13558
  Beta  occ. eigenvalues --   -0.15410  -0.13771  -0.12480
  Beta virt. eigenvalues --   -0.07044  -0.06833  -0.05006  -0.04258  -0.03461
  Beta virt. eigenvalues --   -0.02687  -0.02398  -0.02014  -0.01836  -0.01214
  Beta virt. eigenvalues --   -0.00458  -0.00165  -0.00018   0.00088   0.00409

 Mulliken charges and spin densities:
               1          2
     1  Na   0.346288   0.326180
     2  Na   0.494355  -0.040729
     3  Na  -0.310188   0.198606
     4  Na   0.039904   0.471799
     5  Na  -0.640137   0.069130
     6  Na  -0.340927  -0.010104
     7  Na   0.410705  -0.014883
 Sum of Mulliken charges =  -0.00000   1.00000

 Dipole moment (field-independent basis, Debye):
    X=             -0.1698    Y=             -0.2043    Z=             -0.2044  Tot=              0.3352
 Quadrupole moment (field-independent basis, Debye-Ang):
   XX=            -47.4747   YY=            -71.3184   ZZ=            -72.4685
   XY=              5.2690   XZ=             -4.6822   YZ=             -0.8173

 Normal termination of Gaussian 16 at Sun Dec  3 14:47:33 2023.
