 Gaussian 16, Revision B.01,
 Gaussian 16:  ES64L-G16RevB.01 20-Dec-2017

 -------------------------
 #P B3LYP/6-311+g(d) force
 -------------------------

 -----
 DPGEN
 -----
 Symbolic Z-matrix:
 Charge =  0 Multiplicity = 2

                         Standard orientation:
 ---------------------------------------------------------------------
 Center     Atomic      Atomic             Coordinates (Angstroms)
 Number     Number       Type             X           Y           Z
 ---------------------------------------------------------------------
      1         11           0        1.521483   -2.602384   -0.641605
      2         11           0       -4.032453    0.781584    0.763414
      3         11           0        2.539562    2.657220   -0.758230
      4         11           0       -1.518209   -1.748393   -1.713495
      5         11           0        2.636720   -0.382662    1.239669
      6         11           0       -0.813846    1.770736   -0.998954
      7         11           0       -0.333256   -0.476102    2.109201
 ---------------------------------------------------------------------

 SCF Done:  E(UB3LYP) =  -1136.12075240     A.U. after   21 cycles

 The electronic state is 2-A.
 Alpha  occ. eigenvalues --  -38.45154 -38.45105 -38.44348 -38.43952 -38.43808
 Alpha  occ. eigenvalues --  -38.43721 -38.43174  -2.20988  -2.20850  -2.20162
 Alpha  occ. eigenvalues --   -2.19841  -2.19613  -2.19563  -2.18960  -1.14680
 Alpha  occ. eigenvalues --   -1.14624  -1.14600  -1.14518  -1.14514  -1.14467
 Alpha  occ. eigenvalues --   -1.13841  -1.13813  -1.13771  -1.13553  -1.13536
 Alpha  occ. eigenvalues --   -1.13436  -1.13310  -1.13306  -1.13226  -1.13221
 Alpha  occ. eigenvalues --   -1.13210  -1.13194  -1.12627  -1.12618  -1.12601
 Alpha  occ. eigenvalues --   -0.17561  -0.13162  -0.12027  -0.11456
 Alpha virt. eigenvalues --   -0.06518  -0.05143  -0.04799  -0.03552  -0.03106
 Alpha virt. eigenvalues --   -0.02503  -0.02264  -0.01167  -0.00607  -0.00204
 Alpha virt. eigenvalues --   -0.00035   0.00118   0.00284   0.00510   0.00726

  Beta  occ. eigenvalues --  -38.45083 -38.45078 -38.44289 -38.43933 -38.43788
  Beta  occ. eigenvalues --  -38.43717 -38.43164  -2.20849  -2.20810  -2.20053
  Beta  occ. eigenvalues --   -2.19808  -2.19580  -2.19558  -2.18942  -1.14584
  Beta  occ. eigenvalues --   -1.14528  -1.14498  -1.14492  -1.14480  -1.14442
  Beta  occ. eigenvalues --   -1.13762  -1.13743  -1.13692  -1.13531  -1.13506
  Beta  occ. eigenvalues --   -1.13411  -1.13289  -1.13273  -1.13227  -1.13209
  Beta  occ. eigenvalues --   -1.13183  -1.13178  -1.12613  -1.12601  -1.12591
  Beta  occ. eigenvalues --   -0.16907  -0.12950  -0.11549
  Beta virt. eigenvalues --   -0.07900  -0.06199  -0.05002  -0.04326  -0.03171
  Beta virt. eigenvalues --   -0.02586  -0.02077  -0.01872  -0.01033  -0.00368
  Beta virt. eigenvalues --   -0.00049  -0.00004   0.00226   0.00382   0.00620

 Mulliken charges and spin densities:
               1          2
     1  Na  -0.200345  -0.020917
     2  Na   0.416433   0.075452
     3  Na   0.094528  -0.126667
     4  Na   0.166555   0.182116
     5  Na   0.454647   0.336217
     6  Na  -0.587937   0.373088
     7  Na  -0.343881   0.180711
 Sum of Mulliken charges =  -0.00000   1.00000

 Dipole moment (field-independent basis, Debye):
    X=             -1.1204    Y=             -0.4508    Z=              0.3433  Tot=              1.2555
 Quadrupole moment (field-independent basis, Debye-Ang):
   XX=            -53.3899   YY=            -73.5734   ZZ=            -69.3626
   XY=             -2.1728   XZ=             -1.0833   YZ=              1.0013

 Normal termination of Gaussian 16 at Mon Dec  4 01:42:58 2023.
