 Gaussian 16, Revision B.01,
 Gaussian 16:  ES64L-G16RevB.01 20-Dec-2017

 -------------------------
 #P B3LYP/6-311+g(d) force
 -------------------------

 -----
 DPGEN
 -----
 Symbolic Z-matrix:
 Charge =  0 Multiplicity = 2

                         Standard orientation:
 ---------------------------------------------------------------------
 Center     Atomic      Atomic             Coordinates (Angstroms)
 Number     Number       Type             X           Y           Z
 ---------------------------------------------------------------------
      1         11           0       -1.057027    1.038395    2.222936
      2         11           0        0.718421    2.973377   -0.354374
      3         11           0        3.786881    0.622949   -0.876052
      4         11           0        2.636114   -2.064533    0.054798
      5         11           0       -0.397240   -2.160786    1.141419
      6         11           0       -2.850950   -1.714471   -1.565493
      7         11           0       -2.836200    1.305069   -0.623234
 ---------------------------------------------------------------------

 SCF Done:  E(UB3LYP) =  -1136.11788287     A.U. after   21 cycles

 The electronic state is 2-A.
 Alpha  occ. eigenvalues --  -38.44665 -38.44589 -38.44495 -38.44243 -38.44227
 Alpha  occ. eigenvalues --  -38.43963 -38.43635  -2.20507  -2.20429  -2.20318
 Alpha  occ. eigenvalues --   -2.20031  -2.19990  -2.19791  -2.19477  -1.14183
 Alpha  occ. eigenvalues --   -1.14167  -1.14142  -1.14118  -1.14093  -1.14053
 Alpha  occ. eigenvalues --   -1.13963  -1.13938  -1.13930  -1.13751  -1.13686
 Alpha  occ. eigenvalues --   -1.13682  -1.13668  -1.13654  -1.13611  -1.13471
 Alpha  occ. eigenvalues --   -1.13444  -1.13427  -1.13147  -1.13135  -1.13101
 Alpha  occ. eigenvalues --   -0.17111  -0.13710  -0.12231  -0.11480
 Alpha virt. eigenvalues --   -0.06312  -0.05933  -0.04088  -0.03667  -0.03553
 Alpha virt. eigenvalues --   -0.02411  -0.01588  -0.01179  -0.00984  -0.00555
 Alpha virt. eigenvalues --   -0.00350   0.00010   0.00358   0.00479   0.00717

  Beta  occ. eigenvalues --  -38.44593 -38.44561 -38.44431 -38.44247 -38.44201
  Beta  occ. eigenvalues --  -38.43964 -38.43600  -2.20383  -2.20373  -2.20203
  Beta  occ. eigenvalues --   -2.19998  -2.19982  -2.19795  -2.19414  -1.14112
  Beta  occ. eigenvalues --   -1.14093  -1.14071  -1.14058  -1.14025  -1.13988
  Beta  occ. eigenvalues --   -1.13886  -1.13866  -1.13848  -1.13724  -1.13685
  Beta  occ. eigenvalues --   -1.13671  -1.13653  -1.13627  -1.13609  -1.13465
  Beta  occ. eigenvalues --   -1.13447  -1.13421  -1.13104  -1.13082  -1.13060
  Beta  occ. eigenvalues --   -0.16451  -0.13194  -0.12047
  Beta virt. eigenvalues --   -0.07865  -0.06223  -0.05503  -0.03664  -0.03370
  Beta virt. eigenvalues --   -0.02971  -0.01894  -0.01414  -0.01061  -0.00856
  Beta virt. eigenvalues --   -0.00530  -0.00058   0.00221   0.00472   0.00593

 Mulliken charges and spin densities:
               1          2
     1  Na   0.165595   0.210811
     2  Na  -0.334280  -0.029981
     3  Na   0.195462   0.164880
     4  Na  -0.020349  -0.143847
     5  Na  -0.217444   0.417756
     6  Na   0.121770   0.163461
     7  Na   0.089246   0.216919
 Sum of Mulliken charges =  -0.00000   1.00000

 Dipole moment (field-independent basis, Debye):
    X=             -0.4073    Y=              0.3580    Z=             -0.1436  Tot=              0.5610
 Quadrupole moment (field-independent basis, Debye-Ang):
   XX=            -64.4823   YY=            -67.3664   ZZ=            -68.2442
   XY=              0.1256   XZ=             -0.9392   YZ=              0.6692

 Normal termination of Gaussian 16 at Sun Dec  3 20:52:46 2023.
