 Gaussian 16, Revision B.01,
 Gaussian 16:  ES64L-G16RevB.01 20-Dec-2017

 -------------------------
 #P B3LYP/6-311+g(d) force
 -------------------------

 -----
 DPGEN
 -----
 Symbolic Z-matrix:
 Charge =  0 Multiplicity = 2

                         Standard orientation:
 ---------------------------------------------------------------------
 Center     Atomic      Atomic             Coordinates (Angstroms)
 Number     Number       Type             X           Y           Z
 ---------------------------------------------------------------------
      1         11           0        0.802026    3.294929    0.506666
      2         11           0       -1.858177    1.360496   -1.376333
      3         11           0        3.161316   -1.834114    0.497760
      4         11           0       -3.487196   -1.317044    0.554715
      5         11           0       -0.197011   -2.306133   -0.711282
      6         11           0        1.773353    0.402673   -1.341921
      7         11           0       -0.194310    0.399192    1.870394
 ---------------------------------------------------------------------

 SCF Done:  E(UB3LYP) =  -1136.13458663     A.U. after   18 cycles

 The electronic state is 2-A.
 Alpha  occ. eigenvalues --  -38.44104 -38.44053 -38.43931 -38.43865 -38.43706
 Alpha  occ. eigenvalues --  -38.43397 -38.43378  -2.19914  -2.19870  -2.19763
 Alpha  occ. eigenvalues --   -2.19646  -2.19569  -2.19303  -2.19197  -1.13602
 Alpha  occ. eigenvalues --   -1.13564  -1.13553  -1.13552  -1.13535  -1.13478
 Alpha  occ. eigenvalues --   -1.13474  -1.13453  -1.13354  -1.13313  -1.13311
 Alpha  occ. eigenvalues --   -1.13276  -1.13246  -1.13210  -1.13189  -1.13003
 Alpha  occ. eigenvalues --   -1.12970  -1.12908  -1.12865  -1.12856  -1.12826
 Alpha  occ. eigenvalues --   -0.17972  -0.12839  -0.12356  -0.10615
 Alpha virt. eigenvalues --   -0.05846  -0.05278  -0.04758  -0.03219  -0.03034
 Alpha virt. eigenvalues --   -0.02462  -0.01767  -0.01352  -0.00660  -0.00218
 Alpha virt. eigenvalues --    0.00150   0.00293   0.00652   0.00748   0.00768

  Beta  occ. eigenvalues --  -38.44103 -38.44009 -38.43919 -38.43863 -38.43630
  Beta  occ. eigenvalues --  -38.43373 -38.43363  -2.19913  -2.19790  -2.19745
  Beta  occ. eigenvalues --   -2.19644  -2.19429  -2.19242  -2.19191  -1.13602
  Beta  occ. eigenvalues --   -1.13556  -1.13552  -1.13496  -1.13469  -1.13464
  Beta  occ. eigenvalues --   -1.13422  -1.13416  -1.13348  -1.13312  -1.13298
  Beta  occ. eigenvalues --   -1.13275  -1.13151  -1.13113  -1.13086  -1.12960
  Beta  occ. eigenvalues --   -1.12911  -1.12875  -1.12851  -1.12841  -1.12815
  Beta  occ. eigenvalues --   -0.17251  -0.12699  -0.12159
  Beta virt. eigenvalues --   -0.06786  -0.05710  -0.05116  -0.04656  -0.02723
  Beta virt. eigenvalues --   -0.02388  -0.01683  -0.01553  -0.01236  -0.00350
  Beta virt. eigenvalues --   -0.00219   0.00221   0.00340   0.00716   0.00794

 Mulliken charges and spin densities:
               1          2
     1  Na   0.122259  -0.125322
     2  Na  -0.251903   0.181955
     3  Na   0.185185  -0.146007
     4  Na   0.344772  -0.018264
     5  Na  -0.257259   0.032994
     6  Na   0.247594   0.384782
     7  Na  -0.390648   0.689863
 Sum of Mulliken charges =  -0.00000   1.00000

 Dipole moment (field-independent basis, Debye):
    X=              0.0867    Y=             -0.2013    Z=              0.1072  Tot=              0.2440
 Quadrupole moment (field-independent basis, Debye-Ang):
   XX=            -56.6829   YY=            -63.2884   ZZ=            -72.7231
   XY=             -0.3617   XZ=              1.5370   YZ=             -1.6438

 Normal termination of Gaussian 16 at Thu Dec  7 18:58:13 2023.
