 Gaussian 16, Revision B.01,
 Gaussian 16:  ES64L-G16RevB.01 20-Dec-2017

 -------------------------
 #P B3LYP/6-311+g(d) force
 -------------------------

 -----
 DPGEN
 -----
 Symbolic Z-matrix:
 Charge =  0 Multiplicity = 2

                         Standard orientation:
 ---------------------------------------------------------------------
 Center     Atomic      Atomic             Coordinates (Angstroms)
 Number     Number       Type             X           Y           Z
 ---------------------------------------------------------------------
      1         11           0       -3.678360   -0.016914   -0.894991
      2         11           0       -1.382018    1.247210    1.887611
      3         11           0       -0.432258    0.937021   -1.731613
      4         11           0        1.526943   -1.415986    1.501712
      5         11           0        2.027332    2.223929    0.242190
      6         11           0       -1.571169   -2.000066    0.135643
      7         11           0        3.509529   -0.975194   -1.140552
 ---------------------------------------------------------------------

 SCF Done:  E(UB3LYP) =  -1136.12444618     A.U. after   24 cycles

 The electronic state is 2-A.
 Alpha  occ. eigenvalues --  -38.44760 -38.44720 -38.44481 -38.44060 -38.43388
 Alpha  occ. eigenvalues --  -38.43357 -38.43158  -2.20617  -2.20508  -2.20307
 Alpha  occ. eigenvalues --   -2.19901  -2.19266  -2.19163  -2.18999  -1.14300
 Alpha  occ. eigenvalues --   -1.14268  -1.14244  -1.14176  -1.14154  -1.14138
 Alpha  occ. eigenvalues --   -1.13974  -1.13945  -1.13922  -1.13593  -1.13554
 Alpha  occ. eigenvalues --   -1.13525  -1.12950  -1.12931  -1.12911  -1.12841
 Alpha  occ. eigenvalues --   -1.12835  -1.12795  -1.12679  -1.12651  -1.12641
 Alpha  occ. eigenvalues --   -0.18049  -0.13906  -0.11375  -0.11006
 Alpha virt. eigenvalues --   -0.06542  -0.05297  -0.04791  -0.03133  -0.02870
 Alpha virt. eigenvalues --   -0.02637  -0.02242  -0.01169  -0.00762  -0.00162
 Alpha virt. eigenvalues --    0.00185   0.00218   0.00305   0.00568   0.00642

  Beta  occ. eigenvalues --  -38.44736 -38.44691 -38.44404 -38.44033 -38.43378
  Beta  occ. eigenvalues --  -38.43358 -38.43139  -2.20574  -2.20453  -2.20165
  Beta  occ. eigenvalues --   -2.19852  -2.19251  -2.19168  -2.18966  -1.14272
  Beta  occ. eigenvalues --   -1.14225  -1.14217  -1.14138  -1.14119  -1.14098
  Beta  occ. eigenvalues --   -1.13872  -1.13844  -1.13821  -1.13561  -1.13515
  Beta  occ. eigenvalues --   -1.13486  -1.12944  -1.12909  -1.12882  -1.12844
  Beta  occ. eigenvalues --   -1.12836  -1.12788  -1.12660  -1.12626  -1.12599
  Beta  occ. eigenvalues --   -0.17343  -0.13602  -0.10829
  Beta virt. eigenvalues --   -0.07657  -0.06251  -0.05118  -0.04289  -0.02952
  Beta virt. eigenvalues --   -0.02330  -0.02025  -0.01865  -0.00786  -0.00657
  Beta virt. eigenvalues --   -0.00061   0.00194   0.00280   0.00392   0.00691

 Mulliken charges and spin densities:
               1          2
     1  Na   0.746308   0.085408
     2  Na  -0.274790   0.394214
     3  Na  -0.295776   0.215383
     4  Na   0.039512   0.078296
     5  Na   0.066300   0.063544
     6  Na  -0.326204   0.071245
     7  Na   0.044651   0.091910
 Sum of Mulliken charges =  -0.00000   1.00000

 Dipole moment (field-independent basis, Debye):
    X=             -0.6159    Y=              0.4230    Z=             -0.4095  Tot=              0.8521
 Quadrupole moment (field-independent basis, Debye-Ang):
   XX=            -50.4916   YY=            -78.0783   ZZ=            -66.5918
   XY=             -0.6479   XZ=             -2.0069   YZ=              4.1382

 Normal termination of Gaussian 16 at Thu Dec  7 23:00:42 2023.
