 Gaussian 16, Revision B.01,
 Gaussian 16:  ES64L-G16RevB.01 20-Dec-2017

 -------------------------
 #P B3LYP/6-311+g(d) force
 -------------------------

 -----
 DPGEN
 -----
 Symbolic Z-matrix:
 Charge =  0 Multiplicity = 2

                         Standard orientation:
 ---------------------------------------------------------------------
 Center     Atomic      Atomic             Coordinates (Angstroms)
 Number     Number       Type             X           Y           Z
 ---------------------------------------------------------------------
      1         11           0        3.301582    2.170974    0.127099
      2         11           0       -2.651403    2.290525    0.488941
      3         11           0       -2.008205   -1.671318   -0.672370
      4         11           0        1.894779   -2.331917   -0.895608
      5         11           0       -0.113932    1.804287   -1.198293
      6         11           0       -4.382316   -1.094690    0.890319
      7         11           0        3.959495   -1.167860    1.259911
 ---------------------------------------------------------------------

 SCF Done:  E(UB3LYP) =  -1136.10931697     A.U. after   24 cycles

 The electronic state is 2-A.
 Alpha  occ. eigenvalues --  -38.45425 -38.45149 -38.44590 -38.44285 -38.44049
 Alpha  occ. eigenvalues --  -38.43801 -38.43274  -2.21224  -2.20908  -2.20389
 Alpha  occ. eigenvalues --   -2.20126  -2.19846  -2.19665  -2.19107  -1.14918
 Alpha  occ. eigenvalues --   -1.14893  -1.14830  -1.14588  -1.14564  -1.14532
 Alpha  occ. eigenvalues --   -1.14068  -1.14056  -1.14026  -1.13888  -1.13790
 Alpha  occ. eigenvalues --   -1.13766  -1.13517  -1.13498  -1.13478  -1.13311
 Alpha  occ. eigenvalues --   -1.13289  -1.13267  -1.12797  -1.12756  -1.12741
 Alpha  occ. eigenvalues --   -0.16583  -0.14354  -0.11996  -0.10860
 Alpha virt. eigenvalues --   -0.07404  -0.04955  -0.04216  -0.03871  -0.03563
 Alpha virt. eigenvalues --   -0.02208  -0.01825  -0.01716  -0.01129  -0.00692
 Alpha virt. eigenvalues --   -0.00249  -0.00116   0.00246   0.00431   0.00513

  Beta  occ. eigenvalues --  -38.45401 -38.45119 -38.44584 -38.44264 -38.44016
  Beta  occ. eigenvalues --  -38.43745 -38.43253  -2.21181  -2.20853  -2.20378
  Beta  occ. eigenvalues --   -2.20094  -2.19785  -2.19559  -2.19069  -1.14877
  Beta  occ. eigenvalues --   -1.14866  -1.14796  -1.14550  -1.14530  -1.14485
  Beta  occ. eigenvalues --   -1.14066  -1.14050  -1.14006  -1.13825  -1.13765
  Beta  occ. eigenvalues --   -1.13749  -1.13480  -1.13457  -1.13425  -1.13243
  Beta  occ. eigenvalues --   -1.13216  -1.13194  -1.12768  -1.12731  -1.12711
  Beta  occ. eigenvalues --   -0.15962  -0.13903  -0.11660
  Beta virt. eigenvalues --   -0.07490  -0.07282  -0.04419  -0.03899  -0.03359
  Beta virt. eigenvalues --   -0.03339  -0.02013  -0.01541  -0.01408  -0.01021
  Beta virt. eigenvalues --   -0.00468  -0.00075   0.00079   0.00365   0.00532

 Mulliken charges and spin densities:
               1          2
     1  Na   0.148693   0.214621
     2  Na   0.354119   0.017680
     3  Na  -0.805772   0.029001
     4  Na  -0.256527   0.078516
     5  Na  -0.564195   0.159669
     6  Na   0.928957   0.436152
     7  Na   0.194724   0.064361
 Sum of Mulliken charges =  -0.00000   1.00000

 Dipole moment (field-independent basis, Debye):
    X=              0.1645    Y=              0.7533    Z=              0.7784  Tot=              1.0956
 Quadrupole moment (field-independent basis, Debye-Ang):
   XX=            -60.1999   YY=            -69.6974   ZZ=            -68.3441
   XY=             -4.1437   XZ=             -1.1569   YZ=              1.7037

 Normal termination of Gaussian 16 at Mon Dec  4 05:03:26 2023.
