 Gaussian 16, Revision B.01,
 Gaussian 16:  ES64L-G16RevB.01 20-Dec-2017

 -------------------------
 #P B3LYP/6-311+g(d) force
 -------------------------

 -----
 DPGEN
 -----
 Symbolic Z-matrix:
 Charge =  0 Multiplicity = 2

                         Standard orientation:
 ---------------------------------------------------------------------
 Center     Atomic      Atomic             Coordinates (Angstroms)
 Number     Number       Type             X           Y           Z
 ---------------------------------------------------------------------
      1         11           0       -3.443086    0.821794    0.107219
      2         11           0        1.174490   -2.781243   -0.745151
      3         11           0       -1.162782    3.506976   -0.054819
      4         11           0        2.554657    2.175440   -0.659329
      5         11           0       -2.275052   -2.993356   -0.026199
      6         11           0       -0.160804   -0.064274    0.506799
      7         11           0        3.312577   -0.665336    0.871480
 ---------------------------------------------------------------------

 SCF Done:  E(UB3LYP) =  -1136.12553850     A.U. after   26 cycles

 The electronic state is 2-A.
 Alpha  occ. eigenvalues --  -38.44640 -38.44569 -38.44066 -38.43996 -38.43735
 Alpha  occ. eigenvalues --  -38.43291 -38.43267  -2.20412  -2.20410  -2.19964
 Alpha  occ. eigenvalues --   -2.19814  -2.19600  -2.19113  -2.19103  -1.14116
 Alpha  occ. eigenvalues --   -1.14103  -1.14085  -1.14074  -1.14043  -1.14024
 Alpha  occ. eigenvalues --   -1.13706  -1.13617  -1.13591  -1.13483  -1.13464
 Alpha  occ. eigenvalues --   -1.13430  -1.13270  -1.13250  -1.13239  -1.12774
 Alpha  occ. eigenvalues --   -1.12765  -1.12758  -1.12740  -1.12739  -1.12732
 Alpha  occ. eigenvalues --   -0.17309  -0.13698  -0.13218  -0.09329
 Alpha virt. eigenvalues --   -0.06623  -0.05778  -0.04867  -0.02895  -0.02536
 Alpha virt. eigenvalues --   -0.02163  -0.02083  -0.01759  -0.01529  -0.00364
 Alpha virt. eigenvalues --    0.00122   0.00258   0.00393   0.00535   0.00706

  Beta  occ. eigenvalues --  -38.44637 -38.44555 -38.44077 -38.43961 -38.43703
  Beta  occ. eigenvalues --  -38.43240 -38.43204  -2.20410  -2.20391  -2.19983
  Beta  occ. eigenvalues --   -2.19751  -2.19545  -2.19019  -2.18986  -1.14111
  Beta  occ. eigenvalues --   -1.14108  -1.14079  -1.14075  -1.14001  -1.13969
  Beta  occ. eigenvalues --   -1.13714  -1.13631  -1.13613  -1.13441  -1.13428
  Beta  occ. eigenvalues --   -1.13375  -1.13234  -1.13211  -1.13185  -1.12709
  Beta  occ. eigenvalues --   -1.12693  -1.12685  -1.12679  -1.12663  -1.12647
  Beta  occ. eigenvalues --   -0.17053  -0.13141  -0.12529
  Beta virt. eigenvalues --   -0.06691  -0.06085  -0.05511  -0.04628  -0.02504
  Beta virt. eigenvalues --   -0.02159  -0.01995  -0.01694  -0.01490  -0.01254
  Beta virt. eigenvalues --   -0.00226   0.00328   0.00416   0.00505   0.00674

 Mulliken charges and spin densities:
               1          2
     1  Na   0.850039   0.233244
     2  Na   0.663949   0.086510
     3  Na   0.233734   0.039525
     4  Na   0.189611   0.341585
     5  Na   0.146993   0.275532
     6  Na  -3.345989  -0.197745
     7  Na   1.261663   0.221348
 Sum of Mulliken charges =  -0.00000   1.00000

 Dipole moment (field-independent basis, Debye):
    X=             -0.1658    Y=             -0.1680    Z=             -0.1063  Tot=              0.2589
 Quadrupole moment (field-independent basis, Debye-Ang):
   XX=            -61.9367   YY=            -66.3386   ZZ=            -70.1270
   XY=             -3.1696   XZ=              0.3129   YZ=              1.6734

 Normal termination of Gaussian 16 at Tue Dec  5 17:33:42 2023.
