 Gaussian 16, Revision B.01,
 Gaussian 16:  ES64L-G16RevB.01 20-Dec-2017

 -------------------------
 #P B3LYP/6-311+g(d) force
 -------------------------

 -----
 DPGEN
 -----
 Symbolic Z-matrix:
 Charge =  0 Multiplicity = 2

                         Standard orientation:
 ---------------------------------------------------------------------
 Center     Atomic      Atomic             Coordinates (Angstroms)
 Number     Number       Type             X           Y           Z
 ---------------------------------------------------------------------
      1         11           0       -0.051281    1.917368   -0.043129
      2         11           0       -2.834744    3.338085   -0.098582
      3         11           0       -3.376919   -0.868656   -0.001440
      4         11           0       -1.755884   -3.225727   -0.665893
      5         11           0       -0.216090   -1.286968    1.358020
      6         11           0        2.686733    0.004560   -0.658237
      7         11           0        5.548186    0.121338    0.109261
 ---------------------------------------------------------------------

 SCF Done:  E(UB3LYP) =  -1136.11644977     A.U. after   20 cycles

 The electronic state is 2-A.
 Alpha  occ. eigenvalues --  -38.44761 -38.44712 -38.44648 -38.44025 -38.43539
 Alpha  occ. eigenvalues --  -38.43426 -38.43183  -2.20628  -2.20598  -2.20526
 Alpha  occ. eigenvalues --   -2.19867  -2.19343  -2.19300  -2.19054  -1.14427
 Alpha  occ. eigenvalues --   -1.14317  -1.14294  -1.14268  -1.14247  -1.14214
 Alpha  occ. eigenvalues --   -1.14157  -1.14128  -1.14083  -1.13561  -1.13484
 Alpha  occ. eigenvalues --   -1.13483  -1.13076  -1.13003  -1.12985  -1.12977
 Alpha  occ. eigenvalues --   -1.12961  -1.12884  -1.12742  -1.12715  -1.12692
 Alpha  occ. eigenvalues --   -0.17416  -0.13993  -0.12619  -0.10777
 Alpha virt. eigenvalues --   -0.06152  -0.05763  -0.04397  -0.03716  -0.02986
 Alpha virt. eigenvalues --   -0.02118  -0.01729  -0.01439  -0.01049  -0.00817
 Alpha virt. eigenvalues --   -0.00413  -0.00010   0.00399   0.00425   0.00556

  Beta  occ. eigenvalues --  -38.44722 -38.44664 -38.44638 -38.43935 -38.43526
  Beta  occ. eigenvalues --  -38.43409 -38.43180  -2.20559  -2.20512  -2.20508
  Beta  occ. eigenvalues --   -2.19701  -2.19318  -2.19271  -2.19059  -1.14389
  Beta  occ. eigenvalues --   -1.14269  -1.14242  -1.14219  -1.14191  -1.14160
  Beta  occ. eigenvalues --   -1.14142  -1.14085  -1.14054  -1.13455  -1.13371
  Beta  occ. eigenvalues --   -1.13369  -1.13060  -1.12986  -1.12965  -1.12959
  Beta  occ. eigenvalues --   -1.12937  -1.12856  -1.12736  -1.12728  -1.12640
  Beta  occ. eigenvalues --   -0.16836  -0.13325  -0.12312
  Beta virt. eigenvalues --   -0.07419  -0.05917  -0.05374  -0.04079  -0.03297
  Beta virt. eigenvalues --   -0.02709  -0.01995  -0.01532  -0.01207  -0.00762
  Beta virt. eigenvalues --   -0.00390  -0.00151   0.00186   0.00471   0.00547

 Mulliken charges and spin densities:
               1          2
     1  Na  -1.033546  -0.022357
     2  Na   0.744154   0.158680
     3  Na  -0.031309   0.331094
     4  Na   0.302227   0.010359
     5  Na  -0.362501   0.235662
     6  Na   0.368819  -0.127203
     7  Na   0.012155   0.413766
 Sum of Mulliken charges =  -0.00000   1.00000

 Dipole moment (field-independent basis, Debye):
    X=             -1.0144    Y=             -1.4114    Z=              0.3092  Tot=              1.7655
 Quadrupole moment (field-independent basis, Debye-Ang):
   XX=            -68.7983   YY=            -64.4612   ZZ=            -67.7992
   XY=             -0.4626   XZ=              2.0611   YZ=              1.5953

 Normal termination of Gaussian 16 at Tue Nov 28 21:33:15 2023.
