 Gaussian 16, Revision B.01,
 Gaussian 16:  ES64L-G16RevB.01 20-Dec-2017

 -------------------------
 #P B3LYP/6-311+g(d) force
 -------------------------

 -----
 DPGEN
 -----
 Symbolic Z-matrix:
 Charge =  0 Multiplicity = 2

                         Standard orientation:
 ---------------------------------------------------------------------
 Center     Atomic      Atomic             Coordinates (Angstroms)
 Number     Number       Type             X           Y           Z
 ---------------------------------------------------------------------
      1         11           0       -1.410976    1.596468   -1.867726
      2         11           0        3.856816   -1.766088    0.033472
      3         11           0       -2.283054   -1.636906   -1.858019
      4         11           0        0.594518   -1.141659    0.509741
      5         11           0        2.188910    2.008442   -0.752884
      6         11           0       -0.560924    2.110817    2.042182
      7         11           0       -2.385291   -1.171075    1.893234
 ---------------------------------------------------------------------

 SCF Done:  E(UB3LYP) =  -1136.12243245     A.U. after   23 cycles

 The electronic state is 2-A.
 Alpha  occ. eigenvalues --  -38.44753 -38.44582 -38.44558 -38.44312 -38.44226
 Alpha  occ. eigenvalues --  -38.43249 -38.42896  -2.20544  -2.20399  -2.20379
 Alpha  occ. eigenvalues --   -2.20123  -2.19988  -2.19015  -2.18779  -1.14218
 Alpha  occ. eigenvalues --   -1.14199  -1.14147  -1.14079  -1.14068  -1.14055
 Alpha  occ. eigenvalues --   -1.14021  -1.14011  -1.13981  -1.13804  -1.13774
 Alpha  occ. eigenvalues --   -1.13732  -1.13684  -1.13661  -1.13590  -1.12690
 Alpha  occ. eigenvalues --   -1.12686  -1.12655  -1.12497  -1.12448  -1.12387
 Alpha  occ. eigenvalues --   -0.17570  -0.12723  -0.12405  -0.11316
 Alpha virt. eigenvalues --   -0.05759  -0.05227  -0.05073  -0.03434  -0.03156
 Alpha virt. eigenvalues --   -0.02879  -0.01559  -0.01105  -0.00961  -0.00157
 Alpha virt. eigenvalues --    0.00077   0.00230   0.00268   0.00354   0.00697

  Beta  occ. eigenvalues --  -38.44692 -38.44529 -38.44513 -38.44260 -38.44223
  Beta  occ. eigenvalues --  -38.43259 -38.42886  -2.20432  -2.20303  -2.20297
  Beta  occ. eigenvalues --   -2.20030  -2.19984  -2.19034  -2.18762  -1.14140
  Beta  occ. eigenvalues --   -1.14122  -1.14062  -1.14009  -1.14001  -1.13989
  Beta  occ. eigenvalues --   -1.13967  -1.13944  -1.13917  -1.13736  -1.13716
  Beta  occ. eigenvalues --   -1.13678  -1.13660  -1.13650  -1.13590  -1.12703
  Beta  occ. eigenvalues --   -1.12698  -1.12667  -1.12459  -1.12440  -1.12383
  Beta  occ. eigenvalues --   -0.16739  -0.12444  -0.11249
  Beta virt. eigenvalues --   -0.08415  -0.05455  -0.05025  -0.04501  -0.03041
  Beta virt. eigenvalues --   -0.02617  -0.02403  -0.01439  -0.01043  -0.00516
  Beta virt. eigenvalues --   -0.00057   0.00169   0.00281   0.00382   0.00516

 Mulliken charges and spin densities:
               1          2
     1  Na  -0.171324   0.282263
     2  Na   0.348442  -0.090387
     3  Na   0.231506   0.132850
     4  Na  -1.396994   0.478476
     5  Na   0.046260  -0.007262
     6  Na   0.172404   0.198952
     7  Na   0.769706   0.005108
 Sum of Mulliken charges =  -0.00000   1.00000

 Dipole moment (field-independent basis, Debye):
    X=             -1.0561    Y=              0.5469    Z=             -0.0176  Tot=              1.1895
 Quadrupole moment (field-independent basis, Debye-Ang):
   XX=            -61.2150   YY=            -70.5670   ZZ=            -62.8654
   XY=              3.9118   XZ=             -2.1491   YZ=              2.3874

 Normal termination of Gaussian 16 at Tue Dec  5 18:55:11 2023.
