 Gaussian 16, Revision B.01,
 Gaussian 16:  ES64L-G16RevB.01 20-Dec-2017

 -------------------------
 #P B3LYP/6-311+g(d) force
 -------------------------

 -----
 DPGEN
 -----
 Symbolic Z-matrix:
 Charge =  0 Multiplicity = 2

                         Standard orientation:
 ---------------------------------------------------------------------
 Center     Atomic      Atomic             Coordinates (Angstroms)
 Number     Number       Type             X           Y           Z
 ---------------------------------------------------------------------
      1         11           0       -3.026509    1.139813   -0.295346
      2         11           0       -0.465223   -0.247935    2.222001
      3         11           0        3.031989    1.084509   -0.278331
      4         11           0        2.759387   -2.174539    0.018256
      5         11           0        0.148462    2.987612    0.013426
      6         11           0       -2.256828   -2.454249   -0.295340
      7         11           0       -0.191278   -0.335210   -1.384667
 ---------------------------------------------------------------------

 SCF Done:  E(UB3LYP) =  -1136.13068492     A.U. after   21 cycles

 The electronic state is 2-A.
 Alpha  occ. eigenvalues --  -38.44688 -38.44264 -38.44068 -38.44045 -38.43633
 Alpha  occ. eigenvalues --  -38.43406 -38.43016  -2.20503  -2.20047  -2.19892
 Alpha  occ. eigenvalues --   -2.19871  -2.19474  -2.19351  -2.18835  -1.14189
 Alpha  occ. eigenvalues --   -1.14163  -1.14127  -1.13729  -1.13713  -1.13692
 Alpha  occ. eigenvalues --   -1.13598  -1.13544  -1.13539  -1.13530  -1.13523
 Alpha  occ. eigenvalues --   -1.13501  -1.13135  -1.13095  -1.13088  -1.13045
 Alpha  occ. eigenvalues --   -1.12998  -1.12975  -1.12509  -1.12501  -1.12480
 Alpha  occ. eigenvalues --   -0.18035  -0.13380  -0.11960  -0.10434
 Alpha virt. eigenvalues --   -0.06251  -0.05655  -0.04549  -0.03143  -0.02581
 Alpha virt. eigenvalues --   -0.02483  -0.01925  -0.01415  -0.00919  -0.00468
 Alpha virt. eigenvalues --   -0.00048   0.00282   0.00684   0.00696   0.00835

  Beta  occ. eigenvalues --  -38.44678 -38.44267 -38.44061 -38.44042 -38.43518
  Beta  occ. eigenvalues --  -38.43367 -38.43015  -2.20487  -2.20054  -2.19881
  Beta  occ. eigenvalues --   -2.19866  -2.19282  -2.19261  -2.18836  -1.14171
  Beta  occ. eigenvalues --   -1.14141  -1.14116  -1.13735  -1.13709  -1.13695
  Beta  occ. eigenvalues --   -1.13587  -1.13533  -1.13525  -1.13522  -1.13509
  Beta  occ. eigenvalues --   -1.13503  -1.13011  -1.12969  -1.12949  -1.12949
  Beta  occ. eigenvalues --   -1.12937  -1.12919  -1.12510  -1.12489  -1.12478
  Beta  occ. eigenvalues --   -0.17362  -0.13186  -0.11795
  Beta virt. eigenvalues --   -0.06453  -0.06219  -0.05571  -0.04528  -0.02489
  Beta virt. eigenvalues --   -0.01857  -0.01844  -0.01453  -0.01282  -0.00956
  Beta virt. eigenvalues --   -0.00487   0.00147   0.00347   0.00704   0.00782

 Mulliken charges and spin densities:
               1          2
     1  Na   0.255449   0.066024
     2  Na  -0.518278   0.771583
     3  Na   0.066264   0.012771
     4  Na   0.155860  -0.002523
     5  Na  -0.039977   0.009255
     6  Na   0.176954   0.036739
     7  Na  -0.096273   0.106150
 Sum of Mulliken charges =  -0.00000   1.00000

 Dipole moment (field-independent basis, Debye):
    X=             -0.3195    Y=             -0.3603    Z=              0.0193  Tot=              0.4819
 Quadrupole moment (field-independent basis, Debye-Ang):
   XX=            -53.8050   YY=            -62.5920   ZZ=            -76.8821
   XY=             -0.5507   XZ=              0.5765   YZ=             -0.2597

 Normal termination of Gaussian 16 at Fri Dec  8 04:43:18 2023.
