 Gaussian 16, Revision B.01,
 Gaussian 16:  ES64L-G16RevB.01 20-Dec-2017

 -------------------------
 #P B3LYP/6-311+g(d) force
 -------------------------

 -----
 DPGEN
 -----
 Symbolic Z-matrix:
 Charge =  0 Multiplicity = 2

                         Standard orientation:
 ---------------------------------------------------------------------
 Center     Atomic      Atomic             Coordinates (Angstroms)
 Number     Number       Type             X           Y           Z
 ---------------------------------------------------------------------
      1         11           0       -1.080773   -2.273394   -0.609378
      2         11           0        2.586842    1.941834    0.156672
      3         11           0       -0.081209   -0.243449    2.248592
      4         11           0       -3.482574    0.138126    0.011518
      5         11           0       -0.895192    2.581984   -0.357125
      6         11           0        2.128306   -2.254156    0.026875
      7         11           0        0.824600    0.109054   -1.477154
 ---------------------------------------------------------------------

 SCF Done:  E(UB3LYP) =  -1136.13203118     A.U. after   19 cycles

 The electronic state is 2-A.
 Alpha  occ. eigenvalues --  -38.44014 -38.43973 -38.43966 -38.43728 -38.43667
 Alpha  occ. eigenvalues --  -38.43337 -38.43152  -2.19855  -2.19818  -2.19755
 Alpha  occ. eigenvalues --   -2.19603  -2.19509  -2.19240  -2.19199  -1.13585
 Alpha  occ. eigenvalues --   -1.13503  -1.13478  -1.13474  -1.13447  -1.13435
 Alpha  occ. eigenvalues --   -1.13427  -1.13418  -1.13399  -1.13327  -1.13253
 Alpha  occ. eigenvalues --   -1.13240  -1.13232  -1.13176  -1.13110  -1.12991
 Alpha  occ. eigenvalues --   -1.12896  -1.12847  -1.12846  -1.12835  -1.12792
 Alpha  occ. eigenvalues --   -0.18596  -0.12777  -0.12669  -0.10894
 Alpha virt. eigenvalues --   -0.05685  -0.05309  -0.04475  -0.03140  -0.03013
 Alpha virt. eigenvalues --   -0.02745  -0.01548  -0.01260  -0.00328  -0.00136
 Alpha virt. eigenvalues --   -0.00022   0.00310   0.00795   0.00840   0.00895

  Beta  occ. eigenvalues --  -38.44012 -38.43968 -38.43865 -38.43724 -38.43660
  Beta  occ. eigenvalues --  -38.43320 -38.43102  -2.19854  -2.19762  -2.19620
  Beta  occ. eigenvalues --   -2.19599  -2.19499  -2.19214  -2.19110  -1.13580
  Beta  occ. eigenvalues --   -1.13490  -1.13475  -1.13432  -1.13413  -1.13406
  Beta  occ. eigenvalues --   -1.13345  -1.13318  -1.13308  -1.13291  -1.13251
  Beta  occ. eigenvalues --   -1.13219  -1.13214  -1.13155  -1.13107  -1.12960
  Beta  occ. eigenvalues --   -1.12858  -1.12831  -1.12782  -1.12776  -1.12731
  Beta  occ. eigenvalues --   -0.17868  -0.12629  -0.12428
  Beta virt. eigenvalues --   -0.06883  -0.05621  -0.05287  -0.04436  -0.02409
  Beta virt. eigenvalues --   -0.02241  -0.01648  -0.01479  -0.01202  -0.00325
  Beta virt. eigenvalues --   -0.00159   0.00134   0.00355   0.00833   0.00873

 Mulliken charges and spin densities:
               1          2
     1  Na   0.123875   0.086681
     2  Na   0.164489   0.029912
     3  Na  -0.650104   0.770876
     4  Na  -0.019873  -0.038931
     5  Na  -0.026694   0.004995
     6  Na   0.332611   0.066169
     7  Na   0.075696   0.080298
 Sum of Mulliken charges =  -0.00000   1.00000

 Dipole moment (field-independent basis, Debye):
    X=              0.2025    Y=              0.1225    Z=              0.3643  Tot=              0.4344
 Quadrupole moment (field-independent basis, Debye-Ang):
   XX=            -55.9025   YY=            -64.1928   ZZ=            -73.8239
   XY=             -0.4145   XZ=              1.5738   YZ=              0.6188

 Normal termination of Gaussian 16 at Fri Dec  8 06:57:14 2023.
