 Gaussian 16, Revision B.01,
 Gaussian 16:  ES64L-G16RevB.01 20-Dec-2017

 -------------------------
 #P B3LYP/6-311+g(d) force
 -------------------------

 -----
 DPGEN
 -----
 Symbolic Z-matrix:
 Charge =  0 Multiplicity = 2

                         Standard orientation:
 ---------------------------------------------------------------------
 Center     Atomic      Atomic             Coordinates (Angstroms)
 Number     Number       Type             X           Y           Z
 ---------------------------------------------------------------------
      1         11           0       -4.446876    0.353578    0.083394
      2         11           0        1.291486    3.628334   -0.226624
      3         11           0        0.229000   -2.997006   -0.104463
      4         11           0        3.691279   -2.562109    0.282647
      5         11           0        4.304112    0.940847   -0.123480
      6         11           0       -1.691258    3.041879    0.281420
      7         11           0       -3.377742   -2.405523   -0.192893
 ---------------------------------------------------------------------

 SCF Done:  E(UB3LYP) =  -1136.10622489     A.U. after   22 cycles

 The electronic state is 2-A.
 Alpha  occ. eigenvalues --  -38.44941 -38.44886 -38.44789 -38.44552 -38.44539
 Alpha  occ. eigenvalues --  -38.44320 -38.44215  -2.20702  -2.20692  -2.20563
 Alpha  occ. eigenvalues --   -2.20373  -2.20351  -2.20113  -2.20003  -1.14449
 Alpha  occ. eigenvalues --   -1.14379  -1.14365  -1.14361  -1.14349  -1.14348
 Alpha  occ. eigenvalues --   -1.14220  -1.14201  -1.14178  -1.14059  -1.14010
 Alpha  occ. eigenvalues --   -1.14008  -1.14006  -1.14001  -1.13986  -1.13772
 Alpha  occ. eigenvalues --   -1.13765  -1.13743  -1.13662  -1.13652  -1.13618
 Alpha  occ. eigenvalues --   -0.15613  -0.14053  -0.13490  -0.10881
 Alpha virt. eigenvalues --   -0.07923  -0.04918  -0.04412  -0.03705  -0.03419
 Alpha virt. eigenvalues --   -0.02503  -0.02228  -0.01922  -0.01447  -0.00676
 Alpha virt. eigenvalues --   -0.00519  -0.00138   0.00014   0.00409   0.00471

  Beta  occ. eigenvalues --  -38.44958 -38.44882 -38.44709 -38.44525 -38.44493
  Beta  occ. eigenvalues --  -38.44310 -38.44139  -2.20731  -2.20700  -2.20414
  Beta  occ. eigenvalues --   -2.20305  -2.20287  -2.20101  -2.19863  -1.14421
  Beta  occ. eigenvalues --   -1.14409  -1.14394  -1.14366  -1.14337  -1.14333
  Beta  occ. eigenvalues --   -1.14118  -1.14102  -1.14080  -1.14018  -1.13980
  Beta  occ. eigenvalues --   -1.13962  -1.13952  -1.13951  -1.13932  -1.13767
  Beta  occ. eigenvalues --   -1.13758  -1.13710  -1.13566  -1.13555  -1.13530
  Beta  occ. eigenvalues --   -0.15069  -0.13388  -0.12859
  Beta virt. eigenvalues --   -0.07923  -0.07707  -0.04468  -0.03848  -0.03538
  Beta virt. eigenvalues --   -0.03023  -0.02326  -0.02151  -0.01837  -0.01322
  Beta virt. eigenvalues --   -0.00286  -0.00221   0.00082   0.00237   0.00490

 Mulliken charges and spin densities:
               1          2
     1  Na   0.089592   0.224568
     2  Na   0.202725  -0.040321
     3  Na  -0.880527   0.286503
     4  Na   0.666875   0.035240
     5  Na  -0.262122   0.409070
     6  Na  -0.152603   0.141687
     7  Na   0.336060  -0.056746
 Sum of Mulliken charges =  -0.00000   1.00000

 Dipole moment (field-independent basis, Debye):
    X=             -0.1524    Y=             -0.0698    Z=              0.0290  Tot=              0.1701
 Quadrupole moment (field-independent basis, Debye-Ang):
   XX=            -59.8159   YY=            -65.7415   ZZ=            -74.4545
   XY=             -0.9317   XZ=             -0.3048   YZ=             -0.4320

 Normal termination of Gaussian 16 at Mon Dec  4 03:56:47 2023.
