 Gaussian 16, Revision B.01,
 Gaussian 16:  ES64L-G16RevB.01 20-Dec-2017

 -------------------------
 #P B3LYP/6-311+g(d) force
 -------------------------

 -----
 DPGEN
 -----
 Symbolic Z-matrix:
 Charge =  0 Multiplicity = 2

                         Standard orientation:
 ---------------------------------------------------------------------
 Center     Atomic      Atomic             Coordinates (Angstroms)
 Number     Number       Type             X           Y           Z
 ---------------------------------------------------------------------
      1         11           0        1.865325    1.300790   -0.499252
      2         11           0       -1.156764    2.786405    0.065984
      3         11           0       -3.859300    0.739877   -0.374584
      4         11           0        4.652431   -0.636270   -1.076201
      5         11           0       -2.909239   -2.660976   -0.791927
      6         11           0       -1.314019   -0.751944    1.243401
      7         11           0        2.721565   -0.777881    1.432579
 ---------------------------------------------------------------------

 SCF Done:  E(UB3LYP) =  -1136.11936872     A.U. after   22 cycles

 The electronic state is 2-A.
 Alpha  occ. eigenvalues --  -38.44756 -38.44470 -38.44439 -38.43955 -38.43760
 Alpha  occ. eigenvalues --  -38.43713 -38.42448  -2.20643  -2.20322  -2.20317
 Alpha  occ. eigenvalues --   -2.19816  -2.19642  -2.19524  -2.18280  -1.14419
 Alpha  occ. eigenvalues --   -1.14299  -1.14265  -1.14017  -1.14002  -1.13999
 Alpha  occ. eigenvalues --   -1.13978  -1.13915  -1.13908  -1.13469  -1.13453
 Alpha  occ. eigenvalues --   -1.13434  -1.13356  -1.13305  -1.13281  -1.13186
 Alpha  occ. eigenvalues --   -1.13175  -1.13139  -1.11952  -1.11945  -1.11933
 Alpha  occ. eigenvalues --   -0.17256  -0.14929  -0.11463  -0.10652
 Alpha virt. eigenvalues --   -0.06649  -0.05252  -0.04287  -0.04058  -0.02734
 Alpha virt. eigenvalues --   -0.02161  -0.02038  -0.01572  -0.00659  -0.00514
 Alpha virt. eigenvalues --   -0.00188   0.00175   0.00366   0.00510   0.00567

  Beta  occ. eigenvalues --  -38.44736 -38.44438 -38.44421 -38.43895 -38.43715
  Beta  occ. eigenvalues --  -38.43710 -38.42447  -2.20612  -2.20325  -2.20226
  Beta  occ. eigenvalues --   -2.19702  -2.19564  -2.19518  -2.18280  -1.14406
  Beta  occ. eigenvalues --   -1.14283  -1.14194  -1.14017  -1.13988  -1.13942
  Beta  occ. eigenvalues --   -1.13919  -1.13903  -1.13844  -1.13392  -1.13375
  Beta  occ. eigenvalues --   -1.13363  -1.13312  -1.13243  -1.13224  -1.13183
  Beta  occ. eigenvalues --   -1.13155  -1.13119  -1.11955  -1.11943  -1.11919
  Beta  occ. eigenvalues --   -0.16629  -0.14514  -0.11348
  Beta virt. eigenvalues --   -0.07028  -0.06364  -0.04655  -0.04132  -0.03854
  Beta virt. eigenvalues --   -0.02426  -0.01842  -0.01512  -0.01306  -0.00502
  Beta virt. eigenvalues --   -0.00297  -0.00016   0.00333   0.00488   0.00585

 Mulliken charges and spin densities:
               1          2
     1  Na  -1.262239  -0.103235
     2  Na   0.368418   0.301860
     3  Na   0.228385   0.376276
     4  Na   0.818907   0.193829
     5  Na   0.499647   0.104552
     6  Na  -0.759042  -0.027484
     7  Na   0.105925   0.154203
 Sum of Mulliken charges =  -0.00000   1.00000

 Dipole moment (field-independent basis, Debye):
    X=              0.4929    Y=             -0.6898    Z=             -0.2823  Tot=              0.8936
 Quadrupole moment (field-independent basis, Debye-Ang):
   XX=            -60.9167   YY=            -70.9494   ZZ=            -66.0933
   XY=             -2.2915   XZ=              1.6790   YZ=              1.2092

 Normal termination of Gaussian 16 at Tue Nov 28 23:20:19 2023.
