 Gaussian 16, Revision B.01,
 Gaussian 16:  ES64L-G16RevB.01 20-Dec-2017

 -------------------------
 #P B3LYP/6-311+g(d) force
 -------------------------

 -----
 DPGEN
 -----
 Symbolic Z-matrix:
 Charge =  0 Multiplicity = 2

                         Standard orientation:
 ---------------------------------------------------------------------
 Center     Atomic      Atomic             Coordinates (Angstroms)
 Number     Number       Type             X           Y           Z
 ---------------------------------------------------------------------
      1         11           0       -2.176528    1.938903    0.431357
      2         11           0       -0.226142   -0.799589   -1.559591
      3         11           0        1.993914    2.572811   -0.584898
      4         11           0        1.014694   -2.803120    0.486348
      5         11           0       -3.786811   -0.789334   -0.315843
      6         11           0        0.179739    0.310594    1.618616
      7         11           0        3.001134   -0.430265   -0.075990
 ---------------------------------------------------------------------

 SCF Done:  E(UB3LYP) =  -1136.12547870     A.U. after   22 cycles

 The electronic state is 2-A.
 Alpha  occ. eigenvalues --  -38.44892 -38.44242 -38.44024 -38.43969 -38.43212
 Alpha  occ. eigenvalues --  -38.43135 -38.43102  -2.20678  -2.20170  -2.19924
 Alpha  occ. eigenvalues --   -2.19832  -2.19189  -2.19015  -2.18963  -1.14348
 Alpha  occ. eigenvalues --   -1.14339  -1.14312  -1.13852  -1.13838  -1.13816
 Alpha  occ. eigenvalues --   -1.13639  -1.13586  -1.13555  -1.13525  -1.13480
 Alpha  occ. eigenvalues --   -1.13447  -1.12877  -1.12838  -1.12791  -1.12681
 Alpha  occ. eigenvalues --   -1.12666  -1.12649  -1.12641  -1.12619  -1.12593
 Alpha  occ. eigenvalues --   -0.18564  -0.13800  -0.12064  -0.10381
 Alpha virt. eigenvalues --   -0.06582  -0.05215  -0.04412  -0.03333  -0.02716
 Alpha virt. eigenvalues --   -0.02352  -0.01861  -0.01253  -0.00548  -0.00247
 Alpha virt. eigenvalues --   -0.00079   0.00232   0.00615   0.00684   0.00807

  Beta  occ. eigenvalues --  -38.44882 -38.44229 -38.43982 -38.43952 -38.43134
  Beta  occ. eigenvalues --  -38.43120 -38.43091  -2.20660  -2.20150  -2.19848
  Beta  occ. eigenvalues --   -2.19804  -2.19049  -2.18998  -2.18937  -1.14338
  Beta  occ. eigenvalues --   -1.14317  -1.14299  -1.13840  -1.13814  -1.13785
  Beta  occ. eigenvalues --   -1.13579  -1.13537  -1.13520  -1.13466  -1.13454
  Beta  occ. eigenvalues --   -1.13428  -1.12784  -1.12735  -1.12702  -1.12664
  Beta  occ. eigenvalues --   -1.12657  -1.12624  -1.12608  -1.12595  -1.12567
  Beta  occ. eigenvalues --   -0.17927  -0.13518  -0.11772
  Beta virt. eigenvalues --   -0.06759  -0.06344  -0.05027  -0.04356  -0.02698
  Beta virt. eigenvalues --   -0.02201  -0.02042  -0.01171  -0.01070  -0.00523
  Beta virt. eigenvalues --   -0.00211   0.00103   0.00296   0.00739   0.00792

 Mulliken charges and spin densities:
               1          2
     1  Na  -0.004885   0.040567
     2  Na  -0.242226   0.458276
     3  Na  -0.445038   0.081006
     4  Na   0.138221   0.061205
     5  Na  -0.059285   0.028827
     6  Na   0.210387   0.123907
     7  Na   0.402826   0.206212
 Sum of Mulliken charges =  -0.00000   1.00000

 Dipole moment (field-independent basis, Debye):
    X=             -0.7148    Y=             -0.3752    Z=              0.0066  Tot=              0.8073
 Quadrupole moment (field-independent basis, Debye-Ang):
   XX=            -53.5597   YY=            -65.1198   ZZ=            -75.1291
   XY=             -0.7559   XZ=              0.0842   YZ=             -2.2097

 Normal termination of Gaussian 16 at Tue Dec  5 15:12:30 2023.
