 Gaussian 16, Revision B.01,
 Gaussian 16:  ES64L-G16RevB.01 20-Dec-2017

 -------------------------
 #P B3LYP/6-311+g(d) force
 -------------------------

 -----
 DPGEN
 -----
 Symbolic Z-matrix:
 Charge =  0 Multiplicity = 2

                         Standard orientation:
 ---------------------------------------------------------------------
 Center     Atomic      Atomic             Coordinates (Angstroms)
 Number     Number       Type             X           Y           Z
 ---------------------------------------------------------------------
      1         11           0        2.301690   -2.672522   -0.574972
      2         11           0        1.979987   -0.220053    1.478331
      3         11           0       -3.601610   -0.460212   -0.704287
      4         11           0       -0.310365    0.469748   -1.608807
      5         11           0        2.007718    2.655577   -0.928412
      6         11           0       -1.193055   -1.502216    0.729750
      7         11           0       -1.184365    1.729678    1.608398
 ---------------------------------------------------------------------

 SCF Done:  E(UB3LYP) =  -1136.12907846     A.U. after   19 cycles

 The electronic state is 2-A.
 Alpha  occ. eigenvalues --  -38.44257 -38.44183 -38.43668 -38.43604 -38.43443
 Alpha  occ. eigenvalues --  -38.43428 -38.43416  -2.20112  -2.20035  -2.19600
 Alpha  occ. eigenvalues --   -2.19483  -2.19399  -2.19244  -2.19225  -1.13830
 Alpha  occ. eigenvalues --   -1.13758  -1.13738  -1.13727  -1.13678  -1.13632
 Alpha  occ. eigenvalues --   -1.13331  -1.13242  -1.13225  -1.13184  -1.13160
 Alpha  occ. eigenvalues --   -1.13103  -1.13089  -1.13067  -1.12983  -1.12908
 Alpha  occ. eigenvalues --   -1.12900  -1.12898  -1.12878  -1.12870  -1.12846
 Alpha  occ. eigenvalues --   -0.18467  -0.13213  -0.11790  -0.11243
 Alpha virt. eigenvalues --   -0.05763  -0.05190  -0.04516  -0.03179  -0.02856
 Alpha virt. eigenvalues --   -0.02593  -0.01803  -0.01170  -0.00819   0.00067
 Alpha virt. eigenvalues --    0.00269   0.00314   0.00469   0.00725   0.00803

  Beta  occ. eigenvalues --  -38.44247 -38.44116 -38.43614 -38.43579 -38.43441
  Beta  occ. eigenvalues --  -38.43409 -38.43398  -2.20094  -2.19914  -2.19502
  Beta  occ. eigenvalues --   -2.19439  -2.19371  -2.19241  -2.19193  -1.13821
  Beta  occ. eigenvalues --   -1.13736  -1.13721  -1.13642  -1.13581  -1.13554
  Beta  occ. eigenvalues --   -1.13266  -1.13173  -1.13156  -1.13148  -1.13111
  Beta  occ. eigenvalues --   -1.13081  -1.13068  -1.12998  -1.12970  -1.12903
  Beta  occ. eigenvalues --   -1.12893  -1.12867  -1.12862  -1.12857  -1.12827
  Beta  occ. eigenvalues --   -0.17696  -0.13021  -0.11582
  Beta virt. eigenvalues --   -0.07306  -0.05633  -0.04997  -0.04185  -0.02782
  Beta virt. eigenvalues --   -0.02401  -0.01773  -0.01639  -0.01028  -0.00429
  Beta virt. eigenvalues --    0.00093   0.00319   0.00388   0.00589   0.00806

 Mulliken charges and spin densities:
               1          2
     1  Na  -0.013268  -0.122122
     2  Na   0.378600   0.249779
     3  Na   0.688882  -0.097626
     4  Na  -0.359585   0.527081
     5  Na  -0.119452  -0.069738
     6  Na  -0.302278   0.294996
     7  Na  -0.272899   0.217630
 Sum of Mulliken charges =  -0.00000   1.00000

 Dipole moment (field-independent basis, Debye):
    X=             -0.6509    Y=              0.2800    Z=             -0.0315  Tot=              0.7093
 Quadrupole moment (field-independent basis, Debye-Ang):
   XX=            -55.3465   YY=            -68.5943   ZZ=            -69.2179
   XY=              0.0852   XZ=              0.0279   YZ=              3.1903

 Normal termination of Gaussian 16 at Tue Dec  5 18:45:16 2023.
