 Gaussian 16, Revision B.01,
 Gaussian 16:  ES64L-G16RevB.01 20-Dec-2017

 -------------------------
 #P B3LYP/6-311+g(d) force
 -------------------------

 -----
 DPGEN
 -----
 Symbolic Z-matrix:
 Charge =  0 Multiplicity = 2

                         Standard orientation:
 ---------------------------------------------------------------------
 Center     Atomic      Atomic             Coordinates (Angstroms)
 Number     Number       Type             X           Y           Z
 ---------------------------------------------------------------------
      1         11           0        3.493648   -2.031003    0.246823
      2         11           0        1.366129    3.530869    0.251767
      3         11           0       -1.784254    3.319729   -0.011807
      4         11           0       -4.192528    0.543355   -0.327318
      5         11           0       -3.042940   -2.687518    0.492492
      6         11           0        0.190680   -3.417895   -0.393481
      7         11           0        3.969264    0.742462   -0.258477
 ---------------------------------------------------------------------

 SCF Done:  E(UB3LYP) =  -1136.10707008     A.U. after   20 cycles

 The electronic state is 2-A.
 Alpha  occ. eigenvalues --  -38.44968 -38.44920 -38.44717 -38.44697 -38.44434
 Alpha  occ. eigenvalues --  -38.44147 -38.44139  -2.20805  -2.20683  -2.20538
 Alpha  occ. eigenvalues --   -2.20499  -2.20226  -2.19946  -2.19944  -1.14623
 Alpha  occ. eigenvalues --   -1.14443  -1.14425  -1.14366  -1.14357  -1.14335
 Alpha  occ. eigenvalues --   -1.14185  -1.14176  -1.14174  -1.14166  -1.14152
 Alpha  occ. eigenvalues --   -1.14151  -1.13883  -1.13874  -1.13847  -1.13597
 Alpha  occ. eigenvalues --   -1.13596  -1.13595  -1.13583  -1.13577  -1.13571
 Alpha  occ. eigenvalues --   -0.15715  -0.14135  -0.13664  -0.10904
 Alpha virt. eigenvalues --   -0.07819  -0.04681  -0.04336  -0.03704  -0.03470
 Alpha virt. eigenvalues --   -0.02620  -0.02332  -0.01874  -0.01505  -0.00392
 Alpha virt. eigenvalues --   -0.00227  -0.00042   0.00063   0.00329   0.00369

  Beta  occ. eigenvalues --  -38.44933 -38.44925 -38.44710 -38.44681 -38.44371
  Beta  occ. eigenvalues --  -38.44094 -38.44071  -2.20746  -2.20698  -2.20515
  Beta  occ. eigenvalues --   -2.20493  -2.20110  -2.19864  -2.19801  -1.14571
  Beta  occ. eigenvalues --   -1.14405  -1.14382  -1.14382  -1.14372  -1.14305
  Beta  occ. eigenvalues --   -1.14176  -1.14175  -1.14165  -1.14154  -1.14113
  Beta  occ. eigenvalues --   -1.14103  -1.13804  -1.13797  -1.13768  -1.13543
  Beta  occ. eigenvalues --   -1.13541  -1.13519  -1.13498  -1.13488  -1.13478
  Beta  occ. eigenvalues --   -0.15194  -0.13387  -0.12909
  Beta virt. eigenvalues --   -0.07958  -0.07764  -0.04269  -0.03773  -0.03477
  Beta virt. eigenvalues --   -0.03084  -0.02413  -0.02129  -0.01793  -0.01363
  Beta virt. eigenvalues --   -0.00010   0.00079   0.00115   0.00233   0.00353

 Mulliken charges and spin densities:
               1          2
     1  Na  -0.123779   0.035476
     2  Na   0.240355   0.142190
     3  Na   0.166695   0.048730
     4  Na  -0.028503   0.353598
     5  Na   0.018565  -0.037841
     6  Na  -0.361954   0.298855
     7  Na   0.088619   0.158992
 Sum of Mulliken charges =  -0.00000   1.00000

 Dipole moment (field-independent basis, Debye):
    X=              0.5034    Y=             -0.2445    Z=              0.0416  Tot=              0.5612
 Quadrupole moment (field-independent basis, Debye-Ang):
   XX=            -62.0442   YY=            -66.2394   ZZ=            -72.9487
   XY=              1.4240   XZ=             -0.6734   YZ=             -1.4710

 Normal termination of Gaussian 16 at Sun Dec  3 20:13:57 2023.
