 Gaussian 16, Revision B.01,
 Gaussian 16:  ES64L-G16RevB.01 20-Dec-2017

 -------------------------
 #P B3LYP/6-311+g(d) force
 -------------------------

 -----
 DPGEN
 -----
 Symbolic Z-matrix:
 Charge =  0 Multiplicity = 2

                         Standard orientation:
 ---------------------------------------------------------------------
 Center     Atomic      Atomic             Coordinates (Angstroms)
 Number     Number       Type             X           Y           Z
 ---------------------------------------------------------------------
      1         11           0        1.949412   -2.669645    0.766331
      2         11           0       -4.166669   -1.530529   -0.093191
      3         11           0       -1.447027   -2.882903   -0.553610
      4         11           0        4.675136   -0.556322   -0.188178
      5         11           0       -3.113975    2.013158    0.321831
      6         11           0        2.599949    2.040982   -0.299387
      7         11           0       -0.496827    3.585259    0.046205
 ---------------------------------------------------------------------

 SCF Done:  E(UB3LYP) =  -1136.11130052     A.U. after   24 cycles

 The electronic state is 2-A.
 Alpha  occ. eigenvalues --  -38.45538 -38.45263 -38.44555 -38.44449 -38.44391
 Alpha  occ. eigenvalues --  -38.43549 -38.43484  -2.21328  -2.21046  -2.20356
 Alpha  occ. eigenvalues --   -2.20254  -2.20181  -2.19388  -2.19320  -1.15012
 Alpha  occ. eigenvalues --   -1.15001  -1.14962  -1.14728  -1.14711  -1.14677
 Alpha  occ. eigenvalues --   -1.14043  -1.14025  -1.14016  -1.13916  -1.13909
 Alpha  occ. eigenvalues --   -1.13899  -1.13847  -1.13836  -1.13787  -1.13050
 Alpha  occ. eigenvalues --   -1.13027  -1.13015  -1.13000  -1.12962  -1.12961
 Alpha  occ. eigenvalues --   -0.15891  -0.14147  -0.13535  -0.10645
 Alpha virt. eigenvalues --   -0.07751  -0.04724  -0.04348  -0.03664  -0.03356
 Alpha virt. eigenvalues --   -0.02472  -0.02297  -0.01898  -0.01242  -0.00562
 Alpha virt. eigenvalues --   -0.00450  -0.00144   0.00299   0.00458   0.00625

  Beta  occ. eigenvalues --  -38.45520 -38.45236 -38.44544 -38.44426 -38.44325
  Beta  occ. eigenvalues --  -38.43502 -38.43464  -2.21300  -2.21000  -2.20342
  Beta  occ. eigenvalues --   -2.20214  -2.20062  -2.19299  -2.19284  -1.14988
  Beta  occ. eigenvalues --   -1.14984  -1.14920  -1.14699  -1.14683  -1.14625
  Beta  occ. eigenvalues --   -1.14034  -1.14021  -1.13965  -1.13890  -1.13878
  Beta  occ. eigenvalues --   -1.13861  -1.13768  -1.13755  -1.13697  -1.12999
  Beta  occ. eigenvalues --   -1.12971  -1.12966  -1.12953  -1.12939  -1.12938
  Beta  occ. eigenvalues --   -0.15402  -0.13562  -0.12906
  Beta virt. eigenvalues --   -0.07882  -0.07230  -0.04356  -0.03973  -0.03356
  Beta virt. eigenvalues --   -0.02875  -0.02335  -0.02119  -0.01692  -0.01121
  Beta virt. eigenvalues --   -0.00208  -0.00127   0.00010   0.00389   0.00524

 Mulliken charges and spin densities:
               1          2
     1  Na  -0.327055   0.272211
     2  Na   0.611090   0.242470
     3  Na  -0.715997   0.037833
     4  Na   0.359148  -0.052337
     5  Na  -0.385834   0.180370
     6  Na  -0.393480   0.174418
     7  Na   0.852128   0.145035
 Sum of Mulliken charges =  -0.00000   1.00000

 Dipole moment (field-independent basis, Debye):
    X=              0.5206    Y=              0.2895    Z=              0.0254  Tot=              0.5962
 Quadrupole moment (field-independent basis, Debye-Ang):
   XX=            -58.4383   YY=            -69.1397   ZZ=            -72.4389
   XY=             -4.0236   XZ=             -0.9301   YZ=              0.3527

 Normal termination of Gaussian 16 at Sun Dec  3 19:43:10 2023.
