 Gaussian 16, Revision B.01,
 Gaussian 16:  ES64L-G16RevB.01 20-Dec-2017

 -------------------------
 #P B3LYP/6-311+g(d) force
 -------------------------

 -----
 DPGEN
 -----
 Symbolic Z-matrix:
 Charge =  0 Multiplicity = 2

                         Standard orientation:
 ---------------------------------------------------------------------
 Center     Atomic      Atomic             Coordinates (Angstroms)
 Number     Number       Type             X           Y           Z
 ---------------------------------------------------------------------
      1         11           0        0.244704    3.076040    0.478880
      2         11           0        2.147370    0.091269    1.815900
      3         11           0        1.914773    0.665853   -1.443128
      4         11           0        2.795362   -2.342113   -0.563400
      5         11           0       -0.677805   -1.071427   -0.029195
      6         11           0       -3.747302   -2.311534    0.366031
      7         11           0       -2.677101    1.891913   -0.625087
 ---------------------------------------------------------------------

 SCF Done:  E(UB3LYP) =  -1136.12395748     A.U. after   21 cycles

 The electronic state is 2-A.
 Alpha  occ. eigenvalues --  -38.44913 -38.44503 -38.44351 -38.43953 -38.43601
 Alpha  occ. eigenvalues --  -38.43384 -38.43338  -2.20690  -2.20347  -2.20261
 Alpha  occ. eigenvalues --   -2.19719  -2.19500  -2.19261  -2.19168  -1.14374
 Alpha  occ. eigenvalues --   -1.14358  -1.14303  -1.14032  -1.14005  -1.13991
 Alpha  occ. eigenvalues --   -1.13951  -1.13927  -1.13844  -1.13388  -1.13383
 Alpha  occ. eigenvalues --   -1.13353  -1.13165  -1.13145  -1.13101  -1.12975
 Alpha  occ. eigenvalues --   -1.12937  -1.12870  -1.12848  -1.12826  -1.12812
 Alpha  occ. eigenvalues --   -0.18057  -0.13493  -0.12123  -0.10273
 Alpha virt. eigenvalues --   -0.06618  -0.05903  -0.04700  -0.03047  -0.02578
 Alpha virt. eigenvalues --   -0.02112  -0.02091  -0.01630  -0.00897  -0.00534
 Alpha virt. eigenvalues --   -0.00151   0.00187   0.00266   0.00563   0.00662

  Beta  occ. eigenvalues --  -38.44899 -38.44481 -38.44312 -38.43949 -38.43515
  Beta  occ. eigenvalues --  -38.43376 -38.43333  -2.20666  -2.20310  -2.20193
  Beta  occ. eigenvalues --   -2.19711  -2.19340  -2.19249  -2.19163  -1.14356
  Beta  occ. eigenvalues --   -1.14341  -1.14286  -1.14000  -1.13977  -1.13952
  Beta  occ. eigenvalues --   -1.13909  -1.13861  -1.13792  -1.13382  -1.13377
  Beta  occ. eigenvalues --   -1.13348  -1.13057  -1.13038  -1.12987  -1.12937
  Beta  occ. eigenvalues --   -1.12930  -1.12869  -1.12849  -1.12826  -1.12780
  Beta  occ. eigenvalues --   -0.17439  -0.13252  -0.11916
  Beta virt. eigenvalues --   -0.06731  -0.06175  -0.05673  -0.04557  -0.02607
  Beta virt. eigenvalues --   -0.02246  -0.01862  -0.01656  -0.01127  -0.00847
  Beta virt. eigenvalues --   -0.00349   0.00112   0.00283   0.00418   0.00602

 Mulliken charges and spin densities:
               1          2
     1  Na   0.362407   0.091143
     2  Na  -0.120998   0.330906
     3  Na   0.811000   0.334434
     4  Na   0.806671   0.061537
     5  Na  -1.589574   0.161912
     6  Na  -0.216103   0.002858
     7  Na  -0.053404   0.017209
 Sum of Mulliken charges =  -0.00000   1.00000

 Dipole moment (field-independent basis, Debye):
    X=              0.1325    Y=             -0.1052    Z=             -0.2164  Tot=              0.2747
 Quadrupole moment (field-independent basis, Debye-Ang):
   XX=            -55.1954   YY=            -62.3010   ZZ=            -74.9699
   XY=             -4.6505   XZ=             -0.1783   YZ=             -1.0609

 Normal termination of Gaussian 16 at Wed Dec  6 00:01:34 2023.
