 Gaussian 16, Revision B.01,
 Gaussian 16:  ES64L-G16RevB.01 20-Dec-2017

 -------------------------
 #P B3LYP/6-311+g(d) force
 -------------------------

 -----
 DPGEN
 -----
 Symbolic Z-matrix:
 Charge =  0 Multiplicity = 2

                         Standard orientation:
 ---------------------------------------------------------------------
 Center     Atomic      Atomic             Coordinates (Angstroms)
 Number     Number       Type             X           Y           Z
 ---------------------------------------------------------------------
      1         11           0       -3.052811    0.612669   -0.162589
      2         11           0        0.080140   -0.030455    2.037363
      3         11           0        2.044640   -2.195722   -0.227815
      4         11           0        3.329366    1.066714   -0.074523
      5         11           0       -1.858981   -2.590008   -0.089982
      6         11           0       -0.673703    3.001058   -0.101518
      7         11           0        0.131347    0.135744   -1.380936
 ---------------------------------------------------------------------

 SCF Done:  E(UB3LYP) =  -1136.13497650     A.U. after   19 cycles

 The electronic state is 2-A.
 Alpha  occ. eigenvalues --  -38.44681 -38.44062 -38.43938 -38.43454 -38.43415
 Alpha  occ. eigenvalues --  -38.43268 -38.43018  -2.20461  -2.19914  -2.19779
 Alpha  occ. eigenvalues --   -2.19269  -2.19255  -2.19149  -2.19016  -1.14133
 Alpha  occ. eigenvalues --   -1.14112  -1.14107  -1.13593  -1.13575  -1.13555
 Alpha  occ. eigenvalues --   -1.13486  -1.13442  -1.13391  -1.12960  -1.12939
 Alpha  occ. eigenvalues --   -1.12932  -1.12914  -1.12911  -1.12890  -1.12836
 Alpha  occ. eigenvalues --   -1.12765  -1.12757  -1.12709  -1.12658  -1.12627
 Alpha  occ. eigenvalues --   -0.18414  -0.13257  -0.12192  -0.10243
 Alpha virt. eigenvalues --   -0.06093  -0.05342  -0.04749  -0.03068  -0.02520
 Alpha virt. eigenvalues --   -0.02236  -0.01924  -0.01296  -0.00633  -0.00570
 Alpha virt. eigenvalues --   -0.00006   0.00307   0.00720   0.00789   0.00836

  Beta  occ. eigenvalues --  -38.44680 -38.44056 -38.43930 -38.43452 -38.43411
  Beta  occ. eigenvalues --  -38.43163 -38.42972  -2.20461  -2.19906  -2.19767
  Beta  occ. eigenvalues --   -2.19268  -2.19252  -2.18955  -2.18933  -1.14122
  Beta  occ. eigenvalues --   -1.14112  -1.14106  -1.13584  -1.13555  -1.13551
  Beta  occ. eigenvalues --   -1.13474  -1.13414  -1.13387  -1.12953  -1.12937
  Beta  occ. eigenvalues --   -1.12920  -1.12910  -1.12897  -1.12882  -1.12716
  Beta  occ. eigenvalues --   -1.12630  -1.12629  -1.12620  -1.12598  -1.12567
  Beta  occ. eigenvalues --   -0.17711  -0.13031  -0.11988
  Beta virt. eigenvalues --   -0.06335  -0.06055  -0.05319  -0.04730  -0.02320
  Beta virt. eigenvalues --   -0.01842  -0.01815  -0.01224  -0.01166  -0.00671
  Beta virt. eigenvalues --   -0.00606   0.00158   0.00355   0.00763   0.00814

 Mulliken charges and spin densities:
               1          2
     1  Na   0.264786   0.039923
     2  Na  -0.503717   0.787173
     3  Na   0.236589   0.007333
     4  Na   0.166621  -0.040138
     5  Na   0.109416  -0.007228
     6  Na   0.223036  -0.031767
     7  Na  -0.496731   0.244705
 Sum of Mulliken charges =  -0.00000   1.00000

 Dipole moment (field-independent basis, Debye):
    X=              0.4585    Y=              0.1360    Z=              0.1199  Tot=              0.4931
 Quadrupole moment (field-independent basis, Debye-Ang):
   XX=            -52.9318   YY=            -61.0690   ZZ=            -77.4376
   XY=              1.0425   XZ=              0.0950   YZ=              0.4101

 Normal termination of Gaussian 16 at Thu Dec  7 11:29:41 2023.
