 Gaussian 16, Revision B.01,
 Gaussian 16:  ES64L-G16RevB.01 20-Dec-2017

 -------------------------
 #P B3LYP/6-311+g(d) force
 -------------------------

 -----
 DPGEN
 -----
 Symbolic Z-matrix:
 Charge =  0 Multiplicity = 2

                         Standard orientation:
 ---------------------------------------------------------------------
 Center     Atomic      Atomic             Coordinates (Angstroms)
 Number     Number       Type             X           Y           Z
 ---------------------------------------------------------------------
      1         11           0       -1.055117    3.171074   -0.001405
      2         11           0        1.880045    3.653791    0.734937
      3         11           0        4.357617    0.406080   -0.342926
      4         11           0        3.044877   -2.775462   -0.896910
      5         11           0        0.021202   -3.394139    1.053264
      6         11           0       -3.693875   -1.863493    0.381622
      7         11           0       -4.554749    0.802149   -0.928582
 ---------------------------------------------------------------------

 SCF Done:  E(UB3LYP) =  -1136.10447343     A.U. after   20 cycles

 The electronic state is 2-A.
 Alpha  occ. eigenvalues --  -38.45036 -38.44888 -38.44772 -38.44611 -38.44509
 Alpha  occ. eigenvalues --  -38.44325 -38.44018  -2.20807  -2.20663  -2.20557
 Alpha  occ. eigenvalues --   -2.20361  -2.20284  -2.20136  -2.19815  -1.14464
 Alpha  occ. eigenvalues --   -1.14447  -1.14426  -1.14355  -1.14335  -1.14319
 Alpha  occ. eigenvalues --   -1.14235  -1.14218  -1.14199  -1.14049  -1.14035
 Alpha  occ. eigenvalues --   -1.14013  -1.13937  -1.13928  -1.13893  -1.13781
 Alpha  occ. eigenvalues --   -1.13779  -1.13768  -1.13483  -1.13471  -1.13456
 Alpha  occ. eigenvalues --   -0.15157  -0.13792  -0.13317  -0.11124
 Alpha virt. eigenvalues --   -0.07466  -0.04929  -0.04799  -0.03529  -0.03372
 Alpha virt. eigenvalues --   -0.02247  -0.02230  -0.01710  -0.01530  -0.01282
 Alpha virt. eigenvalues --   -0.00923  -0.00265  -0.00134   0.00415   0.00681

  Beta  occ. eigenvalues --  -38.44959 -38.44890 -38.44749 -38.44629 -38.44421
  Beta  occ. eigenvalues --  -38.44283 -38.44012  -2.20672  -2.20663  -2.20516
  Beta  occ. eigenvalues --   -2.20399  -2.20119  -2.20058  -2.19807  -1.14366
  Beta  occ. eigenvalues --   -1.14353  -1.14352  -1.14345  -1.14327  -1.14303
  Beta  occ. eigenvalues --   -1.14204  -1.14192  -1.14166  -1.14079  -1.14065
  Beta  occ. eigenvalues --   -1.14003  -1.13824  -1.13816  -1.13788  -1.13731
  Beta  occ. eigenvalues --   -1.13726  -1.13716  -1.13471  -1.13467  -1.13443
  Beta  occ. eigenvalues --   -0.14611  -0.13176  -0.12715
  Beta virt. eigenvalues --   -0.07901  -0.07417  -0.04524  -0.04311  -0.03364
  Beta virt. eigenvalues --   -0.03028  -0.02137  -0.02041  -0.01545  -0.01325
  Beta virt. eigenvalues --   -0.00967  -0.00615   0.00029   0.00037   0.00448

 Mulliken charges and spin densities:
               1          2
     1  Na  -0.411109   0.167916
     2  Na   0.362701  -0.087011
     3  Na   0.012552   0.398342
     4  Na   0.070407  -0.117106
     5  Na  -0.188264   0.415050
     6  Na  -0.053010   0.037112
     7  Na   0.206723   0.185696
 Sum of Mulliken charges =  -0.00000   1.00000

 Dipole moment (field-independent basis, Debye):
    X=             -0.0459    Y=              0.2107    Z=             -0.1511  Tot=              0.2633
 Quadrupole moment (field-independent basis, Debye-Ang):
   XX=            -61.9022   YY=            -67.5385   ZZ=            -71.4751
   XY=              0.9770   XZ=              1.4159   YZ=             -0.6128

 Normal termination of Gaussian 16 at Sun Dec  3 19:49:48 2023.
