 Gaussian 16, Revision B.01,
 Gaussian 16:  ES64L-G16RevB.01 20-Dec-2017

 -------------------------
 #P B3LYP/6-311+g(d) force
 -------------------------

 -----
 DPGEN
 -----
 Symbolic Z-matrix:
 Charge =  0 Multiplicity = 2

                         Standard orientation:
 ---------------------------------------------------------------------
 Center     Atomic      Atomic             Coordinates (Angstroms)
 Number     Number       Type             X           Y           Z
 ---------------------------------------------------------------------
      1         11           0       -1.944437   -1.433606   -0.086051
      2         11           0       -5.130189   -2.051463   -0.192477
      3         11           0       -4.449399    2.015393   -1.172844
      4         11           0       -1.346453    2.097421    1.082253
      5         11           0        1.389700   -0.345704    1.480895
      6         11           0        4.167436   -0.325030   -0.367708
      7         11           0        7.313341    0.042988   -0.744067
 ---------------------------------------------------------------------

 SCF Done:  E(UB3LYP) =  -1136.11118414     A.U. after   22 cycles

 The electronic state is 2-A.
 Alpha  occ. eigenvalues --  -38.45506 -38.45283 -38.44846 -38.44273 -38.44035
 Alpha  occ. eigenvalues --  -38.43781 -38.43530  -2.21265  -2.21054  -2.20662
 Alpha  occ. eigenvalues --   -2.20068  -2.19814  -2.19590  -2.19340  -1.14934
 Alpha  occ. eigenvalues --   -1.14908  -1.14873  -1.14741  -1.14725  -1.14656
 Alpha  occ. eigenvalues --   -1.14360  -1.14328  -1.14270  -1.13733  -1.13722
 Alpha  occ. eigenvalues --   -1.13683  -1.13474  -1.13468  -1.13467  -1.13277
 Alpha  occ. eigenvalues --   -1.13260  -1.13212  -1.13011  -1.13007  -1.12971
 Alpha  occ. eigenvalues --   -0.16298  -0.13816  -0.12050  -0.11595
 Alpha virt. eigenvalues --   -0.06991  -0.05641  -0.04312  -0.03554  -0.03232
 Alpha virt. eigenvalues --   -0.02579  -0.02194  -0.01812  -0.01327  -0.00980
 Alpha virt. eigenvalues --   -0.00722  -0.00222   0.00087   0.00333   0.00426

  Beta  occ. eigenvalues --  -38.45432 -38.45250 -38.44805 -38.44233 -38.44023
  Beta  occ. eigenvalues --  -38.43772 -38.43533  -2.21127  -2.20994  -2.20588
  Beta  occ. eigenvalues --   -2.19997  -2.19791  -2.19571  -2.19347  -1.14842
  Beta  occ. eigenvalues --   -1.14806  -1.14777  -1.14704  -1.14689  -1.14594
  Beta  occ. eigenvalues --   -1.14310  -1.14276  -1.14207  -1.13678  -1.13668
  Beta  occ. eigenvalues --   -1.13641  -1.13459  -1.13453  -1.13452  -1.13265
  Beta  occ. eigenvalues --   -1.13243  -1.13204  -1.13016  -1.13013  -1.12968
  Beta  occ. eigenvalues --   -0.15637  -0.13522  -0.11529
  Beta virt. eigenvalues --   -0.08118  -0.06677  -0.05271  -0.04015  -0.03265
  Beta virt. eigenvalues --   -0.02655  -0.02440  -0.01994  -0.01599  -0.00968
  Beta virt. eigenvalues --   -0.00804  -0.00421  -0.00063   0.00239   0.00399

 Mulliken charges and spin densities:
               1          2
     1  Na  -0.970680   0.464140
     2  Na   0.782312  -0.017774
     3  Na   0.136596   0.288167
     4  Na   0.009791   0.214685
     5  Na  -0.470685   0.107353
     6  Na  -0.238692  -0.056005
     7  Na   0.751358  -0.000566
 Sum of Mulliken charges =  -0.00000   1.00000

 Dipole moment (field-independent basis, Debye):
    X=             -1.8109    Y=              0.6759    Z=              0.0296  Tot=              1.9331
 Quadrupole moment (field-independent basis, Debye-Ang):
   XX=            -56.7347   YY=            -68.3942   ZZ=            -70.5218
   XY=             -0.4238   XZ=              1.3997   YZ=             -0.5739

 Normal termination of Gaussian 16 at Wed Nov 29 02:45:26 2023.
