 Gaussian 16, Revision B.01,
 Gaussian 16:  ES64L-G16RevB.01 20-Dec-2017

 -------------------------
 #P B3LYP/6-311+g(d) force
 -------------------------

 -----
 DPGEN
 -----
 Symbolic Z-matrix:
 Charge =  0 Multiplicity = 2

                         Standard orientation:
 ---------------------------------------------------------------------
 Center     Atomic      Atomic             Coordinates (Angstroms)
 Number     Number       Type             X           Y           Z
 ---------------------------------------------------------------------
      1         11           0       -0.681649   -1.129636   -1.576357
      2         11           0        2.407991   -1.792036   -0.976342
      3         11           0       -0.238003   -0.138908    1.561805
      4         11           0        0.164952    2.585146   -0.101530
      5         11           0       -2.424107   -2.116695    1.096837
      6         11           0       -2.631237    1.800667   -0.719148
      7         11           0        3.402053    0.791462    0.714734
 ---------------------------------------------------------------------

 SCF Done:  E(UB3LYP) =  -1136.12564883     A.U. after   20 cycles

 The electronic state is 2-A.
 Alpha  occ. eigenvalues --  -38.44240 -38.44042 -38.43976 -38.43802 -38.43791
 Alpha  occ. eigenvalues --  -38.43544 -38.43195  -2.20048  -2.19907  -2.19823
 Alpha  occ. eigenvalues --   -2.19778  -2.19664  -2.19468  -2.19086  -1.13727
 Alpha  occ. eigenvalues --   -1.13715  -1.13686  -1.13622  -1.13558  -1.13552
 Alpha  occ. eigenvalues --   -1.13527  -1.13517  -1.13477  -1.13464  -1.13444
 Alpha  occ. eigenvalues --   -1.13399  -1.13301  -1.13282  -1.13259  -1.13152
 Alpha  occ. eigenvalues --   -1.13094  -1.13083  -1.12777  -1.12738  -1.12712
 Alpha  occ. eigenvalues --   -0.18427  -0.13419  -0.12388  -0.11102
 Alpha virt. eigenvalues --   -0.06028  -0.05246  -0.04453  -0.03350  -0.02964
 Alpha virt. eigenvalues --   -0.02391  -0.01847  -0.01272  -0.00481  -0.00016
 Alpha virt. eigenvalues --   -0.00007   0.00256   0.00583   0.00738   0.00804

  Beta  occ. eigenvalues --  -38.44232 -38.44022 -38.43943 -38.43756 -38.43744
  Beta  occ. eigenvalues --  -38.43492 -38.43194  -2.20034  -2.19871  -2.19765
  Beta  occ. eigenvalues --   -2.19674  -2.19601  -2.19374  -2.19088  -1.13718
  Beta  occ. eigenvalues --   -1.13703  -1.13671  -1.13602  -1.13522  -1.13504
  Beta  occ. eigenvalues --   -1.13477  -1.13465  -1.13427  -1.13404  -1.13396
  Beta  occ. eigenvalues --   -1.13335  -1.13251  -1.13242  -1.13199  -1.13092
  Beta  occ. eigenvalues --   -1.13016  -1.13016  -1.12781  -1.12730  -1.12701
  Beta  occ. eigenvalues --   -0.17811  -0.13176  -0.12019
  Beta virt. eigenvalues --   -0.07358  -0.05859  -0.04987  -0.04177  -0.02977
  Beta virt. eigenvalues --   -0.02401  -0.01765  -0.01468  -0.01105  -0.00242
  Beta virt. eigenvalues --    0.00020   0.00072   0.00326   0.00729   0.00827

 Mulliken charges and spin densities:
               1          2
     1  Na   0.307199   0.373871
     2  Na  -0.444734   0.111633
     3  Na  -0.068700   0.366861
     4  Na  -0.240646  -0.018410
     5  Na  -0.044665   0.066238
     6  Na   0.018332   0.100797
     7  Na   0.473214  -0.000990
 Sum of Mulliken charges =  -0.00000   1.00000

 Dipole moment (field-independent basis, Debye):
    X=             -0.0996    Y=             -0.0649    Z=             -0.0249  Tot=              0.1214
 Quadrupole moment (field-independent basis, Debye-Ang):
   XX=            -53.2402   YY=            -69.3641   ZZ=            -72.1976
   XY=              1.4745   XZ=              1.4671   YZ=             -0.0660

 Normal termination of Gaussian 16 at Wed Nov 29 04:03:55 2023.
