 Gaussian 16, Revision B.01,
 Gaussian 16:  ES64L-G16RevB.01 20-Dec-2017

 -------------------------
 #P B3LYP/6-311+g(d) force
 -------------------------

 -----
 DPGEN
 -----
 Symbolic Z-matrix:
 Charge =  0 Multiplicity = 2

                         Standard orientation:
 ---------------------------------------------------------------------
 Center     Atomic      Atomic             Coordinates (Angstroms)
 Number     Number       Type             X           Y           Z
 ---------------------------------------------------------------------
      1         11           0        1.130398   -1.257873    1.413457
      2         11           0        0.040135   -0.830444   -1.430466
      3         11           0        3.993592   -0.558953   -0.829570
      4         11           0       -3.242954   -1.662984   -0.404932
      5         11           0        1.754128    1.927008    0.330595
      6         11           0       -2.330862    1.907512   -1.133016
      7         11           0       -1.344437    0.475734    2.053932
 ---------------------------------------------------------------------

 SCF Done:  E(UB3LYP) =  -1136.12022516     A.U. after   28 cycles

 The electronic state is 2-A.
 Alpha  occ. eigenvalues --  -38.44843 -38.44440 -38.44160 -38.44070 -38.44016
 Alpha  occ. eigenvalues --  -38.43961 -38.42723  -2.20655  -2.20222  -2.20114
 Alpha  occ. eigenvalues --   -2.19889  -2.19857  -2.19799  -2.18610  -1.14331
 Alpha  occ. eigenvalues --   -1.14292  -1.14255  -1.13902  -1.13891  -1.13885
 Alpha  occ. eigenvalues --   -1.13847  -1.13739  -1.13721  -1.13606  -1.13565
 Alpha  occ. eigenvalues --   -1.13528  -1.13524  -1.13503  -1.13491  -1.13460
 Alpha  occ. eigenvalues --   -1.13442  -1.13401  -1.12325  -1.12252  -1.12224
 Alpha  occ. eigenvalues --   -0.18392  -0.13810  -0.11568  -0.10655
 Alpha virt. eigenvalues --   -0.06705  -0.05623  -0.04386  -0.03172  -0.02735
 Alpha virt. eigenvalues --   -0.02403  -0.02352  -0.01351  -0.00798  -0.00256
 Alpha virt. eigenvalues --    0.00093   0.00174   0.00394   0.00584   0.00626

  Beta  occ. eigenvalues --  -38.44772 -38.44443 -38.44098 -38.44069 -38.43997
  Beta  occ. eigenvalues --  -38.43941 -38.42697  -2.20522  -2.20228  -2.20002
  Beta  occ. eigenvalues --   -2.19860  -2.19855  -2.19761  -2.18568  -1.14235
  Beta  occ. eigenvalues --   -1.14207  -1.14161  -1.13901  -1.13895  -1.13852
  Beta  occ. eigenvalues --   -1.13814  -1.13665  -1.13628  -1.13554  -1.13535
  Beta  occ. eigenvalues --   -1.13526  -1.13511  -1.13498  -1.13464  -1.13428
  Beta  occ. eigenvalues --   -1.13426  -1.13375  -1.12277  -1.12218  -1.12193
  Beta  occ. eigenvalues --   -0.17652  -0.13610  -0.10450
  Beta virt. eigenvalues --   -0.07723  -0.06503  -0.05153  -0.04091  -0.02723
  Beta virt. eigenvalues --   -0.02492  -0.01935  -0.01874  -0.01065  -0.00488
  Beta virt. eigenvalues --   -0.00151   0.00143   0.00288   0.00451   0.00659

 Mulliken charges and spin densities:
               1          2
     1  Na   0.127165   0.130522
     2  Na  -0.300551   0.295967
     3  Na   0.333561   0.000413
     4  Na   0.055870  -0.055788
     5  Na  -0.399626   0.214944
     6  Na  -0.080004   0.288392
     7  Na   0.263584   0.125549
 Sum of Mulliken charges =  -0.00000   1.00000

 Dipole moment (field-independent basis, Debye):
    X=              0.3119    Y=              0.4250    Z=              0.0097  Tot=              0.5273
 Quadrupole moment (field-independent basis, Debye-Ang):
   XX=            -50.5255   YY=            -68.8139   ZZ=            -75.1764
   XY=             -0.2685   XZ=             -1.7640   YZ=             -6.8665

 Normal termination of Gaussian 16 at Thu Dec  7 06:27:10 2023.
