 Gaussian 16, Revision B.01,
 Gaussian 16:  ES64L-G16RevB.01 20-Dec-2017

 -------------------------
 #P B3LYP/6-311+g(d) force
 -------------------------

 -----
 DPGEN
 -----
 Symbolic Z-matrix:
 Charge =  0 Multiplicity = 2

                         Standard orientation:
 ---------------------------------------------------------------------
 Center     Atomic      Atomic             Coordinates (Angstroms)
 Number     Number       Type             X           Y           Z
 ---------------------------------------------------------------------
      1         11           0       -3.208951   -0.125171   -1.133190
      2         11           0       -1.675741   -1.831223    1.066202
      3         11           0        1.710573    2.037127   -0.493661
      4         11           0        3.339627   -1.181744   -0.530060
      5         11           0        1.194351   -0.240451    1.891010
      6         11           0        0.081243   -0.517640   -1.738684
      7         11           0       -1.441101    1.859102    0.938383
 ---------------------------------------------------------------------

 SCF Done:  E(UB3LYP) =  -1136.12913793     A.U. after   24 cycles

 The electronic state is 2-A.
 Alpha  occ. eigenvalues --  -38.44382 -38.44034 -38.44019 -38.43968 -38.43940
 Alpha  occ. eigenvalues --  -38.43348 -38.42465  -2.20261  -2.19922  -2.19881
 Alpha  occ. eigenvalues --   -2.19874  -2.19840  -2.19244  -2.18348  -1.13934
 Alpha  occ. eigenvalues --   -1.13927  -1.13897  -1.13635  -1.13579  -1.13563
 Alpha  occ. eigenvalues --   -1.13551  -1.13548  -1.13541  -1.13532  -1.13518
 Alpha  occ. eigenvalues --   -1.13501  -1.13488  -1.13470  -1.13448  -1.12945
 Alpha  occ. eigenvalues --   -1.12904  -1.12837  -1.12031  -1.12020  -1.11977
 Alpha  occ. eigenvalues --   -0.18929  -0.13974  -0.11920  -0.10968
 Alpha virt. eigenvalues --   -0.06287  -0.04946  -0.04688  -0.03346  -0.02716
 Alpha virt. eigenvalues --   -0.02661  -0.02003  -0.00750  -0.00688   0.00035
 Alpha virt. eigenvalues --    0.00269   0.00326   0.00395   0.00754   0.00841

  Beta  occ. eigenvalues --  -38.44363 -38.44023 -38.43989 -38.43920 -38.43869
  Beta  occ. eigenvalues --  -38.43328 -38.42458  -2.20227  -2.19849  -2.19842
  Beta  occ. eigenvalues --   -2.19793  -2.19747  -2.19210  -2.18338  -1.13914
  Beta  occ. eigenvalues --   -1.13892  -1.13874  -1.13565  -1.13537  -1.13513
  Beta  occ. eigenvalues --   -1.13502  -1.13500  -1.13495  -1.13489  -1.13467
  Beta  occ. eigenvalues --   -1.13453  -1.13417  -1.13406  -1.13381  -1.12914
  Beta  occ. eigenvalues --   -1.12877  -1.12814  -1.12023  -1.11991  -1.11975
  Beta  occ. eigenvalues --   -0.18126  -0.13812  -0.10804
  Beta virt. eigenvalues --   -0.07831  -0.06077  -0.04764  -0.04156  -0.02934
  Beta virt. eigenvalues --   -0.02124  -0.02045  -0.01790  -0.00659  -0.00343
  Beta virt. eigenvalues --    0.00118   0.00286   0.00421   0.00497   0.00811

 Mulliken charges and spin densities:
               1          2
     1  Na   0.859474   0.001043
     2  Na  -0.329696   0.095187
     3  Na   0.062321  -0.000799
     4  Na   0.064977  -0.064083
     5  Na   0.312870   0.301311
     6  Na  -0.434935   0.473301
     7  Na  -0.535011   0.194040
 Sum of Mulliken charges =  -0.00000   1.00000

 Dipole moment (field-independent basis, Debye):
    X=             -0.0123    Y=             -0.1207    Z=             -0.2015  Tot=              0.2352
 Quadrupole moment (field-independent basis, Debye-Ang):
   XX=            -52.1381   YY=            -75.2541   ZZ=            -67.7595
   XY=             -0.4370   XZ=              0.7060   YZ=             -4.6238

 Normal termination of Gaussian 16 at Wed Dec  6 01:10:07 2023.
