 Gaussian 16, Revision B.01,
 Gaussian 16:  ES64L-G16RevB.01 20-Dec-2017

 -------------------------
 #P B3LYP/6-311+g(d) force
 -------------------------

 -----
 DPGEN
 -----
 Symbolic Z-matrix:
 Charge =  0 Multiplicity = 2

                         Standard orientation:
 ---------------------------------------------------------------------
 Center     Atomic      Atomic             Coordinates (Angstroms)
 Number     Number       Type             X           Y           Z
 ---------------------------------------------------------------------
      1         11           0        3.796785   -1.144427    0.066704
      2         11           0       -2.681452   -2.246257    0.418792
      3         11           0       -0.553027    3.607202   -0.433836
      4         11           0       -3.652229    0.664687    0.143254
      5         11           0        0.785318   -3.300928   -0.428749
      6         11           0        2.556461    2.117312    0.551426
      7         11           0       -0.251856    0.302412   -0.317591
 ---------------------------------------------------------------------

 SCF Done:  E(UB3LYP) =  -1136.12752260     A.U. after   22 cycles

 The electronic state is 2-A.
 Alpha  occ. eigenvalues --  -38.44369 -38.44280 -38.43976 -38.43862 -38.43854
 Alpha  occ. eigenvalues --  -38.43831 -38.43403  -2.20187  -2.20127  -2.19865
 Alpha  occ. eigenvalues --   -2.19694  -2.19677  -2.19654  -2.19211  -1.13883
 Alpha  occ. eigenvalues --   -1.13869  -1.13829  -1.13801  -1.13798  -1.13769
 Alpha  occ. eigenvalues --   -1.13596  -1.13525  -1.13498  -1.13341  -1.13337
 Alpha  occ. eigenvalues --   -1.13336  -1.13327  -1.13319  -1.13315  -1.13303
 Alpha  occ. eigenvalues --   -1.13300  -1.13285  -1.12878  -1.12856  -1.12839
 Alpha  occ. eigenvalues --   -0.17062  -0.13907  -0.13132  -0.09958
 Alpha virt. eigenvalues --   -0.06494  -0.05675  -0.04158  -0.03415  -0.02932
 Alpha virt. eigenvalues --   -0.02064  -0.01998  -0.01755  -0.01401  -0.00206
 Alpha virt. eigenvalues --   -0.00081   0.00313   0.00405   0.00586   0.00735

  Beta  occ. eigenvalues --  -38.44348 -38.44264 -38.43980 -38.43821 -38.43820
  Beta  occ. eigenvalues --  -38.43781 -38.43352  -2.20153  -2.20106  -2.19869
  Beta  occ. eigenvalues --   -2.19614  -2.19603  -2.19582  -2.19118  -1.13866
  Beta  occ. eigenvalues --   -1.13851  -1.13808  -1.13794  -1.13735  -1.13710
  Beta  occ. eigenvalues --   -1.13596  -1.13537  -1.13499  -1.13293  -1.13281
  Beta  occ. eigenvalues --   -1.13281  -1.13279  -1.13278  -1.13262  -1.13252
  Beta  occ. eigenvalues --   -1.13241  -1.13221  -1.12814  -1.12793  -1.12775
  Beta  occ. eigenvalues --   -0.16756  -0.13121  -0.12585
  Beta virt. eigenvalues --   -0.06672  -0.06544  -0.05414  -0.04022  -0.02849
  Beta virt. eigenvalues --   -0.02376  -0.01913  -0.01807  -0.01407  -0.01283
  Beta virt. eigenvalues --   -0.00053   0.00255   0.00390   0.00542   0.00652

 Mulliken charges and spin densities:
               1          2
     1  Na   0.092475   0.252775
     2  Na   0.637487   0.041589
     3  Na   1.132793   0.188567
     4  Na   0.488201   0.330782
     5  Na   1.168637   0.164530
     6  Na   0.550915   0.168203
     7  Na  -4.070508  -0.146446
 Sum of Mulliken charges =  -0.00000   1.00000

 Dipole moment (field-independent basis, Debye):
    X=             -0.4898    Y=              0.6487    Z=              0.0839  Tot=              0.8172
 Quadrupole moment (field-independent basis, Debye-Ang):
   XX=            -67.0918   YY=            -57.2937   ZZ=            -72.3468
   XY=             -1.9270   XZ=              0.0966   YZ=             -0.3920

 Normal termination of Gaussian 16 at Wed Nov 29 17:20:07 2023.
