 Gaussian 16, Revision B.01,
 Gaussian 16:  ES64L-G16RevB.01 20-Dec-2017

 -------------------------
 #P B3LYP/6-311+g(d) force
 -------------------------

 -----
 DPGEN
 -----
 Symbolic Z-matrix:
 Charge =  0 Multiplicity = 2

                         Standard orientation:
 ---------------------------------------------------------------------
 Center     Atomic      Atomic             Coordinates (Angstroms)
 Number     Number       Type             X           Y           Z
 ---------------------------------------------------------------------
      1         11           0        1.744078   -2.312914    0.102104
      2         11           0       -2.595316   -1.853580   -0.649164
      3         11           0        0.427126   -0.000353   -1.453125
      4         11           0       -2.411718    1.517694   -0.818497
      5         11           0        3.277850    0.916925   -0.718202
      6         11           0       -0.291160   -0.994004    2.341043
      7         11           0       -0.150859    2.726232    1.195841
 ---------------------------------------------------------------------

 SCF Done:  E(UB3LYP) =  -1136.12789700     A.U. after   20 cycles

 The electronic state is 2-A.
 Alpha  occ. eigenvalues --  -38.44357 -38.44135 -38.43902 -38.43801 -38.43549
 Alpha  occ. eigenvalues --  -38.43511 -38.43383  -2.20195  -2.19952  -2.19709
 Alpha  occ. eigenvalues --   -2.19663  -2.19383  -2.19379  -2.19367  -1.13860
 Alpha  occ. eigenvalues --   -1.13827  -1.13807  -1.13668  -1.13597  -1.13573
 Alpha  occ. eigenvalues --   -1.13405  -1.13383  -1.13378  -1.13341  -1.13339
 Alpha  occ. eigenvalues --   -1.13255  -1.13118  -1.13085  -1.13050  -1.13030
 Alpha  occ. eigenvalues --   -1.13020  -1.13008  -1.12994  -1.12982  -1.12965
 Alpha  occ. eigenvalues --   -0.18143  -0.13069  -0.11996  -0.11549
 Alpha virt. eigenvalues --   -0.05664  -0.04927  -0.04453  -0.03442  -0.03320
 Alpha virt. eigenvalues --   -0.02988  -0.01633  -0.00942  -0.00367  -0.00062
 Alpha virt. eigenvalues --    0.00135   0.00329   0.00595   0.00802   0.00830

  Beta  occ. eigenvalues --  -38.44263 -38.44124 -38.43888 -38.43796 -38.43514
  Beta  occ. eigenvalues --  -38.43502 -38.43345  -2.20022  -2.19933  -2.19686
  Beta  occ. eigenvalues --   -2.19658  -2.19369  -2.19313  -2.19303  -1.13744
  Beta  occ. eigenvalues --   -1.13707  -1.13683  -1.13648  -1.13584  -1.13561
  Beta  occ. eigenvalues --   -1.13398  -1.13367  -1.13354  -1.13320  -1.13318
  Beta  occ. eigenvalues --   -1.13249  -1.13101  -1.13050  -1.13016  -1.13001
  Beta  occ. eigenvalues --   -1.12976  -1.12965  -1.12949  -1.12937  -1.12933
  Beta  occ. eigenvalues --   -0.17471  -0.12739  -0.11755
  Beta virt. eigenvalues --   -0.07693  -0.05581  -0.04829  -0.04060  -0.02919
  Beta virt. eigenvalues --   -0.02731  -0.02054  -0.01506  -0.00918  -0.00159
  Beta virt. eigenvalues --    0.00000   0.00158   0.00380   0.00726   0.00826

 Mulliken charges and spin densities:
               1          2
     1  Na  -0.148876   0.034945
     2  Na  -0.134843   0.033413
     3  Na   0.171808   0.032001
     4  Na   0.247603   0.028310
     5  Na   0.255226   0.072592
     6  Na  -0.113986   0.517529
     7  Na  -0.276933   0.281210
 Sum of Mulliken charges =  -0.00000   1.00000

 Dipole moment (field-independent basis, Debye):
    X=              0.2444    Y=             -0.2628    Z=              0.2696  Tot=              0.4489
 Quadrupole moment (field-independent basis, Debye-Ang):
   XX=            -58.8997   YY=            -66.5548   ZZ=            -69.6133
   XY=              1.6615   XZ=              1.2282   YZ=              1.2789

 Normal termination of Gaussian 16 at Mon Dec  4 03:22:12 2023.
