 Gaussian 16, Revision B.01,
 Gaussian 16:  ES64L-G16RevB.01 20-Dec-2017

 -------------------------
 #P B3LYP/6-311+g(d) force
 -------------------------

 -----
 DPGEN
 -----
 Symbolic Z-matrix:
 Charge =  0 Multiplicity = 2

                         Standard orientation:
 ---------------------------------------------------------------------
 Center     Atomic      Atomic             Coordinates (Angstroms)
 Number     Number       Type             X           Y           Z
 ---------------------------------------------------------------------
      1         11           0       -0.148653    0.599459   -1.551057
      2         11           0        0.275573   -2.769267   -1.133501
      3         11           0        3.017687    0.780327   -0.809687
      4         11           0        1.793285   -1.239953    1.782287
      5         11           0       -0.249722    3.279006    0.323461
      6         11           0       -1.343239   -0.316171    2.025399
      7         11           0       -3.344930   -0.333400   -0.636903
 ---------------------------------------------------------------------

 SCF Done:  E(UB3LYP) =  -1136.12558686     A.U. after   20 cycles

 The electronic state is 2-A.
 Alpha  occ. eigenvalues --  -38.44363 -38.44215 -38.44186 -38.44002 -38.43937
 Alpha  occ. eigenvalues --  -38.43671 -38.43104  -2.20156  -2.20015  -2.19985
 Alpha  occ. eigenvalues --   -2.19863  -2.19709  -2.19521  -2.19057  -1.13846
 Alpha  occ. eigenvalues --   -1.13797  -1.13775  -1.13714  -1.13680  -1.13674
 Alpha  occ. eigenvalues --   -1.13651  -1.13626  -1.13617  -1.13552  -1.13488
 Alpha  occ. eigenvalues --   -1.13483  -1.13391  -1.13376  -1.13335  -1.13200
 Alpha  occ. eigenvalues --   -1.13159  -1.13140  -1.12737  -1.12715  -1.12690
 Alpha  occ. eigenvalues --   -0.17928  -0.12515  -0.11888  -0.11688
 Alpha virt. eigenvalues --   -0.06133  -0.04827  -0.04474  -0.03432  -0.03186
 Alpha virt. eigenvalues --   -0.02931  -0.01563  -0.01269  -0.00554   0.00113
 Alpha virt. eigenvalues --    0.00161   0.00221   0.00398   0.00720   0.00778

  Beta  occ. eigenvalues --  -38.44326 -38.44208 -38.44183 -38.43935 -38.43935
  Beta  occ. eigenvalues --  -38.43625 -38.43062  -2.20090  -2.20004  -2.19980
  Beta  occ. eigenvalues --   -2.19742  -2.19705  -2.19439  -2.18983  -1.13789
  Beta  occ. eigenvalues --   -1.13751  -1.13730  -1.13696  -1.13673  -1.13662
  Beta  occ. eigenvalues --   -1.13644  -1.13621  -1.13611  -1.13465  -1.13407
  Beta  occ. eigenvalues --   -1.13394  -1.13387  -1.13368  -1.13333  -1.13135
  Beta  occ. eigenvalues --   -1.13106  -1.13076  -1.12689  -1.12653  -1.12628
  Beta  occ. eigenvalues --   -0.17158  -0.12404  -0.11606
  Beta virt. eigenvalues --   -0.07743  -0.06039  -0.04577  -0.04025  -0.03060
  Beta virt. eigenvalues --   -0.02677  -0.02083  -0.01488  -0.01110  -0.00262
  Beta virt. eigenvalues --    0.00145   0.00185   0.00305   0.00445   0.00747

 Mulliken charges and spin densities:
               1          2
     1  Na   0.449411   0.045545
     2  Na  -0.363957   0.187538
     3  Na   0.197899   0.033875
     4  Na  -0.050378   0.253187
     5  Na  -0.351394   0.081080
     6  Na  -0.097161   0.328533
     7  Na   0.215580   0.070242
 Sum of Mulliken charges =  -0.00000   1.00000

 Dipole moment (field-independent basis, Debye):
    X=             -0.0845    Y=             -0.1528    Z=             -0.0401  Tot=              0.1792
 Quadrupole moment (field-independent basis, Debye-Ang):
   XX=            -59.4121   YY=            -66.7094   ZZ=            -68.1620
   XY=              0.1831   XZ=              0.7880   YZ=              4.2143

 Normal termination of Gaussian 16 at Sun Dec  3 16:23:36 2023.
