 Gaussian 16, Revision B.01,
 Gaussian 16:  ES64L-G16RevB.01 20-Dec-2017

 -------------------------
 #P B3LYP/6-311+g(d) force
 -------------------------

 -----
 DPGEN
 -----
 Symbolic Z-matrix:
 Charge =  0 Multiplicity = 2

                         Standard orientation:
 ---------------------------------------------------------------------
 Center     Atomic      Atomic             Coordinates (Angstroms)
 Number     Number       Type             X           Y           Z
 ---------------------------------------------------------------------
      1         11           0       -0.467549    2.050975    0.165228
      2         11           0        5.600897   -0.261346    0.318949
      3         11           0        2.418172    1.473415   -0.646644
      4         11           0        3.054734   -1.665188   -0.116489
      5         11           0       -0.583923   -1.068624   -0.157671
      6         11           0       -3.700951   -0.008790    1.098447
      7         11           0       -6.321379   -0.520442   -0.661820
 ---------------------------------------------------------------------

 SCF Done:  E(UB3LYP) =  -1136.11568545     A.U. after   21 cycles

 The electronic state is 2-A.
 Alpha  occ. eigenvalues --  -38.44431 -38.44369 -38.44258 -38.44101 -38.43889
 Alpha  occ. eigenvalues --  -38.43865 -38.43826  -2.20272  -2.20267  -2.20028
 Alpha  occ. eigenvalues --   -2.20011  -2.19771  -2.19757  -2.19647  -1.14033
 Alpha  occ. eigenvalues --   -1.13960  -1.13951  -1.13918  -1.13914  -1.13885
 Alpha  occ. eigenvalues --   -1.13693  -1.13688  -1.13687  -1.13673  -1.13659
 Alpha  occ. eigenvalues --   -1.13594  -1.13500  -1.13439  -1.13418  -1.13400
 Alpha  occ. eigenvalues --   -1.13397  -1.13327  -1.13324  -1.13312  -1.13263
 Alpha  occ. eigenvalues --   -0.17428  -0.14408  -0.12108  -0.10875
 Alpha virt. eigenvalues --   -0.07130  -0.04925  -0.04324  -0.04043  -0.03028
 Alpha virt. eigenvalues --   -0.02197  -0.02041  -0.01888  -0.00783  -0.00604
 Alpha virt. eigenvalues --   -0.00161   0.00075   0.00192   0.00384   0.00691

  Beta  occ. eigenvalues --  -38.44424 -38.44316 -38.44260 -38.44064 -38.43834
  Beta  occ. eigenvalues --  -38.43829 -38.43824  -2.20258  -2.20174  -2.20031
  Beta  occ. eigenvalues --   -2.19944  -2.19704  -2.19659  -2.19643  -1.14016
  Beta  occ. eigenvalues --   -1.13907  -1.13893  -1.13892  -1.13873  -1.13828
  Beta  occ. eigenvalues --   -1.13695  -1.13690  -1.13689  -1.13630  -1.13617
  Beta  occ. eigenvalues --   -1.13527  -1.13447  -1.13376  -1.13362  -1.13349
  Beta  occ. eigenvalues --   -1.13334  -1.13314  -1.13301  -1.13265  -1.13256
  Beta  occ. eigenvalues --   -0.16747  -0.14335  -0.11829
  Beta virt. eigenvalues --   -0.07176  -0.06730  -0.04370  -0.04198  -0.03855
  Beta virt. eigenvalues --   -0.02413  -0.02120  -0.01807  -0.01519  -0.00512
  Beta virt. eigenvalues --   -0.00402  -0.00058   0.00281   0.00385   0.00588

 Mulliken charges and spin densities:
               1          2
     1  Na  -0.167482   0.310767
     2  Na   0.518250   0.044189
     3  Na   0.103637   0.114470
     4  Na  -0.569737   0.052148
     5  Na  -0.216362   0.405044
     6  Na   0.109028   0.112414
     7  Na   0.222666  -0.039033
 Sum of Mulliken charges =  -0.00000   1.00000

 Dipole moment (field-independent basis, Debye):
    X=              0.9902    Y=              0.0971    Z=             -0.1030  Tot=              1.0003
 Quadrupole moment (field-independent basis, Debye-Ang):
   XX=            -54.5629   YY=            -72.0113   ZZ=            -68.8120
   XY=              0.0775   XZ=              5.1621   YZ=              1.4985

 Normal termination of Gaussian 16 at Tue Nov 28 19:37:48 2023.
