 Gaussian 16, Revision B.01,
 Gaussian 16:  ES64L-G16RevB.01 20-Dec-2017

 -------------------------
 #P B3LYP/6-311+g(d) force
 -------------------------

 -----
 DPGEN
 -----
 Symbolic Z-matrix:
 Charge =  0 Multiplicity = 2

                         Standard orientation:
 ---------------------------------------------------------------------
 Center     Atomic      Atomic             Coordinates (Angstroms)
 Number     Number       Type             X           Y           Z
 ---------------------------------------------------------------------
      1         11           0        1.736780   -0.501550    1.897326
      2         11           0        2.773668    1.552996   -0.557024
      3         11           0        2.721732   -1.552463   -0.873478
      4         11           0       -1.511254    2.017841    1.007603
      5         11           0       -1.551784   -1.614458    0.688876
      6         11           0       -0.412720    0.508391   -1.467658
      7         11           0       -3.756422   -0.410757   -0.695645
 ---------------------------------------------------------------------

 SCF Done:  E(UB3LYP) =  -1136.11495446     A.U. after   26 cycles

 The electronic state is 2-A.
 Alpha  occ. eigenvalues --  -38.45097 -38.44294 -38.44140 -38.43898 -38.43891
 Alpha  occ. eigenvalues --  -38.43419 -38.43407  -2.20976  -2.20166  -2.20027
 Alpha  occ. eigenvalues --   -2.19840  -2.19789  -2.19347  -2.19264  -1.14711
 Alpha  occ. eigenvalues --   -1.14621  -1.14576  -1.13891  -1.13844  -1.13793
 Alpha  occ. eigenvalues --   -1.13714  -1.13676  -1.13641  -1.13575  -1.13506
 Alpha  occ. eigenvalues --   -1.13450  -1.13442  -1.13428  -1.13402  -1.13033
 Alpha  occ. eigenvalues --   -1.13007  -1.12982  -1.12943  -1.12910  -1.12876
 Alpha  occ. eigenvalues --   -0.18760  -0.14825  -0.11110  -0.10677
 Alpha virt. eigenvalues --   -0.06816  -0.05422  -0.04890  -0.03017  -0.02679
 Alpha virt. eigenvalues --   -0.02427  -0.02154  -0.00922  -0.00853  -0.00222
 Alpha virt. eigenvalues --    0.00164   0.00295   0.00302   0.00591   0.00739

  Beta  occ. eigenvalues --  -38.45080 -38.44280 -38.44121 -38.43876 -38.43830
  Beta  occ. eigenvalues --  -38.43405 -38.43376  -2.20944  -2.20143  -2.19994
  Beta  occ. eigenvalues --   -2.19800  -2.19676  -2.19327  -2.19208  -1.14694
  Beta  occ. eigenvalues --   -1.14590  -1.14556  -1.13874  -1.13809  -1.13778
  Beta  occ. eigenvalues --   -1.13686  -1.13654  -1.13605  -1.13538  -1.13476
  Beta  occ. eigenvalues --   -1.13418  -1.13366  -1.13350  -1.13317  -1.13024
  Beta  occ. eigenvalues --   -1.12981  -1.12942  -1.12909  -1.12858  -1.12837
  Beta  occ. eigenvalues --   -0.18080  -0.14556  -0.10492
  Beta virt. eigenvalues --   -0.07288  -0.06600  -0.05324  -0.04234  -0.02816
  Beta virt. eigenvalues --   -0.02514  -0.01838  -0.01409  -0.00850  -0.00499
  Beta virt. eigenvalues --   -0.00078   0.00195   0.00299   0.00445   0.00680

 Mulliken charges and spin densities:
               1          2
     1  Na  -0.039540   0.393703
     2  Na   0.308986   0.142970
     3  Na   0.081439   0.094692
     4  Na  -0.492865   0.232479
     5  Na  -0.575783   0.087981
     6  Na  -0.277252   0.058960
     7  Na   0.995016  -0.010785
 Sum of Mulliken charges =  -0.00000   1.00000

 Dipole moment (field-independent basis, Debye):
    X=             -0.2953    Y=              0.4194    Z=             -0.2183  Tot=              0.5575
 Quadrupole moment (field-independent basis, Debye-Ang):
   XX=            -48.3429   YY=            -77.6823   ZZ=            -68.9078
   XY=             -0.5832   XZ=              0.5385   YZ=              3.9340

 Normal termination of Gaussian 16 at Thu Dec  7 14:01:29 2023.
