 Gaussian 16, Revision B.01,
 Gaussian 16:  ES64L-G16RevB.01 20-Dec-2017

 -------------------------
 #P B3LYP/6-311+g(d) force
 -------------------------

 -----
 DPGEN
 -----
 Symbolic Z-matrix:
 Charge =  0 Multiplicity = 2

                         Standard orientation:
 ---------------------------------------------------------------------
 Center     Atomic      Atomic             Coordinates (Angstroms)
 Number     Number       Type             X           Y           Z
 ---------------------------------------------------------------------
      1         11           0       -0.196760   -0.240419   -1.936704
      2         11           0        1.006242    2.713065   -0.086427
      3         11           0       -0.042664   -0.049951    1.949114
      4         11           0        1.313405   -2.690772   -0.261091
      5         11           0       -2.315522    1.725778   -0.198780
      6         11           0        3.157905    0.080657    0.202621
      7         11           0       -2.922606   -1.538357    0.331267
 ---------------------------------------------------------------------

 SCF Done:  E(UB3LYP) =  -1136.13826977     A.U. after   19 cycles

 The electronic state is 2-A.
 Alpha  occ. eigenvalues --  -38.44137 -38.44123 -38.43811 -38.43633 -38.43616
 Alpha  occ. eigenvalues --  -38.43387 -38.42914  -2.19972  -2.19931  -2.19699
 Alpha  occ. eigenvalues --   -2.19539  -2.19492  -2.19226  -2.18767  -1.13644
 Alpha  occ. eigenvalues --   -1.13634  -1.13620  -1.13600  -1.13597  -1.13575
 Alpha  occ. eigenvalues --   -1.13376  -1.13336  -1.13315  -1.13229  -1.13205
 Alpha  occ. eigenvalues --   -1.13160  -1.13155  -1.13136  -1.13118  -1.12902
 Alpha  occ. eigenvalues --   -1.12883  -1.12860  -1.12438  -1.12434  -1.12413
 Alpha  occ. eigenvalues --   -0.18519  -0.13224  -0.12134  -0.10949
 Alpha virt. eigenvalues --   -0.05833  -0.05184  -0.04456  -0.03392  -0.02875
 Alpha virt. eigenvalues --   -0.02748  -0.01650  -0.01052  -0.00420  -0.00194
 Alpha virt. eigenvalues --   -0.00048   0.00364   0.00756   0.00863   0.00882

  Beta  occ. eigenvalues --  -38.44135 -38.44117 -38.43732 -38.43609 -38.43549
  Beta  occ. eigenvalues --  -38.43381 -38.42912  -2.19969  -2.19922  -2.19554
  Beta  occ. eigenvalues --   -2.19482  -2.19385  -2.19218  -2.18766  -1.13634
  Beta  occ. eigenvalues --   -1.13631  -1.13613  -1.13595  -1.13576  -1.13566
  Beta  occ. eigenvalues --   -1.13280  -1.13236  -1.13207  -1.13180  -1.13134
  Beta  occ. eigenvalues --   -1.13111  -1.13106  -1.13056  -1.13049  -1.12888
  Beta  occ. eigenvalues --   -1.12861  -1.12857  -1.12439  -1.12427  -1.12398
  Beta  occ. eigenvalues --   -0.17773  -0.13004  -0.11887
  Beta virt. eigenvalues --   -0.07064  -0.05760  -0.05164  -0.04397  -0.02623
  Beta virt. eigenvalues --   -0.02115  -0.01723  -0.01530  -0.00974  -0.00468
  Beta virt. eigenvalues --   -0.00243   0.00092   0.00388   0.00836   0.00861

 Mulliken charges and spin densities:
               1          2
     1  Na  -0.209089   0.611818
     2  Na  -0.027757  -0.070164
     3  Na  -0.299006   0.667260
     4  Na   0.110866  -0.112493
     5  Na   0.215007  -0.001411
     6  Na   0.093546  -0.027800
     7  Na   0.116433  -0.067210
 Sum of Mulliken charges =  -0.00000   1.00000

 Dipole moment (field-independent basis, Debye):
    X=             -0.1274    Y=             -0.2647    Z=              0.0987  Tot=              0.3099
 Quadrupole moment (field-independent basis, Debye-Ang):
   XX=            -56.0741   YY=            -65.2286   ZZ=            -73.1180
   XY=              0.8386   XZ=             -0.0468   YZ=             -0.6811

 Normal termination of Gaussian 16 at Wed Dec  6 00:08:38 2023.
