 Gaussian 16, Revision B.01,
 Gaussian 16:  ES64L-G16RevB.01 20-Dec-2017

 -------------------------
 #P B3LYP/6-311+g(d) force
 -------------------------

 -----
 DPGEN
 -----
 Symbolic Z-matrix:
 Charge =  0 Multiplicity = 2

                         Standard orientation:
 ---------------------------------------------------------------------
 Center     Atomic      Atomic             Coordinates (Angstroms)
 Number     Number       Type             X           Y           Z
 ---------------------------------------------------------------------
      1         11           0        2.708840    1.255783    0.289997
      2         11           0       -2.990042    0.688734   -0.020716
      3         11           0       -0.393681    2.838509   -0.430077
      4         11           0        0.484173   -0.012441    2.021491
      5         11           0        2.374490   -2.058958   -0.680404
      6         11           0       -0.268813   -0.317455   -1.603840
      7         11           0       -1.914968   -2.394171    0.423549
 ---------------------------------------------------------------------

 SCF Done:  E(UB3LYP) =  -1136.13576065     A.U. after   19 cycles

 The electronic state is 2-A.
 Alpha  occ. eigenvalues --  -38.43948 -38.43879 -38.43874 -38.43818 -38.43631
 Alpha  occ. eigenvalues --  -38.43254 -38.42944  -2.19816  -2.19777  -2.19748
 Alpha  occ. eigenvalues --   -2.19647  -2.19475  -2.19233  -2.18801  -1.13553
 Alpha  occ. eigenvalues --   -1.13507  -1.13479  -1.13460  -1.13430  -1.13399
 Alpha  occ. eigenvalues --   -1.13393  -1.13368  -1.13348  -1.13334  -1.13286
 Alpha  occ. eigenvalues --   -1.13275  -1.13152  -1.13133  -1.13110  -1.12914
 Alpha  occ. eigenvalues --   -1.12867  -1.12863  -1.12483  -1.12463  -1.12433
 Alpha  occ. eigenvalues --   -0.18639  -0.13365  -0.12209  -0.10940
 Alpha virt. eigenvalues --   -0.05523  -0.05352  -0.04510  -0.03450  -0.02875
 Alpha virt. eigenvalues --   -0.02543  -0.01523  -0.01137  -0.00371  -0.00181
 Alpha virt. eigenvalues --   -0.00008   0.00351   0.00782   0.00858   0.00879

  Beta  occ. eigenvalues --  -38.43946 -38.43865 -38.43796 -38.43793 -38.43622
  Beta  occ. eigenvalues --  -38.43195 -38.42938  -2.19815  -2.19736  -2.19617
  Beta  occ. eigenvalues --   -2.19608  -2.19460  -2.19126  -2.18792  -1.13504
  Beta  occ. eigenvalues --   -1.13497  -1.13473  -1.13449  -1.13380  -1.13374
  Beta  occ. eigenvalues --   -1.13318  -1.13295  -1.13281  -1.13259  -1.13256
  Beta  occ. eigenvalues --   -1.13249  -1.13142  -1.13107  -1.13100  -1.12841
  Beta  occ. eigenvalues --   -1.12793  -1.12780  -1.12471  -1.12456  -1.12417
  Beta  occ. eigenvalues --   -0.17951  -0.13106  -0.11924
  Beta virt. eigenvalues --   -0.07090  -0.05454  -0.05265  -0.04431  -0.02706
  Beta virt. eigenvalues --   -0.02174  -0.01560  -0.01406  -0.01029  -0.00391
  Beta virt. eigenvalues --   -0.00197   0.00124   0.00392   0.00863   0.00871

 Mulliken charges and spin densities:
               1          2
     1  Na   0.323806   0.103499
     2  Na   0.094157   0.002445
     3  Na  -0.033724  -0.029421
     4  Na  -0.332140   0.530111
     5  Na  -0.003632  -0.010827
     6  Na  -0.097859   0.368980
     7  Na   0.049393   0.035213
 Sum of Mulliken charges =  -0.00000   1.00000

 Dipole moment (field-independent basis, Debye):
    X=              0.0146    Y=             -0.2200    Z=              0.2026  Tot=              0.2994
 Quadrupole moment (field-independent basis, Debye-Ang):
   XX=            -56.7946   YY=            -64.1551   ZZ=            -73.3487
   XY=              0.0639   XZ=             -1.4842   YZ=             -0.5315

 Normal termination of Gaussian 16 at Fri Dec  8 01:28:48 2023.
