 Gaussian 16, Revision B.01,
 Gaussian 16:  ES64L-G16RevB.01 20-Dec-2017

 -------------------------
 #P B3LYP/6-311+g(d) force
 -------------------------

 -----
 DPGEN
 -----
 Symbolic Z-matrix:
 Charge =  0 Multiplicity = 2

                         Standard orientation:
 ---------------------------------------------------------------------
 Center     Atomic      Atomic             Coordinates (Angstroms)
 Number     Number       Type             X           Y           Z
 ---------------------------------------------------------------------
      1         11           0       -3.152557   -1.719283    0.051118
      2         11           0       -1.134990    3.046828    0.792344
      3         11           0       -0.166414   -1.327736    2.142624
      4         11           0        1.323119    2.002946   -0.703922
      5         11           0       -1.842666    0.479055   -1.399589
      6         11           0        3.691184   -0.318774    0.374104
      7         11           0        1.282324   -2.163036   -1.256679
 ---------------------------------------------------------------------

 SCF Done:  E(UB3LYP) =  -1136.12328910     A.U. after   19 cycles

 The electronic state is 2-A.
 Alpha  occ. eigenvalues --  -38.44701 -38.44613 -38.44226 -38.44029 -38.43687
 Alpha  occ. eigenvalues --  -38.43517 -38.43490  -2.20483  -2.20397  -2.20052
 Alpha  occ. eigenvalues --   -2.19831  -2.19526  -2.19394  -2.19381  -1.14159
 Alpha  occ. eigenvalues --   -1.14154  -1.14115  -1.14070  -1.14056  -1.14023
 Alpha  occ. eigenvalues --   -1.13810  -1.13692  -1.13676  -1.13480  -1.13474
 Alpha  occ. eigenvalues --   -1.13443  -1.13262  -1.13180  -1.13164  -1.13085
 Alpha  occ. eigenvalues --   -1.13056  -1.13048  -1.13038  -1.12995  -1.12972
 Alpha  occ. eigenvalues --   -0.17532  -0.13147  -0.12480  -0.10524
 Alpha virt. eigenvalues --   -0.06456  -0.05256  -0.04626  -0.03411  -0.03285
 Alpha virt. eigenvalues --   -0.02488  -0.01936  -0.01158  -0.00703  -0.00211
 Alpha virt. eigenvalues --   -0.00030   0.00173   0.00376   0.00694   0.00725

  Beta  occ. eigenvalues --  -38.44676 -38.44617 -38.44226 -38.43934 -38.43678
  Beta  occ. eigenvalues --  -38.43512 -38.43453  -2.20439  -2.20406  -2.20056
  Beta  occ. eigenvalues --   -2.19653  -2.19508  -2.19374  -2.19326  -1.14129
  Beta  occ. eigenvalues --   -1.14112  -1.14093  -1.14077  -1.14051  -1.14021
  Beta  occ. eigenvalues --   -1.13805  -1.13688  -1.13669  -1.13358  -1.13351
  Beta  occ. eigenvalues --   -1.13320  -1.13251  -1.13167  -1.13145  -1.13058
  Beta  occ. eigenvalues --   -1.13036  -1.13018  -1.13001  -1.12967  -1.12941
  Beta  occ. eigenvalues --   -0.16922  -0.13012  -0.12241
  Beta virt. eigenvalues --   -0.06795  -0.06321  -0.05124  -0.04370  -0.02889
  Beta virt. eigenvalues --   -0.02670  -0.01853  -0.01618  -0.01061  -0.00550
  Beta virt. eigenvalues --   -0.00190   0.00117   0.00323   0.00463   0.00736

 Mulliken charges and spin densities:
               1          2
     1  Na   0.018599  -0.184140
     2  Na   0.159023  -0.100392
     3  Na  -0.315903   0.714759
     4  Na  -0.531377   0.157082
     5  Na   0.384974   0.379021
     6  Na   0.497063  -0.044011
     7  Na  -0.212378   0.077682
 Sum of Mulliken charges =  -0.00000   1.00000

 Dipole moment (field-independent basis, Debye):
    X=              0.5154    Y=             -0.2915    Z=              0.1871  Tot=              0.6210
 Quadrupole moment (field-independent basis, Debye-Ang):
   XX=            -56.3055   YY=            -67.3468   ZZ=            -72.4793
   XY=              0.0751   XZ=             -0.2016   YZ=              3.1626

 Normal termination of Gaussian 16 at Sun Dec  3 19:57:46 2023.
