 Gaussian 16, Revision B.01,
 Gaussian 16:  ES64L-G16RevB.01 20-Dec-2017

 -------------------------
 #P B3LYP/6-311+g(d) force
 -------------------------

 -----
 DPGEN
 -----
 Symbolic Z-matrix:
 Charge =  0 Multiplicity = 2

                         Standard orientation:
 ---------------------------------------------------------------------
 Center     Atomic      Atomic             Coordinates (Angstroms)
 Number     Number       Type             X           Y           Z
 ---------------------------------------------------------------------
      1         11           0        3.812251   -1.552995   -1.140315
      2         11           0        1.802368   -1.428314    0.825942
      3         11           0       -1.338208   -0.324461    1.302755
      4         11           0       -4.417530   -2.126258   -0.474732
      5         11           0        3.608629    1.377495    0.252365
      6         11           0       -3.612102    1.833892   -0.453802
      7         11           0        0.144592    2.220640   -0.312214
 ---------------------------------------------------------------------

 SCF Done:  E(UB3LYP) =  -1136.10826281     A.U. after   32 cycles

 The electronic state is 2-A.
 Alpha  occ. eigenvalues --  -38.45225 -38.45087 -38.44474 -38.44402 -38.43920
 Alpha  occ. eigenvalues --  -38.43771 -38.42691  -2.20994  -2.20933  -2.20364
 Alpha  occ. eigenvalues --   -2.20131  -2.19875  -2.19649  -2.18507  -1.14680
 Alpha  occ. eigenvalues --   -1.14644  -1.14615  -1.14598  -1.14597  -1.14549
 Alpha  occ. eigenvalues --   -1.14178  -1.13989  -1.13983  -1.13809  -1.13799
 Alpha  occ. eigenvalues --   -1.13756  -1.13535  -1.13502  -1.13489  -1.13340
 Alpha  occ. eigenvalues --   -1.13298  -1.13263  -1.12191  -1.12185  -1.12142
 Alpha  occ. eigenvalues --   -0.17397  -0.14532  -0.11054  -0.10936
 Alpha virt. eigenvalues --   -0.07360  -0.05283  -0.04645  -0.03441  -0.02917
 Alpha virt. eigenvalues --   -0.02604  -0.01812  -0.01720  -0.01043  -0.00308
 Alpha virt. eigenvalues --   -0.00088  -0.00032   0.00121   0.00336   0.00429

  Beta  occ. eigenvalues --  -38.45188 -38.45054 -38.44469 -38.44393 -38.43866
  Beta  occ. eigenvalues --  -38.43709 -38.42690  -2.20925  -2.20872  -2.20355
  Beta  occ. eigenvalues --   -2.20114  -2.19781  -2.19541  -2.18508  -1.14633
  Beta  occ. eigenvalues --   -1.14601  -1.14567  -1.14560  -1.14544  -1.14502
  Beta  occ. eigenvalues --   -1.14168  -1.13984  -1.13960  -1.13797  -1.13785
  Beta  occ. eigenvalues --   -1.13745  -1.13479  -1.13436  -1.13396  -1.13268
  Beta  occ. eigenvalues --   -1.13217  -1.13160  -1.12192  -1.12173  -1.12144
  Beta  occ. eigenvalues --   -0.16706  -0.14162  -0.10883
  Beta virt. eigenvalues --   -0.07249  -0.07068  -0.05045  -0.04200  -0.03295
  Beta virt. eigenvalues --   -0.02486  -0.02228  -0.01549  -0.01283  -0.00858
  Beta virt. eigenvalues --   -0.00129  -0.00054   0.00154   0.00231   0.00455

 Mulliken charges and spin densities:
               1          2
     1  Na   0.612083   0.285711
     2  Na  -0.532941   0.008264
     3  Na  -0.447657   0.078877
     4  Na   0.214323   0.077332
     5  Na   0.010732   0.313770
     6  Na   0.519275   0.303340
     7  Na  -0.375815  -0.067294
 Sum of Mulliken charges =  -0.00000   1.00000

 Dipole moment (field-independent basis, Debye):
    X=              0.6438    Y=              0.3234    Z=             -0.5542  Tot=              0.9089
 Quadrupole moment (field-independent basis, Debye-Ang):
   XX=            -59.7764   YY=            -68.3958   ZZ=            -68.7889
   XY=             -1.0628   XZ=              0.6397   YZ=              2.3228

 Normal termination of Gaussian 16 at Sun Dec  3 12:11:22 2023.
