 Gaussian 16, Revision B.01,
 Gaussian 16:  ES64L-G16RevB.01 20-Dec-2017

 -------------------------
 #P B3LYP/6-311+g(d) force
 -------------------------

 -----
 DPGEN
 -----
 Symbolic Z-matrix:
 Charge =  0 Multiplicity = 2

                         Standard orientation:
 ---------------------------------------------------------------------
 Center     Atomic      Atomic             Coordinates (Angstroms)
 Number     Number       Type             X           Y           Z
 ---------------------------------------------------------------------
      1         11           0       -0.029685    0.112123    1.638096
      2         11           0       -1.945778    2.077377    0.002217
      3         11           0       -2.723935   -1.110789   -0.024754
      4         11           0        1.654597    2.369973   -0.004382
      5         11           0        0.212174   -2.713437    0.038394
      6         11           0        2.867726   -0.810145   -0.025245
      7         11           0       -0.035099    0.074899   -1.624327
 ---------------------------------------------------------------------

 SCF Done:  E(UB3LYP) =  -1136.13713884     A.U. after   18 cycles

 The electronic state is 2-A.
 Alpha  occ. eigenvalues --  -38.43729 -38.43619 -38.43502 -38.43450 -38.43111
 Alpha  occ. eigenvalues --  -38.42820 -38.42813  -2.19619  -2.19528  -2.19424
 Alpha  occ. eigenvalues --   -2.19347  -2.19043  -2.18890  -2.18883  -1.13300
 Alpha  occ. eigenvalues --   -1.13281  -1.13272  -1.13230  -1.13190  -1.13187
 Alpha  occ. eigenvalues --   -1.13122  -1.13096  -1.13045  -1.13025  -1.13019
 Alpha  occ. eigenvalues --   -1.12962  -1.12766  -1.12713  -1.12668  -1.12621
 Alpha  occ. eigenvalues --   -1.12522  -1.12500  -1.12497  -1.12495  -1.12488
 Alpha  occ. eigenvalues --   -0.19620  -0.13324  -0.12834  -0.10578
 Alpha virt. eigenvalues --   -0.05342  -0.05183  -0.04644  -0.03044  -0.02784
 Alpha virt. eigenvalues --   -0.02080  -0.01428  -0.01118  -0.00135  -0.00075
 Alpha virt. eigenvalues --    0.00049   0.00366   0.00856   0.00936   0.00952

  Beta  occ. eigenvalues --  -38.43725 -38.43613 -38.43494 -38.43444 -38.43103
  Beta  occ. eigenvalues --  -38.42741 -38.42736  -2.19614  -2.19520  -2.19413
  Beta  occ. eigenvalues --   -2.19339  -2.19033  -2.18748  -2.18742  -1.13299
  Beta  occ. eigenvalues --   -1.13274  -1.13248  -1.13227  -1.13189  -1.13149
  Beta  occ. eigenvalues --   -1.13117  -1.13051  -1.13043  -1.13023  -1.12981
  Beta  occ. eigenvalues --   -1.12962  -1.12752  -1.12668  -1.12667  -1.12533
  Beta  occ. eigenvalues --   -1.12424  -1.12401  -1.12395  -1.12395  -1.12384
  Beta  occ. eigenvalues --   -0.18884  -0.13040  -0.12543
  Beta virt. eigenvalues --   -0.06617  -0.05335  -0.05183  -0.04651  -0.02207
  Beta virt. eigenvalues --   -0.01960  -0.01350  -0.01059  -0.01045  -0.00196
  Beta virt. eigenvalues --   -0.00131   0.00176   0.00398   0.00897   0.00938

 Mulliken charges and spin densities:
               1          2
     1  Na  -0.546793   0.691780
     2  Na   0.308248  -0.089700
     3  Na   0.238147  -0.041592
     4  Na   0.214260  -0.111826
     5  Na   0.214487  -0.062959
     6  Na   0.132695  -0.065697
     7  Na  -0.561044   0.679993
 Sum of Mulliken charges =  -0.00000   1.00000

 Dipole moment (field-independent basis, Debye):
    X=              0.0489    Y=              0.1015    Z=              0.0020  Tot=              0.1127
 Quadrupole moment (field-independent basis, Debye-Ang):
   XX=            -55.5634   YY=            -60.9845   ZZ=            -75.5990
   XY=              0.1832   XZ=             -0.0175   YZ=             -0.0758

 Normal termination of Gaussian 16 at Tue Dec  5 19:19:16 2023.
