 Gaussian 16, Revision B.01,
 Gaussian 16:  ES64L-G16RevB.01 20-Dec-2017

 -------------------------
 #P B3LYP/6-311+g(d) force
 -------------------------

 -----
 DPGEN
 -----
 Symbolic Z-matrix:
 Charge =  0 Multiplicity = 2

                         Standard orientation:
 ---------------------------------------------------------------------
 Center     Atomic      Atomic             Coordinates (Angstroms)
 Number     Number       Type             X           Y           Z
 ---------------------------------------------------------------------
      1         11           0       -1.591455    3.121743    0.289622
      2         11           0        3.953285    0.419581   -1.000640
      3         11           0       -3.641289    0.542823    0.790450
      4         11           0       -0.024168   -3.327028   -0.025851
      5         11           0        3.028935   -1.901916    1.254655
      6         11           0        1.710305    2.895385   -0.194425
      7         11           0       -3.435613   -1.750588   -1.113812
 ---------------------------------------------------------------------

 SCF Done:  E(UB3LYP) =  -1136.10903987     A.U. after   23 cycles

 The electronic state is 2-A.
 Alpha  occ. eigenvalues --  -38.44993 -38.44895 -38.44853 -38.44717 -38.44217
 Alpha  occ. eigenvalues --  -38.44044 -38.43313  -2.20828  -2.20670  -2.20605
 Alpha  occ. eigenvalues --   -2.20496  -2.20048  -2.19868  -2.19137  -1.14543
 Alpha  occ. eigenvalues --   -1.14481  -1.14475  -1.14352  -1.14335  -1.14314
 Alpha  occ. eigenvalues --   -1.14282  -1.14267  -1.14214  -1.14183  -1.14172
 Alpha  occ. eigenvalues --   -1.14140  -1.13719  -1.13686  -1.13666  -1.13520
 Alpha  occ. eigenvalues --   -1.13507  -1.13502  -1.12791  -1.12784  -1.12781
 Alpha  occ. eigenvalues --   -0.15878  -0.14271  -0.13140  -0.10501
 Alpha virt. eigenvalues --   -0.07543  -0.04915  -0.04462  -0.03625  -0.03377
 Alpha virt. eigenvalues --   -0.02266  -0.02152  -0.01453  -0.01190  -0.01047
 Alpha virt. eigenvalues --   -0.00693  -0.00001   0.00208   0.00466   0.00649

  Beta  occ. eigenvalues --  -38.44978 -38.44883 -38.44810 -38.44709 -38.44175
  Beta  occ. eigenvalues --  -38.43987 -38.43268  -2.20805  -2.20653  -2.20530
  Beta  occ. eigenvalues --   -2.20487  -2.19973  -2.19762  -2.19053  -1.14509
  Beta  occ. eigenvalues --   -1.14469  -1.14444  -1.14343  -1.14327  -1.14270
  Beta  occ. eigenvalues --   -1.14232  -1.14219  -1.14183  -1.14170  -1.14150
  Beta  occ. eigenvalues --   -1.14090  -1.13663  -1.13635  -1.13616  -1.13450
  Beta  occ. eigenvalues --   -1.13438  -1.13425  -1.12736  -1.12728  -1.12724
  Beta  occ. eigenvalues --   -0.15381  -0.13611  -0.12375
  Beta virt. eigenvalues --   -0.07706  -0.07334  -0.04438  -0.04161  -0.03422
  Beta virt. eigenvalues --   -0.02929  -0.02023  -0.01903  -0.01250  -0.01009
  Beta virt. eigenvalues --   -0.00801  -0.00458   0.00183   0.00333   0.00474

 Mulliken charges and spin densities:
               1          2
     1  Na   0.022559   0.211928
     2  Na   0.179210   0.284183
     3  Na  -0.089455   0.088683
     4  Na  -0.196320   0.194989
     5  Na   0.119380   0.032888
     6  Na  -0.169913   0.032217
     7  Na   0.134538   0.155112
 Sum of Mulliken charges =  -0.00000   1.00000

 Dipole moment (field-independent basis, Debye):
    X=              0.0928    Y=             -0.6538    Z=              0.0223  Tot=              0.6608
 Quadrupole moment (field-independent basis, Debye-Ang):
   XX=            -63.5979   YY=            -71.6179   ZZ=            -67.0176
   XY=             -0.7612   XZ=              0.3458   YZ=              1.6540

 Normal termination of Gaussian 16 at Mon Dec  4 03:40:49 2023.
