 Gaussian 16, Revision B.01,
 Gaussian 16:  ES64L-G16RevB.01 20-Dec-2017

 -------------------------
 #P B3LYP/6-311+g(d) force
 -------------------------

 -----
 DPGEN
 -----
 Symbolic Z-matrix:
 Charge =  0 Multiplicity = 2

                         Standard orientation:
 ---------------------------------------------------------------------
 Center     Atomic      Atomic             Coordinates (Angstroms)
 Number     Number       Type             X           Y           Z
 ---------------------------------------------------------------------
      1         11           0        0.199972    2.976845    0.310639
      2         11           0       -2.886120    2.642493   -0.503907
      3         11           0        4.704638   -1.518079    0.118521
      4         11           0        1.256748   -2.124946    0.210265
      5         11           0       -3.641568   -0.568040    0.840942
      6         11           0       -2.687258   -3.322773   -0.645507
      7         11           0        3.053587    1.914500   -0.330954
 ---------------------------------------------------------------------

 SCF Done:  E(UB3LYP) =  -1136.11366614     A.U. after   21 cycles

 The electronic state is 2-A.
 Alpha  occ. eigenvalues --  -38.45923 -38.44890 -38.44568 -38.44367 -38.43838
 Alpha  occ. eigenvalues --  -38.43625 -38.43507  -2.21643  -2.20672  -2.20395
 Alpha  occ. eigenvalues --   -2.20160  -2.19634  -2.19453  -2.19354  -1.15349
 Alpha  occ. eigenvalues --   -1.15333  -1.15235  -1.14362  -1.14340  -1.14310
 Alpha  occ. eigenvalues --   -1.14087  -1.14053  -1.13997  -1.13818  -1.13813
 Alpha  occ. eigenvalues --   -1.13778  -1.13290  -1.13288  -1.13265  -1.13148
 Alpha  occ. eigenvalues --   -1.13101  -1.13090  -1.13025  -1.13013  -1.12977
 Alpha  occ. eigenvalues --   -0.15917  -0.14044  -0.13138  -0.10636
 Alpha virt. eigenvalues --   -0.07035  -0.05397  -0.04381  -0.03207  -0.02992
 Alpha virt. eigenvalues --   -0.02786  -0.02339  -0.02179  -0.01161  -0.00511
 Alpha virt. eigenvalues --   -0.00304  -0.00062   0.00323   0.00358   0.00580

  Beta  occ. eigenvalues --  -38.45916 -38.44884 -38.44507 -38.44320 -38.43801
  Beta  occ. eigenvalues --  -38.43578 -38.43491  -2.21632  -2.20665  -2.20286
  Beta  occ. eigenvalues --   -2.20072  -2.19566  -2.19364  -2.19332  -1.15344
  Beta  occ. eigenvalues --   -1.15325  -1.15210  -1.14362  -1.14341  -1.14271
  Beta  occ. eigenvalues --   -1.14002  -1.13983  -1.13911  -1.13758  -1.13748
  Beta  occ. eigenvalues --   -1.13722  -1.13247  -1.13241  -1.13219  -1.13099
  Beta  occ. eigenvalues --   -1.13042  -1.13026  -1.13007  -1.13001  -1.12921
  Beta  occ. eigenvalues --   -0.15415  -0.13393  -0.12489
  Beta virt. eigenvalues --   -0.07377  -0.07055  -0.05087  -0.04077  -0.02804
  Beta virt. eigenvalues --   -0.02681  -0.02566  -0.02062  -0.01866  -0.00998
  Beta virt. eigenvalues --   -0.00241   0.00005   0.00168   0.00341   0.00434

 Mulliken charges and spin densities:
               1          2
     1  Na  -0.393805   0.014362
     2  Na   0.199164   0.257787
     3  Na   0.621626   0.195131
     4  Na  -0.730567   0.121133
     5  Na  -0.028794   0.040574
     6  Na   0.239079   0.173267
     7  Na   0.093298   0.197745
 Sum of Mulliken charges =  -0.00000   1.00000

 Dipole moment (field-independent basis, Debye):
    X=              0.8019    Y=             -0.7409    Z=             -0.0756  Tot=              1.0944
 Quadrupole moment (field-independent basis, Debye-Ang):
   XX=            -56.4693   YY=            -72.2547   ZZ=            -70.7294
   XY=              1.1500   XZ=             -0.9013   YZ=              0.3498

 Normal termination of Gaussian 16 at Sun Dec  3 13:32:18 2023.
