 Gaussian 16, Revision B.01,
 Gaussian 16:  ES64L-G16RevB.01 20-Dec-2017

 -------------------------
 #P B3LYP/6-311+g(d) force
 -------------------------

 -----
 DPGEN
 -----
 Symbolic Z-matrix:
 Charge =  0 Multiplicity = 2

                         Standard orientation:
 ---------------------------------------------------------------------
 Center     Atomic      Atomic             Coordinates (Angstroms)
 Number     Number       Type             X           Y           Z
 ---------------------------------------------------------------------
      1         11           0       -2.888558   -0.790700    0.114187
      2         11           0       -1.649845    2.439182    0.049565
      3         11           0        2.207052    2.076185   -0.244109
      4         11           0        2.718361   -1.202614    0.040868
      5         11           0        0.141394    0.221033    1.650406
      6         11           0       -0.143919   -2.738332   -0.055934
      7         11           0       -0.384485   -0.004755   -1.554983
 ---------------------------------------------------------------------

 SCF Done:  E(UB3LYP) =  -1136.13585897     A.U. after   19 cycles

 The electronic state is 2-A.
 Alpha  occ. eigenvalues --  -38.43900 -38.43766 -38.43711 -38.43627 -38.43081
 Alpha  occ. eigenvalues --  -38.42817 -38.42800  -2.19802  -2.19619  -2.19599
 Alpha  occ. eigenvalues --   -2.19513  -2.19012  -2.18889  -2.18831  -1.13511
 Alpha  occ. eigenvalues --   -1.13458  -1.13434  -1.13325  -1.13288  -1.13280
 Alpha  occ. eigenvalues --   -1.13267  -1.13254  -1.13214  -1.13210  -1.13187
 Alpha  occ. eigenvalues --   -1.13125  -1.12757  -1.12669  -1.12642  -1.12604
 Alpha  occ. eigenvalues --   -1.12506  -1.12493  -1.12483  -1.12449  -1.12440
 Alpha  occ. eigenvalues --   -0.19388  -0.13366  -0.12731  -0.10387
 Alpha virt. eigenvalues --   -0.05527  -0.05315  -0.04639  -0.03066  -0.02717
 Alpha virt. eigenvalues --   -0.01956  -0.01510  -0.01188  -0.00310  -0.00163
 Alpha virt. eigenvalues --    0.00057   0.00364   0.00840   0.00896   0.00925

  Beta  occ. eigenvalues --  -38.43893 -38.43759 -38.43706 -38.43619 -38.43072
  Beta  occ. eigenvalues --  -38.42746 -38.42723  -2.19793  -2.19610  -2.19595
  Beta  occ. eigenvalues --   -2.19503  -2.19001  -2.18762  -2.18690  -1.13503
  Beta  occ. eigenvalues --   -1.13437  -1.13418  -1.13324  -1.13279  -1.13266
  Beta  occ. eigenvalues --   -1.13255  -1.13227  -1.13210  -1.13207  -1.13148
  Beta  occ. eigenvalues --   -1.13123  -1.12737  -1.12641  -1.12626  -1.12520
  Beta  occ. eigenvalues --   -1.12413  -1.12406  -1.12389  -1.12346  -1.12337
  Beta  occ. eigenvalues --   -0.18664  -0.13100  -0.12451
  Beta virt. eigenvalues --   -0.06464  -0.05507  -0.05301  -0.04637  -0.02252
  Beta virt. eigenvalues --   -0.01925  -0.01430  -0.01124  -0.00957  -0.00367
  Beta virt. eigenvalues --   -0.00212   0.00186   0.00395   0.00873   0.00899

 Mulliken charges and spin densities:
               1          2
     1  Na   0.348832  -0.025353
     2  Na   0.183104  -0.108698
     3  Na   0.090442  -0.078916
     4  Na   0.146688  -0.024187
     5  Na  -0.459044   0.648183
     6  Na   0.262812  -0.039174
     7  Na  -0.572834   0.628144
 Sum of Mulliken charges =  -0.00000   1.00000

 Dipole moment (field-independent basis, Debye):
    X=             -0.0265    Y=              0.2387    Z=              0.0633  Tot=              0.2483
 Quadrupole moment (field-independent basis, Debye-Ang):
   XX=            -54.7945   YY=            -60.5357   ZZ=            -76.3794
   XY=              0.1228   XZ=             -1.1939   YZ=             -0.6257

 Normal termination of Gaussian 16 at Thu Dec  7 16:01:23 2023.
