 Gaussian 16, Revision B.01,
 Gaussian 16:  ES64L-G16RevB.01 20-Dec-2017

 -------------------------
 #P B3LYP/6-311+g(d) force
 -------------------------

 -----
 DPGEN
 -----
 Symbolic Z-matrix:
 Charge =  0 Multiplicity = 2

                         Standard orientation:
 ---------------------------------------------------------------------
 Center     Atomic      Atomic             Coordinates (Angstroms)
 Number     Number       Type             X           Y           Z
 ---------------------------------------------------------------------
      1         11           0        3.084615    1.172638   -0.293468
      2         11           0       -2.948796    1.278329   -1.035026
      3         11           0        2.445961   -2.335679   -0.564854
      4         11           0        0.211018   -0.095302   -1.552384
      5         11           0        0.120737   -0.996961    2.073143
      6         11           0        0.290223    2.614740    1.061678
      7         11           0       -3.203758   -1.637764    0.310910
 ---------------------------------------------------------------------

 SCF Done:  E(UB3LYP) =  -1136.12667068     A.U. after   20 cycles

 The electronic state is 2-A.
 Alpha  occ. eigenvalues --  -38.44650 -38.44637 -38.44159 -38.44144 -38.44046
 Alpha  occ. eigenvalues --  -38.43347 -38.42792  -2.20475  -2.20421  -2.19986
 Alpha  occ. eigenvalues --   -2.19972  -2.19946  -2.19171  -2.18614  -1.14169
 Alpha  occ. eigenvalues --   -1.14136  -1.14100  -1.14095  -1.14086  -1.14067
 Alpha  occ. eigenvalues --   -1.13661  -1.13656  -1.13632  -1.13618  -1.13607
 Alpha  occ. eigenvalues --   -1.13606  -1.13600  -1.13587  -1.13567  -1.12851
 Alpha  occ. eigenvalues --   -1.12821  -1.12815  -1.12288  -1.12262  -1.12259
 Alpha  occ. eigenvalues --   -0.17871  -0.13600  -0.11468  -0.11135
 Alpha virt. eigenvalues --   -0.06403  -0.05476  -0.04091  -0.03460  -0.03198
 Alpha virt. eigenvalues --   -0.02569  -0.02086  -0.01264  -0.00519  -0.00284
 Alpha virt. eigenvalues --    0.00065   0.00234   0.00363   0.00671   0.00696

  Beta  occ. eigenvalues --  -38.44645 -38.44637 -38.44117 -38.44062 -38.44006
  Beta  occ. eigenvalues --  -38.43344 -38.42772  -2.20468  -2.20424  -2.19922
  Beta  occ. eigenvalues --   -2.19875  -2.19807  -2.19169  -2.18578  -1.14158
  Beta  occ. eigenvalues --   -1.14131  -1.14105  -1.14086  -1.14078  -1.14061
  Beta  occ. eigenvalues --   -1.13612  -1.13592  -1.13584  -1.13565  -1.13544
  Beta  occ. eigenvalues --   -1.13528  -1.13514  -1.13486  -1.13475  -1.12845
  Beta  occ. eigenvalues --   -1.12823  -1.12800  -1.12259  -1.12241  -1.12225
  Beta  occ. eigenvalues --   -0.17189  -0.13334  -0.11258
  Beta virt. eigenvalues --   -0.07327  -0.06296  -0.05290  -0.03810  -0.02985
  Beta virt. eigenvalues --   -0.02499  -0.01984  -0.01721  -0.01145  -0.00518
  Beta virt. eigenvalues --   -0.00093   0.00096   0.00301   0.00518   0.00707

 Mulliken charges and spin densities:
               1          2
     1  Na   0.227085   0.016440
     2  Na   0.407994   0.116288
     3  Na   0.026911  -0.007786
     4  Na  -0.035689   0.166920
     5  Na  -0.045967   0.569862
     6  Na  -0.388382   0.097186
     7  Na  -0.191951   0.041090
 Sum of Mulliken charges =  -0.00000   1.00000

 Dipole moment (field-independent basis, Debye):
    X=             -0.0637    Y=             -0.2096    Z=             -0.0625  Tot=              0.2278
 Quadrupole moment (field-independent basis, Debye-Ang):
   XX=            -53.4802   YY=            -69.5895   ZZ=            -71.9218
   XY=              0.5848   XZ=             -0.2771   YZ=             -0.9060

 Normal termination of Gaussian 16 at Thu Dec  7 04:50:00 2023.
