 Gaussian 16, Revision B.01,
 Gaussian 16:  ES64L-G16RevB.01 20-Dec-2017

 -------------------------
 #P B3LYP/6-311+g(d) force
 -------------------------

 -----
 DPGEN
 -----
 Symbolic Z-matrix:
 Charge =  0 Multiplicity = 2

                         Standard orientation:
 ---------------------------------------------------------------------
 Center     Atomic      Atomic             Coordinates (Angstroms)
 Number     Number       Type             X           Y           Z
 ---------------------------------------------------------------------
      1         11           0        3.584062   -1.491663   -0.038710
      2         11           0        0.197859   -1.540522   -0.347597
      3         11           0       -2.196693   -0.426605    1.907726
      4         11           0        1.077160    1.159386    1.554123
      5         11           0       -1.537224    2.011014   -0.672386
      6         11           0       -3.673928   -0.935511   -1.255989
      7         11           0        2.548763    1.223900   -1.147167
 ---------------------------------------------------------------------

 SCF Done:  E(UB3LYP) =  -1136.12385956     A.U. after   23 cycles

 The electronic state is 2-A.
 Alpha  occ. eigenvalues --  -38.44378 -38.44358 -38.44203 -38.44025 -38.43826
 Alpha  occ. eigenvalues --  -38.43617 -38.43076  -2.20282  -2.20219  -2.20061
 Alpha  occ. eigenvalues --   -2.19830  -2.19676  -2.19447  -2.19000  -1.13986
 Alpha  occ. eigenvalues --   -1.13944  -1.13906  -1.13899  -1.13867  -1.13836
 Alpha  occ. eigenvalues --   -1.13771  -1.13751  -1.13659  -1.13496  -1.13483
 Alpha  occ. eigenvalues --   -1.13452  -1.13347  -1.13325  -1.13313  -1.13140
 Alpha  occ. eigenvalues --   -1.13113  -1.13052  -1.12693  -1.12667  -1.12607
 Alpha  occ. eigenvalues --   -0.18365  -0.14447  -0.11061  -0.10882
 Alpha virt. eigenvalues --   -0.06464  -0.05468  -0.05104  -0.02988  -0.02589
 Alpha virt. eigenvalues --   -0.02369  -0.02272  -0.01143  -0.00903  -0.00300
 Alpha virt. eigenvalues --    0.00134   0.00261   0.00378   0.00439   0.00584

  Beta  occ. eigenvalues --  -38.44351 -38.44308 -38.44187 -38.43986 -38.43827
  Beta  occ. eigenvalues --  -38.43587 -38.43053  -2.20231  -2.20131  -2.20036
  Beta  occ. eigenvalues --   -2.19759  -2.19680  -2.19392  -2.18962  -1.13956
  Beta  occ. eigenvalues --   -1.13909  -1.13864  -1.13838  -1.13810  -1.13759
  Beta  occ. eigenvalues --   -1.13739  -1.13715  -1.13650  -1.13447  -1.13424
  Beta  occ. eigenvalues --   -1.13409  -1.13340  -1.13329  -1.13315  -1.13102
  Beta  occ. eigenvalues --   -1.13072  -1.13006  -1.12672  -1.12609  -1.12579
  Beta  occ. eigenvalues --   -0.17739  -0.14115  -0.10753
  Beta virt. eigenvalues --   -0.07263  -0.06275  -0.05270  -0.04514  -0.02818
  Beta virt. eigenvalues --   -0.02450  -0.01920  -0.01533  -0.01007  -0.00416
  Beta virt. eigenvalues --   -0.00176   0.00182   0.00305   0.00475   0.00565

 Mulliken charges and spin densities:
               1          2
     1  Na   0.224678  -0.053034
     2  Na  -0.984780   0.162169
     3  Na   0.384617   0.075287
     4  Na   0.078264   0.220148
     5  Na  -0.457031   0.307224
     6  Na   0.342805   0.180367
     7  Na   0.411445   0.107839
 Sum of Mulliken charges =  -0.00000   1.00000

 Dipole moment (field-independent basis, Debye):
    X=              0.1193    Y=              0.1639    Z=              0.2282  Tot=              0.3052
 Quadrupole moment (field-independent basis, Debye-Ang):
   XX=            -53.5645   YY=            -76.5106   ZZ=            -66.3155
   XY=              0.5183   XZ=             -0.6706   YZ=             -2.0817

 Normal termination of Gaussian 16 at Tue Dec  5 16:18:24 2023.
