 Gaussian 16, Revision B.01,
 Gaussian 16:  ES64L-G16RevB.01 20-Dec-2017

 -------------------------
 #P B3LYP/6-311+g(d) force
 -------------------------

 -----
 DPGEN
 -----
 Symbolic Z-matrix:
 Charge =  0 Multiplicity = 2

                         Standard orientation:
 ---------------------------------------------------------------------
 Center     Atomic      Atomic             Coordinates (Angstroms)
 Number     Number       Type             X           Y           Z
 ---------------------------------------------------------------------
      1         11           0        2.258604    2.494633   -0.760216
      2         11           0       -3.511349    0.805118    1.045450
      3         11           0       -0.663239   -2.640154    0.014024
      4         11           0       -3.450462   -1.614159   -1.467941
      5         11           0       -1.295893    2.914711    0.000794
      6         11           0        1.798872   -1.038405    1.744688
      7         11           0        4.863468   -0.921744   -0.576799
 ---------------------------------------------------------------------

 SCF Done:  E(UB3LYP) =  -1136.10731840     A.U. after   26 cycles

 The electronic state is 2-A.
 Alpha  occ. eigenvalues --  -38.45651 -38.44965 -38.44567 -38.44489 -38.44151
 Alpha  occ. eigenvalues --  -38.43801 -38.43608  -2.21378  -2.20756  -2.20365
 Alpha  occ. eigenvalues --   -2.20271  -2.19930  -2.19607  -2.19395  -1.15069
 Alpha  occ. eigenvalues --   -1.15039  -1.14992  -1.14437  -1.14433  -1.14388
 Alpha  occ. eigenvalues --   -1.14036  -1.14023  -1.14004  -1.13945  -1.13936
 Alpha  occ. eigenvalues --   -1.13894  -1.13580  -1.13570  -1.13535  -1.13284
 Alpha  occ. eigenvalues --   -1.13274  -1.13237  -1.13075  -1.13067  -1.13032
 Alpha  occ. eigenvalues --   -0.16056  -0.13724  -0.12492  -0.10440
 Alpha virt. eigenvalues --   -0.07623  -0.05267  -0.04529  -0.03598  -0.03216
 Alpha virt. eigenvalues --   -0.02525  -0.01944  -0.01695  -0.00959  -0.00825
 Alpha virt. eigenvalues --   -0.00498  -0.00249   0.00107   0.00334   0.00489

  Beta  occ. eigenvalues --  -38.45626 -38.44972 -38.44559 -38.44448 -38.44050
  Beta  occ. eigenvalues --  -38.43780 -38.43608  -2.21335  -2.20768  -2.20350
  Beta  occ. eigenvalues --   -2.20199  -2.19742  -2.19571  -2.19396  -1.15044
  Beta  occ. eigenvalues --   -1.15012  -1.14941  -1.14452  -1.14433  -1.14397
  Beta  occ. eigenvalues --   -1.14026  -1.14018  -1.13988  -1.13893  -1.13886
  Beta  occ. eigenvalues --   -1.13824  -1.13452  -1.13439  -1.13412  -1.13261
  Beta  occ. eigenvalues --   -1.13247  -1.13201  -1.13081  -1.13068  -1.13026
  Beta  occ. eigenvalues --   -0.15736  -0.13058  -0.12198
  Beta virt. eigenvalues --   -0.07635  -0.06847  -0.04879  -0.04270  -0.03460
  Beta virt. eigenvalues --   -0.02810  -0.02364  -0.01571  -0.01309  -0.00789
  Beta virt. eigenvalues --   -0.00504  -0.00438  -0.00055   0.00290   0.00477

 Mulliken charges and spin densities:
               1          2
     1  Na   0.027986   0.173011
     2  Na   0.112730   0.151976
     3  Na  -0.383941   0.060490
     4  Na   0.392672   0.155039
     5  Na  -0.237591  -0.096849
     6  Na  -0.092973  -0.054860
     7  Na   0.181117   0.611192
 Sum of Mulliken charges =  -0.00000   1.00000

 Dipole moment (field-independent basis, Debye):
    X=             -0.9502    Y=              0.1149    Z=             -0.1809  Tot=              0.9741
 Quadrupole moment (field-independent basis, Debye-Ang):
   XX=            -68.7771   YY=            -71.3061   ZZ=            -64.2124
   XY=              2.6206   XZ=             -0.3019   YZ=              0.9506

 Normal termination of Gaussian 16 at Mon Dec  4 04:26:22 2023.
