 Gaussian 16, Revision B.01,
 Gaussian 16:  ES64L-G16RevB.01 20-Dec-2017

 -------------------------
 #P B3LYP/6-311+g(d) force
 -------------------------

 -----
 DPGEN
 -----
 Symbolic Z-matrix:
 Charge =  0 Multiplicity = 2

                         Standard orientation:
 ---------------------------------------------------------------------
 Center     Atomic      Atomic             Coordinates (Angstroms)
 Number     Number       Type             X           Y           Z
 ---------------------------------------------------------------------
      1         11           0       -3.018188    2.901425   -0.044585
      2         11           0       -0.301280   -2.137504    1.733491
      3         11           0       -0.121951    1.166061   -0.556703
      4         11           0        0.402947   -2.939668   -1.169432
      5         11           0        3.131367    2.709689    0.305147
      6         11           0       -3.070248   -0.994819   -0.104701
      7         11           0        2.977354   -0.705184   -0.163218
 ---------------------------------------------------------------------

 SCF Done:  E(UB3LYP) =  -1136.12454620     A.U. after   21 cycles

 The electronic state is 2-A.
 Alpha  occ. eigenvalues --  -38.44476 -38.44288 -38.43867 -38.43854 -38.43849
 Alpha  occ. eigenvalues --  -38.43813 -38.43558  -2.20276  -2.20149  -2.19688
 Alpha  occ. eigenvalues --   -2.19682  -2.19677  -2.19655  -2.19360  -1.13968
 Alpha  occ. eigenvalues --   -1.13953  -1.13879  -1.13840  -1.13807  -1.13767
 Alpha  occ. eigenvalues --   -1.13405  -1.13390  -1.13380  -1.13365  -1.13348
 Alpha  occ. eigenvalues --   -1.13331  -1.13322  -1.13314  -1.13311  -1.13288
 Alpha  occ. eigenvalues --   -1.13280  -1.13241  -1.13017  -1.13016  -1.12977
 Alpha  occ. eigenvalues --   -0.17391  -0.13266  -0.12883  -0.09695
 Alpha virt. eigenvalues --   -0.06394  -0.05726  -0.05210  -0.02771  -0.02548
 Alpha virt. eigenvalues --   -0.02159  -0.01954  -0.01534  -0.01377  -0.00870
 Alpha virt. eigenvalues --   -0.00051   0.00136   0.00332   0.00459   0.00752

  Beta  occ. eigenvalues --  -38.44453 -38.44254 -38.43850 -38.43837 -38.43835
  Beta  occ. eigenvalues --  -38.43775 -38.43518  -2.20236  -2.20088  -2.19683
  Beta  occ. eigenvalues --   -2.19661  -2.19612  -2.19594  -2.19285  -1.13941
  Beta  occ. eigenvalues --   -1.13924  -1.13837  -1.13801  -1.13768  -1.13702
  Beta  occ. eigenvalues --   -1.13399  -1.13381  -1.13365  -1.13358  -1.13307
  Beta  occ. eigenvalues --   -1.13301  -1.13285  -1.13272  -1.13260  -1.13252
  Beta  occ. eigenvalues --   -1.13219  -1.13215  -1.12965  -1.12963  -1.12930
  Beta  occ. eigenvalues --   -0.16992  -0.12779  -0.12431
  Beta virt. eigenvalues --   -0.06403  -0.06078  -0.05491  -0.05073  -0.02425
  Beta virt. eigenvalues --   -0.02195  -0.01875  -0.01783  -0.01320  -0.00960
  Beta virt. eigenvalues --   -0.00678   0.00128   0.00331   0.00518   0.00539

 Mulliken charges and spin densities:
               1          2
     1  Na   0.522692   0.109856
     2  Na   0.240819   0.219880
     3  Na  -1.643017  -0.069464
     4  Na   0.207654   0.219883
     5  Na   0.423545   0.177783
     6  Na   0.091991   0.144811
     7  Na   0.156316   0.197251
 Sum of Mulliken charges =  -0.00000   1.00000

 Dipole moment (field-independent basis, Debye):
    X=             -0.5219    Y=             -0.3538    Z=              0.2662  Tot=              0.6844
 Quadrupole moment (field-independent basis, Debye-Ang):
   XX=            -62.9516   YY=            -64.6891   ZZ=            -69.9119
   XY=             -0.1488   XZ=              3.3709   YZ=              2.6782

 Normal termination of Gaussian 16 at Tue Dec  5 20:55:27 2023.
