 Gaussian 16, Revision B.01,
 Gaussian 16:  ES64L-G16RevB.01 20-Dec-2017

 -------------------------
 #P B3LYP/6-311+g(d) force
 -------------------------

 -----
 DPGEN
 -----
 Symbolic Z-matrix:
 Charge =  0 Multiplicity = 2

                         Standard orientation:
 ---------------------------------------------------------------------
 Center     Atomic      Atomic             Coordinates (Angstroms)
 Number     Number       Type             X           Y           Z
 ---------------------------------------------------------------------
      1         11           0        1.230640    2.913197    0.051944
      2         11           0       -0.067508   -0.583782   -0.559378
      3         11           0       -2.529912   -2.871886    0.552560
      4         11           0       -4.966368   -0.493083   -0.320086
      5         11           0       -2.391944    2.365136    0.009319
      6         11           0        3.259584    0.188062    0.781077
      7         11           0        5.465507   -1.517643   -0.515436
 ---------------------------------------------------------------------

 SCF Done:  E(UB3LYP) =  -1136.11654425     A.U. after   21 cycles

 The electronic state is 2-A.
 Alpha  occ. eigenvalues --  -38.45040 -38.44704 -38.44574 -38.44338 -38.44125
 Alpha  occ. eigenvalues --  -38.43939 -38.43609  -2.20848  -2.20477  -2.20348
 Alpha  occ. eigenvalues --   -2.20136  -2.19919  -2.19750  -2.19459  -1.14547
 Alpha  occ. eigenvalues --   -1.14503  -1.14445  -1.14151  -1.14124  -1.14107
 Alpha  occ. eigenvalues --   -1.14039  -1.14024  -1.13947  -1.13815  -1.13794
 Alpha  occ. eigenvalues --   -1.13762  -1.13585  -1.13576  -1.13548  -1.13441
 Alpha  occ. eigenvalues --   -1.13388  -1.13386  -1.13138  -1.13123  -1.13087
 Alpha  occ. eigenvalues --   -0.16586  -0.14068  -0.12099  -0.10977
 Alpha virt. eigenvalues --   -0.06833  -0.05830  -0.04552  -0.03204  -0.03051
 Alpha virt. eigenvalues --   -0.02529  -0.02249  -0.01359  -0.01295  -0.00906
 Alpha virt. eigenvalues --   -0.00432  -0.00100   0.00123   0.00385   0.00636

  Beta  occ. eigenvalues --  -38.44986 -38.44665 -38.44541 -38.44336 -38.44095
  Beta  occ. eigenvalues --  -38.43889 -38.43614  -2.20749  -2.20406  -2.20288
  Beta  occ. eigenvalues --   -2.20131  -2.19864  -2.19658  -2.19473  -1.14478
  Beta  occ. eigenvalues --   -1.14445  -1.14361  -1.14103  -1.14070  -1.14055
  Beta  occ. eigenvalues --   -1.14000  -1.13985  -1.13894  -1.13812  -1.13790
  Beta  occ. eigenvalues --   -1.13761  -1.13550  -1.13528  -1.13511  -1.13386
  Beta  occ. eigenvalues --   -1.13326  -1.13323  -1.13149  -1.13135  -1.13061
  Beta  occ. eigenvalues --   -0.16099  -0.13608  -0.11731
  Beta virt. eigenvalues --   -0.07557  -0.06581  -0.05270  -0.04335  -0.02892
  Beta virt. eigenvalues --   -0.02767  -0.02331  -0.01900  -0.01250  -0.01091
  Beta virt. eigenvalues --   -0.00497  -0.00093   0.00039   0.00190   0.00510

 Mulliken charges and spin densities:
               1          2
     1  Na   0.043897  -0.022996
     2  Na  -1.383722   0.234381
     3  Na   0.456316   0.063906
     4  Na  -0.032913   0.173197
     5  Na   0.468882   0.276453
     6  Na   0.331009   0.116619
     7  Na   0.116532   0.158441
 Sum of Mulliken charges =  -0.00000   1.00000

 Dipole moment (field-independent basis, Debye):
    X=             -0.6086    Y=              0.2035    Z=             -0.1671  Tot=              0.6631
 Quadrupole moment (field-independent basis, Debye-Ang):
   XX=            -64.1233   YY=            -64.2747   ZZ=            -70.6763
   XY=              3.9348   XZ=             -1.9885   YZ=              1.0481

 Normal termination of Gaussian 16 at Sun Dec  3 12:30:03 2023.
