 Gaussian 16, Revision B.01,
 Gaussian 16:  ES64L-G16RevB.01 20-Dec-2017

 -------------------------
 #P B3LYP/6-311+g(d) force
 -------------------------

 -----
 DPGEN
 -----
 Symbolic Z-matrix:
 Charge =  0 Multiplicity = 2

                         Standard orientation:
 ---------------------------------------------------------------------
 Center     Atomic      Atomic             Coordinates (Angstroms)
 Number     Number       Type             X           Y           Z
 ---------------------------------------------------------------------
      1         11           0        1.485679    0.545957    2.020743
      2         11           0        2.405697    1.076219   -1.228410
      3         11           0        2.596492   -2.065473   -0.205827
      4         11           0       -1.407629   -1.109558    1.248251
      5         11           0       -0.695009   -0.901943   -1.463415
      6         11           0       -0.352209    2.628321   -0.073409
      7         11           0       -4.033021   -0.173523   -0.297933
 ---------------------------------------------------------------------

 SCF Done:  E(UB3LYP) =  -1136.12433788     A.U. after   21 cycles

 The electronic state is 2-A.
 Alpha  occ. eigenvalues --  -38.45241 -38.44421 -38.44109 -38.43866 -38.43800
 Alpha  occ. eigenvalues --  -38.43069 -38.42381  -2.21041  -2.20337  -2.20057
 Alpha  occ. eigenvalues --   -2.19762  -2.19700  -2.18900  -2.18219  -1.14726
 Alpha  occ. eigenvalues --   -1.14684  -1.14675  -1.14241  -1.13972  -1.13905
 Alpha  occ. eigenvalues --   -1.13714  -1.13670  -1.13641  -1.13449  -1.13435
 Alpha  occ. eigenvalues --   -1.13380  -1.13374  -1.13328  -1.13296  -1.12577
 Alpha  occ. eigenvalues --   -1.12562  -1.12539  -1.11902  -1.11885  -1.11852
 Alpha  occ. eigenvalues --   -0.18546  -0.13808  -0.11359  -0.11224
 Alpha virt. eigenvalues --   -0.06706  -0.04596  -0.04274  -0.03326  -0.02903
 Alpha virt. eigenvalues --   -0.02553  -0.02419  -0.00800  -0.00667  -0.00083
 Alpha virt. eigenvalues --    0.00178   0.00337   0.00376   0.00773   0.00886

  Beta  occ. eigenvalues --  -38.45240 -38.44389 -38.44068 -38.43830 -38.43725
  Beta  occ. eigenvalues --  -38.43068 -38.42376  -2.21038  -2.20279  -2.19985
  Beta  occ. eigenvalues --   -2.19697  -2.19563  -2.18900  -2.18213  -1.14722
  Beta  occ. eigenvalues --   -1.14684  -1.14672  -1.14193  -1.13928  -1.13862
  Beta  occ. eigenvalues --   -1.13668  -1.13610  -1.13574  -1.13399  -1.13384
  Beta  occ. eigenvalues --   -1.13325  -1.13277  -1.13240  -1.13198  -1.12580
  Beta  occ. eigenvalues --   -1.12545  -1.12536  -1.11898  -1.11861  -1.11851
  Beta  occ. eigenvalues --   -0.17791  -0.13656  -0.11043
  Beta virt. eigenvalues --   -0.07311  -0.06553  -0.04472  -0.03793  -0.03244
  Beta virt. eigenvalues --   -0.02357  -0.01966  -0.01781  -0.00691  -0.00292
  Beta virt. eigenvalues --   -0.00063   0.00224   0.00381   0.00501   0.00817

 Mulliken charges and spin densities:
               1          2
     1  Na   0.262098   0.435752
     2  Na   0.134756   0.252412
     3  Na   0.005777  -0.097422
     4  Na  -0.246343   0.027353
     5  Na  -0.082877   0.424123
     6  Na  -0.500799  -0.048535
     7  Na   0.427389   0.006318
 Sum of Mulliken charges =  -0.00000   1.00000

 Dipole moment (field-independent basis, Debye):
    X=             -1.3143    Y=              0.0307    Z=             -0.1426  Tot=              1.3224
 Quadrupole moment (field-independent basis, Debye-Ang):
   XX=            -48.3283   YY=            -75.6558   ZZ=            -68.8703
   XY=             -1.2829   XZ=              1.1919   YZ=             -1.3952

 Normal termination of Gaussian 16 at Fri Dec  8 04:48:34 2023.
