 Gaussian 16, Revision B.01,
 Gaussian 16:  ES64L-G16RevB.01 20-Dec-2017

 -------------------------
 #P B3LYP/6-311+g(d) force
 -------------------------

 -----
 DPGEN
 -----
 Symbolic Z-matrix:
 Charge =  0 Multiplicity = 2

                         Standard orientation:
 ---------------------------------------------------------------------
 Center     Atomic      Atomic             Coordinates (Angstroms)
 Number     Number       Type             X           Y           Z
 ---------------------------------------------------------------------
      1         11           0        1.104551    2.807190   -0.733886
      2         11           0        1.974788   -2.423737   -0.261458
      3         11           0       -3.187287   -0.341491    1.781352
      4         11           0       -2.203824    1.595353   -1.019163
      5         11           0        3.444056    0.279095    0.568338
      6         11           0       -1.487256   -2.080191   -1.585123
      7         11           0        0.354972    0.163782    1.249940
 ---------------------------------------------------------------------

 SCF Done:  E(UB3LYP) =  -1136.12840470     A.U. after   22 cycles

 The electronic state is 2-A.
 Alpha  occ. eigenvalues --  -38.44355 -38.44276 -38.44067 -38.44002 -38.43885
 Alpha  occ. eigenvalues --  -38.43615 -38.43228  -2.20224  -2.20094  -2.19889
 Alpha  occ. eigenvalues --   -2.19816  -2.19788  -2.19450  -2.19047  -1.13926
 Alpha  occ. eigenvalues --   -1.13894  -1.13840  -1.13750  -1.13739  -1.13705
 Alpha  occ. eigenvalues --   -1.13572  -1.13556  -1.13516  -1.13514  -1.13466
 Alpha  occ. eigenvalues --   -1.13457  -1.13450  -1.13433  -1.13410  -1.13124
 Alpha  occ. eigenvalues --   -1.13122  -1.13085  -1.12720  -1.12715  -1.12677
 Alpha  occ. eigenvalues --   -0.17717  -0.13810  -0.12046  -0.10793
 Alpha virt. eigenvalues --   -0.06021  -0.05590  -0.04933  -0.03468  -0.02748
 Alpha virt. eigenvalues --   -0.02247  -0.02054  -0.01006  -0.00599  -0.00409
 Alpha virt. eigenvalues --   -0.00280   0.00241   0.00366   0.00455   0.00761

  Beta  occ. eigenvalues --  -38.44349 -38.44197 -38.44047 -38.43948 -38.43862
  Beta  occ. eigenvalues --  -38.43618 -38.43218  -2.20213  -2.19948  -2.19856
  Beta  occ. eigenvalues --   -2.19775  -2.19688  -2.19458  -2.19030  -1.13914
  Beta  occ. eigenvalues --   -1.13887  -1.13840  -1.13646  -1.13638  -1.13612
  Beta  occ. eigenvalues --   -1.13545  -1.13521  -1.13485  -1.13471  -1.13447
  Beta  occ. eigenvalues --   -1.13417  -1.13383  -1.13366  -1.13343  -1.13130
  Beta  occ. eigenvalues --   -1.13129  -1.13074  -1.12711  -1.12703  -1.12658
  Beta  occ. eigenvalues --   -0.17262  -0.13474  -0.11690
  Beta virt. eigenvalues --   -0.07192  -0.05852  -0.05452  -0.04355  -0.03224
  Beta virt. eigenvalues --   -0.02289  -0.01925  -0.01427  -0.00917  -0.00378
  Beta virt. eigenvalues --   -0.00251  -0.00102   0.00320   0.00546   0.00623

 Mulliken charges and spin densities:
               1          2
     1  Na  -0.261767   0.009816
     2  Na  -0.415610  -0.003325
     3  Na   0.332480   0.137221
     4  Na   0.052671   0.245490
     5  Na   1.579958   0.039545
     6  Na  -0.221264   0.285567
     7  Na  -1.066468   0.285686
 Sum of Mulliken charges =  -0.00000   1.00000

 Dipole moment (field-independent basis, Debye):
    X=              0.2916    Y=             -0.0082    Z=             -0.1918  Tot=              0.3492
 Quadrupole moment (field-independent basis, Debye-Ang):
   XX=            -53.2233   YY=            -70.6153   ZZ=            -71.6287
   XY=              0.6105   XZ=              0.7378   YZ=             -1.0057

 Normal termination of Gaussian 16 at Tue Dec  5 11:41:45 2023.
