 Gaussian 16, Revision B.01,
 Gaussian 16:  ES64L-G16RevB.01 20-Dec-2017

 -------------------------
 #P B3LYP/6-311+g(d) force
 -------------------------

 -----
 DPGEN
 -----
 Symbolic Z-matrix:
 Charge =  0 Multiplicity = 2

                         Standard orientation:
 ---------------------------------------------------------------------
 Center     Atomic      Atomic             Coordinates (Angstroms)
 Number     Number       Type             X           Y           Z
 ---------------------------------------------------------------------
      1         11           0        0.001897   -0.031521   -1.728671
      2         11           0        0.036764   -2.025229   -0.064118
      3         11           0        2.586931   -0.851871    0.053270
      4         11           0       -0.004313    0.043556    1.857636
      5         11           0       -2.510380   -0.855419   -0.004205
      6         11           0       -1.489369    1.742625   -0.007779
      7         11           0        1.378470    1.977860   -0.106133
 ---------------------------------------------------------------------

 SCF Done:  E(UB3LYP) =  -1136.08634143     A.U. after   19 cycles

 The electronic state is 2-A.
 Alpha  occ. eigenvalues --  -38.44275 -38.44072 -38.43817 -38.43732 -38.43604
 Alpha  occ. eigenvalues --  -38.43438 -38.43184  -2.20550  -2.20251  -2.19910
 Alpha  occ. eigenvalues --   -2.19835  -2.19750  -2.19593  -2.19265  -1.14518
 Alpha  occ. eigenvalues --   -1.14267  -1.14148  -1.14048  -1.13957  -1.13872
 Alpha  occ. eigenvalues --   -1.13785  -1.13699  -1.13581  -1.13495  -1.13420
 Alpha  occ. eigenvalues --   -1.13399  -1.13360  -1.13349  -1.13322  -1.13202
 Alpha  occ. eigenvalues --   -1.13196  -1.13151  -1.12932  -1.12896  -1.12833
 Alpha  occ. eigenvalues --   -0.21536  -0.13895  -0.12868  -0.12205
 Alpha virt. eigenvalues --   -0.05194  -0.04339  -0.04013  -0.03655  -0.03183
 Alpha virt. eigenvalues --   -0.02853  -0.01202  -0.00487  -0.00081   0.00347
 Alpha virt. eigenvalues --    0.00706   0.00811   0.01005   0.01129   0.01180

  Beta  occ. eigenvalues --  -38.44181 -38.43974 -38.43808 -38.43726 -38.43583
  Beta  occ. eigenvalues --  -38.43423 -38.43173  -2.20382  -2.20075  -2.19897
  Beta  occ. eigenvalues --   -2.19809  -2.19741  -2.19573  -2.19251  -1.14417
  Beta  occ. eigenvalues --   -1.14156  -1.14033  -1.13944  -1.13840  -1.13802
  Beta  occ. eigenvalues --   -1.13742  -1.13664  -1.13565  -1.13437  -1.13418
  Beta  occ. eigenvalues --   -1.13339  -1.13329  -1.13312  -1.13278  -1.13190
  Beta  occ. eigenvalues --   -1.13146  -1.13124  -1.12922  -1.12841  -1.12830
  Beta  occ. eigenvalues --   -0.20702  -0.13530  -0.12492
  Beta virt. eigenvalues --   -0.08016  -0.05228  -0.04327  -0.03982  -0.02694
  Beta virt. eigenvalues --   -0.02241  -0.01772  -0.01126  -0.00446   0.00063
  Beta virt. eigenvalues --    0.00375   0.00684   0.00790   0.01034   0.01144

 Mulliken charges and spin densities:
               1          2
     1  Na  -0.245621   0.430406
     2  Na   0.181024   0.088382
     3  Na  -0.029468  -0.070527
     4  Na  -0.309882   0.534701
     5  Na   0.036666  -0.048484
     6  Na   0.251403   0.065082
     7  Na   0.115877   0.000439
 Sum of Mulliken charges =  -0.00000   1.00000

 Dipole moment (field-independent basis, Debye):
    X=              0.1940    Y=              0.1061    Z=              0.2310  Tot=              0.3197
 Quadrupole moment (field-independent basis, Debye-Ang):
   XX=            -58.4841   YY=            -70.1356   ZZ=            -68.6997
   XY=              0.3701   XZ=              0.0635   YZ=             -0.2159

 Normal termination of Gaussian 16 at Fri Dec  8 19:41:46 2023.
