 Gaussian 16, Revision B.01,
 Gaussian 16:  ES64L-G16RevB.01 20-Dec-2017

 -------------------------
 #P B3LYP/6-311+g(d) force
 -------------------------

 -----
 DPGEN
 -----
 Symbolic Z-matrix:
 Charge =  0 Multiplicity = 2

                         Standard orientation:
 ---------------------------------------------------------------------
 Center     Atomic      Atomic             Coordinates (Angstroms)
 Number     Number       Type             X           Y           Z
 ---------------------------------------------------------------------
      1         11           0        0.102477   -2.364698    0.060630
      2         11           0       -3.033544   -1.355797   -0.267625
      3         11           0        2.529657    2.106431   -0.095380
      4         11           0       -2.478100    2.231687    0.095345
      5         11           0       -0.078919    0.306545   -1.832147
      6         11           0       -0.290899    0.181238    2.008645
      7         11           0        3.249329   -1.105407    0.030532
 ---------------------------------------------------------------------

 SCF Done:  E(UB3LYP) =  -1136.12857314     A.U. after   20 cycles

 The electronic state is 2-A.
 Alpha  occ. eigenvalues --  -38.44674 -38.44639 -38.44120 -38.43860 -38.43854
 Alpha  occ. eigenvalues --  -38.43796 -38.42370  -2.20494  -2.20452  -2.19917
 Alpha  occ. eigenvalues --   -2.19748  -2.19678  -2.19650  -2.18301  -1.14162
 Alpha  occ. eigenvalues --   -1.14157  -1.14132  -1.14122  -1.14112  -1.14105
 Alpha  occ. eigenvalues --   -1.13587  -1.13576  -1.13564  -1.13446  -1.13390
 Alpha  occ. eigenvalues --   -1.13361  -1.13357  -1.13334  -1.13307  -1.13301
 Alpha  occ. eigenvalues --   -1.13296  -1.13273  -1.12003  -1.11968  -1.11925
 Alpha  occ. eigenvalues --   -0.18373  -0.13536  -0.11638  -0.10734
 Alpha virt. eigenvalues --   -0.06360  -0.05964  -0.03705  -0.03443  -0.02667
 Alpha virt. eigenvalues --   -0.02595  -0.02147  -0.01478  -0.00649  -0.00111
 Alpha virt. eigenvalues --   -0.00033   0.00277   0.00619   0.00719   0.00734

  Beta  occ. eigenvalues --  -38.44668 -38.44641 -38.44119 -38.43851 -38.43790
  Beta  occ. eigenvalues --  -38.43703 -38.42359  -2.20485  -2.20457  -2.19919
  Beta  occ. eigenvalues --   -2.19648  -2.19619  -2.19506  -2.18285  -1.14154
  Beta  occ. eigenvalues --   -1.14133  -1.14129  -1.14128  -1.14109  -1.14102
  Beta  occ. eigenvalues --   -1.13579  -1.13575  -1.13564  -1.13360  -1.13320
  Beta  occ. eigenvalues --   -1.13305  -1.13300  -1.13281  -1.13257  -1.13244
  Beta  occ. eigenvalues --   -1.13180  -1.13161  -1.11998  -1.11928  -1.11906
  Beta  occ. eigenvalues --   -0.17625  -0.13368  -0.11395
  Beta virt. eigenvalues --   -0.06830  -0.06223  -0.05990  -0.03707  -0.02723
  Beta virt. eigenvalues --   -0.02033  -0.01836  -0.01686  -0.01308  -0.00721
  Beta virt. eigenvalues --   -0.00067   0.00066   0.00301   0.00694   0.00727

 Mulliken charges and spin densities:
               1          2
     1  Na   0.033811   0.072764
     2  Na   0.298957   0.038571
     3  Na   0.182883  -0.073296
     4  Na   0.000377  -0.108451
     5  Na  -0.218867   0.483507
     6  Na  -0.292478   0.615088
     7  Na  -0.004682  -0.028182
 Sum of Mulliken charges =  -0.00000   1.00000

 Dipole moment (field-independent basis, Debye):
    X=             -0.0338    Y=              0.1284    Z=             -0.0344  Tot=              0.1371
 Quadrupole moment (field-independent basis, Debye-Ang):
   XX=            -49.7655   YY=            -68.8668   ZZ=            -74.5435
   XY=              0.2631   XZ=              0.8519   YZ=              0.4846

 Normal termination of Gaussian 16 at Tue Dec  5 11:07:24 2023.
