 Gaussian 16, Revision B.01,
 Gaussian 16:  ES64L-G16RevB.01 20-Dec-2017

 -------------------------
 #P B3LYP/6-311+g(d) force
 -------------------------

 -----
 DPGEN
 -----
 Symbolic Z-matrix:
 Charge =  0 Multiplicity = 2

                         Standard orientation:
 ---------------------------------------------------------------------
 Center     Atomic      Atomic             Coordinates (Angstroms)
 Number     Number       Type             X           Y           Z
 ---------------------------------------------------------------------
      1         11           0       -0.209298    1.764503   -0.209162
      2         11           0       -1.795970   -0.322803    1.863929
      3         11           0       -4.196707    0.899854   -0.525142
      4         11           0        2.603047   -0.999252   -1.460867
      5         11           0        1.626188   -1.649513    1.518974
      6         11           0        3.387371    1.933380    0.156660
      7         11           0       -1.414632   -1.626168   -1.344392
 ---------------------------------------------------------------------

 SCF Done:  E(UB3LYP) =  -1136.12023487     A.U. after   27 cycles

 The electronic state is 2-A.
 Alpha  occ. eigenvalues --  -38.45237 -38.44436 -38.44328 -38.44204 -38.43985
 Alpha  occ. eigenvalues --  -38.43782 -38.43335  -2.21009  -2.20236  -2.20169
 Alpha  occ. eigenvalues --   -2.20016  -2.19868  -2.19599  -2.19130  -1.14684
 Alpha  occ. eigenvalues --   -1.14668  -1.14624  -1.13958  -1.13937  -1.13867
 Alpha  occ. eigenvalues --   -1.13832  -1.13822  -1.13774  -1.13715  -1.13686
 Alpha  occ. eigenvalues --   -1.13606  -1.13560  -1.13511  -1.13462  -1.13274
 Alpha  occ. eigenvalues --   -1.13262  -1.13230  -1.12802  -1.12789  -1.12774
 Alpha  occ. eigenvalues --   -0.17853  -0.14064  -0.10988  -0.10849
 Alpha virt. eigenvalues --   -0.07029  -0.05489  -0.05012  -0.03126  -0.02781
 Alpha virt. eigenvalues --   -0.02432  -0.02260  -0.01442  -0.00934  -0.00396
 Alpha virt. eigenvalues --    0.00025   0.00079   0.00259   0.00422   0.00615

  Beta  occ. eigenvalues --  -38.45215 -38.44431 -38.44299 -38.44157 -38.43923
  Beta  occ. eigenvalues --  -38.43770 -38.43337  -2.20968  -2.20229  -2.20114
  Beta  occ. eigenvalues --   -2.19930  -2.19756  -2.19580  -2.19134  -1.14654
  Beta  occ. eigenvalues --   -1.14632  -1.14599  -1.13937  -1.13922  -1.13835
  Beta  occ. eigenvalues --   -1.13825  -1.13792  -1.13731  -1.13658  -1.13619
  Beta  occ. eigenvalues --   -1.13541  -1.13481  -1.13434  -1.13370  -1.13258
  Beta  occ. eigenvalues --   -1.13230  -1.13219  -1.12800  -1.12793  -1.12778
  Beta  occ. eigenvalues --   -0.17200  -0.13858  -0.10729
  Beta virt. eigenvalues --   -0.07228  -0.06773  -0.05335  -0.04408  -0.02890
  Beta virt. eigenvalues --   -0.02665  -0.01923  -0.01614  -0.01298  -0.00471
  Beta virt. eigenvalues --   -0.00247   0.00081   0.00153   0.00342   0.00552

 Mulliken charges and spin densities:
               1          2
     1  Na  -0.939542   0.149445
     2  Na   0.245863   0.176386
     3  Na   0.706808   0.186455
     4  Na   0.267456   0.199907
     5  Na  -0.116829   0.098990
     6  Na   0.233570  -0.127300
     7  Na  -0.397325   0.316117
 Sum of Mulliken charges =  -0.00000   1.00000

 Dipole moment (field-independent basis, Debye):
    X=             -1.1471    Y=             -0.2300    Z=              0.0245  Tot=              1.1702
 Quadrupole moment (field-independent basis, Debye-Ang):
   XX=            -48.9506   YY=            -77.5605   ZZ=            -68.7178
   XY=             -3.3700   XZ=              1.1585   YZ=              0.5143

 Normal termination of Gaussian 16 at Thu Dec  7 04:04:18 2023.
