 Gaussian 16, Revision B.01,
 Gaussian 16:  ES64L-G16RevB.01 20-Dec-2017

 -------------------------
 #P B3LYP/6-311+g(d) force
 -------------------------

 -----
 DPGEN
 -----
 Symbolic Z-matrix:
 Charge =  0 Multiplicity = 2

                         Standard orientation:
 ---------------------------------------------------------------------
 Center     Atomic      Atomic             Coordinates (Angstroms)
 Number     Number       Type             X           Y           Z
 ---------------------------------------------------------------------
      1         11           0        2.950130   -1.486508   -0.502448
      2         11           0        6.039432   -0.447017   -0.271769
      3         11           0        2.662036    1.551931   -0.604699
      4         11           0       -0.410042    1.582091    0.075707
      5         11           0       -0.216438   -0.907311    1.846668
      6         11           0       -4.392250    0.652284    0.695964
      7         11           0       -6.632869   -0.945468   -1.239423
 ---------------------------------------------------------------------

 SCF Done:  E(UB3LYP) =  -1136.10990172     A.U. after   21 cycles

 The electronic state is 2-A.
 Alpha  occ. eigenvalues --  -38.44964 -38.44934 -38.44231 -38.44137 -38.44119
 Alpha  occ. eigenvalues --  -38.43954 -38.43842  -2.20821  -2.20716  -2.20141
 Alpha  occ. eigenvalues --   -2.19955  -2.19887  -2.19728  -2.19714  -1.14556
 Alpha  occ. eigenvalues --   -1.14493  -1.14445  -1.14382  -1.14374  -1.14316
 Alpha  occ. eigenvalues --   -1.13830  -1.13786  -1.13751  -1.13664  -1.13603
 Alpha  occ. eigenvalues --   -1.13575  -1.13555  -1.13554  -1.13534  -1.13398
 Alpha  occ. eigenvalues --   -1.13385  -1.13382  -1.13370  -1.13354  -1.13322
 Alpha  occ. eigenvalues --   -0.17107  -0.13816  -0.12011  -0.10761
 Alpha virt. eigenvalues --   -0.07228  -0.05447  -0.04464  -0.03747  -0.02794
 Alpha virt. eigenvalues --   -0.02629  -0.02032  -0.01907  -0.01015  -0.00927
 Alpha virt. eigenvalues --   -0.00333  -0.00093   0.00198   0.00313   0.00340

  Beta  occ. eigenvalues --  -38.44942 -38.44930 -38.44152 -38.44141 -38.44055
  Beta  occ. eigenvalues --  -38.43951 -38.43816  -2.20783  -2.20709  -2.19999
  Beta  occ. eigenvalues --   -2.19894  -2.19835  -2.19710  -2.19687  -1.14519
  Beta  occ. eigenvalues --   -1.14467  -1.14419  -1.14377  -1.14362  -1.14305
  Beta  occ. eigenvalues --   -1.13739  -1.13693  -1.13630  -1.13594  -1.13560
  Beta  occ. eigenvalues --   -1.13559  -1.13538  -1.13519  -1.13490  -1.13394
  Beta  occ. eigenvalues --   -1.13381  -1.13360  -1.13338  -1.13322  -1.13280
  Beta  occ. eigenvalues --   -0.16413  -0.13708  -0.11826
  Beta virt. eigenvalues --   -0.07193  -0.06747  -0.05199  -0.04138  -0.03399
  Beta virt. eigenvalues --   -0.02592  -0.02017  -0.01803  -0.01768  -0.00918
  Beta virt. eigenvalues --   -0.00534  -0.00203   0.00126   0.00314   0.00435

 Mulliken charges and spin densities:
               1          2
     1  Na  -0.414637   0.225374
     2  Na   0.434780  -0.016287
     3  Na   0.033515   0.251285
     4  Na  -0.188950   0.170573
     5  Na  -0.048718   0.368526
     6  Na  -0.056325   0.027475
     7  Na   0.240335  -0.026947
 Sum of Mulliken charges =  -0.00000   1.00000

 Dipole moment (field-independent basis, Debye):
    X=              2.2487    Y=             -0.5227    Z=             -0.0806  Tot=              2.3100
 Quadrupole moment (field-independent basis, Debye-Ang):
   XX=            -53.7974   YY=            -70.6772   ZZ=            -69.5404
   XY=              3.0148   XZ=              3.4577   YZ=              4.0136

 Normal termination of Gaussian 16 at Wed Nov 29 02:38:20 2023.
