 Gaussian 16, Revision B.01,
 Gaussian 16:  ES64L-G16RevB.01 20-Dec-2017

 -------------------------
 #P B3LYP/6-311+g(d) force
 -------------------------

 -----
 DPGEN
 -----
 Symbolic Z-matrix:
 Charge =  0 Multiplicity = 2

                         Standard orientation:
 ---------------------------------------------------------------------
 Center     Atomic      Atomic             Coordinates (Angstroms)
 Number     Number       Type             X           Y           Z
 ---------------------------------------------------------------------
      1         11           0        0.014119    1.190413    1.856354
      2         11           0        0.946868    3.335391   -0.304686
      3         11           0       -4.544504   -1.451193   -0.177466
      4         11           0       -1.406640   -1.280403    0.575077
      5         11           0       -1.150040    0.948032   -1.508491
      6         11           0        2.028070   -0.381810   -0.164327
      7         11           0        4.112126   -2.360431   -0.276460
 ---------------------------------------------------------------------

 SCF Done:  E(UB3LYP) =  -1136.11151617     A.U. after   23 cycles

 The electronic state is 2-A.
 Alpha  occ. eigenvalues --  -38.45226 -38.45146 -38.44357 -38.43961 -38.43837
 Alpha  occ. eigenvalues --  -38.43367 -38.42707  -2.21030  -2.20997  -2.20209
 Alpha  occ. eigenvalues --   -2.19940  -2.19793  -2.19193  -2.18652  -1.14762
 Alpha  occ. eigenvalues --   -1.14694  -1.14669  -1.14658  -1.14624  -1.14608
 Alpha  occ. eigenvalues --   -1.13892  -1.13862  -1.13848  -1.13664  -1.13590
 Alpha  occ. eigenvalues --   -1.13527  -1.13500  -1.13429  -1.13378  -1.12955
 Alpha  occ. eigenvalues --   -1.12823  -1.12821  -1.12328  -1.12317  -1.12264
 Alpha  occ. eigenvalues --   -0.18690  -0.13408  -0.12217  -0.10856
 Alpha virt. eigenvalues --   -0.07415  -0.05305  -0.04206  -0.03132  -0.02756
 Alpha virt. eigenvalues --   -0.02372  -0.02056  -0.01700  -0.00942  -0.00523
 Alpha virt. eigenvalues --   -0.00229   0.00271   0.00398   0.00606   0.00691

  Beta  occ. eigenvalues --  -38.45218 -38.45101 -38.44339 -38.43880 -38.43803
  Beta  occ. eigenvalues --  -38.43354 -38.42699  -2.20982  -2.20948  -2.20178
  Beta  occ. eigenvalues --   -2.19794  -2.19738  -2.19171  -2.18642  -1.14699
  Beta  occ. eigenvalues --   -1.14659  -1.14647  -1.14636  -1.14612  -1.14545
  Beta  occ. eigenvalues --   -1.13865  -1.13842  -1.13816  -1.13565  -1.13494
  Beta  occ. eigenvalues --   -1.13462  -1.13421  -1.13383  -1.13300  -1.12941
  Beta  occ. eigenvalues --   -1.12808  -1.12804  -1.12326  -1.12271  -1.12264
  Beta  occ. eigenvalues --   -0.17950  -0.13251  -0.11910
  Beta virt. eigenvalues --   -0.07353  -0.06889  -0.05016  -0.03950  -0.02778
  Beta virt. eigenvalues --   -0.02341  -0.02034  -0.01644  -0.01434  -0.00697
  Beta virt. eigenvalues --   -0.00314  -0.00181   0.00378   0.00546   0.00713

 Mulliken charges and spin densities:
               1          2
     1  Na   0.529720   0.175530
     2  Na   0.727532   0.108824
     3  Na   0.186556   0.049428
     4  Na   0.305733   0.118109
     5  Na  -0.049253   0.351739
     6  Na  -0.987138   0.120251
     7  Na  -0.713150   0.076119
 Sum of Mulliken charges =  -0.00000   1.00000

 Dipole moment (field-independent basis, Debye):
    X=             -1.9580    Y=              1.0079    Z=              0.3709  Tot=              2.2332
 Quadrupole moment (field-independent basis, Debye-Ang):
   XX=            -56.4558   YY=            -63.3635   ZZ=            -72.2010
   XY=              5.7523   XZ=              0.9221   YZ=              0.9162

 Normal termination of Gaussian 16 at Fri Dec  8 20:13:01 2023.
