 Gaussian 16, Revision B.01,
 Gaussian 16:  ES64L-G16RevB.01 20-Dec-2017

 -------------------------
 #P B3LYP/6-311+g(d) force
 -------------------------

 -----
 DPGEN
 -----
 Symbolic Z-matrix:
 Charge =  0 Multiplicity = 2

                         Standard orientation:
 ---------------------------------------------------------------------
 Center     Atomic      Atomic             Coordinates (Angstroms)
 Number     Number       Type             X           Y           Z
 ---------------------------------------------------------------------
      1         11           0        0.576133    0.282968   -1.751133
      2         11           0        2.772485   -1.054740    0.474695
      3         11           0        0.073638   -2.624441   -0.446191
      4         11           0       -2.980172   -0.909130   -0.167218
      5         11           0       -1.716475    2.182957   -0.171342
      6         11           0       -0.574378   -0.028191    2.012856
      7         11           0        1.848769    2.150577    0.048334
 ---------------------------------------------------------------------

 SCF Done:  E(UB3LYP) =  -1136.13570289     A.U. after   19 cycles

 The electronic state is 2-A.
 Alpha  occ. eigenvalues --  -38.43938 -38.43785 -38.43734 -38.43440 -38.43419
 Alpha  occ. eigenvalues --  -38.43384 -38.43003  -2.19788  -2.19665  -2.19647
 Alpha  occ. eigenvalues --   -2.19439  -2.19351  -2.19275  -2.18899  -1.13472
 Alpha  occ. eigenvalues --   -1.13453  -1.13435  -1.13355  -1.13328  -1.13322
 Alpha  occ. eigenvalues --   -1.13315  -1.13283  -1.13279  -1.13260  -1.13098
 Alpha  occ. eigenvalues --   -1.13057  -1.12988  -1.12962  -1.12944  -1.12940
 Alpha  occ. eigenvalues --   -1.12932  -1.12887  -1.12589  -1.12555  -1.12522
 Alpha  occ. eigenvalues --   -0.19105  -0.13296  -0.12451  -0.11082
 Alpha virt. eigenvalues --   -0.05507  -0.05110  -0.04305  -0.03549  -0.02999
 Alpha virt. eigenvalues --   -0.02672  -0.01387  -0.00911  -0.00107  -0.00048
 Alpha virt. eigenvalues --    0.00040   0.00378   0.00841   0.00929   0.00964

  Beta  occ. eigenvalues --  -38.43936 -38.43775 -38.43651 -38.43434 -38.43376
  Beta  occ. eigenvalues --  -38.43349 -38.42991  -2.19787  -2.19648  -2.19495
  Beta  occ. eigenvalues --   -2.19352  -2.19304  -2.19266  -2.18880  -1.13464
  Beta  occ. eigenvalues --   -1.13448  -1.13424  -1.13340  -1.13319  -1.13284
  Beta  occ. eigenvalues --   -1.13238  -1.13218  -1.13175  -1.13152  -1.13021
  Beta  occ. eigenvalues --   -1.12992  -1.12961  -1.12948  -1.12926  -1.12902
  Beta  occ. eigenvalues --   -1.12879  -1.12877  -1.12573  -1.12519  -1.12513
  Beta  occ. eigenvalues --   -0.18355  -0.13081  -0.12186
  Beta virt. eigenvalues --   -0.07153  -0.05408  -0.05103  -0.04279  -0.02752
  Beta virt. eigenvalues --   -0.02209  -0.01629  -0.01290  -0.00861  -0.00090
  Beta virt. eigenvalues --   -0.00059   0.00116   0.00403   0.00909   0.00923

 Mulliken charges and spin densities:
               1          2
     1  Na  -0.344131   0.468189
     2  Na   0.051781   0.078114
     3  Na   0.178986  -0.035801
     4  Na   0.118065  -0.059999
     5  Na   0.249552  -0.104231
     6  Na  -0.627437   0.658229
     7  Na   0.373183  -0.004501
 Sum of Mulliken charges =  -0.00000   1.00000

 Dipole moment (field-independent basis, Debye):
    X=             -0.1553    Y=              0.0036    Z=              0.2320  Tot=              0.2792
 Quadrupole moment (field-independent basis, Debye-Ang):
   XX=            -57.0260   YY=            -65.9920   ZZ=            -71.8151
   XY=              0.2333   XZ=              2.5118   YZ=              0.4903

 Normal termination of Gaussian 16 at Tue Dec  5 19:32:11 2023.
