 Gaussian 16, Revision B.01,
 Gaussian 16:  ES64L-G16RevB.01 20-Dec-2017

 -------------------------
 #P B3LYP/6-311+g(d) force
 -------------------------

 -----
 DPGEN
 -----
 Symbolic Z-matrix:
 Charge =  0 Multiplicity = 2

                         Standard orientation:
 ---------------------------------------------------------------------
 Center     Atomic      Atomic             Coordinates (Angstroms)
 Number     Number       Type             X           Y           Z
 ---------------------------------------------------------------------
      1         11           0       -1.862372   -1.453732   -1.460360
      2         11           0       -5.132420   -0.344129    0.275038
      3         11           0       -3.566094    2.025322   -0.904932
      4         11           0       -2.238670    0.199032    1.704355
      5         11           0        0.808495   -0.680296    0.518244
      6         11           0        4.472524   -0.602836    0.047166
      7         11           0        7.518537    0.856638   -0.179510
 ---------------------------------------------------------------------

 SCF Done:  E(UB3LYP) =  -1136.10738135     A.U. after   30 cycles

 The electronic state is 2-A.
 Alpha  occ. eigenvalues --  -38.46388 -38.45393 -38.44174 -38.43871 -38.43780
 Alpha  occ. eigenvalues --  -38.43730 -38.42995  -2.22214  -2.21254  -2.19922
 Alpha  occ. eigenvalues --   -2.19795  -2.19640  -2.19499  -2.18820  -1.15893
 Alpha  occ. eigenvalues --   -1.15874  -1.15853  -1.14938  -1.14906  -1.14884
 Alpha  occ. eigenvalues --   -1.13589  -1.13589  -1.13560  -1.13493  -1.13451
 Alpha  occ. eigenvalues --   -1.13387  -1.13317  -1.13284  -1.13240  -1.13175
 Alpha  occ. eigenvalues --   -1.13174  -1.13116  -1.12495  -1.12490  -1.12465
 Alpha  occ. eigenvalues --   -0.17938  -0.13468  -0.11741  -0.10546
 Alpha virt. eigenvalues --   -0.07500  -0.06777  -0.03802  -0.03396  -0.02858
 Alpha virt. eigenvalues --   -0.02578  -0.01880  -0.01694  -0.01451  -0.01338
 Alpha virt. eigenvalues --   -0.01006   0.00031   0.00085   0.00269   0.00370

  Beta  occ. eigenvalues --  -38.46381 -38.45381 -38.44179 -38.43798 -38.43728
  Beta  occ. eigenvalues --  -38.43695 -38.42994  -2.22205  -2.21238  -2.19932
  Beta  occ. eigenvalues --   -2.19661  -2.19494  -2.19483  -2.18820  -1.15890
  Beta  occ. eigenvalues --   -1.15869  -1.15814  -1.14928  -1.14900  -1.14834
  Beta  occ. eigenvalues --   -1.13597  -1.13596  -1.13567  -1.13401  -1.13360
  Beta  occ. eigenvalues --   -1.13283  -1.13211  -1.13181  -1.13171  -1.13171
  Beta  occ. eigenvalues --   -1.13122  -1.13117  -1.12498  -1.12473  -1.12465
  Beta  occ. eigenvalues --   -0.17165  -0.13409  -0.11601
  Beta virt. eigenvalues --   -0.07338  -0.06766  -0.06455  -0.03689  -0.02810
  Beta virt. eigenvalues --   -0.02692  -0.02102  -0.01658  -0.01520  -0.01113
  Beta virt. eigenvalues --   -0.00967  -0.00686   0.00059   0.00295   0.00319

 Mulliken charges and spin densities:
               1          2
     1  Na   0.128084   0.554441
     2  Na   0.422923   0.038379
     3  Na   0.139583   0.099727
     4  Na   1.137280   0.763798
     5  Na  -1.041788  -0.344495
     6  Na  -0.950781  -0.091689
     7  Na   0.164700  -0.020162
 Sum of Mulliken charges =  -0.00000   1.00000

 Dipole moment (field-independent basis, Debye):
    X=             -2.8115    Y=              1.1312    Z=             -0.4979  Tot=              3.0712
 Quadrupole moment (field-independent basis, Debye-Ang):
   XX=            -54.3093   YY=            -63.9199   ZZ=            -76.1983
   XY=              5.3846   XZ=             -1.3060   YZ=             -6.4509

 Normal termination of Gaussian 16 at Fri Dec  8 19:08:51 2023.
