 Gaussian 16, Revision B.01,
 Gaussian 16:  ES64L-G16RevB.01 20-Dec-2017

 -------------------------
 #P B3LYP/6-311+g(d) force
 -------------------------

 -----
 DPGEN
 -----
 Symbolic Z-matrix:
 Charge =  0 Multiplicity = 2

                         Standard orientation:
 ---------------------------------------------------------------------
 Center     Atomic      Atomic             Coordinates (Angstroms)
 Number     Number       Type             X           Y           Z
 ---------------------------------------------------------------------
      1         11           0        1.523019   -1.656276    1.153886
      2         11           0       -2.851126   -1.758446   -0.737709
      3         11           0        0.305198   -0.105470   -1.317624
      4         11           0       -1.508394    0.151813    2.027163
      5         11           0       -2.857636    1.487972   -0.883837
      6         11           0        1.271360    2.009851    0.678275
      7         11           0        4.117580   -0.129443   -0.920155
 ---------------------------------------------------------------------

 SCF Done:  E(UB3LYP) =  -1136.12005711     A.U. after   31 cycles

 The electronic state is 2-A.
 Alpha  occ. eigenvalues --  -38.44736 -38.44651 -38.44520 -38.44330 -38.43326
 Alpha  occ. eigenvalues --  -38.43213 -38.42992  -2.20588  -2.20424  -2.20391
 Alpha  occ. eigenvalues --   -2.20268  -2.19165  -2.19086  -2.18868  -1.14268
 Alpha  occ. eigenvalues --   -1.14244  -1.14193  -1.14151  -1.14101  -1.14090
 Alpha  occ. eigenvalues --   -1.14048  -1.14016  -1.13987  -1.13973  -1.13950
 Alpha  occ. eigenvalues --   -1.13844  -1.12835  -1.12823  -1.12817  -1.12766
 Alpha  occ. eigenvalues --   -1.12744  -1.12708  -1.12599  -1.12509  -1.12456
 Alpha  occ. eigenvalues --   -0.18514  -0.14071  -0.11422  -0.10489
 Alpha virt. eigenvalues --   -0.06821  -0.05481  -0.04513  -0.03044  -0.02742
 Alpha virt. eigenvalues --   -0.02456  -0.02187  -0.01199  -0.00870  -0.00307
 Alpha virt. eigenvalues --    0.00126   0.00173   0.00391   0.00529   0.00665

  Beta  occ. eigenvalues --  -38.44698 -38.44644 -38.44456 -38.44306 -38.43322
  Beta  occ. eigenvalues --  -38.43184 -38.42972  -2.20518  -2.20410  -2.20275
  Beta  occ. eigenvalues --   -2.20229  -2.19160  -2.19037  -2.18833  -1.14215
  Beta  occ. eigenvalues --   -1.14200  -1.14143  -1.14091  -1.14081  -1.14077
  Beta  occ. eigenvalues --   -1.14036  -1.13948  -1.13923  -1.13902  -1.13883
  Beta  occ. eigenvalues --   -1.13820  -1.12833  -1.12820  -1.12797  -1.12724
  Beta  occ. eigenvalues --   -1.12700  -1.12674  -1.12573  -1.12474  -1.12431
  Beta  occ. eigenvalues --   -0.17751  -0.13874  -0.10340
  Beta virt. eigenvalues --   -0.07574  -0.06598  -0.04883  -0.04335  -0.02662
  Beta virt. eigenvalues --   -0.02592  -0.01876  -0.01690  -0.00795  -0.00687
  Beta virt. eigenvalues --   -0.00194   0.00157   0.00300   0.00415   0.00657

 Mulliken charges and spin densities:
               1          2
     1  Na  -0.160056   0.213216
     2  Na   0.002823   0.067683
     3  Na  -0.423568   0.407555
     4  Na   0.231576   0.223817
     5  Na   0.343913   0.045621
     6  Na  -0.309296  -0.008267
     7  Na   0.314608   0.050374
 Sum of Mulliken charges =  -0.00000   1.00000

 Dipole moment (field-independent basis, Debye):
    X=              0.4404    Y=              0.4686    Z=              0.3239  Tot=              0.7201
 Quadrupole moment (field-independent basis, Debye-Ang):
   XX=            -52.1867   YY=            -69.1322   ZZ=            -73.5250
   XY=             -1.0336   XZ=             -1.3702   YZ=             -6.5675

 Normal termination of Gaussian 16 at Thu Dec  7 11:29:22 2023.
