 Gaussian 16, Revision B.01,
 Gaussian 16:  ES64L-G16RevB.01 20-Dec-2017

 -------------------------
 #P B3LYP/6-311+g(d) force
 -------------------------

 -----
 DPGEN
 -----
 Symbolic Z-matrix:
 Charge =  0 Multiplicity = 2

                         Standard orientation:
 ---------------------------------------------------------------------
 Center     Atomic      Atomic             Coordinates (Angstroms)
 Number     Number       Type             X           Y           Z
 ---------------------------------------------------------------------
      1         11           0        3.731453   -0.015513   -0.831305
      2         11           0       -3.907196   -0.413369   -1.876019
      3         11           0        2.138354   -2.726497   -0.640729
      4         11           0        0.709872   -0.192773    1.758416
      5         11           0       -2.526864   -0.722646    2.368433
      6         11           0       -1.616962    1.102784   -0.979322
      7         11           0        1.471343    2.968014    0.200526
 ---------------------------------------------------------------------

 SCF Done:  E(UB3LYP) =  -1136.11362728     A.U. after   26 cycles

 The electronic state is 2-A.
 Alpha  occ. eigenvalues --  -38.45699 -38.44678 -38.44629 -38.44524 -38.44167
 Alpha  occ. eigenvalues --  -38.42984 -38.42416  -2.21498  -2.20485  -2.20474
 Alpha  occ. eigenvalues --   -2.20368  -2.20041  -2.18794  -2.18219  -1.15165
 Alpha  occ. eigenvalues --   -1.15142  -1.15095  -1.14178  -1.14167  -1.14153
 Alpha  occ. eigenvalues --   -1.14144  -1.14116  -1.14103  -1.14099  -1.13991
 Alpha  occ. eigenvalues --   -1.13966  -1.13714  -1.13690  -1.13626  -1.12463
 Alpha  occ. eigenvalues --   -1.12452  -1.12443  -1.11890  -1.11877  -1.11861
 Alpha  occ. eigenvalues --   -0.17051  -0.13853  -0.12382  -0.10999
 Alpha virt. eigenvalues --   -0.06289  -0.05232  -0.04133  -0.03795  -0.03371
 Alpha virt. eigenvalues --   -0.02427  -0.02159  -0.01397  -0.00865  -0.00430
 Alpha virt. eigenvalues --   -0.00058   0.00018   0.00218   0.00416   0.00561

  Beta  occ. eigenvalues --  -38.45612 -38.44667 -38.44585 -38.44468 -38.44137
  Beta  occ. eigenvalues --  -38.42987 -38.42407  -2.21340  -2.20463  -2.20398
  Beta  occ. eigenvalues --   -2.20265  -2.19990  -2.18801  -2.18202  -1.15043
  Beta  occ. eigenvalues --   -1.15037  -1.14986  -1.14153  -1.14133  -1.14129
  Beta  occ. eigenvalues --   -1.14090  -1.14076  -1.14054  -1.14022  -1.13922
  Beta  occ. eigenvalues --   -1.13900  -1.13682  -1.13648  -1.13576  -1.12465
  Beta  occ. eigenvalues --   -1.12456  -1.12448  -1.11876  -1.11865  -1.11853
  Beta  occ. eigenvalues --   -0.16356  -0.13406  -0.10879
  Beta virt. eigenvalues --   -0.08382  -0.05973  -0.04892  -0.04017  -0.03535
  Beta virt. eigenvalues --   -0.02564  -0.02084  -0.01962  -0.00910  -0.00734
  Beta virt. eigenvalues --   -0.00387   0.00098   0.00159   0.00450   0.00469

 Mulliken charges and spin densities:
               1          2
     1  Na   0.285276   0.081882
     2  Na   1.068762  -0.070589
     3  Na  -0.130475  -0.089051
     4  Na   0.135402   0.388447
     5  Na  -0.116957   0.178953
     6  Na  -1.768277   0.452789
     7  Na   0.526269   0.057570
 Sum of Mulliken charges =  -0.00000   1.00000

 Dipole moment (field-independent basis, Debye):
    X=             -1.1347    Y=             -0.3950    Z=              0.3500  Tot=              1.2515
 Quadrupole moment (field-independent basis, Debye-Ang):
   XX=            -57.4626   YY=            -74.1855   ZZ=            -65.6478
   XY=              8.1138   XZ=             -3.3101   YZ=             -2.1540

 Normal termination of Gaussian 16 at Mon Dec  4 03:48:15 2023.
