 Gaussian 16, Revision B.01,
 Gaussian 16:  ES64L-G16RevB.01 20-Dec-2017

 -------------------------
 #P B3LYP/6-311+g(d) force
 -------------------------

 -----
 DPGEN
 -----
 Symbolic Z-matrix:
 Charge =  0 Multiplicity = 2

                         Standard orientation:
 ---------------------------------------------------------------------
 Center     Atomic      Atomic             Coordinates (Angstroms)
 Number     Number       Type             X           Y           Z
 ---------------------------------------------------------------------
      1         11           0       -2.775716    0.503538    0.855993
      2         11           0       -2.237733   -2.604502   -0.852806
      3         11           0        2.474993   -1.814082    1.024298
      4         11           0        0.261714    0.759950    1.890070
      5         11           0        2.946448    0.490617   -1.047804
      6         11           0       -0.122383   -0.298382   -1.172413
      7         11           0       -0.547323    2.962861   -0.697338
 ---------------------------------------------------------------------

 SCF Done:  E(UB3LYP) =  -1136.12882516     A.U. after   20 cycles

 The electronic state is 2-A.
 Alpha  occ. eigenvalues --  -38.44308 -38.44126 -38.44079 -38.43778 -38.43383
 Alpha  occ. eigenvalues --  -38.42960 -38.42838  -2.20178  -2.19995  -2.19929
 Alpha  occ. eigenvalues --   -2.19712  -2.19222  -2.18887  -2.18783  -1.13881
 Alpha  occ. eigenvalues --   -1.13846  -1.13803  -1.13720  -1.13662  -1.13594
 Alpha  occ. eigenvalues --   -1.13588  -1.13565  -1.13558  -1.13410  -1.13349
 Alpha  occ. eigenvalues --   -1.13303  -1.12917  -1.12877  -1.12846  -1.12593
 Alpha  occ. eigenvalues --   -1.12590  -1.12517  -1.12432  -1.12421  -1.12398
 Alpha  occ. eigenvalues --   -0.18555  -0.13445  -0.11789  -0.11186
 Alpha virt. eigenvalues --   -0.05588  -0.05124  -0.04687  -0.03325  -0.02806
 Alpha virt. eigenvalues --   -0.02476  -0.01622  -0.01177  -0.00476   0.00071
 Alpha virt. eigenvalues --    0.00126   0.00338   0.00604   0.00779   0.00839

  Beta  occ. eigenvalues --  -38.44287 -38.44111 -38.44055 -38.43705 -38.43373
  Beta  occ. eigenvalues --  -38.42950 -38.42793  -2.20140  -2.19970  -2.19885
  Beta  occ. eigenvalues --   -2.19580  -2.19205  -2.18809  -2.18765  -1.13855
  Beta  occ. eigenvalues --   -1.13802  -1.13780  -1.13688  -1.13639  -1.13573
  Beta  occ. eigenvalues --   -1.13550  -1.13535  -1.13525  -1.13327  -1.13251
  Beta  occ. eigenvalues --   -1.13204  -1.12898  -1.12868  -1.12823  -1.12548
  Beta  occ. eigenvalues --   -1.12518  -1.12470  -1.12413  -1.12407  -1.12370
  Beta  occ. eigenvalues --   -0.17841  -0.13233  -0.11532
  Beta virt. eigenvalues --   -0.07336  -0.05448  -0.04746  -0.04508  -0.02873
  Beta virt. eigenvalues --   -0.02253  -0.01678  -0.01505  -0.00998  -0.00266
  Beta virt. eigenvalues --    0.00117   0.00198   0.00390   0.00770   0.00852

 Mulliken charges and spin densities:
               1          2
     1  Na   0.169632   0.068091
     2  Na   0.106158  -0.022015
     3  Na   0.035111   0.177238
     4  Na  -0.051971   0.458462
     5  Na  -0.027362  -0.039667
     6  Na   0.098689   0.381351
     7  Na  -0.330257  -0.023460
 Sum of Mulliken charges =  -0.00000   1.00000

 Dipole moment (field-independent basis, Debye):
    X=              0.5196    Y=              0.3779    Z=              0.3647  Tot=              0.7387
 Quadrupole moment (field-independent basis, Debye-Ang):
   XX=            -57.6279   YY=            -64.6477   ZZ=            -70.6377
   XY=             -2.2531   XZ=             -2.2556   YZ=             -3.0755

 Normal termination of Gaussian 16 at Tue Nov 28 22:36:12 2023.
