 Gaussian 16, Revision B.01,
 Gaussian 16:  ES64L-G16RevB.01 20-Dec-2017

 -------------------------
 #P B3LYP/6-311+g(d) force
 -------------------------

 -----
 DPGEN
 -----
 Symbolic Z-matrix:
 Charge =  0 Multiplicity = 2

                         Standard orientation:
 ---------------------------------------------------------------------
 Center     Atomic      Atomic             Coordinates (Angstroms)
 Number     Number       Type             X           Y           Z
 ---------------------------------------------------------------------
      1         11           0       -0.993708    3.510641   -0.189803
      2         11           0       -1.829979    0.477192    2.234298
      3         11           0        0.926049   -1.768502   -0.359744
      4         11           0       -2.385522   -2.957567   -0.058819
      5         11           0       -1.839387    0.103345   -1.690623
      6         11           0        4.083318   -1.056907    0.416471
      7         11           0        2.039229    1.691798   -0.351779
 ---------------------------------------------------------------------

 SCF Done:  E(UB3LYP) =  -1136.12918707     A.U. after   19 cycles

 The electronic state is 2-A.
 Alpha  occ. eigenvalues --  -38.44339 -38.44320 -38.44205 -38.43993 -38.43954
 Alpha  occ. eigenvalues --  -38.43845 -38.43645  -2.20138  -2.20109  -2.20029
 Alpha  occ. eigenvalues --   -2.19789  -2.19762  -2.19693  -2.19425  -1.13839
 Alpha  occ. eigenvalues --   -1.13833  -1.13791  -1.13764  -1.13755  -1.13735
 Alpha  occ. eigenvalues --   -1.13727  -1.13692  -1.13616  -1.13447  -1.13444
 Alpha  occ. eigenvalues --   -1.13422  -1.13418  -1.13406  -1.13399  -1.13394
 Alpha  occ. eigenvalues --   -1.13387  -1.13263  -1.13101  -1.13085  -1.13068
 Alpha  occ. eigenvalues --   -0.17224  -0.13278  -0.12504  -0.10356
 Alpha virt. eigenvalues --   -0.05946  -0.05709  -0.05216  -0.03118  -0.02998
 Alpha virt. eigenvalues --   -0.02314  -0.01951  -0.01652  -0.00987  -0.00485
 Alpha virt. eigenvalues --   -0.00156   0.00197   0.00413   0.00641   0.00692

  Beta  occ. eigenvalues --  -38.44335 -38.44323 -38.44160 -38.43951 -38.43878
  Beta  occ. eigenvalues --  -38.43838 -38.43647  -2.20130  -2.20116  -2.19947
  Beta  occ. eigenvalues --   -2.19756  -2.19682  -2.19574  -2.19431  -1.13833
  Beta  occ. eigenvalues --   -1.13822  -1.13797  -1.13759  -1.13749  -1.13730
  Beta  occ. eigenvalues --   -1.13668  -1.13631  -1.13558  -1.13439  -1.13416
  Beta  occ. eigenvalues --   -1.13399  -1.13393  -1.13368  -1.13300  -1.13273
  Beta  occ. eigenvalues --   -1.13256  -1.13244  -1.13107  -1.13074  -1.13071
  Beta  occ. eigenvalues --   -0.16675  -0.13055  -0.12359
  Beta virt. eigenvalues --   -0.06450  -0.05800  -0.05521  -0.05163  -0.02617
  Beta virt. eigenvalues --   -0.02348  -0.01899  -0.01576  -0.01520  -0.00983
  Beta virt. eigenvalues --   -0.00331   0.00165   0.00279   0.00601   0.00719

 Mulliken charges and spin densities:
               1          2
     1  Na   0.184506   0.017826
     2  Na  -0.265210   0.648223
     3  Na  -1.124504   0.050692
     4  Na   0.570354  -0.023859
     5  Na   0.134262   0.271365
     6  Na   0.911959   0.025695
     7  Na  -0.411367   0.010058
 Sum of Mulliken charges =  -0.00000   1.00000

 Dipole moment (field-independent basis, Debye):
    X=              0.3677    Y=             -0.4942    Z=             -0.3005  Tot=              0.6854
 Quadrupole moment (field-independent basis, Debye-Ang):
   XX=            -57.8650   YY=            -60.2281   ZZ=            -76.1220
   XY=              1.9566   XZ=              3.6597   YZ=             -1.7362

 Normal termination of Gaussian 16 at Mon Dec  4 03:12:33 2023.
