 Gaussian 16, Revision B.01,
 Gaussian 16:  ES64L-G16RevB.01 20-Dec-2017

 -------------------------
 #P B3LYP/6-311+g(d) force
 -------------------------

 -----
 DPGEN
 -----
 Symbolic Z-matrix:
 Charge =  0 Multiplicity = 2

                         Standard orientation:
 ---------------------------------------------------------------------
 Center     Atomic      Atomic             Coordinates (Angstroms)
 Number     Number       Type             X           Y           Z
 ---------------------------------------------------------------------
      1         11           0        2.817247   -1.842735   -0.137526
      2         11           0        0.415720   -0.284497    2.007397
      3         11           0       -0.335368    2.675581   -0.369248
      4         11           0       -0.149530   -0.778124   -1.964905
      5         11           0       -2.213777   -1.947042    0.226369
      6         11           0       -3.188719    0.684195    0.170303
      7         11           0        2.654426    1.492622    0.067609
 ---------------------------------------------------------------------

 SCF Done:  E(UB3LYP) =  -1136.12633030     A.U. after   21 cycles

 The electronic state is 2-A.
 Alpha  occ. eigenvalues --  -38.44854 -38.44194 -38.44108 -38.44063 -38.43984
 Alpha  occ. eigenvalues --  -38.43946 -38.42530  -2.20723  -2.20057  -2.19926
 Alpha  occ. eigenvalues --   -2.19922  -2.19863  -2.19853  -2.18376  -1.14511
 Alpha  occ. eigenvalues --   -1.14357  -1.14346  -1.13732  -1.13707  -1.13683
 Alpha  occ. eigenvalues --   -1.13625  -1.13595  -1.13592  -1.13584  -1.13582
 Alpha  occ. eigenvalues --   -1.13570  -1.13528  -1.13528  -1.13501  -1.13482
 Alpha  occ. eigenvalues --   -1.13464  -1.13443  -1.12052  -1.12034  -1.12028
 Alpha  occ. eigenvalues --   -0.18489  -0.13888  -0.11761  -0.11011
 Alpha virt. eigenvalues --   -0.06350  -0.05584  -0.04006  -0.03741  -0.02927
 Alpha virt. eigenvalues --   -0.02604  -0.01943  -0.01141  -0.00423  -0.00106
 Alpha virt. eigenvalues --   -0.00031   0.00320   0.00578   0.00653   0.00807

  Beta  occ. eigenvalues --  -38.44851 -38.44115 -38.44108 -38.44061 -38.43937
  Beta  occ. eigenvalues --  -38.43900 -38.42525  -2.20721  -2.19927  -2.19924
  Beta  occ. eigenvalues --   -2.19911  -2.19852  -2.19698  -2.18368  -1.14513
  Beta  occ. eigenvalues --   -1.14348  -1.14334  -1.13651  -1.13629  -1.13617
  Beta  occ. eigenvalues --   -1.13594  -1.13583  -1.13568  -1.13559  -1.13550
  Beta  occ. eigenvalues --   -1.13538  -1.13532  -1.13516  -1.13455  -1.13402
  Beta  occ. eigenvalues --   -1.13367  -1.13348  -1.12047  -1.12028  -1.12009
  Beta  occ. eigenvalues --   -0.17752  -0.13696  -0.11545
  Beta virt. eigenvalues --   -0.07142  -0.06194  -0.05585  -0.03818  -0.03044
  Beta virt. eigenvalues --   -0.02075  -0.01866  -0.01703  -0.01068  -0.00492
  Beta virt. eigenvalues --   -0.00065   0.00093   0.00349   0.00757   0.00804

 Mulliken charges and spin densities:
               1          2
     1  Na   0.157493  -0.024777
     2  Na  -0.089237   0.340305
     3  Na  -0.131290   0.035101
     4  Na  -0.250628   0.446494
     5  Na   0.549284   0.167303
     6  Na  -0.233394  -0.006093
     7  Na  -0.002228   0.041665
 Sum of Mulliken charges =  -0.00000   1.00000

 Dipole moment (field-independent basis, Debye):
    X=              0.0993    Y=             -0.3799    Z=              0.1138  Tot=              0.4088
 Quadrupole moment (field-independent basis, Debye-Ang):
   XX=            -53.1376   YY=            -70.6253   ZZ=            -72.6234
   XY=             -1.1882   XZ=             -0.8576   YZ=             -0.4167

 Normal termination of Gaussian 16 at Tue Dec  5 15:25:08 2023.
