 Gaussian 16, Revision B.01,
 Gaussian 16:  ES64L-G16RevB.01 20-Dec-2017

 -------------------------
 #P B3LYP/6-311+g(d) force
 -------------------------

 -----
 DPGEN
 -----
 Symbolic Z-matrix:
 Charge =  0 Multiplicity = 2

                         Standard orientation:
 ---------------------------------------------------------------------
 Center     Atomic      Atomic             Coordinates (Angstroms)
 Number     Number       Type             X           Y           Z
 ---------------------------------------------------------------------
      1         11           0       -0.898089    2.560591    0.597744
      2         11           0        0.462949   -0.226195    1.964264
      3         11           0       -1.185030   -2.614551    0.578838
      4         11           0        2.471184   -1.751340   -0.513909
      5         11           0       -3.290448    0.270847   -0.717764
      6         11           0        2.366169    1.917277   -0.278474
      7         11           0        0.073264   -0.156630   -1.630699
 ---------------------------------------------------------------------

 SCF Done:  E(UB3LYP) =  -1136.13722060     A.U. after   19 cycles

 The electronic state is 2-A.
 Alpha  occ. eigenvalues --  -38.43824 -38.43787 -38.43625 -38.43622 -38.43599
 Alpha  occ. eigenvalues --  -38.43359 -38.43216  -2.19651  -2.19628  -2.19563
 Alpha  occ. eigenvalues --   -2.19477  -2.19440  -2.19343  -2.19074  -1.13390
 Alpha  occ. eigenvalues --   -1.13314  -1.13304  -1.13277  -1.13269  -1.13264
 Alpha  occ. eigenvalues --   -1.13255  -1.13215  -1.13187  -1.13172  -1.13134
 Alpha  occ. eigenvalues --   -1.13108  -1.13101  -1.13095  -1.13050  -1.13015
 Alpha  occ. eigenvalues --   -1.12972  -1.12953  -1.12763  -1.12736  -1.12694
 Alpha  occ. eigenvalues --   -0.18690  -0.12847  -0.12437  -0.11149
 Alpha virt. eigenvalues --   -0.05380  -0.05170  -0.04499  -0.03208  -0.03119
 Alpha virt. eigenvalues --   -0.02712  -0.01478  -0.01129  -0.00379   0.00012
 Alpha virt. eigenvalues --    0.00047   0.00346   0.00826   0.00843   0.00898

  Beta  occ. eigenvalues --  -38.43809 -38.43773 -38.43622 -38.43584 -38.43533
  Beta  occ. eigenvalues --  -38.43300 -38.43205  -2.19630  -2.19601  -2.19474
  Beta  occ. eigenvalues --   -2.19416  -2.19398  -2.19236  -2.19058  -1.13363
  Beta  occ. eigenvalues --   -1.13290  -1.13275  -1.13262  -1.13251  -1.13241
  Beta  occ. eigenvalues --   -1.13176  -1.13166  -1.13138  -1.13103  -1.13094
  Beta  occ. eigenvalues --   -1.13079  -1.13069  -1.13045  -1.13013  -1.12943
  Beta  occ. eigenvalues --   -1.12903  -1.12871  -1.12744  -1.12718  -1.12679
  Beta  occ. eigenvalues --   -0.17979  -0.12540  -0.12172
  Beta virt. eigenvalues --   -0.07269  -0.05298  -0.05118  -0.04412  -0.02561
  Beta virt. eigenvalues --   -0.02358  -0.01688  -0.01345  -0.01077  -0.00302
  Beta virt. eigenvalues --   -0.00004   0.00123   0.00387   0.00849   0.00904

 Mulliken charges and spin densities:
               1          2
     1  Na  -0.071409   0.075924
     2  Na   0.119411   0.483589
     3  Na  -0.051045   0.026962
     4  Na   0.064178  -0.053832
     5  Na  -0.000363   0.026053
     6  Na   0.007727  -0.038408
     7  Na  -0.068498   0.479711
 Sum of Mulliken charges =  -0.00000   1.00000

 Dipole moment (field-independent basis, Debye):
    X=              0.1864    Y=             -0.1609    Z=              0.0289  Tot=              0.2479
 Quadrupole moment (field-independent basis, Debye-Ang):
   XX=            -57.3055   YY=            -64.0125   ZZ=            -72.2557
   XY=              0.3104   XZ=             -0.3130   YZ=              0.0392

 Normal termination of Gaussian 16 at Mon Dec  4 04:36:07 2023.
