 Gaussian 16, Revision B.01,
 Gaussian 16:  ES64L-G16RevB.01 20-Dec-2017

 -------------------------
 #P B3LYP/6-311+g(d) force
 -------------------------

 -----
 DPGEN
 -----
 Symbolic Z-matrix:
 Charge =  0 Multiplicity = 2

                         Standard orientation:
 ---------------------------------------------------------------------
 Center     Atomic      Atomic             Coordinates (Angstroms)
 Number     Number       Type             X           Y           Z
 ---------------------------------------------------------------------
      1         11           0        1.773072    2.549588   -0.468146
      2         11           0       -0.744857   -0.523265    2.360813
      3         11           0        2.519987   -1.625532   -1.799654
      4         11           0       -0.737768   -0.967560   -1.491122
      5         11           0       -3.854311   -1.122232   -0.092682
      6         11           0        2.754588   -0.663766    1.840103
      7         11           0       -1.710712    2.352767   -0.349312
 ---------------------------------------------------------------------

 SCF Done:  E(UB3LYP) =  -1136.12002246     A.U. after   24 cycles

 The electronic state is 2-A.
 Alpha  occ. eigenvalues --  -38.45589 -38.44815 -38.44513 -38.44235 -38.44193
 Alpha  occ. eigenvalues --  -38.43233 -38.43119  -2.21378  -2.20592  -2.20287
 Alpha  occ. eigenvalues --   -2.20086  -2.19995  -2.19000  -2.18916  -1.15047
 Alpha  occ. eigenvalues --   -1.15025  -1.14981  -1.14266  -1.14247  -1.14218
 Alpha  occ. eigenvalues --   -1.13969  -1.13949  -1.13923  -1.13771  -1.13744
 Alpha  occ. eigenvalues --   -1.13738  -1.13643  -1.13637  -1.13608  -1.12681
 Alpha  occ. eigenvalues --   -1.12662  -1.12643  -1.12611  -1.12589  -1.12520
 Alpha  occ. eigenvalues --   -0.17330  -0.13203  -0.12218  -0.11089
 Alpha virt. eigenvalues --   -0.06369  -0.05284  -0.05087  -0.03666  -0.02909
 Alpha virt. eigenvalues --   -0.02579  -0.02157  -0.01213  -0.00874  -0.00352
 Alpha virt. eigenvalues --   -0.00110   0.00132   0.00264   0.00444   0.00658

  Beta  occ. eigenvalues --  -38.45503 -38.44781 -38.44520 -38.44190 -38.44144
  Beta  occ. eigenvalues --  -38.43228 -38.43120  -2.21221  -2.20532  -2.20299
  Beta  occ. eigenvalues --   -2.20006  -2.19906  -2.18991  -2.18919  -1.14944
  Beta  occ. eigenvalues --   -1.14920  -1.14854  -1.14213  -1.14208  -1.14173
  Beta  occ. eigenvalues --   -1.13974  -1.13957  -1.13930  -1.13719  -1.13686
  Beta  occ. eigenvalues --   -1.13667  -1.13579  -1.13571  -1.13553  -1.12667
  Beta  occ. eigenvalues --   -1.12657  -1.12641  -1.12607  -1.12592  -1.12523
  Beta  occ. eigenvalues --   -0.16599  -0.13064  -0.10896
  Beta virt. eigenvalues --   -0.08159  -0.06083  -0.05085  -0.04655  -0.03138
  Beta virt. eigenvalues --   -0.02434  -0.02093  -0.02022  -0.00845  -0.00705
  Beta virt. eigenvalues --   -0.00266   0.00079   0.00196   0.00311   0.00546

 Mulliken charges and spin densities:
               1          2
     1  Na  -0.245942   0.075797
     2  Na  -0.044137   0.343251
     3  Na   0.315957   0.028650
     4  Na  -1.037756   0.437221
     5  Na   0.843841  -0.008165
     6  Na   0.030202   0.198136
     7  Na   0.137835  -0.074889
 Sum of Mulliken charges =  -0.00000   1.00000

 Dipole moment (field-independent basis, Debye):
    X=             -0.4052    Y=             -0.6835    Z=              0.6435  Tot=              1.0225
 Quadrupole moment (field-independent basis, Debye-Ang):
   XX=            -50.9888   YY=            -79.4830   ZZ=            -66.3361
   XY=              0.5416   XZ=             -0.7218   YZ=              0.8137

 Normal termination of Gaussian 16 at Sun Dec  3 21:21:57 2023.
