 Gaussian 16, Revision B.01,
 Gaussian 16:  ES64L-G16RevB.01 20-Dec-2017

 -------------------------
 #P B3LYP/6-311+g(d) force
 -------------------------

 -----
 DPGEN
 -----
 Symbolic Z-matrix:
 Charge =  0 Multiplicity = 2

                         Standard orientation:
 ---------------------------------------------------------------------
 Center     Atomic      Atomic             Coordinates (Angstroms)
 Number     Number       Type             X           Y           Z
 ---------------------------------------------------------------------
      1         11           0        0.240102   -2.276620    1.172463
      2         11           0       -3.224901   -0.754689   -0.826450
      3         11           0        0.951041    2.981316   -0.980192
      4         11           0       -1.871267    1.221110    1.456573
      5         11           0       -0.558042   -0.340749   -1.287717
      6         11           0        1.860559    0.628910    1.642290
      7         11           0        2.602508   -1.459279   -1.176968
 ---------------------------------------------------------------------

 SCF Done:  E(UB3LYP) =  -1136.12624472     A.U. after   20 cycles

 The electronic state is 2-A.
 Alpha  occ. eigenvalues --  -38.44114 -38.44046 -38.43976 -38.43725 -38.43684
 Alpha  occ. eigenvalues --  -38.43359 -38.43173  -2.19957  -2.19885  -2.19875
 Alpha  occ. eigenvalues --   -2.19587  -2.19566  -2.19234  -2.19142  -1.13750
 Alpha  occ. eigenvalues --   -1.13645  -1.13623  -1.13583  -1.13568  -1.13530
 Alpha  occ. eigenvalues --   -1.13513  -1.13471  -1.13468  -1.13311  -1.13259
 Alpha  occ. eigenvalues --   -1.13239  -1.13226  -1.13191  -1.13160  -1.12895
 Alpha  occ. eigenvalues --   -1.12860  -1.12833  -1.12805  -1.12793  -1.12771
 Alpha  occ. eigenvalues --   -0.18505  -0.13142  -0.11726  -0.11384
 Alpha virt. eigenvalues --   -0.05446  -0.05147  -0.04508  -0.03364  -0.03120
 Alpha virt. eigenvalues --   -0.02643  -0.01435  -0.00891  -0.00764   0.00263
 Alpha virt. eigenvalues --    0.00287   0.00354   0.00476   0.00631   0.00862

  Beta  occ. eigenvalues --  -38.44086 -38.44023 -38.43967 -38.43690 -38.43653
  Beta  occ. eigenvalues --  -38.43340 -38.43127  -2.19906  -2.19860  -2.19843
  Beta  occ. eigenvalues --   -2.19526  -2.19512  -2.19152  -2.19108  -1.13727
  Beta  occ. eigenvalues --   -1.13614  -1.13572  -1.13551  -1.13530  -1.13504
  Beta  occ. eigenvalues --   -1.13482  -1.13460  -1.13451  -1.13265  -1.13218
  Beta  occ. eigenvalues --   -1.13186  -1.13178  -1.13135  -1.13126  -1.12828
  Beta  occ. eigenvalues --   -1.12802  -1.12789  -1.12771  -1.12759  -1.12748
  Beta  occ. eigenvalues --   -0.17750  -0.12950  -0.11540
  Beta virt. eigenvalues --   -0.07493  -0.05284  -0.04796  -0.04273  -0.02974
  Beta virt. eigenvalues --   -0.02624  -0.01745  -0.01348  -0.00827  -0.00372
  Beta virt. eigenvalues --    0.00291   0.00373   0.00420   0.00591   0.00710

 Mulliken charges and spin densities:
               1          2
     1  Na  -0.127086   0.319576
     2  Na   0.476240  -0.054037
     3  Na  -0.187553   0.027585
     4  Na  -0.094495   0.181310
     5  Na  -0.412626   0.283355
     6  Na   0.083270   0.248905
     7  Na   0.262251  -0.006696
 Sum of Mulliken charges =  -0.00000   1.00000

 Dipole moment (field-independent basis, Debye):
    X=              0.0078    Y=             -0.2649    Z=              0.2864  Tot=              0.3902
 Quadrupole moment (field-independent basis, Debye-Ang):
   XX=            -57.8302   YY=            -69.0792   ZZ=            -66.5602
   XY=             -0.5964   XZ=             -2.3295   YZ=             -0.8139

 Normal termination of Gaussian 16 at Tue Dec  5 20:40:51 2023.
