 Gaussian 16, Revision B.01,
 Gaussian 16:  ES64L-G16RevB.01 20-Dec-2017

 -------------------------
 #P B3LYP/6-311+g(d) force
 -------------------------

 -----
 DPGEN
 -----
 Symbolic Z-matrix:
 Charge =  0 Multiplicity = 2

                         Standard orientation:
 ---------------------------------------------------------------------
 Center     Atomic      Atomic             Coordinates (Angstroms)
 Number     Number       Type             X           Y           Z
 ---------------------------------------------------------------------
      1         11           0       -2.337795   -2.573585    1.168857
      2         11           0        0.080163    0.223192    1.949710
      3         11           0        1.126366    3.107027    0.658418
      4         11           0       -4.067868   -0.131809   -1.383518
      5         11           0        4.802766   -1.481132   -0.748113
      6         11           0        2.028546   -0.425890   -0.788322
      7         11           0       -1.632178    1.282197   -0.857031
 ---------------------------------------------------------------------

 SCF Done:  E(UB3LYP) =  -1136.11420966     A.U. after   22 cycles

 The electronic state is 2-A.
 Alpha  occ. eigenvalues --  -38.45113 -38.44919 -38.44323 -38.44315 -38.44300
 Alpha  occ. eigenvalues --  -38.43144 -38.43021  -2.20883  -2.20794  -2.20223
 Alpha  occ. eigenvalues --   -2.20172  -2.20129  -2.19015  -2.18838  -1.14546
 Alpha  occ. eigenvalues --   -1.14534  -1.14491  -1.14482  -1.14461  -1.14389
 Alpha  occ. eigenvalues --   -1.14091  -1.13892  -1.13874  -1.13805  -1.13799
 Alpha  occ. eigenvalues --   -1.13785  -1.13760  -1.13754  -1.13689  -1.12771
 Alpha  occ. eigenvalues --   -1.12698  -1.12654  -1.12476  -1.12475  -1.12438
 Alpha  occ. eigenvalues --   -0.17608  -0.13640  -0.12057  -0.11456
 Alpha virt. eigenvalues --   -0.06200  -0.05696  -0.04829  -0.03402  -0.02730
 Alpha virt. eigenvalues --   -0.02084  -0.02046  -0.01857  -0.01187  -0.00498
 Alpha virt. eigenvalues --   -0.00175  -0.00045   0.00320   0.00421   0.00597

  Beta  occ. eigenvalues --  -38.45044 -38.44870 -38.44316 -38.44277 -38.44256
  Beta  occ. eigenvalues --  -38.43143 -38.43009  -2.20757  -2.20704  -2.20144
  Beta  occ. eigenvalues --   -2.20130  -2.20090  -2.19015  -2.18815  -1.14462
  Beta  occ. eigenvalues --   -1.14439  -1.14424  -1.14409  -1.14406  -1.14305
  Beta  occ. eigenvalues --   -1.14018  -1.13843  -1.13811  -1.13801  -1.13787
  Beta  occ. eigenvalues --   -1.13756  -1.13746  -1.13700  -1.13627  -1.12765
  Beta  occ. eigenvalues --   -1.12691  -1.12655  -1.12461  -1.12459  -1.12426
  Beta  occ. eigenvalues --   -0.17039  -0.13201  -0.11476
  Beta virt. eigenvalues --   -0.07954  -0.06097  -0.05198  -0.04511  -0.02730
  Beta virt. eigenvalues --   -0.02468  -0.01982  -0.01780  -0.01623  -0.00751
  Beta virt. eigenvalues --   -0.00231  -0.00079   0.00019   0.00453   0.00574

 Mulliken charges and spin densities:
               1          2
     1  Na   0.076794   0.229012
     2  Na  -0.180881   0.355479
     3  Na   1.113239   0.003072
     4  Na   0.098533   0.148611
     5  Na  -0.033231  -0.035059
     6  Na  -1.115821   0.039771
     7  Na   0.041366   0.259114
 Sum of Mulliken charges =  -0.00000   1.00000

 Dipole moment (field-independent basis, Debye):
    X=             -1.2073    Y=              0.7420    Z=              1.0127  Tot=              1.7417
 Quadrupole moment (field-independent basis, Debye-Ang):
   XX=            -64.6644   YY=            -63.3716   ZZ=            -70.0144
   XY=              8.2898   XZ=              3.5946   YZ=             -1.3808

 Normal termination of Gaussian 16 at Sun Dec  3 13:03:12 2023.
