 Gaussian 16, Revision B.01,
 Gaussian 16:  ES64L-G16RevB.01 20-Dec-2017

 -------------------------
 #P B3LYP/6-311+g(d) force
 -------------------------

 -----
 DPGEN
 -----
 Symbolic Z-matrix:
 Charge =  0 Multiplicity = 2

                         Standard orientation:
 ---------------------------------------------------------------------
 Center     Atomic      Atomic             Coordinates (Angstroms)
 Number     Number       Type             X           Y           Z
 ---------------------------------------------------------------------
      1         11           0       -0.077899   -0.000202   -1.581386
      2         11           0       -0.078599    0.000098    1.581714
      3         11           0       -2.059215   -1.461280   -0.000386
      4         11           0       -2.049982    1.471720   -0.000486
      5         11           0        0.807378   -2.084212    0.000614
      6         11           0        0.820325    2.079708    0.000414
      7         11           0        2.637991   -0.005833   -0.000486
 ---------------------------------------------------------------------

 SCF Done:  E(UB3LYP) =  -1136.07427991     A.U. after   17 cycles

 The electronic state is 2-A.
 Alpha  occ. eigenvalues --  -38.44062 -38.43825 -38.43824 -38.43625 -38.43624
 Alpha  occ. eigenvalues --  -38.43622 -38.43620  -2.20202  -2.20172  -2.20165
 Alpha  occ. eigenvalues --   -2.19822  -2.19805  -2.19748  -2.19721  -1.14257
 Alpha  occ. eigenvalues --   -1.14120  -1.14049  -1.13997  -1.13983  -1.13904
 Alpha  occ. eigenvalues --   -1.13823  -1.13805  -1.13715  -1.13550  -1.13456
 Alpha  occ. eigenvalues --   -1.13450  -1.13400  -1.13369  -1.13357  -1.13353
 Alpha  occ. eigenvalues --   -1.13323  -1.13303  -1.13287  -1.13265  -1.13180
 Alpha  occ. eigenvalues --   -0.21821  -0.14093  -0.13184  -0.11847
 Alpha virt. eigenvalues --   -0.05240  -0.04506  -0.04181  -0.03501  -0.03021
 Alpha virt. eigenvalues --   -0.02329  -0.01174  -0.00610   0.00007   0.00355
 Alpha virt. eigenvalues --    0.00715   0.00734   0.00986   0.01130   0.01173

  Beta  occ. eigenvalues --  -38.44052 -38.43735 -38.43734 -38.43613 -38.43609
  Beta  occ. eigenvalues --  -38.43607 -38.43603  -2.20160  -2.20039  -2.20011
  Beta  occ. eigenvalues --   -2.19800  -2.19778  -2.19732  -2.19705  -1.14203
  Beta  occ. eigenvalues --   -1.14057  -1.13997  -1.13979  -1.13867  -1.13807
  Beta  occ. eigenvalues --   -1.13750  -1.13719  -1.13640  -1.13538  -1.13442
  Beta  occ. eigenvalues --   -1.13412  -1.13339  -1.13326  -1.13320  -1.13287
  Beta  occ. eigenvalues --   -1.13275  -1.13257  -1.13248  -1.13219  -1.13175
  Beta  occ. eigenvalues --   -0.21026  -0.13708  -0.12805
  Beta virt. eigenvalues --   -0.07635  -0.05285  -0.04483  -0.04163  -0.02526
  Beta virt. eigenvalues --   -0.02085  -0.01260  -0.01097  -0.00566   0.00137
  Beta virt. eigenvalues --    0.00396   0.00680   0.00708   0.01009   0.01135

 Mulliken charges and spin densities:
               1          2
     1  Na  -0.673953   0.414413
     2  Na  -0.673380   0.414603
     3  Na   0.243979   0.005966
     4  Na   0.244593   0.006381
     5  Na   0.425258   0.093041
     6  Na   0.425143   0.093485
     7  Na   0.008359  -0.027889
 Sum of Mulliken charges =  -0.00000   1.00000

 Dipole moment (field-independent basis, Debye):
    X=             -0.0756    Y=             -0.0005    Z=              0.0001  Tot=              0.0756
 Quadrupole moment (field-independent basis, Debye-Ang):
   XX=            -58.1624   YY=            -67.0792   ZZ=            -71.4636
   XY=             -0.0052   XZ=              0.0011   YZ=             -0.0006

 Normal termination of Gaussian 16 at Sat Dec  9 06:32:58 2023.
