 Gaussian 16, Revision B.01,
 Gaussian 16:  ES64L-G16RevB.01 20-Dec-2017

 -------------------------
 #P B3LYP/6-311+g(d) force
 -------------------------

 -----
 DPGEN
 -----
 Symbolic Z-matrix:
 Charge =  0 Multiplicity = 2

                         Standard orientation:
 ---------------------------------------------------------------------
 Center     Atomic      Atomic             Coordinates (Angstroms)
 Number     Number       Type             X           Y           Z
 ---------------------------------------------------------------------
      1         11           0        1.338179    1.967754   -0.673044
      2         11           0        1.620795   -1.227544   -1.329636
      3         11           0       -1.552636   -0.726086   -1.356566
      4         11           0       -3.877372   -0.890127    0.359600
      5         11           0       -1.839030    2.088696    0.465092
      6         11           0        0.304866   -0.939359    1.878833
      7         11           0        4.005198   -0.273334    0.655722
 ---------------------------------------------------------------------

 SCF Done:  E(UB3LYP) =  -1136.11417771     A.U. after   27 cycles

 The electronic state is 2-A.
 Alpha  occ. eigenvalues --  -38.46057 -38.45330 -38.44810 -38.43723 -38.43592
 Alpha  occ. eigenvalues --  -38.42851 -38.42439  -2.21827  -2.21139  -2.20655
 Alpha  occ. eigenvalues --   -2.19677  -2.19574  -2.18713  -2.18307  -1.15533
 Alpha  occ. eigenvalues --   -1.15488  -1.15431  -1.14815  -1.14784  -1.14762
 Alpha  occ. eigenvalues --   -1.14407  -1.14281  -1.14275  -1.13413  -1.13319
 Alpha  occ. eigenvalues --   -1.13301  -1.13236  -1.13220  -1.13168  -1.12391
 Alpha  occ. eigenvalues --   -1.12390  -1.12335  -1.11997  -1.11976  -1.11934
 Alpha  occ. eigenvalues --   -0.18584  -0.14432  -0.11214  -0.10737
 Alpha virt. eigenvalues --   -0.07745  -0.04915  -0.04630  -0.03204  -0.03118
 Alpha virt. eigenvalues --   -0.02349  -0.02147  -0.01357  -0.00976  -0.00178
 Alpha virt. eigenvalues --   -0.00094   0.00201   0.00287   0.00697   0.00738

  Beta  occ. eigenvalues --  -38.46032 -38.45303 -38.44798 -38.43662 -38.43537
  Beta  occ. eigenvalues --  -38.42839 -38.42434  -2.21781  -2.21088  -2.20633
  Beta  occ. eigenvalues --   -2.19570  -2.19479  -2.18692  -2.18303  -1.15495
  Beta  occ. eigenvalues --   -1.15451  -1.15396  -1.14778  -1.14751  -1.14726
  Beta  occ. eigenvalues --   -1.14391  -1.14267  -1.14254  -1.13325  -1.13251
  Beta  occ. eigenvalues --   -1.13213  -1.13163  -1.13127  -1.13106  -1.12378
  Beta  occ. eigenvalues --   -1.12371  -1.12316  -1.11990  -1.11955  -1.11934
  Beta  occ. eigenvalues --   -0.17870  -0.14207  -0.10612
  Beta virt. eigenvalues --   -0.07487  -0.07260  -0.04836  -0.04028  -0.03017
  Beta virt. eigenvalues --   -0.02878  -0.01819  -0.01512  -0.01048  -0.00690
  Beta virt. eigenvalues --   -0.00105  -0.00032   0.00319   0.00376   0.00751

 Mulliken charges and spin densities:
               1          2
     1  Na  -0.570942   0.040430
     2  Na   0.028394   0.113084
     3  Na  -0.737752  -0.013947
     4  Na   1.064680   0.235927
     5  Na  -0.018449   0.119993
     6  Na  -0.490460   0.283491
     7  Na   0.724530   0.221023
 Sum of Mulliken charges =  -0.00000   1.00000

 Dipole moment (field-independent basis, Debye):
    X=              0.5420    Y=             -0.2636    Z=              0.8924  Tot=              1.0768
 Quadrupole moment (field-independent basis, Debye-Ang):
   XX=            -45.9054   YY=            -80.1565   ZZ=            -68.9355
   XY=              0.8240   XZ=             -1.8563   YZ=              0.3678

 Normal termination of Gaussian 16 at Thu Dec  7 10:49:55 2023.
