 Gaussian 16, Revision B.01,
 Gaussian 16:  ES64L-G16RevB.01 20-Dec-2017

 -------------------------
 #P B3LYP/6-311+g(d) force
 -------------------------

 -----
 DPGEN
 -----
 Symbolic Z-matrix:
 Charge =  0 Multiplicity = 2

                         Standard orientation:
 ---------------------------------------------------------------------
 Center     Atomic      Atomic             Coordinates (Angstroms)
 Number     Number       Type             X           Y           Z
 ---------------------------------------------------------------------
      1         11           0        1.037683   -0.035742   -1.377837
      2         11           0        3.672930   -0.025682   -0.308495
      3         11           0       -3.154544    1.588594   -0.343848
      4         11           0        0.972739    2.522572    0.244397
      5         11           0        0.770777   -2.308278    0.934667
      6         11           0       -0.905642    0.200971    1.718418
      7         11           0       -2.393943   -1.942434   -0.867301
 ---------------------------------------------------------------------

 SCF Done:  E(UB3LYP) =  -1136.12305165     A.U. after   22 cycles

 The electronic state is 2-A.
 Alpha  occ. eigenvalues --  -38.44908 -38.44384 -38.43935 -38.43880 -38.43547
 Alpha  occ. eigenvalues --  -38.43094 -38.42911  -2.20763  -2.20174  -2.19949
 Alpha  occ. eigenvalues --   -2.19693  -2.19413  -2.19067  -2.18812  -1.14539
 Alpha  occ. eigenvalues --   -1.14393  -1.14369  -1.13861  -1.13827  -1.13804
 Alpha  occ. eigenvalues --   -1.13651  -1.13601  -1.13570  -1.13372  -1.13343
 Alpha  occ. eigenvalues --   -1.13317  -1.13121  -1.13087  -1.12996  -1.12781
 Alpha  occ. eigenvalues --   -1.12704  -1.12690  -1.12490  -1.12460  -1.12412
 Alpha  occ. eigenvalues --   -0.18515  -0.13705  -0.11880  -0.10666
 Alpha virt. eigenvalues --   -0.06431  -0.05224  -0.04052  -0.03491  -0.02911
 Alpha virt. eigenvalues --   -0.02230  -0.02006  -0.01042  -0.00528  -0.00199
 Alpha virt. eigenvalues --    0.00061   0.00199   0.00613   0.00739   0.00820

  Beta  occ. eigenvalues --  -38.44893 -38.44372 -38.43910 -38.43848 -38.43536
  Beta  occ. eigenvalues --  -38.43021 -38.42880  -2.20737  -2.20152  -2.19904
  Beta  occ. eigenvalues --   -2.19636  -2.19396  -2.18936  -2.18758  -1.14516
  Beta  occ. eigenvalues --   -1.14367  -1.14353  -1.13846  -1.13810  -1.13778
  Beta  occ. eigenvalues --   -1.13613  -1.13573  -1.13534  -1.13329  -1.13309
  Beta  occ. eigenvalues --   -1.13268  -1.13111  -1.13053  -1.12985  -1.12691
  Beta  occ. eigenvalues --   -1.12608  -1.12593  -1.12452  -1.12393  -1.12383
  Beta  occ. eigenvalues --   -0.17896  -0.13293  -0.11685
  Beta virt. eigenvalues --   -0.06955  -0.06232  -0.05075  -0.03940  -0.02920
  Beta virt. eigenvalues --   -0.02317  -0.01978  -0.01287  -0.00945  -0.00365
  Beta virt. eigenvalues --   -0.00081   0.00122   0.00283   0.00723   0.00824

 Mulliken charges and spin densities:
               1          2
     1  Na  -0.239419   0.467100
     2  Na   0.616340  -0.004616
     3  Na  -0.168418   0.129200
     4  Na  -0.367024  -0.155618
     5  Na  -0.173277   0.015646
     6  Na   0.530671   0.244394
     7  Na  -0.198873   0.303894
 Sum of Mulliken charges =  -0.00000   1.00000

 Dipole moment (field-independent basis, Debye):
    X=              0.4488    Y=              0.1799    Z=              0.0528  Tot=              0.4864
 Quadrupole moment (field-independent basis, Debye-Ang):
   XX=            -52.7999   YY=            -68.1587   ZZ=            -72.5076
   XY=             -1.1311   XZ=              3.0964   YZ=             -0.0302

 Normal termination of Gaussian 16 at Tue Dec  5 12:46:21 2023.
