 Gaussian 16, Revision B.01,
 Gaussian 16:  ES64L-G16RevB.01 20-Dec-2017

 -------------------------
 #P B3LYP/6-311+g(d) force
 -------------------------

 -----
 DPGEN
 -----
 Symbolic Z-matrix:
 Charge =  0 Multiplicity = 2

                         Standard orientation:
 ---------------------------------------------------------------------
 Center     Atomic      Atomic             Coordinates (Angstroms)
 Number     Number       Type             X           Y           Z
 ---------------------------------------------------------------------
      1         11           0        1.171276   -2.209392   -0.894428
      2         11           0       -2.712873   -1.768286    0.254735
      3         11           0        3.516165    0.036239    0.377445
      4         11           0        1.173755    2.141659   -0.685779
      5         11           0       -1.023120   -0.065612   -1.579275
      6         11           0        0.088711   -0.342150    2.256515
      7         11           0       -2.213914    2.207543    0.270788
 ---------------------------------------------------------------------

 SCF Done:  E(UB3LYP) =  -1136.12968158     A.U. after   19 cycles

 The electronic state is 2-A.
 Alpha  occ. eigenvalues --  -38.44478 -38.44330 -38.44164 -38.43639 -38.43574
 Alpha  occ. eigenvalues --  -38.43206 -38.43144  -2.20302  -2.20139  -2.19996
 Alpha  occ. eigenvalues --   -2.19489  -2.19413  -2.19241  -2.19013  -1.13959
 Alpha  occ. eigenvalues --   -1.13937  -1.13919  -1.13812  -1.13800  -1.13781
 Alpha  occ. eigenvalues --   -1.13726  -1.13645  -1.13614  -1.13231  -1.13141
 Alpha  occ. eigenvalues --   -1.13128  -1.13090  -1.13074  -1.13041  -1.12929
 Alpha  occ. eigenvalues --   -1.12879  -1.12836  -1.12701  -1.12676  -1.12622
 Alpha  occ. eigenvalues --   -0.18505  -0.13235  -0.11883  -0.11283
 Alpha virt. eigenvalues --   -0.06078  -0.05259  -0.04010  -0.03475  -0.03020
 Alpha virt. eigenvalues --   -0.02858  -0.01759  -0.01078  -0.00436   0.00006
 Alpha virt. eigenvalues --    0.00101   0.00317   0.00606   0.00732   0.00842

  Beta  occ. eigenvalues --  -38.44382 -38.44331 -38.44162 -38.43614 -38.43571
  Beta  occ. eigenvalues --  -38.43149 -38.43133  -2.20143  -2.20124  -2.19996
  Beta  occ. eigenvalues --   -2.19445  -2.19411  -2.19140  -2.18994  -1.13841
  Beta  occ. eigenvalues --   -1.13816  -1.13814  -1.13794  -1.13793  -1.13776
  Beta  occ. eigenvalues --   -1.13722  -1.13631  -1.13612  -1.13188  -1.13119
  Beta  occ. eigenvalues --   -1.13099  -1.13065  -1.13064  -1.13034  -1.12863
  Beta  occ. eigenvalues --   -1.12811  -1.12764  -1.12676  -1.12648  -1.12614
  Beta  occ. eigenvalues --   -0.17755  -0.13100  -0.11646
  Beta virt. eigenvalues --   -0.07297  -0.05904  -0.05246  -0.03820  -0.02900
  Beta virt. eigenvalues --   -0.02218  -0.01903  -0.01652  -0.01016  -0.00307
  Beta virt. eigenvalues --    0.00072   0.00112   0.00352   0.00767   0.00808

 Mulliken charges and spin densities:
               1          2
     1  Na  -0.141437   0.087528
     2  Na   0.098304   0.050461
     3  Na   0.264153  -0.003575
     4  Na  -0.244661   0.080786
     5  Na   0.382764   0.006003
     6  Na  -0.501070   0.696175
     7  Na   0.141948   0.082622
 Sum of Mulliken charges =  -0.00000   1.00000

 Dipole moment (field-independent basis, Debye):
    X=              0.0666    Y=             -0.2182    Z=              0.6095  Tot=              0.6508
 Quadrupole moment (field-independent basis, Debye-Ang):
   XX=            -53.4824   YY=            -69.7209   ZZ=            -71.1172
   XY=              0.0172   XZ=             -1.2273   YZ=              0.7418

 Normal termination of Gaussian 16 at Thu Dec  7 13:37:48 2023.
