 Gaussian 16, Revision B.01,
 Gaussian 16:  ES64L-G16RevB.01 20-Dec-2017

 -------------------------
 #P B3LYP/6-311+g(d) force
 -------------------------

 -----
 DPGEN
 -----
 Symbolic Z-matrix:
 Charge =  0 Multiplicity = 2

                         Standard orientation:
 ---------------------------------------------------------------------
 Center     Atomic      Atomic             Coordinates (Angstroms)
 Number     Number       Type             X           Y           Z
 ---------------------------------------------------------------------
      1         11           0        3.083900    0.174272    0.048666
      2         11           0       -3.038258    1.537716   -0.130586
      3         11           0       -0.407832   -0.060454   -1.892863
      4         11           0       -0.217474   -0.054936    2.041888
      5         11           0        1.681317   -2.171963   -0.254673
      6         11           0       -2.372818   -1.926001    0.187979
      7         11           0        1.271164    2.501366   -0.000411
 ---------------------------------------------------------------------

 SCF Done:  E(UB3LYP) =  -1136.12453611     A.U. after   21 cycles

 The electronic state is 2-A.
 Alpha  occ. eigenvalues --  -38.44711 -38.44473 -38.44065 -38.43961 -38.43814
 Alpha  occ. eigenvalues --  -38.43330 -38.43126  -2.20497  -2.20424  -2.19904
 Alpha  occ. eigenvalues --   -2.19844  -2.19724  -2.19246  -2.18995  -1.14229
 Alpha  occ. eigenvalues --   -1.14173  -1.14147  -1.14143  -1.14088  -1.14032
 Alpha  occ. eigenvalues --   -1.13599  -1.13584  -1.13528  -1.13508  -1.13467
 Alpha  occ. eigenvalues --   -1.13461  -1.13399  -1.13355  -1.13347  -1.12937
 Alpha  occ. eigenvalues --   -1.12880  -1.12855  -1.12687  -1.12644  -1.12631
 Alpha  occ. eigenvalues --   -0.18760  -0.13811  -0.11701  -0.11092
 Alpha virt. eigenvalues --   -0.06251  -0.05565  -0.03835  -0.03674  -0.02877
 Alpha virt. eigenvalues --   -0.02649  -0.01921  -0.01189  -0.00290  -0.00089
 Alpha virt. eigenvalues --   -0.00042   0.00335   0.00670   0.00721   0.00835

  Beta  occ. eigenvalues --  -38.44708 -38.44472 -38.44058 -38.43870 -38.43738
  Beta  occ. eigenvalues --  -38.43323 -38.43123  -2.20494  -2.20425  -2.19894
  Beta  occ. eigenvalues --   -2.19677  -2.19584  -2.19238  -2.18994  -1.14236
  Beta  occ. eigenvalues --   -1.14154  -1.14147  -1.14143  -1.14091  -1.14007
  Beta  occ. eigenvalues --   -1.13582  -1.13550  -1.13525  -1.13400  -1.13349
  Beta  occ. eigenvalues --   -1.13343  -1.13307  -1.13256  -1.13243  -1.12936
  Beta  occ. eigenvalues --   -1.12865  -1.12832  -1.12690  -1.12634  -1.12618
  Beta  occ. eigenvalues --   -0.18005  -0.13590  -0.11464
  Beta virt. eigenvalues --   -0.07174  -0.06178  -0.05529  -0.03724  -0.02957
  Beta virt. eigenvalues --   -0.01912  -0.01868  -0.01744  -0.01118  -0.00347
  Beta virt. eigenvalues --   -0.00089   0.00075   0.00359   0.00753   0.00834

 Mulliken charges and spin densities:
               1          2
     1  Na  -0.128383  -0.016749
     2  Na   0.031597  -0.114568
     3  Na  -0.336238   0.560903
     4  Na  -0.435256   0.615247
     5  Na   0.457052   0.048236
     6  Na   0.212386  -0.038721
     7  Na   0.198843  -0.054347
 Sum of Mulliken charges =  -0.00000   1.00000

 Dipole moment (field-independent basis, Debye):
    X=             -0.9588    Y=              0.0782    Z=              0.0945  Tot=              0.9667
 Quadrupole moment (field-independent basis, Debye-Ang):
   XX=            -53.8413   YY=            -69.0604   ZZ=            -72.6644
   XY=             -0.6507   XZ=             -0.1565   YZ=             -0.2078

 Normal termination of Gaussian 16 at Tue Dec  5 11:04:06 2023.
