 Gaussian 16, Revision B.01,
 Gaussian 16:  ES64L-G16RevB.01 20-Dec-2017

 -------------------------
 #P B3LYP/6-311+g(d) force
 -------------------------

 -----
 DPGEN
 -----
 Symbolic Z-matrix:
 Charge =  0 Multiplicity = 2

                         Standard orientation:
 ---------------------------------------------------------------------
 Center     Atomic      Atomic             Coordinates (Angstroms)
 Number     Number       Type             X           Y           Z
 ---------------------------------------------------------------------
      1         11           0        0.672961    1.397567    0.975217
      2         11           0        2.080992    3.763213   -0.428860
      3         11           0        3.596452   -0.185042   -0.720419
      4         11           0        0.040321   -1.846433   -0.202078
      5         11           0       -2.826333    0.491707    0.689427
      6         11           0        3.098028   -3.152186    0.276275
      7         11           0       -6.662422   -0.468825   -0.589562
 ---------------------------------------------------------------------

 SCF Done:  E(UB3LYP) =  -1136.11775565     A.U. after   20 cycles

 The electronic state is 2-A.
 Alpha  occ. eigenvalues --  -38.45091 -38.44842 -38.44409 -38.44226 -38.43786
 Alpha  occ. eigenvalues --  -38.43640 -38.43444  -2.20867  -2.20656  -2.20234
 Alpha  occ. eigenvalues --   -2.20063  -2.19585  -2.19394  -2.19328  -1.14496
 Alpha  occ. eigenvalues --   -1.14496  -1.14466  -1.14351  -1.14332  -1.14267
 Alpha  occ. eigenvalues --   -1.13931  -1.13928  -1.13830  -1.13726  -1.13714
 Alpha  occ. eigenvalues --   -1.13688  -1.13300  -1.13242  -1.13214  -1.13089
 Alpha  occ. eigenvalues --   -1.13078  -1.13033  -1.13020  -1.13005  -1.12913
 Alpha  occ. eigenvalues --   -0.16814  -0.13375  -0.12577  -0.11287
 Alpha virt. eigenvalues --   -0.06019  -0.05639  -0.05009  -0.03609  -0.02471
 Alpha virt. eigenvalues --   -0.02314  -0.01993  -0.01813  -0.01602  -0.00798
 Alpha virt. eigenvalues --   -0.00407  -0.00036   0.00108   0.00291   0.00582

  Beta  occ. eigenvalues --  -38.44947 -38.44820 -38.44382 -38.44222 -38.43782
  Beta  occ. eigenvalues --  -38.43655 -38.43430  -2.20616  -2.20599  -2.20186
  Beta  occ. eigenvalues --   -2.20056  -2.19578  -2.19427  -2.19304  -1.14323
  Beta  occ. eigenvalues --   -1.14315  -1.14314  -1.14305  -1.14287  -1.14235
  Beta  occ. eigenvalues --   -1.13899  -1.13894  -1.13799  -1.13714  -1.13708
  Beta  occ. eigenvalues --   -1.13681  -1.13295  -1.13237  -1.13206  -1.13116
  Beta  occ. eigenvalues --   -1.13104  -1.13019  -1.13006  -1.12992  -1.12881
  Beta  occ. eigenvalues --   -0.16489  -0.12861  -0.11987
  Beta virt. eigenvalues --   -0.07627  -0.05847  -0.05367  -0.04642  -0.03428
  Beta virt. eigenvalues --   -0.02166  -0.02058  -0.01671  -0.01607  -0.01030
  Beta virt. eigenvalues --   -0.00353  -0.00183   0.00064   0.00310   0.00419

 Mulliken charges and spin densities:
               1          2
     1  Na  -0.866113  -0.050897
     2  Na   0.635687   0.052637
     3  Na   0.181188   0.220389
     4  Na  -0.502425  -0.006169
     5  Na  -0.016368   0.075276
     6  Na   0.540487   0.053681
     7  Na   0.027544   0.655085
 Sum of Mulliken charges =  -0.00000   1.00000

 Dipole moment (field-independent basis, Debye):
    X=              1.3308    Y=             -0.7614    Z=             -0.3839  Tot=              1.5806
 Quadrupole moment (field-independent basis, Debye-Ang):
   XX=            -65.5557   YY=            -61.0114   ZZ=            -70.5534
   XY=             -2.6158   XZ=              0.2024   YZ=             -1.9008

 Normal termination of Gaussian 16 at Wed Nov 29 00:51:46 2023.
