 Gaussian 16, Revision B.01,
 Gaussian 16:  ES64L-G16RevB.01 20-Dec-2017

 -------------------------
 #P B3LYP/6-311+g(d) force
 -------------------------

 -----
 DPGEN
 -----
 Symbolic Z-matrix:
 Charge =  0 Multiplicity = 2

                         Standard orientation:
 ---------------------------------------------------------------------
 Center     Atomic      Atomic             Coordinates (Angstroms)
 Number     Number       Type             X           Y           Z
 ---------------------------------------------------------------------
      1         11           0       -1.748342    2.289299    0.361800
      2         11           0        0.577350   -0.014696    2.029440
      3         11           0       -0.649467   -2.489814    0.428605
      4         11           0       -0.011022    0.177779   -1.631304
      5         11           0        1.978925    2.063967   -0.207880
      6         11           0        2.991971   -1.313031   -0.480493
      7         11           0       -3.139414   -0.713505   -0.500168
 ---------------------------------------------------------------------

 SCF Done:  E(UB3LYP) =  -1136.13542890     A.U. after   19 cycles

 The electronic state is 2-A.
 Alpha  occ. eigenvalues --  -38.44228 -38.43929 -38.43602 -38.43569 -38.43406
 Alpha  occ. eigenvalues --  -38.43389 -38.42975  -2.20042  -2.19789  -2.19532
 Alpha  occ. eigenvalues --   -2.19459  -2.19399  -2.19233  -2.18870  -1.13719
 Alpha  occ. eigenvalues --   -1.13695  -1.13680  -1.13464  -1.13450  -1.13436
 Alpha  occ. eigenvalues --   -1.13243  -1.13212  -1.13194  -1.13135  -1.13103
 Alpha  occ. eigenvalues --   -1.13076  -1.13061  -1.13022  -1.13002  -1.12903
 Alpha  occ. eigenvalues --   -1.12895  -1.12862  -1.12563  -1.12531  -1.12488
 Alpha  occ. eigenvalues --   -0.18869  -0.13361  -0.12099  -0.11051
 Alpha virt. eigenvalues --   -0.05761  -0.05259  -0.04114  -0.03348  -0.02913
 Alpha virt. eigenvalues --   -0.02651  -0.01735  -0.01065  -0.00267  -0.00021
 Alpha virt. eigenvalues --    0.00066   0.00342   0.00754   0.00864   0.00918

  Beta  occ. eigenvalues --  -38.44217 -38.43923 -38.43560 -38.43505 -38.43383
  Beta  occ. eigenvalues --  -38.43349 -38.42963  -2.20025  -2.19778  -2.19447
  Beta  occ. eigenvalues --   -2.19355  -2.19297  -2.19226  -2.18853  -1.13694
  Beta  occ. eigenvalues --   -1.13686  -1.13662  -1.13457  -1.13433  -1.13429
  Beta  occ. eigenvalues --   -1.13212  -1.13125  -1.13095  -1.13050  -1.13022
  Beta  occ. eigenvalues --   -1.13008  -1.13006  -1.12965  -1.12935  -1.12890
  Beta  occ. eigenvalues --   -1.12872  -1.12854  -1.12549  -1.12491  -1.12482
  Beta  occ. eigenvalues --   -0.18141  -0.13096  -0.11850
  Beta virt. eigenvalues --   -0.07124  -0.05674  -0.05239  -0.04043  -0.02676
  Beta virt. eigenvalues --   -0.02109  -0.01640  -0.01586  -0.01019  -0.00222
  Beta virt. eigenvalues --   -0.00008   0.00120   0.00377   0.00836   0.00869

 Mulliken charges and spin densities:
               1          2
     1  Na  -0.003062   0.009581
     2  Na  -0.207765   0.611797
     3  Na   0.094706  -0.007006
     4  Na  -0.228948   0.425756
     5  Na   0.184900  -0.012163
     6  Na   0.049846  -0.025131
     7  Na   0.110323  -0.002834
 Sum of Mulliken charges =  -0.00000   1.00000

 Dipole moment (field-independent basis, Debye):
    X=              0.2661    Y=              0.0463    Z=             -0.0101  Tot=              0.2702
 Quadrupole moment (field-independent basis, Debye-Ang):
   XX=            -53.9508   YY=            -67.0612   ZZ=            -72.5085
   XY=             -0.9014   XZ=             -0.6397   YZ=              1.2160

 Normal termination of Gaussian 16 at Fri Dec  8 04:58:49 2023.
