 Gaussian 16, Revision B.01,
 Gaussian 16:  ES64L-G16RevB.01 20-Dec-2017

 -------------------------
 #P B3LYP/6-311+g(d) force
 -------------------------

 -----
 DPGEN
 -----
 Symbolic Z-matrix:
 Charge =  0 Multiplicity = 2

                         Standard orientation:
 ---------------------------------------------------------------------
 Center     Atomic      Atomic             Coordinates (Angstroms)
 Number     Number       Type             X           Y           Z
 ---------------------------------------------------------------------
      1         11           0       -2.916884    1.994284   -0.065756
      2         11           0       -4.375733   -2.011529   -0.707915
      3         11           0       -1.013702   -2.076744    0.658974
      4         11           0        2.520294   -2.466550   -0.090243
      5         11           0        4.526433    0.298770   -1.005026
      6         11           0        1.544073    0.539466    1.366867
      7         11           0       -0.284481    3.722303   -0.156901
 ---------------------------------------------------------------------

 SCF Done:  E(UB3LYP) =  -1136.11813068     A.U. after   19 cycles

 The electronic state is 2-A.
 Alpha  occ. eigenvalues --  -38.45307 -38.45101 -38.44843 -38.44298 -38.43686
 Alpha  occ. eigenvalues --  -38.43641 -38.43458  -2.21094  -2.20907  -2.20609
 Alpha  occ. eigenvalues --   -2.20111  -2.19455  -2.19439  -2.19255  -1.14787
 Alpha  occ. eigenvalues --   -1.14770  -1.14713  -1.14593  -1.14558  -1.14544
 Alpha  occ. eigenvalues --   -1.14301  -1.14280  -1.14236  -1.13758  -1.13751
 Alpha  occ. eigenvalues --   -1.13716  -1.13116  -1.13111  -1.13103  -1.13097
 Alpha  occ. eigenvalues --   -1.13081  -1.13079  -1.12955  -1.12945  -1.12859
 Alpha  occ. eigenvalues --   -0.16574  -0.13711  -0.12342  -0.10771
 Alpha virt. eigenvalues --   -0.06849  -0.05343  -0.04787  -0.03799  -0.02937
 Alpha virt. eigenvalues --   -0.01967  -0.01848  -0.01741  -0.01533  -0.01102
 Alpha virt. eigenvalues --   -0.00639   0.00074   0.00331   0.00432   0.00534

  Beta  occ. eigenvalues --  -38.45288 -38.45090 -38.44840 -38.44203 -38.43642
  Beta  occ. eigenvalues --  -38.43638 -38.43438  -2.21063  -2.20895  -2.20604
  Beta  occ. eigenvalues --   -2.19932  -2.19441  -2.19364  -2.19225  -1.14768
  Beta  occ. eigenvalues --   -1.14722  -1.14696  -1.14591  -1.14554  -1.14489
  Beta  occ. eigenvalues --   -1.14299  -1.14275  -1.14228  -1.13635  -1.13627
  Beta  occ. eigenvalues --   -1.13602  -1.13113  -1.13098  -1.13080  -1.13054
  Beta  occ. eigenvalues --   -1.13041  -1.13022  -1.12940  -1.12928  -1.12804
  Beta  occ. eigenvalues --   -0.15959  -0.13272  -0.11952
  Beta virt. eigenvalues --   -0.07309  -0.06700  -0.05224  -0.04198  -0.03519
  Beta virt. eigenvalues --   -0.02643  -0.01752  -0.01561  -0.01445  -0.01216
  Beta virt. eigenvalues --   -0.00963  -0.00351   0.00324   0.00459   0.00539

 Mulliken charges and spin densities:
               1          2
     1  Na  -0.222243   0.079970
     2  Na   0.325466   0.311446
     3  Na  -0.560171   0.056254
     4  Na   0.311234   0.047603
     5  Na  -0.001156   0.526269
     6  Na  -0.029838  -0.011928
     7  Na   0.176709  -0.009613
 Sum of Mulliken charges =  -0.00000   1.00000

 Dipole moment (field-independent basis, Debye):
    X=              1.1506    Y=              0.0162    Z=              0.0012  Tot=              1.1507
 Quadrupole moment (field-independent basis, Debye-Ang):
   XX=            -66.3112   YY=            -63.7036   ZZ=            -70.8907
   XY=             -2.6218   XZ=              1.3277   YZ=              1.0838

 Normal termination of Gaussian 16 at Sun Dec  3 19:31:12 2023.
