 Gaussian 16, Revision B.01,
 Gaussian 16:  ES64L-G16RevB.01 20-Dec-2017

 -------------------------
 #P B3LYP/6-311+g(d) force
 -------------------------

 -----
 DPGEN
 -----
 Symbolic Z-matrix:
 Charge =  0 Multiplicity = 2

                         Standard orientation:
 ---------------------------------------------------------------------
 Center     Atomic      Atomic             Coordinates (Angstroms)
 Number     Number       Type             X           Y           Z
 ---------------------------------------------------------------------
      1         11           0       -0.495732    0.429130    1.390377
      2         11           0       -5.969914   -0.065062    0.076197
      3         11           0       -3.086424    1.192317   -0.861658
      4         11           0       -1.327266   -1.745753   -0.244027
      5         11           0        2.380280   -1.566789   -0.011044
      6         11           0        3.072062    1.959299   -0.036398
      7         11           0        5.426995   -0.203143   -0.313448
 ---------------------------------------------------------------------

 SCF Done:  E(UB3LYP) =  -1136.11468046     A.U. after   21 cycles

 The electronic state is 2-A.
 Alpha  occ. eigenvalues --  -38.44336 -38.44317 -38.44196 -38.44034 -38.43993
 Alpha  occ. eigenvalues --  -38.43992 -38.43908  -2.20232  -2.20147  -2.20033
 Alpha  occ. eigenvalues --   -2.19936  -2.19843  -2.19827  -2.19677  -1.14061
 Alpha  occ. eigenvalues --   -1.13893  -1.13823  -1.13818  -1.13806  -1.13783
 Alpha  occ. eigenvalues --   -1.13721  -1.13696  -1.13665  -1.13577  -1.13561
 Alpha  occ. eigenvalues --   -1.13543  -1.13539  -1.13519  -1.13509  -1.13481
 Alpha  occ. eigenvalues --   -1.13467  -1.13402  -1.13342  -1.13340  -1.13310
 Alpha  occ. eigenvalues --   -0.17174  -0.14640  -0.11585  -0.10440
 Alpha virt. eigenvalues --   -0.06366  -0.05732  -0.05285  -0.03209  -0.02816
 Alpha virt. eigenvalues --   -0.02388  -0.02264  -0.01398  -0.00850  -0.00664
 Alpha virt. eigenvalues --   -0.00169  -0.00026   0.00100   0.00283   0.00656

  Beta  occ. eigenvalues --  -38.44315 -38.44267 -38.44191 -38.44007 -38.43983
  Beta  occ. eigenvalues --  -38.43947 -38.43908  -2.20194  -2.20052  -2.20024
  Beta  occ. eigenvalues --   -2.19889  -2.19811  -2.19759  -2.19676  -1.14036
  Beta  occ. eigenvalues --   -1.13868  -1.13786  -1.13754  -1.13744  -1.13711
  Beta  occ. eigenvalues --   -1.13709  -1.13689  -1.13652  -1.13544  -1.13524
  Beta  occ. eigenvalues --   -1.13495  -1.13489  -1.13482  -1.13470  -1.13454
  Beta  occ. eigenvalues --   -1.13446  -1.13348  -1.13341  -1.13340  -1.13309
  Beta  occ. eigenvalues --   -0.16631  -0.14418  -0.11429
  Beta virt. eigenvalues --   -0.06924  -0.06087  -0.05148  -0.04969  -0.03069
  Beta virt. eigenvalues --   -0.02416  -0.02193  -0.01681  -0.01358  -0.00580
  Beta virt. eigenvalues --   -0.00433   0.00017   0.00144   0.00309   0.00419

 Mulliken charges and spin densities:
               1          2
     1  Na  -0.291721   0.537192
     2  Na   0.194172   0.022879
     3  Na  -0.059244  -0.119277
     4  Na   0.128497   0.102017
     5  Na  -0.480600   0.252519
     6  Na  -0.170712   0.151099
     7  Na   0.679607   0.053570
 Sum of Mulliken charges =  -0.00000   1.00000

 Dipole moment (field-independent basis, Debye):
    X=              0.5737    Y=             -0.2121    Z=              0.0663  Tot=              0.6153
 Quadrupole moment (field-independent basis, Debye-Ang):
   XX=            -60.5586   YY=            -70.4293   ZZ=            -69.3068
   XY=              3.9817   XZ=             -3.4089   YZ=             -1.2498

 Normal termination of Gaussian 16 at Tue Nov 28 22:57:07 2023.
