 Gaussian 16, Revision B.01,
 Gaussian 16:  ES64L-G16RevB.01 20-Dec-2017

 -------------------------
 #P B3LYP/6-311+g(d) force
 -------------------------

 -----
 DPGEN
 -----
 Symbolic Z-matrix:
 Charge =  0 Multiplicity = 2

                         Standard orientation:
 ---------------------------------------------------------------------
 Center     Atomic      Atomic             Coordinates (Angstroms)
 Number     Number       Type             X           Y           Z
 ---------------------------------------------------------------------
      1         11           0        3.926453   -0.472942    0.499050
      2         11           0       -1.218073   -2.944768    0.348154
      3         11           0       -3.671951    1.287811    1.123246
      4         11           0       -3.815169   -1.202009   -1.105713
      5         11           0        2.553963   -3.064849   -0.189770
      6         11           0        2.768710    2.934174   -0.456393
      7         11           0       -0.543933    3.462583   -0.218574
 ---------------------------------------------------------------------

 SCF Done:  E(UB3LYP) =  -1136.10761680     A.U. after   23 cycles

 The electronic state is 2-A.
 Alpha  occ. eigenvalues --  -38.45151 -38.45024 -38.44617 -38.44410 -38.44227
 Alpha  occ. eigenvalues --  -38.44186 -38.43856  -2.20932  -2.20770  -2.20436
 Alpha  occ. eigenvalues --   -2.20196  -2.20039  -2.19990  -2.19646  -1.14610
 Alpha  occ. eigenvalues --   -1.14596  -1.14587  -1.14455  -1.14445  -1.14401
 Alpha  occ. eigenvalues --   -1.14152  -1.14088  -1.14067  -1.13858  -1.13848
 Alpha  occ. eigenvalues --   -1.13810  -1.13698  -1.13694  -1.13674  -1.13642
 Alpha  occ. eigenvalues --   -1.13624  -1.13618  -1.13307  -1.13297  -1.13287
 Alpha  occ. eigenvalues --   -0.15616  -0.14092  -0.13194  -0.10462
 Alpha virt. eigenvalues --   -0.07603  -0.05282  -0.04250  -0.03557  -0.03054
 Alpha virt. eigenvalues --   -0.02733  -0.02278  -0.01919  -0.01268  -0.00816
 Alpha virt. eigenvalues --   -0.00410  -0.00103   0.00268   0.00341   0.00651

  Beta  occ. eigenvalues --  -38.45154 -38.45017 -38.44583 -38.44343 -38.44218
  Beta  occ. eigenvalues --  -38.44112 -38.43825  -2.20944  -2.20761  -2.20376
  Beta  occ. eigenvalues --   -2.20073  -2.20028  -2.19852  -2.19589  -1.14622
  Beta  occ. eigenvalues --   -1.14609  -1.14555  -1.14454  -1.14444  -1.14363
  Beta  occ. eigenvalues --   -1.14105  -1.14050  -1.14021  -1.13772  -1.13763
  Beta  occ. eigenvalues --   -1.13730  -1.13690  -1.13687  -1.13643  -1.13547
  Beta  occ. eigenvalues --   -1.13532  -1.13527  -1.13269  -1.13261  -1.13242
  Beta  occ. eigenvalues --   -0.15087  -0.13485  -0.12498
  Beta virt. eigenvalues --   -0.07696  -0.07268  -0.04963  -0.03828  -0.03337
  Beta virt. eigenvalues --   -0.02616  -0.02428  -0.02078  -0.01788  -0.01134
  Beta virt. eigenvalues --   -0.00571  -0.00125   0.00115   0.00338   0.00406

 Mulliken charges and spin densities:
               1          2
     1  Na  -0.185739   0.136989
     2  Na  -0.387921   0.317279
     3  Na   0.078692   0.415727
     4  Na   0.352756  -0.024491
     5  Na   0.112130   0.010079
     6  Na   0.183641   0.123297
     7  Na  -0.153560   0.021120
 Sum of Mulliken charges =  -0.00000   1.00000

 Dipole moment (field-independent basis, Debye):
    X=             -0.4505    Y=             -0.2532    Z=             -0.2442  Tot=              0.5716
 Quadrupole moment (field-independent basis, Debye-Ang):
   XX=            -62.3152   YY=            -71.0055   ZZ=            -68.8357
   XY=              1.5304   XZ=              2.9913   YZ=              1.1398

 Normal termination of Gaussian 16 at Mon Dec  4 04:23:45 2023.
