 Gaussian 16, Revision B.01,
 Gaussian 16:  ES64L-G16RevB.01 20-Dec-2017

 -------------------------
 #P B3LYP/6-311+g(d) force
 -------------------------

 -----
 DPGEN
 -----
 Symbolic Z-matrix:
 Charge =  0 Multiplicity = 2

                         Standard orientation:
 ---------------------------------------------------------------------
 Center     Atomic      Atomic             Coordinates (Angstroms)
 Number     Number       Type             X           Y           Z
 ---------------------------------------------------------------------
      1         11           0        1.860601    2.681958   -0.752044
      2         11           0       -4.309779   -2.454383   -0.906897
      3         11           0       -1.325468    2.747721    1.012607
      4         11           0       -3.457611    0.515368    0.429918
      5         11           0        0.346376   -0.285111   -0.439531
      6         11           0        2.820623   -2.399268    1.763537
      7         11           0        4.065258   -0.806285   -1.107589
 ---------------------------------------------------------------------

 SCF Done:  E(UB3LYP) =  -1136.11580455     A.U. after   21 cycles

 The electronic state is 2-A.
 Alpha  occ. eigenvalues --  -38.45587 -38.45420 -38.44350 -38.43829 -38.43727
 Alpha  occ. eigenvalues --  -38.43570 -38.43451  -2.21377  -2.21179  -2.20144
 Alpha  occ. eigenvalues --   -2.19642  -2.19583  -2.19362  -2.19295  -1.15101
 Alpha  occ. eigenvalues --   -1.15045  -1.14982  -1.14873  -1.14827  -1.14819
 Alpha  occ. eigenvalues --   -1.13798  -1.13796  -1.13750  -1.13321  -1.13312
 Alpha  occ. eigenvalues --   -1.13288  -1.13258  -1.13241  -1.13189  -1.13018
 Alpha  occ. eigenvalues --   -1.13010  -1.13002  -1.12968  -1.12956  -1.12914
 Alpha  occ. eigenvalues --   -0.16712  -0.14120  -0.12101  -0.10490
 Alpha virt. eigenvalues --   -0.06745  -0.06148  -0.04040  -0.03785  -0.02879
 Alpha virt. eigenvalues --   -0.02695  -0.01949  -0.01668  -0.00951  -0.00667
 Alpha virt. eigenvalues --   -0.00585  -0.00177  -0.00031   0.00414   0.00520

  Beta  occ. eigenvalues --  -38.45587 -38.45426 -38.44282 -38.43805 -38.43686
  Beta  occ. eigenvalues --  -38.43504 -38.43446  -2.21379  -2.21193  -2.20017
  Beta  occ. eigenvalues --   -2.19597  -2.19508  -2.19292  -2.19239  -1.15091
  Beta  occ. eigenvalues --   -1.15044  -1.14990  -1.14886  -1.14837  -1.14804
  Beta  occ. eigenvalues --   -1.13710  -1.13709  -1.13670  -1.13289  -1.13284
  Beta  occ. eigenvalues --   -1.13234  -1.13219  -1.13189  -1.13144  -1.12975
  Beta  occ. eigenvalues --   -1.12968  -1.12942  -1.12924  -1.12918  -1.12853
  Beta  occ. eigenvalues --   -0.16369  -0.13561  -0.11584
  Beta virt. eigenvalues --   -0.07300  -0.06491  -0.05721  -0.03763  -0.03414
  Beta virt. eigenvalues --   -0.02729  -0.02515  -0.01561  -0.01475  -0.00736
  Beta virt. eigenvalues --   -0.00325  -0.00287  -0.00007   0.00151   0.00543

 Mulliken charges and spin densities:
               1          2
     1  Na   0.285809   0.118466
     2  Na   0.357327   0.352533
     3  Na   0.060092   0.084828
     4  Na   0.411539   0.129876
     5  Na  -1.834582   0.032914
     6  Na   0.173369   0.329335
     7  Na   0.546447  -0.047953
 Sum of Mulliken charges =  -0.00000   1.00000

 Dipole moment (field-independent basis, Debye):
    X=              2.3007    Y=              0.3690    Z=             -0.0818  Tot=              2.3315
 Quadrupole moment (field-independent basis, Debye-Ang):
   XX=            -64.0212   YY=            -67.0800   ZZ=            -68.7926
   XY=             -1.4145   XZ=             -4.1173   YZ=              2.4695

 Normal termination of Gaussian 16 at Fri Dec  8 19:13:41 2023.
