 Gaussian 16, Revision B.01,
 Gaussian 16:  ES64L-G16RevB.01 20-Dec-2017

 -------------------------
 #P B3LYP/6-311+g(d) force
 -------------------------

 -----
 DPGEN
 -----
 Symbolic Z-matrix:
 Charge =  0 Multiplicity = 2

                         Standard orientation:
 ---------------------------------------------------------------------
 Center     Atomic      Atomic             Coordinates (Angstroms)
 Number     Number       Type             X           Y           Z
 ---------------------------------------------------------------------
      1         11           0        0.061958   -0.754370   -1.508772
      2         11           0       -2.814931    1.065967   -0.634166
      3         11           0       -3.045079   -1.903680    0.165521
      4         11           0        0.264092    2.869634   -0.076344
      5         11           0        2.780789   -2.323838   -0.056087
      6         11           0       -0.220799    0.049102    2.280643
      7         11           0        2.973972    0.997186   -0.170794
 ---------------------------------------------------------------------

 SCF Done:  E(UB3LYP) =  -1136.12894952     A.U. after   21 cycles

 The electronic state is 2-A.
 Alpha  occ. eigenvalues --  -38.44471 -38.44441 -38.44241 -38.44059 -38.44034
 Alpha  occ. eigenvalues --  -38.43742 -38.42524  -2.20313  -2.20260  -2.20108
 Alpha  occ. eigenvalues --   -2.19923  -2.19856  -2.19549  -2.18368  -1.13997
 Alpha  occ. eigenvalues --   -1.13994  -1.13979  -1.13949  -1.13910  -1.13903
 Alpha  occ. eigenvalues --   -1.13780  -1.13752  -1.13718  -1.13624  -1.13582
 Alpha  occ. eigenvalues --   -1.13537  -1.13509  -1.13485  -1.13467  -1.13217
 Alpha  occ. eigenvalues --   -1.13202  -1.13197  -1.12044  -1.12026  -1.12023
 Alpha  occ. eigenvalues --   -0.18038  -0.13741  -0.11729  -0.10695
 Alpha virt. eigenvalues --   -0.06292  -0.05833  -0.04179  -0.03525  -0.02783
 Alpha virt. eigenvalues --   -0.02502  -0.02067  -0.01339  -0.00846  -0.00232
 Alpha virt. eigenvalues --   -0.00077   0.00270   0.00585   0.00724   0.00742

  Beta  occ. eigenvalues --  -38.44470 -38.44440 -38.44223 -38.44022 -38.43920
  Beta  occ. eigenvalues --  -38.43746 -38.42520  -2.20311  -2.20260  -2.20077
  Beta  occ. eigenvalues --   -2.19857  -2.19646  -2.19557  -2.18365  -1.13993
  Beta  occ. eigenvalues --   -1.13990  -1.13972  -1.13950  -1.13909  -1.13885
  Beta  occ. eigenvalues --   -1.13751  -1.13721  -1.13702  -1.13573  -1.13531
  Beta  occ. eigenvalues --   -1.13489  -1.13368  -1.13340  -1.13317  -1.13223
  Beta  occ. eigenvalues --   -1.13202  -1.13198  -1.12045  -1.12026  -1.11998
  Beta  occ. eigenvalues --   -0.17351  -0.13582  -0.11584
  Beta virt. eigenvalues --   -0.06725  -0.06175  -0.05753  -0.04141  -0.02855
  Beta virt. eigenvalues --   -0.01958  -0.01949  -0.01643  -0.01177  -0.00879
  Beta virt. eigenvalues --   -0.00217   0.00110   0.00329   0.00689   0.00739

 Mulliken charges and spin densities:
               1          2
     1  Na  -0.322347   0.178852
     2  Na   0.318033   0.110429
     3  Na   0.172912   0.036452
     4  Na  -0.066541   0.007560
     5  Na   0.283232  -0.032203
     6  Na  -0.485800   0.698458
     7  Na   0.100511   0.000451
 Sum of Mulliken charges =  -0.00000   1.00000

 Dipole moment (field-independent basis, Debye):
    X=             -0.1818    Y=             -0.5166    Z=              0.0168  Tot=              0.5479
 Quadrupole moment (field-independent basis, Debye-Ang):
   XX=            -54.1749   YY=            -66.1791   ZZ=            -75.0301
   XY=              1.1838   XZ=              0.8226   YZ=             -1.8760

 Normal termination of Gaussian 16 at Tue Dec  5 20:26:02 2023.
