 Gaussian 16, Revision B.01,
 Gaussian 16:  ES64L-G16RevB.01 20-Dec-2017

 -------------------------
 #P B3LYP/6-311+g(d) force
 -------------------------

 -----
 DPGEN
 -----
 Symbolic Z-matrix:
 Charge =  0 Multiplicity = 2

                         Standard orientation:
 ---------------------------------------------------------------------
 Center     Atomic      Atomic             Coordinates (Angstroms)
 Number     Number       Type             X           Y           Z
 ---------------------------------------------------------------------
      1         11           0       -0.189907   -0.585626   -1.649059
      2         11           0        0.334979   -2.465964    0.488620
      3         11           0       -1.701959    2.239151   -0.759960
      4         11           0        3.144787   -0.855268   -0.375430
      5         11           0       -2.768118   -1.324266   -0.103179
      6         11           0       -0.395019    0.590474    2.362249
      7         11           0        1.575238    2.401499    0.036759
 ---------------------------------------------------------------------

 SCF Done:  E(UB3LYP) =  -1136.13394241     A.U. after   20 cycles

 The electronic state is 2-A.
 Alpha  occ. eigenvalues --  -38.44318 -38.43670 -38.43551 -38.43534 -38.43526
 Alpha  occ. eigenvalues --  -38.43492 -38.43349  -2.20163  -2.19572  -2.19540
 Alpha  occ. eigenvalues --   -2.19381  -2.19354  -2.19322  -2.19287  -1.13815
 Alpha  occ. eigenvalues --   -1.13790  -1.13779  -1.13404  -1.13298  -1.13223
 Alpha  occ. eigenvalues --   -1.13192  -1.13169  -1.13121  -1.13070  -1.13036
 Alpha  occ. eigenvalues --   -1.13030  -1.13021  -1.13016  -1.13009  -1.12999
 Alpha  occ. eigenvalues --   -1.12973  -1.12943  -1.12937  -1.12931  -1.12865
 Alpha  occ. eigenvalues --   -0.18689  -0.12675  -0.12623  -0.11421
 Alpha virt. eigenvalues --   -0.05214  -0.05089  -0.04518  -0.03530  -0.03111
 Alpha virt. eigenvalues --   -0.03035  -0.01331  -0.00926  -0.00247  -0.00037
 Alpha virt. eigenvalues --    0.00080   0.00362   0.00800   0.00926   0.00942

  Beta  occ. eigenvalues --  -38.44213 -38.43667 -38.43532 -38.43509 -38.43499
  Beta  occ. eigenvalues --  -38.43490 -38.43337  -2.19969  -2.19539  -2.19475
  Beta  occ. eigenvalues --   -2.19353  -2.19352  -2.19322  -2.19268  -1.13685
  Beta  occ. eigenvalues --   -1.13658  -1.13639  -1.13358  -1.13258  -1.13183
  Beta  occ. eigenvalues --   -1.13171  -1.13152  -1.13073  -1.13048  -1.13026
  Beta  occ. eigenvalues --   -1.13012  -1.13007  -1.13004  -1.13001  -1.12981
  Beta  occ. eigenvalues --   -1.12966  -1.12936  -1.12923  -1.12887  -1.12853
  Beta  occ. eigenvalues --   -0.17947  -0.12483  -0.12406
  Beta virt. eigenvalues --   -0.07388  -0.05172  -0.05063  -0.04373  -0.02724
  Beta virt. eigenvalues --   -0.02421  -0.01981  -0.01275  -0.00872  -0.00175
  Beta virt. eigenvalues --    0.00040   0.00090   0.00398   0.00888   0.00932

 Mulliken charges and spin densities:
               1          2
     1  Na  -0.210493   0.162309
     2  Na   0.238290   0.326841
     3  Na   0.144577   0.012061
     4  Na   0.044488  -0.076433
     5  Na   0.332444   0.012347
     6  Na  -0.553501   0.501495
     7  Na   0.004195   0.061379
 Sum of Mulliken charges =  -0.00000   1.00000

 Dipole moment (field-independent basis, Debye):
    X=             -0.2009    Y=              0.1501    Z=              0.2679  Tot=              0.3670
 Quadrupole moment (field-independent basis, Debye-Ang):
   XX=            -59.0168   YY=            -66.3194   ZZ=            -70.1178
   XY=              0.5607   XZ=             -0.1403   YZ=             -1.6217

 Normal termination of Gaussian 16 at Thu Dec  7 08:12:36 2023.
