 Gaussian 16, Revision B.01,
 Gaussian 16:  ES64L-G16RevB.01 20-Dec-2017

 -------------------------
 #P B3LYP/6-311+g(d) force
 -------------------------

 -----
 DPGEN
 -----
 Symbolic Z-matrix:
 Charge =  0 Multiplicity = 2

                         Standard orientation:
 ---------------------------------------------------------------------
 Center     Atomic      Atomic             Coordinates (Angstroms)
 Number     Number       Type             X           Y           Z
 ---------------------------------------------------------------------
      1         11           0        1.458815    2.518976   -0.527030
      2         11           0        0.630221   -2.833697    0.227877
      3         11           0       -0.129961   -0.602158   -1.716171
      4         11           0       -0.095505    0.654634    1.830412
      5         11           0       -2.312824    2.246258   -0.051663
      6         11           0        3.084097   -0.338693    0.188996
      7         11           0       -2.634842   -1.645320    0.047580
 ---------------------------------------------------------------------

 SCF Done:  E(UB3LYP) =  -1136.13751129     A.U. after   20 cycles

 The electronic state is 2-A.
 Alpha  occ. eigenvalues --  -38.43986 -38.43957 -38.43712 -38.43652 -38.43589
 Alpha  occ. eigenvalues --  -38.43250 -38.43224  -2.19820  -2.19761  -2.19560
 Alpha  occ. eigenvalues --   -2.19491  -2.19469  -2.19182  -2.19161  -1.13517
 Alpha  occ. eigenvalues --   -1.13486  -1.13451  -1.13444  -1.13418  -1.13398
 Alpha  occ. eigenvalues --   -1.13252  -1.13228  -1.13219  -1.13204  -1.13158
 Alpha  occ. eigenvalues --   -1.13149  -1.13126  -1.13120  -1.13076  -1.12858
 Alpha  occ. eigenvalues --   -1.12831  -1.12805  -1.12794  -1.12793  -1.12781
 Alpha  occ. eigenvalues --   -0.18554  -0.12925  -0.12711  -0.10430
 Alpha virt. eigenvalues --   -0.05614  -0.05270  -0.04914  -0.03182  -0.02960
 Alpha virt. eigenvalues --   -0.02240  -0.01408  -0.01286  -0.00469  -0.00420
 Alpha virt. eigenvalues --    0.00005   0.00369   0.00816   0.00841   0.00886

  Beta  occ. eigenvalues --  -38.43982 -38.43955 -38.43697 -38.43647 -38.43582
  Beta  occ. eigenvalues --  -38.43177 -38.43157  -2.19816  -2.19761  -2.19535
  Beta  occ. eigenvalues --   -2.19486  -2.19459  -2.19060  -2.19028  -1.13509
  Beta  occ. eigenvalues --   -1.13470  -1.13447  -1.13436  -1.13408  -1.13401
  Beta  occ. eigenvalues --   -1.13240  -1.13204  -1.13192  -1.13187  -1.13149
  Beta  occ. eigenvalues --   -1.13130  -1.13118  -1.13097  -1.13069  -1.12775
  Beta  occ. eigenvalues --   -1.12742  -1.12722  -1.12704  -1.12698  -1.12682
  Beta  occ. eigenvalues --   -0.17846  -0.12698  -0.12488
  Beta virt. eigenvalues --   -0.06598  -0.05604  -0.05239  -0.04798  -0.02413
  Beta virt. eigenvalues --   -0.02226  -0.01347  -0.01251  -0.01206  -0.00480
  Beta virt. eigenvalues --   -0.00463   0.00147   0.00398   0.00830   0.00862

 Mulliken charges and spin densities:
               1          2
     1  Na   0.058828   0.012044
     2  Na   0.157292  -0.013391
     3  Na  -0.171354   0.582253
     4  Na  -0.331122   0.688589
     5  Na   0.078495  -0.125354
     6  Na   0.095349  -0.009512
     7  Na   0.112512  -0.134628
 Sum of Mulliken charges =  -0.00000   1.00000

 Dipole moment (field-independent basis, Debye):
    X=             -0.2651    Y=              0.0567    Z=              0.0389  Tot=              0.2739
 Quadrupole moment (field-independent basis, Debye-Ang):
   XX=            -57.3167   YY=            -60.4492   ZZ=            -75.2845
   XY=             -0.2630   XZ=              0.1492   YZ=             -2.7024

 Normal termination of Gaussian 16 at Thu Dec  7 06:33:41 2023.
