 Gaussian 16, Revision B.01,
 Gaussian 16:  ES64L-G16RevB.01 20-Dec-2017

 -------------------------
 #P B3LYP/6-311+g(d) force
 -------------------------

 -----
 DPGEN
 -----
 Symbolic Z-matrix:
 Charge =  0 Multiplicity = 2

                         Standard orientation:
 ---------------------------------------------------------------------
 Center     Atomic      Atomic             Coordinates (Angstroms)
 Number     Number       Type             X           Y           Z
 ---------------------------------------------------------------------
      1         11           0        2.735922   -1.659806    0.308949
      2         11           0        2.487110    1.674952   -0.368025
      3         11           0       -1.158454    2.619363    0.059811
      4         11           0        0.237666    0.184527    1.872453
      5         11           0       -0.150548    0.096571   -1.802927
      6         11           0       -0.900129   -2.594110   -0.342582
      7         11           0       -3.251567   -0.321497    0.272321
 ---------------------------------------------------------------------

 SCF Done:  E(UB3LYP) =  -1136.13796806     A.U. after   19 cycles

 The electronic state is 2-A.
 Alpha  occ. eigenvalues --  -38.44314 -38.43875 -38.43832 -38.43534 -38.43337
 Alpha  occ. eigenvalues --  -38.43151 -38.43096  -2.20135  -2.19729  -2.19654
 Alpha  occ. eigenvalues --   -2.19455  -2.19303  -2.19018  -2.18969  -1.13806
 Alpha  occ. eigenvalues --   -1.13794  -1.13778  -1.13420  -1.13401  -1.13368
 Alpha  occ. eigenvalues --   -1.13331  -1.13299  -1.13290  -1.13137  -1.13091
 Alpha  occ. eigenvalues --   -1.13071  -1.12992  -1.12966  -1.12917  -1.12694
 Alpha  occ. eigenvalues --   -1.12692  -1.12656  -1.12634  -1.12625  -1.12584
 Alpha  occ. eigenvalues --   -0.18731  -0.13211  -0.12237  -0.10824
 Alpha virt. eigenvalues --   -0.05837  -0.05220  -0.04310  -0.03329  -0.02833
 Alpha virt. eigenvalues --   -0.02563  -0.01716  -0.01104  -0.00261  -0.00229
 Alpha virt. eigenvalues --   -0.00002   0.00351   0.00773   0.00871   0.00912

  Beta  occ. eigenvalues --  -38.44311 -38.43865 -38.43827 -38.43457 -38.43256
  Beta  occ. eigenvalues --  -38.43146 -38.43087  -2.20131  -2.19714  -2.19648
  Beta  occ. eigenvalues --   -2.19314  -2.19155  -2.19011  -2.18955  -1.13802
  Beta  occ. eigenvalues --   -1.13785  -1.13772  -1.13410  -1.13369  -1.13360
  Beta  occ. eigenvalues --   -1.13311  -1.13290  -1.13287  -1.13044  -1.12993
  Beta  occ. eigenvalues --   -1.12966  -1.12894  -1.12865  -1.12815  -1.12688
  Beta  occ. eigenvalues --   -1.12662  -1.12635  -1.12625  -1.12599  -1.12577
  Beta  occ. eigenvalues --   -0.17999  -0.12981  -0.11965
  Beta virt. eigenvalues --   -0.06934  -0.05765  -0.05212  -0.04289  -0.02562
  Beta virt. eigenvalues --   -0.02057  -0.01616  -0.01513  -0.01036  -0.00314
  Beta virt. eigenvalues --   -0.00237   0.00114   0.00374   0.00840   0.00864

 Mulliken charges and spin densities:
               1          2
     1  Na   0.013487  -0.039257
     2  Na   0.211433  -0.062011
     3  Na   0.119366  -0.100039
     4  Na  -0.347009   0.708756
     5  Na  -0.130491   0.592875
     6  Na   0.131948  -0.060348
     7  Na   0.001267  -0.039976
 Sum of Mulliken charges =  -0.00000   1.00000

 Dipole moment (field-independent basis, Debye):
    X=             -0.0140    Y=              0.0843    Z=              0.1299  Tot=              0.1555
 Quadrupole moment (field-independent basis, Debye-Ang):
   XX=            -53.9784   YY=            -65.2903   ZZ=            -73.9268
   XY=             -0.3325   XZ=             -1.1721   YZ=             -0.5790

 Normal termination of Gaussian 16 at Thu Dec  7 22:00:59 2023.
