 Gaussian 16, Revision B.01,
 Gaussian 16:  ES64L-G16RevB.01 20-Dec-2017

 -------------------------
 #P B3LYP/6-311+g(d) force
 -------------------------

 -----
 DPGEN
 -----
 Symbolic Z-matrix:
 Charge =  0 Multiplicity = 2

                         Standard orientation:
 ---------------------------------------------------------------------
 Center     Atomic      Atomic             Coordinates (Angstroms)
 Number     Number       Type             X           Y           Z
 ---------------------------------------------------------------------
      1         11           0       -1.966465    1.883312    0.620970
      2         11           0        0.778685    2.096827   -0.802430
      3         11           0        0.528487   -0.861183   -1.501178
      4         11           0        1.701465    0.240775    1.762598
      5         11           0       -3.201440   -0.779864   -0.941485
      6         11           0       -1.421839   -1.770605    1.291041
      7         11           0        3.581106   -0.809262   -0.429516
 ---------------------------------------------------------------------

 SCF Done:  E(UB3LYP) =  -1136.12174328     A.U. after   23 cycles

 The electronic state is 2-A.
 Alpha  occ. eigenvalues --  -38.44824 -38.44504 -38.44021 -38.44000 -38.43708
 Alpha  occ. eigenvalues --  -38.43321 -38.42706  -2.20676  -2.20373  -2.19947
 Alpha  occ. eigenvalues --   -2.19942  -2.19590  -2.19194  -2.18647  -1.14379
 Alpha  occ. eigenvalues --   -1.14340  -1.14304  -1.14071  -1.14023  -1.14011
 Alpha  occ. eigenvalues --   -1.13657  -1.13617  -1.13598  -1.13589  -1.13556
 Alpha  occ. eigenvalues --   -1.13547  -1.13256  -1.13232  -1.13226  -1.12884
 Alpha  occ. eigenvalues --   -1.12857  -1.12838  -1.12354  -1.12295  -1.12248
 Alpha  occ. eigenvalues --   -0.18879  -0.14207  -0.11336  -0.11231
 Alpha virt. eigenvalues --   -0.06739  -0.05047  -0.04464  -0.03257  -0.02712
 Alpha virt. eigenvalues --   -0.02575  -0.02275  -0.01005  -0.00408  -0.00008
 Alpha virt. eigenvalues --    0.00206   0.00301   0.00379   0.00828   0.00859

  Beta  occ. eigenvalues --  -38.44821 -38.44498 -38.43958 -38.43939 -38.43679
  Beta  occ. eigenvalues --  -38.43319 -38.42688  -2.20673  -2.20361  -2.19838
  Beta  occ. eigenvalues --   -2.19825  -2.19536  -2.19191  -2.18618  -1.14368
  Beta  occ. eigenvalues --   -1.14331  -1.14298  -1.14064  -1.14015  -1.13995
  Beta  occ. eigenvalues --   -1.13585  -1.13532  -1.13508  -1.13505  -1.13473
  Beta  occ. eigenvalues --   -1.13469  -1.13223  -1.13197  -1.13170  -1.12884
  Beta  occ. eigenvalues --   -1.12844  -1.12832  -1.12332  -1.12253  -1.12230
  Beta  occ. eigenvalues --   -0.18130  -0.14051  -0.11133
  Beta virt. eigenvalues --   -0.07325  -0.06552  -0.04773  -0.03974  -0.03116
  Beta virt. eigenvalues --   -0.02297  -0.01970  -0.01647  -0.00771  -0.00196
  Beta virt. eigenvalues --    0.00043   0.00239   0.00362   0.00496   0.00850

 Mulliken charges and spin densities:
               1          2
     1  Na  -0.157365   0.100073
     2  Na  -0.179889   0.031353
     3  Na  -0.176141   0.366670
     4  Na  -0.076859   0.289384
     5  Na   0.707056  -0.026216
     6  Na  -0.373057   0.235729
     7  Na   0.256255   0.003007
 Sum of Mulliken charges =  -0.00000   1.00000

 Dipole moment (field-independent basis, Debye):
    X=              0.2826    Y=             -0.2563    Z=             -0.1166  Tot=              0.3990
 Quadrupole moment (field-independent basis, Debye-Ang):
   XX=            -49.2640   YY=            -77.2283   ZZ=            -68.4902
   XY=             -1.1683   XZ=              0.7885   YZ=              0.3915

 Normal termination of Gaussian 16 at Tue Nov 28 20:54:56 2023.
