 Gaussian 16, Revision B.01,
 Gaussian 16:  ES64L-G16RevB.01 20-Dec-2017

 -------------------------
 #P B3LYP/6-311+g(d) force
 -------------------------

 -----
 DPGEN
 -----
 Symbolic Z-matrix:
 Charge =  0 Multiplicity = 2

                         Standard orientation:
 ---------------------------------------------------------------------
 Center     Atomic      Atomic             Coordinates (Angstroms)
 Number     Number       Type             X           Y           Z
 ---------------------------------------------------------------------
      1         11           0        3.157004   -0.239451    0.322252
      2         11           0        0.714937   -2.697929   -0.039425
      3         11           0        1.238500    2.639378   -0.387055
      4         11           0       -0.046681   -0.043168   -1.823185
      5         11           0       -0.292107   -0.170928    1.855993
      6         11           0       -2.554389   -1.481474   -0.313245
      7         11           0       -2.217265    1.993572    0.384665
 ---------------------------------------------------------------------

 SCF Done:  E(UB3LYP) =  -1136.14002357     A.U. after   19 cycles

 The electronic state is 2-A.
 Alpha  occ. eigenvalues --  -38.43861 -38.43631 -38.43533 -38.43473 -38.43383
 Alpha  occ. eigenvalues --  -38.43372 -38.43242  -2.19677  -2.19516  -2.19426
 Alpha  occ. eigenvalues --   -2.19390  -2.19342  -2.19226  -2.19136  -1.13350
 Alpha  occ. eigenvalues --   -1.13334  -1.13327  -1.13228  -1.13196  -1.13152
 Alpha  occ. eigenvalues --   -1.13132  -1.13097  -1.13049  -1.13040  -1.13024
 Alpha  occ. eigenvalues --   -1.13015  -1.13008  -1.13003  -1.12961  -1.12891
 Alpha  occ. eigenvalues --   -1.12877  -1.12850  -1.12808  -1.12804  -1.12749
 Alpha  occ. eigenvalues --   -0.18905  -0.12922  -0.12612  -0.10974
 Alpha virt. eigenvalues --   -0.05372  -0.05088  -0.04669  -0.03194  -0.03041
 Alpha virt. eigenvalues --   -0.02633  -0.01388  -0.01072  -0.00273  -0.00136
 Alpha virt. eigenvalues --    0.00018   0.00366   0.00851   0.00912   0.00921

  Beta  occ. eigenvalues --  -38.43858 -38.43621 -38.43523 -38.43394 -38.43375
  Beta  occ. eigenvalues --  -38.43291 -38.43235  -2.19674  -2.19501  -2.19376
  Beta  occ. eigenvalues --   -2.19281  -2.19215  -2.19194  -2.19128  -1.13341
  Beta  occ. eigenvalues --   -1.13333  -1.13318  -1.13210  -1.13159  -1.13135
  Beta  occ. eigenvalues --   -1.13091  -1.13024  -1.13013  -1.13004  -1.12952
  Beta  occ. eigenvalues --   -1.12938  -1.12927  -1.12918  -1.12870  -1.12864
  Beta  occ. eigenvalues --   -1.12846  -1.12828  -1.12793  -1.12771  -1.12737
  Beta  occ. eigenvalues --   -0.18167  -0.12670  -0.12333
  Beta virt. eigenvalues --   -0.07059  -0.05326  -0.05076  -0.04629  -0.02426
  Beta virt. eigenvalues --   -0.02246  -0.01584  -0.01298  -0.00993  -0.00280
  Beta virt. eigenvalues --   -0.00194   0.00124   0.00387   0.00901   0.00909

 Mulliken charges and spin densities:
               1          2
     1  Na  -0.089932  -0.053688
     2  Na   0.153068  -0.075148
     3  Na   0.028850  -0.057507
     4  Na  -0.196157   0.608300
     5  Na  -0.295512   0.668589
     6  Na   0.317739  -0.051774
     7  Na   0.081945  -0.038772
 Sum of Mulliken charges =  -0.00000   1.00000

 Dipole moment (field-independent basis, Debye):
    X=             -0.0171    Y=             -0.0227    Z=              0.0640  Tot=              0.0700
 Quadrupole moment (field-independent basis, Debye-Ang):
   XX=            -57.6668   YY=            -62.9095   ZZ=            -73.2196
   XY=              0.0587   XZ=              0.8057   YZ=              0.3171

 Normal termination of Gaussian 16 at Thu Dec  7 19:45:23 2023.
