 Gaussian 16, Revision B.01,
 Gaussian 16:  ES64L-G16RevB.01 20-Dec-2017

 -------------------------
 #P B3LYP/6-311+g(d) force
 -------------------------

 -----
 DPGEN
 -----
 Symbolic Z-matrix:
 Charge =  0 Multiplicity = 2

                         Standard orientation:
 ---------------------------------------------------------------------
 Center     Atomic      Atomic             Coordinates (Angstroms)
 Number     Number       Type             X           Y           Z
 ---------------------------------------------------------------------
      1         11           0        1.042694   -1.116945    0.661690
      2         11           0        4.016101   -2.335057   -0.057174
      3         11           0        2.801539    1.092742   -1.257489
      4         11           0       -1.253564    1.575292   -1.079070
      5         11           0       -2.418224   -0.545643    0.592455
      6         11           0        0.955906    2.455014    1.476167
      7         11           0       -5.144452   -1.125403   -0.336579
 ---------------------------------------------------------------------

 SCF Done:  E(UB3LYP) =  -1136.11331363     A.U. after   22 cycles

 The electronic state is 2-A.
 Alpha  occ. eigenvalues --  -38.45682 -38.45012 -38.44220 -38.43931 -38.43660
 Alpha  occ. eigenvalues --  -38.43196 -38.43117  -2.21521  -2.20806  -2.20056
 Alpha  occ. eigenvalues --   -2.19769  -2.19446  -2.19159  -2.19036  -1.15251
 Alpha  occ. eigenvalues --   -1.15205  -1.15100  -1.14492  -1.14468  -1.14441
 Alpha  occ. eigenvalues --   -1.13747  -1.13726  -1.13631  -1.13488  -1.13395
 Alpha  occ. eigenvalues --   -1.13386  -1.13124  -1.13115  -1.13082  -1.12878
 Alpha  occ. eigenvalues --   -1.12803  -1.12773  -1.12731  -1.12702  -1.12626
 Alpha  occ. eigenvalues --   -0.17865  -0.14015  -0.11891  -0.10349
 Alpha virt. eigenvalues --   -0.07091  -0.05906  -0.04118  -0.03234  -0.02820
 Alpha virt. eigenvalues --   -0.02408  -0.02036  -0.01652  -0.00918  -0.00753
 Alpha virt. eigenvalues --   -0.00317   0.00129   0.00200   0.00440   0.00611

  Beta  occ. eigenvalues --  -38.45679 -38.45023 -38.44157 -38.43872 -38.43665
  Beta  occ. eigenvalues --  -38.43174 -38.43059  -2.21518  -2.20829  -2.19939
  Beta  occ. eigenvalues --   -2.19658  -2.19456  -2.19128  -2.18933  -1.15228
  Beta  occ. eigenvalues --   -1.15204  -1.15105  -1.14512  -1.14458  -1.14455
  Beta  occ. eigenvalues --   -1.13667  -1.13651  -1.13544  -1.13418  -1.13319
  Beta  occ. eigenvalues --   -1.13310  -1.13125  -1.13122  -1.13086  -1.12862
  Beta  occ. eigenvalues --   -1.12782  -1.12695  -1.12665  -1.12631  -1.12533
  Beta  occ. eigenvalues --   -0.17201  -0.13616  -0.11652
  Beta virt. eigenvalues --   -0.06925  -0.06744  -0.05683  -0.03520  -0.03000
  Beta virt. eigenvalues --   -0.02682  -0.02126  -0.01882  -0.01215  -0.00611
  Beta virt. eigenvalues --   -0.00490  -0.00124   0.00244   0.00332   0.00553

 Mulliken charges and spin densities:
               1          2
     1  Na  -0.657511   0.174575
     2  Na   0.904272   0.074428
     3  Na   0.039366   0.438741
     4  Na  -0.257907  -0.031497
     5  Na  -0.775609   0.037784
     6  Na   0.486666   0.071378
     7  Na   0.260722   0.234591
 Sum of Mulliken charges =  -0.00000   1.00000

 Dipole moment (field-independent basis, Debye):
    X=              0.5056    Y=              1.2148    Z=              0.2056  Tot=              1.3318
 Quadrupole moment (field-independent basis, Debye-Ang):
   XX=            -66.1410   YY=            -69.4282   ZZ=            -64.3922
   XY=             -2.1711   XZ=              3.0372   YZ=              2.3751

 Normal termination of Gaussian 16 at Wed Nov 29 02:28:37 2023.
