 Gaussian 16, Revision B.01,
 Gaussian 16:  ES64L-G16RevB.01 20-Dec-2017

 -------------------------
 #P B3LYP/6-311+g(d) force
 -------------------------

 -----
 DPGEN
 -----
 Symbolic Z-matrix:
 Charge =  0 Multiplicity = 2

                         Standard orientation:
 ---------------------------------------------------------------------
 Center     Atomic      Atomic             Coordinates (Angstroms)
 Number     Number       Type             X           Y           Z
 ---------------------------------------------------------------------
      1         11           0        1.184427   -0.173823    1.231940
      2         11           0       -2.426793   -0.504024    0.929837
      3         11           0       -0.731992    2.347475    0.065666
      4         11           0        3.998703   -1.183093   -0.700016
      5         11           0        2.831045    2.092771   -0.349728
      6         11           0       -4.777065    0.147884   -0.966738
      7         11           0       -0.078326   -2.727190   -0.210961
 ---------------------------------------------------------------------

 SCF Done:  E(UB3LYP) =  -1136.12391863     A.U. after   21 cycles

 The electronic state is 2-A.
 Alpha  occ. eigenvalues --  -38.44732 -38.44537 -38.43769 -38.43572 -38.43569
 Alpha  occ. eigenvalues --  -38.43473 -38.43439  -2.20560  -2.20342  -2.19609
 Alpha  occ. eigenvalues --   -2.19537  -2.19402  -2.19375  -2.19261  -1.14224
 Alpha  occ. eigenvalues --   -1.14183  -1.14169  -1.14006  -1.13982  -1.13961
 Alpha  occ. eigenvalues --   -1.13336  -1.13287  -1.13251  -1.13229  -1.13194
 Alpha  occ. eigenvalues --   -1.13166  -1.13095  -1.13079  -1.13069  -1.13045
 Alpha  occ. eigenvalues --   -1.13026  -1.12986  -1.12927  -1.12917  -1.12878
 Alpha  occ. eigenvalues --   -0.17548  -0.14333  -0.11683  -0.11323
 Alpha virt. eigenvalues --   -0.05608  -0.05413  -0.04949  -0.03605  -0.02444
 Alpha virt. eigenvalues --   -0.02259  -0.02083  -0.01333  -0.00690  -0.00438
 Alpha virt. eigenvalues --   -0.00295   0.00143   0.00394   0.00505   0.00596

  Beta  occ. eigenvalues --  -38.44629 -38.44477 -38.43763 -38.43554 -38.43543
  Beta  occ. eigenvalues --  -38.43464 -38.43431  -2.20370  -2.20229  -2.19602
  Beta  occ. eigenvalues --   -2.19495  -2.19372  -2.19368  -2.19249  -1.14096
  Beta  occ. eigenvalues --   -1.14053  -1.14041  -1.13930  -1.13907  -1.13881
  Beta  occ. eigenvalues --   -1.13332  -1.13285  -1.13222  -1.13197  -1.13150
  Beta  occ. eigenvalues --   -1.13133  -1.13075  -1.13063  -1.13055  -1.13020
  Beta  occ. eigenvalues --   -1.12977  -1.12975  -1.12919  -1.12902  -1.12870
  Beta  occ. eigenvalues --   -0.16977  -0.13409  -0.11512
  Beta virt. eigenvalues --   -0.07806  -0.05425  -0.05263  -0.04310  -0.03480
  Beta virt. eigenvalues --   -0.02126  -0.01825  -0.01468  -0.01149  -0.00534
  Beta virt. eigenvalues --   -0.00262  -0.00144   0.00298   0.00485   0.00615

 Mulliken charges and spin densities:
               1          2
     1  Na   0.327194  -0.154165
     2  Na  -0.053853   0.037149
     3  Na  -0.307729   0.036405
     4  Na   0.029094   0.399216
     5  Na   0.060469   0.171535
     6  Na   0.147719   0.460796
     7  Na  -0.202894   0.049064
 Sum of Mulliken charges =  -0.00000   1.00000

 Dipole moment (field-independent basis, Debye):
    X=              0.3370    Y=             -0.0205    Z=             -0.8682  Tot=              0.9315
 Quadrupole moment (field-independent basis, Debye-Ang):
   XX=            -59.6730   YY=            -69.9147   ZZ=            -66.8542
   XY=             -0.7228   XZ=              0.5116   YZ=              0.6206

 Normal termination of Gaussian 16 at Wed Nov 29 03:05:49 2023.
