 Gaussian 16, Revision B.01,
 Gaussian 16:  ES64L-G16RevB.01 20-Dec-2017

 -------------------------
 #P B3LYP/6-311+g(d) force
 -------------------------

 -----
 DPGEN
 -----
 Symbolic Z-matrix:
 Charge =  0 Multiplicity = 2

                         Standard orientation:
 ---------------------------------------------------------------------
 Center     Atomic      Atomic             Coordinates (Angstroms)
 Number     Number       Type             X           Y           Z
 ---------------------------------------------------------------------
      1         11           0       -0.310601   -0.005272   -1.551159
      2         11           0        1.949692    2.270916    0.021951
      3         11           0        0.128345    0.104940    2.117197
      4         11           0        3.158144   -0.839839   -0.147567
      5         11           0       -2.893751   -1.118171    0.433885
      6         11           0       -2.023638    2.495450   -0.455537
      7         11           0       -0.008191   -2.908023   -0.418769
 ---------------------------------------------------------------------

 SCF Done:  E(UB3LYP) =  -1136.13667104     A.U. after   19 cycles

 The electronic state is 2-A.
 Alpha  occ. eigenvalues --  -38.44112 -38.44055 -38.43843 -38.43741 -38.43620
 Alpha  occ. eigenvalues --  -38.43247 -38.43101  -2.19941  -2.19862  -2.19705
 Alpha  occ. eigenvalues --   -2.19575  -2.19433  -2.19104  -2.19086  -1.13612
 Alpha  occ. eigenvalues --   -1.13610  -1.13574  -1.13540  -1.13525  -1.13507
 Alpha  occ. eigenvalues --   -1.13373  -1.13337  -1.13322  -1.13252  -1.13241
 Alpha  occ. eigenvalues --   -1.13199  -1.13137  -1.13080  -1.13065  -1.12877
 Alpha  occ. eigenvalues --   -1.12768  -1.12744  -1.12726  -1.12700  -1.12682
 Alpha  occ. eigenvalues --   -0.18394  -0.13013  -0.12293  -0.10751
 Alpha virt. eigenvalues --   -0.05631  -0.05385  -0.04637  -0.03270  -0.02781
 Alpha virt. eigenvalues --   -0.02583  -0.01584  -0.01238  -0.00446  -0.00413
 Alpha virt. eigenvalues --   -0.00018   0.00342   0.00784   0.00845   0.00865

  Beta  occ. eigenvalues --  -38.44102 -38.44054 -38.43747 -38.43738 -38.43610
  Beta  occ. eigenvalues --  -38.43238 -38.43044  -2.19925  -2.19863  -2.19572
  Beta  occ. eigenvalues --   -2.19527  -2.19417  -2.19089  -2.18984  -1.13602
  Beta  occ. eigenvalues --   -1.13576  -1.13567  -1.13540  -1.13519  -1.13502
  Beta  occ. eigenvalues --   -1.13269  -1.13240  -1.13234  -1.13208  -1.13199
  Beta  occ. eigenvalues --   -1.13180  -1.13115  -1.13062  -1.13056  -1.12844
  Beta  occ. eigenvalues --   -1.12735  -1.12711  -1.12686  -1.12635  -1.12618
  Beta  occ. eigenvalues --   -0.17689  -0.12817  -0.12020
  Beta virt. eigenvalues --   -0.06865  -0.05538  -0.05364  -0.04591  -0.02506
  Beta virt. eigenvalues --   -0.02087  -0.01540  -0.01476  -0.01141  -0.00483
  Beta virt. eigenvalues --   -0.00438   0.00123   0.00374   0.00840   0.00858

 Mulliken charges and spin densities:
               1          2
     1  Na  -0.166517   0.392614
     2  Na   0.149472  -0.039781
     3  Na  -0.372847   0.679927
     4  Na  -0.000106  -0.052154
     5  Na   0.140411   0.090543
     6  Na   0.089297  -0.042341
     7  Na   0.160289  -0.028808
 Sum of Mulliken charges =  -0.00000   1.00000

 Dipole moment (field-independent basis, Debye):
    X=              0.0063    Y=              0.0361    Z=              0.2593  Tot=              0.2619
 Quadrupole moment (field-independent basis, Debye-Ang):
   XX=            -55.8556   YY=            -62.7041   ZZ=            -74.6400
   XY=             -0.1651   XZ=             -1.2327   YZ=             -0.3317

 Normal termination of Gaussian 16 at Thu Dec  7 08:08:28 2023.
