 Gaussian 16, Revision B.01,
 Gaussian 16:  ES64L-G16RevB.01 20-Dec-2017

 -------------------------
 #P B3LYP/6-311+g(d) force
 -------------------------

 -----
 DPGEN
 -----
 Symbolic Z-matrix:
 Charge =  0 Multiplicity = 2

                         Standard orientation:
 ---------------------------------------------------------------------
 Center     Atomic      Atomic             Coordinates (Angstroms)
 Number     Number       Type             X           Y           Z
 ---------------------------------------------------------------------
      1         11           0       -1.073009    2.822519    0.283761
      2         11           0       -3.166127   -0.033341   -0.259686
      3         11           0       -0.876728   -2.764141   -0.104966
      4         11           0        0.430609   -0.503737    1.946330
      5         11           0        2.433374   -1.599278   -0.355035
      6         11           0       -0.072282    0.092377   -1.221186
      7         11           0        2.324164    1.985600   -0.289218
 ---------------------------------------------------------------------

 SCF Done:  E(UB3LYP) =  -1136.13538291     A.U. after   19 cycles

 The electronic state is 2-A.
 Alpha  occ. eigenvalues --  -38.43778 -38.43731 -38.43697 -38.43656 -38.43589
 Alpha  occ. eigenvalues --  -38.43161 -38.42573  -2.19612  -2.19568  -2.19565
 Alpha  occ. eigenvalues --   -2.19552  -2.19484  -2.19109  -2.18701  -1.13309
 Alpha  occ. eigenvalues --   -1.13286  -1.13274  -1.13267  -1.13255  -1.13240
 Alpha  occ. eigenvalues --   -1.13239  -1.13229  -1.13208  -1.13206  -1.13188
 Alpha  occ. eigenvalues --   -1.13173  -1.13156  -1.13156  -1.13090  -1.12797
 Alpha  occ. eigenvalues --   -1.12725  -1.12710  -1.12391  -1.12339  -1.12330
 Alpha  occ. eigenvalues --   -0.19019  -0.12976  -0.12897  -0.10341
 Alpha virt. eigenvalues --   -0.05343  -0.05307  -0.05012  -0.02889  -0.02746
 Alpha virt. eigenvalues --   -0.02073  -0.01416  -0.01299  -0.00455  -0.00353
 Alpha virt. eigenvalues --    0.00033   0.00346   0.00847   0.00873   0.00875

  Beta  occ. eigenvalues --  -38.43775 -38.43727 -38.43690 -38.43642 -38.43580
  Beta  occ. eigenvalues --  -38.43066 -38.42526  -2.19608  -2.19562  -2.19545
  Beta  occ. eigenvalues --   -2.19541  -2.19472  -2.18933  -2.18619  -1.13302
  Beta  occ. eigenvalues --   -1.13275  -1.13267  -1.13257  -1.13253  -1.13229
  Beta  occ. eigenvalues --   -1.13209  -1.13206  -1.13194  -1.13184  -1.13180
  Beta  occ. eigenvalues --   -1.13164  -1.13148  -1.13114  -1.13084  -1.12683
  Beta  occ. eigenvalues --   -1.12603  -1.12584  -1.12321  -1.12275  -1.12265
  Beta  occ. eigenvalues --   -0.18312  -0.12745  -0.12630
  Beta virt. eigenvalues --   -0.06436  -0.05321  -0.05258  -0.04940  -0.02151
  Beta virt. eigenvalues --   -0.02027  -0.01347  -0.01251  -0.01011  -0.00460
  Beta virt. eigenvalues --   -0.00402   0.00192   0.00398   0.00864   0.00882

 Mulliken charges and spin densities:
               1          2
     1  Na   0.075688   0.033264
     2  Na   0.155262   0.000017
     3  Na   0.389934   0.017673
     4  Na  -0.459785   0.734586
     5  Na   0.416317   0.025231
     6  Na  -0.784737   0.171863
     7  Na   0.207321   0.017366
 Sum of Mulliken charges =  -0.00000   1.00000

 Dipole moment (field-independent basis, Debye):
    X=             -0.0363    Y=              0.0682    Z=              0.2215  Tot=              0.2345
 Quadrupole moment (field-independent basis, Debye-Ang):
   XX=            -56.7631   YY=            -58.2774   ZZ=            -76.3274
   XY=              0.1195   XZ=             -1.0457   YZ=              1.4138

 Normal termination of Gaussian 16 at Wed Nov 29 03:18:34 2023.
