 Gaussian 16, Revision B.01,
 Gaussian 16:  ES64L-G16RevB.01 20-Dec-2017

 -------------------------
 #P B3LYP/6-311+g(d) force
 -------------------------

 -----
 DPGEN
 -----
 Symbolic Z-matrix:
 Charge =  0 Multiplicity = 2

                         Standard orientation:
 ---------------------------------------------------------------------
 Center     Atomic      Atomic             Coordinates (Angstroms)
 Number     Number       Type             X           Y           Z
 ---------------------------------------------------------------------
      1         11           0        2.603295   -1.109781   -1.610395
      2         11           0       -0.919051    0.219373   -0.634647
      3         11           0       -0.943625    3.793886   -0.016492
      4         11           0        2.088417    1.757268    0.255242
      5         11           0        2.103188   -1.299196    1.937939
      6         11           0       -1.121455   -2.631468   -0.280712
      7         11           0       -3.810770   -0.730083    0.349065
 ---------------------------------------------------------------------

 SCF Done:  E(UB3LYP) =  -1136.12256052     A.U. after   20 cycles

 The electronic state is 2-A.
 Alpha  occ. eigenvalues --  -38.45016 -38.44622 -38.43960 -38.43793 -38.43681
 Alpha  occ. eigenvalues --  -38.43418 -38.43394  -2.20831  -2.20487  -2.19802
 Alpha  occ. eigenvalues --   -2.19624  -2.19446  -2.19371  -2.19257  -1.14508
 Alpha  occ. eigenvalues --   -1.14487  -1.14466  -1.14273  -1.14135  -1.14062
 Alpha  occ. eigenvalues --   -1.13504  -1.13492  -1.13409  -1.13287  -1.13269
 Alpha  occ. eigenvalues --   -1.13249  -1.13118  -1.13111  -1.13085  -1.13060
 Alpha  occ. eigenvalues --   -1.13026  -1.13001  -1.12913  -1.12898  -1.12869
 Alpha  occ. eigenvalues --   -0.17713  -0.13708  -0.12180  -0.10058
 Alpha virt. eigenvalues --   -0.06528  -0.05392  -0.05009  -0.03374  -0.02376
 Alpha virt. eigenvalues --   -0.02138  -0.01966  -0.01400  -0.00930  -0.00650
 Alpha virt. eigenvalues --   -0.00227   0.00240   0.00284   0.00584   0.00741

  Beta  occ. eigenvalues --  -38.45013 -38.44615 -38.43950 -38.43741 -38.43687
  Beta  occ. eigenvalues --  -38.43377 -38.43334  -2.20825  -2.20477  -2.19786
  Beta  occ. eigenvalues --   -2.19529  -2.19456  -2.19343  -2.19100  -1.14504
  Beta  occ. eigenvalues --   -1.14480  -1.14463  -1.14265  -1.14112  -1.14054
  Beta  occ. eigenvalues --   -1.13497  -1.13453  -1.13397  -1.13222  -1.13194
  Beta  occ. eigenvalues --   -1.13183  -1.13124  -1.13118  -1.13091  -1.13042
  Beta  occ. eigenvalues --   -1.12994  -1.12976  -1.12803  -1.12788  -1.12764
  Beta  occ. eigenvalues --   -0.17175  -0.13458  -0.12056
  Beta virt. eigenvalues --   -0.06413  -0.06125  -0.05180  -0.04959  -0.02884
  Beta virt. eigenvalues --   -0.02011  -0.01852  -0.01561  -0.00997  -0.00760
  Beta virt. eigenvalues --   -0.00650   0.00113   0.00373   0.00505   0.00606

 Mulliken charges and spin densities:
               1          2
     1  Na   0.266545   0.261826
     2  Na  -1.937095   0.202742
     3  Na   0.342032  -0.112147
     4  Na   0.395502   0.219360
     5  Na  -0.212750   0.378422
     6  Na   0.683133   0.148702
     7  Na   0.462633  -0.098907
 Sum of Mulliken charges =  -0.00000   1.00000

 Dipole moment (field-independent basis, Debye):
    X=             -1.4501    Y=             -0.4508    Z=             -0.0433  Tot=              1.5192
 Quadrupole moment (field-independent basis, Debye-Ang):
   XX=            -53.9315   YY=            -61.4344   ZZ=            -76.9517
   XY=              0.5157   XZ=             -4.3171   YZ=              0.8123

 Normal termination of Gaussian 16 at Thu Dec  7 16:53:24 2023.
