 Gaussian 16, Revision B.01,
 Gaussian 16:  ES64L-G16RevB.01 20-Dec-2017

 -------------------------
 #P B3LYP/6-311+g(d) force
 -------------------------

 -----
 DPGEN
 -----
 Symbolic Z-matrix:
 Charge =  0 Multiplicity = 2

                         Standard orientation:
 ---------------------------------------------------------------------
 Center     Atomic      Atomic             Coordinates (Angstroms)
 Number     Number       Type             X           Y           Z
 ---------------------------------------------------------------------
      1         11           0        2.514514    0.071932   -0.125471
      2         11           0        2.971912   -3.176450    0.492274
      3         11           0       -2.578576   -0.160236   -1.061437
      4         11           0        1.934308    3.605705    0.891763
      5         11           0       -4.682623   -0.720844    1.247254
      6         11           0        0.285484   -1.827302   -0.563715
      7         11           0       -0.445018    2.207195   -0.880669
 ---------------------------------------------------------------------

 SCF Done:  E(UB3LYP) =  -1136.12187035     A.U. after   23 cycles

 The electronic state is 2-A.
 Alpha  occ. eigenvalues --  -38.44601 -38.44530 -38.44260 -38.43985 -38.43910
 Alpha  occ. eigenvalues --  -38.43627 -38.42829  -2.20485  -2.20372  -2.20187
 Alpha  occ. eigenvalues --   -2.19851  -2.19737  -2.19440  -2.18733  -1.14295
 Alpha  occ. eigenvalues --   -1.14176  -1.14092  -1.14050  -1.14021  -1.13978
 Alpha  occ. eigenvalues --   -1.13868  -1.13846  -1.13754  -1.13531  -1.13516
 Alpha  occ. eigenvalues --   -1.13501  -1.13378  -1.13361  -1.13359  -1.13100
 Alpha  occ. eigenvalues --   -1.13095  -1.13061  -1.12420  -1.12396  -1.12388
 Alpha  occ. eigenvalues --   -0.17450  -0.13937  -0.13032  -0.10519
 Alpha virt. eigenvalues --   -0.06107  -0.05531  -0.04289  -0.04153  -0.02627
 Alpha virt. eigenvalues --   -0.02065  -0.01706  -0.01590  -0.01309  -0.00760
 Alpha virt. eigenvalues --   -0.00057   0.00143   0.00215   0.00511   0.00605

  Beta  occ. eigenvalues --  -38.44596 -38.44518 -38.44236 -38.43967 -38.43801
  Beta  occ. eigenvalues --  -38.43601 -38.42816  -2.20479  -2.20350  -2.20147
  Beta  occ. eigenvalues --   -2.19820  -2.19533  -2.19390  -2.18722  -1.14275
  Beta  occ. eigenvalues --   -1.14170  -1.14085  -1.14033  -1.14005  -1.13967
  Beta  occ. eigenvalues --   -1.13844  -1.13819  -1.13712  -1.13516  -1.13494
  Beta  occ. eigenvalues --   -1.13459  -1.13245  -1.13222  -1.13221  -1.13065
  Beta  occ. eigenvalues --   -1.13060  -1.13030  -1.12422  -1.12394  -1.12307
  Beta  occ. eigenvalues --   -0.16966  -0.13479  -0.12553
  Beta virt. eigenvalues --   -0.07014  -0.05891  -0.05275  -0.04115  -0.03673
  Beta virt. eigenvalues --   -0.02509  -0.01918  -0.01390  -0.01093  -0.01039
  Beta virt. eigenvalues --   -0.00470   0.00192   0.00348   0.00399   0.00653

 Mulliken charges and spin densities:
               1          2
     1  Na  -0.531291   0.144462
     2  Na   1.232476   0.118497
     3  Na  -0.006621  -0.504464
     4  Na   0.650295   0.188207
     5  Na   0.185596   0.615476
     6  Na  -0.989930   0.199732
     7  Na  -0.540526   0.238090
 Sum of Mulliken charges =  -0.00000   1.00000

 Dipole moment (field-independent basis, Debye):
    X=              1.8645    Y=             -0.7634    Z=              0.3204  Tot=              2.0400
 Quadrupole moment (field-independent basis, Debye-Ang):
   XX=            -69.4986   YY=            -58.7505   ZZ=            -69.6827
   XY=             -6.3223   XZ=              1.9560   YZ=             -0.9760

 Normal termination of Gaussian 16 at Tue Nov 28 20:34:48 2023.
