 Gaussian 16, Revision B.01,
 Gaussian 16:  ES64L-G16RevB.01 20-Dec-2017

 -------------------------
 #P B3LYP/6-311+g(d) force
 -------------------------

 -----
 DPGEN
 -----
 Symbolic Z-matrix:
 Charge =  0 Multiplicity = 2

                         Standard orientation:
 ---------------------------------------------------------------------
 Center     Atomic      Atomic             Coordinates (Angstroms)
 Number     Number       Type             X           Y           Z
 ---------------------------------------------------------------------
      1         11           0       -1.835799   -1.392718    0.907926
      2         11           0       -5.082569   -1.034204   -0.541452
      3         11           0       -5.349330    1.799588    0.329341
      4         11           0       -0.868536    1.026405   -0.823105
      5         11           0        1.361499   -1.195530   -0.346398
      6         11           0        4.798252    0.561867    1.318225
      7         11           0        6.976482    0.234593   -0.844537
 ---------------------------------------------------------------------

 SCF Done:  E(UB3LYP) =  -1136.10759292     A.U. after   20 cycles

 The electronic state is 2-A.
 Alpha  occ. eigenvalues --  -38.44832 -38.44668 -38.44646 -38.44631 -38.43753
 Alpha  occ. eigenvalues --  -38.43729 -38.43579  -2.20616  -2.20488  -2.20470
 Alpha  occ. eigenvalues --   -2.20458  -2.19598  -2.19552  -2.19471  -1.14323
 Alpha  occ. eigenvalues --   -1.14270  -1.14268  -1.14200  -1.14183  -1.14149
 Alpha  occ. eigenvalues --   -1.14137  -1.14119  -1.14112  -1.14104  -1.14069
 Alpha  occ. eigenvalues --   -1.14029  -1.13401  -1.13256  -1.13246  -1.13190
 Alpha  occ. eigenvalues --   -1.13178  -1.13159  -1.13131  -1.13117  -1.13053
 Alpha  occ. eigenvalues --   -0.16507  -0.14079  -0.12595  -0.09701
 Alpha virt. eigenvalues --   -0.06776  -0.05471  -0.05289  -0.03446  -0.02978
 Alpha virt. eigenvalues --   -0.02547  -0.02013  -0.02009  -0.01084  -0.00732
 Alpha virt. eigenvalues --   -0.00525  -0.00113   0.00241   0.00324   0.00467

  Beta  occ. eigenvalues --  -38.44827 -38.44669 -38.44645 -38.44592 -38.43740
  Beta  occ. eigenvalues --  -38.43691 -38.43510  -2.20607  -2.20469  -2.20460
  Beta  occ. eigenvalues --   -2.20414  -2.19576  -2.19480  -2.19345  -1.14319
  Beta  occ. eigenvalues --   -1.14265  -1.14262  -1.14175  -1.14147  -1.14126
  Beta  occ. eigenvalues --   -1.14121  -1.14107  -1.14101  -1.14084  -1.14068
  Beta  occ. eigenvalues --   -1.13996  -1.13369  -1.13245  -1.13212  -1.13139
  Beta  occ. eigenvalues --   -1.13127  -1.13077  -1.13072  -1.13041  -1.12961
  Beta  occ. eigenvalues --   -0.15954  -0.13914  -0.12411
  Beta virt. eigenvalues --   -0.06677  -0.06058  -0.05349  -0.04733  -0.03164
  Beta virt. eigenvalues --   -0.02861  -0.02362  -0.01848  -0.01424  -0.01039
  Beta virt. eigenvalues --   -0.00444  -0.00226   0.00139   0.00333   0.00495

 Mulliken charges and spin densities:
               1          2
     1  Na  -0.058214   0.573548
     2  Na   0.294800  -0.004625
     3  Na  -0.047583   0.191229
     4  Na  -0.063536   0.202622
     5  Na  -0.208371   0.019598
     6  Na  -0.096595  -0.005177
     7  Na   0.179500   0.022806
 Sum of Mulliken charges =  -0.00000   1.00000

 Dipole moment (field-independent basis, Debye):
    X=              2.2848    Y=             -0.1081    Z=             -0.3752  Tot=              2.3179
 Quadrupole moment (field-independent basis, Debye-Ang):
   XX=            -61.4089   YY=            -72.9135   ZZ=            -65.9269
   XY=             -1.8217   XZ=             -4.5617   YZ=              4.4589

 Normal termination of Gaussian 16 at Tue Nov 28 20:57:54 2023.
