 Gaussian 16, Revision B.01,
 Gaussian 16:  ES64L-G16RevB.01 20-Dec-2017

 -------------------------
 #P B3LYP/6-311+g(d) force
 -------------------------

 -----
 DPGEN
 -----
 Symbolic Z-matrix:
 Charge =  0 Multiplicity = 2

                         Standard orientation:
 ---------------------------------------------------------------------
 Center     Atomic      Atomic             Coordinates (Angstroms)
 Number     Number       Type             X           Y           Z
 ---------------------------------------------------------------------
      1         11           0        1.628651    1.999075    0.265842
      2         11           0        4.820401    1.034397   -0.760376
      3         11           0        5.361676   -1.921884    0.629804
      4         11           0        1.447179   -1.068802   -0.538320
      5         11           0       -1.779273    0.637290    0.163998
      6         11           0       -4.684082    0.057982    1.208563
      7         11           0       -6.794552   -0.738057   -0.969511
 ---------------------------------------------------------------------

 SCF Done:  E(UB3LYP) =  -1136.11262633     A.U. after   22 cycles

 The electronic state is 2-A.
 Alpha  occ. eigenvalues --  -38.45474 -38.44854 -38.44197 -38.43952 -38.43822
 Alpha  occ. eigenvalues --  -38.43726 -38.43682  -2.21271  -2.20642  -2.20037
 Alpha  occ. eigenvalues --   -2.19777  -2.19696  -2.19560  -2.19484  -1.14982
 Alpha  occ. eigenvalues --   -1.14969  -1.14849  -1.14302  -1.14291  -1.14286
 Alpha  occ. eigenvalues --   -1.13741  -1.13688  -1.13676  -1.13461  -1.13448
 Alpha  occ. eigenvalues --   -1.13426  -1.13379  -1.13359  -1.13285  -1.13238
 Alpha  occ. eigenvalues --   -1.13231  -1.13162  -1.13138  -1.13132  -1.13104
 Alpha  occ. eigenvalues --   -0.16485  -0.14559  -0.12059  -0.10352
 Alpha virt. eigenvalues --   -0.07330  -0.05333  -0.04483  -0.03523  -0.02805
 Alpha virt. eigenvalues --   -0.02735  -0.02113  -0.01923  -0.01069  -0.00716
 Alpha virt. eigenvalues --   -0.00419  -0.00122   0.00152   0.00337   0.00567

  Beta  occ. eigenvalues --  -38.45467 -38.44821 -38.44202 -38.43932 -38.43765
  Beta  occ. eigenvalues --  -38.43705 -38.43631  -2.21258  -2.20580  -2.20049
  Beta  occ. eigenvalues --   -2.19746  -2.19592  -2.19521  -2.19386  -1.14971
  Beta  occ. eigenvalues --   -1.14947  -1.14841  -1.14263  -1.14248  -1.14244
  Beta  occ. eigenvalues --   -1.13736  -1.13699  -1.13676  -1.13445  -1.13421
  Beta  occ. eigenvalues --   -1.13371  -1.13316  -1.13290  -1.13210  -1.13206
  Beta  occ. eigenvalues --   -1.13190  -1.13144  -1.13071  -1.13066  -1.13042
  Beta  occ. eigenvalues --   -0.15994  -0.14217  -0.11801
  Beta virt. eigenvalues --   -0.07205  -0.06577  -0.04922  -0.04358  -0.03306
  Beta virt. eigenvalues --   -0.02643  -0.02318  -0.01826  -0.01620  -0.00787
  Beta virt. eigenvalues --   -0.00550  -0.00192   0.00184   0.00254   0.00457

 Mulliken charges and spin densities:
               1          2
     1  Na  -0.248115   0.625602
     2  Na   0.121753  -0.011842
     3  Na   0.165288   0.239242
     4  Na  -0.112129   0.261279
     5  Na  -0.701555  -0.189662
     6  Na   0.644274  -0.075436
     7  Na   0.130484   0.150817
 Sum of Mulliken charges =  -0.00000   1.00000

 Dipole moment (field-independent basis, Debye):
    X=             -1.0185    Y=             -0.1411    Z=             -0.4154  Tot=              1.1089
 Quadrupole moment (field-independent basis, Debye-Ang):
   XX=            -62.7454   YY=            -69.9797   ZZ=            -66.4977
   XY=              2.8557   XZ=              3.9241   YZ=              2.1167

 Normal termination of Gaussian 16 at Tue Nov 28 19:50:24 2023.
