 Gaussian 16, Revision B.01,
 Gaussian 16:  ES64L-G16RevB.01 20-Dec-2017

 -------------------------
 #P B3LYP/6-311+g(d) force
 -------------------------

 -----
 DPGEN
 -----
 Symbolic Z-matrix:
 Charge =  0 Multiplicity = 2

                         Standard orientation:
 ---------------------------------------------------------------------
 Center     Atomic      Atomic             Coordinates (Angstroms)
 Number     Number       Type             X           Y           Z
 ---------------------------------------------------------------------
      1         11           0       -4.212214    0.676480    0.016389
      2         11           0        2.724514    3.302116    0.342721
      3         11           0        2.398585    0.075215   -0.083080
      4         11           0       -0.572350   -1.208059   -1.601917
      5         11           0       -1.242573   -1.441576    1.609142
      6         11           0       -1.078915    1.968038   -0.319694
      7         11           0        1.982954   -3.372214    0.036439
 ---------------------------------------------------------------------

 SCF Done:  E(UB3LYP) =  -1136.12334404     A.U. after   22 cycles

 The electronic state is 2-A.
 Alpha  occ. eigenvalues --  -38.45218 -38.44698 -38.44618 -38.44067 -38.43676
 Alpha  occ. eigenvalues --  -38.43479 -38.43236  -2.20980  -2.20478  -2.20429
 Alpha  occ. eigenvalues --   -2.19892  -2.19571  -2.19332  -2.19027  -1.14663
 Alpha  occ. eigenvalues --   -1.14642  -1.14604  -1.14162  -1.14139  -1.14128
 Alpha  occ. eigenvalues --   -1.14111  -1.14100  -1.14000  -1.13604  -1.13582
 Alpha  occ. eigenvalues --   -1.13479  -1.13261  -1.13239  -1.13145  -1.13030
 Alpha  occ. eigenvalues --   -1.13024  -1.12956  -1.12690  -1.12686  -1.12651
 Alpha  occ. eigenvalues --   -0.17668  -0.13319  -0.12373  -0.09819
 Alpha virt. eigenvalues --   -0.06978  -0.05578  -0.05075  -0.03072  -0.02674
 Alpha virt. eigenvalues --   -0.02530  -0.01789  -0.01638  -0.01077  -0.00685
 Alpha virt. eigenvalues --   -0.00120   0.00100   0.00356   0.00494   0.00536

  Beta  occ. eigenvalues --  -38.45218 -38.44698 -38.44558 -38.44051 -38.43601
  Beta  occ. eigenvalues --  -38.43473 -38.43224  -2.20980  -2.20479  -2.20318
  Beta  occ. eigenvalues --   -2.19866  -2.19436  -2.19324  -2.19004  -1.14665
  Beta  occ. eigenvalues --   -1.14627  -1.14606  -1.14164  -1.14126  -1.14103
  Beta  occ. eigenvalues --   -1.14043  -1.14034  -1.13919  -1.13587  -1.13535
  Beta  occ. eigenvalues --   -1.13471  -1.13173  -1.13131  -1.13048  -1.13026
  Beta  occ. eigenvalues --   -1.12994  -1.12950  -1.12674  -1.12667  -1.12638
  Beta  occ. eigenvalues --   -0.17016  -0.13173  -0.12146
  Beta virt. eigenvalues --   -0.06836  -0.06152  -0.05295  -0.04981  -0.02579
  Beta virt. eigenvalues --   -0.02473  -0.02052  -0.01636  -0.01174  -0.00963
  Beta virt. eigenvalues --   -0.00393   0.00063   0.00207   0.00515   0.00584

 Mulliken charges and spin densities:
               1          2
     1  Na   0.324605   0.026343
     2  Na   0.797219   0.104434
     3  Na  -1.227620  -0.041910
     4  Na   0.278968   0.331030
     5  Na  -0.217379   0.493988
     6  Na  -0.539300  -0.031348
     7  Na   0.583509   0.117464
 Sum of Mulliken charges =  -0.00000   1.00000

 Dipole moment (field-independent basis, Debye):
    X=             -1.1364    Y=             -0.7442    Z=             -0.4145  Tot=              1.4202
 Quadrupole moment (field-independent basis, Debye-Ang):
   XX=            -54.5959   YY=            -59.8305   ZZ=            -77.4636
   XY=             -7.3480   XZ=              2.0415   YZ=              1.7031

 Normal termination of Gaussian 16 at Mon Dec  4 05:36:53 2023.
