 Gaussian 16, Revision B.01,
 Gaussian 16:  ES64L-G16RevB.01 20-Dec-2017

 -------------------------
 #P B3LYP/6-311+g(d) force
 -------------------------

 -----
 DPGEN
 -----
 Symbolic Z-matrix:
 Charge =  0 Multiplicity = 2

                         Standard orientation:
 ---------------------------------------------------------------------
 Center     Atomic      Atomic             Coordinates (Angstroms)
 Number     Number       Type             X           Y           Z
 ---------------------------------------------------------------------
      1         11           0       -2.203784   -0.339495   -0.305900
      2         11           0       -0.004278   -1.905386    1.289600
      3         11           0        3.670412    0.564130   -0.057500
      4         11           0        0.808312    0.452118   -0.609500
      5         11           0       -0.275478   -1.935287   -1.445800
      6         11           0       -0.661489    0.735212    1.699900
      7         11           0       -1.333696    2.428709   -0.570800
 ---------------------------------------------------------------------

 SCF Done:  E(UB3LYP) =  -1136.07244548     A.U. after   23 cycles

 The electronic state is 2-A.
 Alpha  occ. eigenvalues --  -38.44615 -38.44418 -38.44255 -38.44044 -38.43868
 Alpha  occ. eigenvalues --  -38.43650 -38.42967  -2.20852  -2.20539  -2.20171
 Alpha  occ. eigenvalues --   -2.20108  -2.20055  -2.19677  -2.19308  -1.14759
 Alpha  occ. eigenvalues --   -1.14579  -1.14490  -1.14468  -1.14266  -1.14204
 Alpha  occ. eigenvalues --   -1.13833  -1.13803  -1.13778  -1.13749  -1.13718
 Alpha  occ. eigenvalues --   -1.13693  -1.13685  -1.13675  -1.13650  -1.13409
 Alpha  occ. eigenvalues --   -1.13292  -1.13261  -1.12991  -1.12932  -1.12843
 Alpha  occ. eigenvalues --   -0.21054  -0.13113  -0.12558  -0.12365
 Alpha virt. eigenvalues --   -0.05771  -0.04600  -0.03526  -0.03252  -0.03047
 Alpha virt. eigenvalues --   -0.02830  -0.01367  -0.00766  -0.00283   0.00272
 Alpha virt. eigenvalues --    0.00519   0.00672   0.00828   0.00911   0.01094

  Beta  occ. eigenvalues --  -38.44529 -38.44365 -38.44265 -38.43991 -38.43837
  Beta  occ. eigenvalues --  -38.43637 -38.42932  -2.20699  -2.20445  -2.20080
  Beta  occ. eigenvalues --   -2.20075  -2.20061  -2.19656  -2.19252  -1.14669
  Beta  occ. eigenvalues --   -1.14448  -1.14415  -1.14379  -1.14180  -1.14134
  Beta  occ. eigenvalues --   -1.13807  -1.13757  -1.13752  -1.13704  -1.13699
  Beta  occ. eigenvalues --   -1.13681  -1.13629  -1.13611  -1.13592  -1.13391
  Beta  occ. eigenvalues --   -1.13263  -1.13239  -1.12940  -1.12871  -1.12790
  Beta  occ. eigenvalues --   -0.20128  -0.12941  -0.12401
  Beta virt. eigenvalues --   -0.07842  -0.05656  -0.04495  -0.03214  -0.02825
  Beta virt. eigenvalues --   -0.02216  -0.01889  -0.01235  -0.00722  -0.00021
  Beta virt. eigenvalues --    0.00325   0.00510   0.00697   0.00884   0.01031

 Mulliken charges and spin densities:
               1          2
     1  Na   0.340916   0.348765
     2  Na  -0.077844   0.011936
     3  Na  -0.417805  -0.012525
     4  Na  -1.171878   0.171776
     5  Na   0.603229   0.121440
     6  Na  -0.263110   0.424394
     7  Na   0.986492  -0.065786
 Sum of Mulliken charges =  -0.00000   1.00000

 Dipole moment (field-independent basis, Debye):
    X=              0.1159    Y=             -0.0908    Z=              0.0354  Tot=              0.1514
 Quadrupole moment (field-independent basis, Debye-Ang):
   XX=            -61.2162   YY=            -65.8800   ZZ=            -66.9242
   XY=             -1.5456   XZ=              2.0548   YZ=             -0.7396

 Normal termination of Gaussian 16 at Sat Dec  9 06:32:40 2023.
