 Gaussian 16, Revision B.01,
 Gaussian 16:  ES64L-G16RevB.01 20-Dec-2017

 -------------------------
 #P B3LYP/6-311+g(d) force
 -------------------------

 -----
 DPGEN
 -----
 Symbolic Z-matrix:
 Charge =  0 Multiplicity = 2

                         Standard orientation:
 ---------------------------------------------------------------------
 Center     Atomic      Atomic             Coordinates (Angstroms)
 Number     Number       Type             X           Y           Z
 ---------------------------------------------------------------------
      1         11           0        2.864890    1.376515   -0.102806
      2         11           0        0.043095   -0.403472    1.976048
      3         11           0        2.425020   -2.162437   -0.019879
      4         11           0       -1.810464   -2.172582   -0.263138
      5         11           0        0.213956    0.228227   -1.809916
      6         11           0       -3.401105    0.526273   -0.078970
      7         11           0       -0.335392    2.607475    0.298661
 ---------------------------------------------------------------------

 SCF Done:  E(UB3LYP) =  -1136.13449708     A.U. after   20 cycles

 The electronic state is 2-A.
 Alpha  occ. eigenvalues --  -38.44614 -38.44232 -38.43725 -38.43605 -38.43554
 Alpha  occ. eigenvalues --  -38.43553 -38.42784  -2.20427  -2.20072  -2.19535
 Alpha  occ. eigenvalues --   -2.19526  -2.19449  -2.19419  -2.18665  -1.14116
 Alpha  occ. eigenvalues --   -1.14086  -1.14063  -1.13756  -1.13731  -1.13706
 Alpha  occ. eigenvalues --   -1.13228  -1.13203  -1.13194  -1.13179  -1.13172
 Alpha  occ. eigenvalues --   -1.13147  -1.13138  -1.13105  -1.13082  -1.13065
 Alpha  occ. eigenvalues --   -1.13055  -1.13041  -1.12359  -1.12333  -1.12281
 Alpha  occ. eigenvalues --   -0.18548  -0.13395  -0.11952  -0.10769
 Alpha virt. eigenvalues --   -0.06161  -0.05420  -0.04053  -0.03383  -0.02811
 Alpha virt. eigenvalues --   -0.02546  -0.01943  -0.01222  -0.00373  -0.00162
 Alpha virt. eigenvalues --   -0.00053   0.00325   0.00704   0.00832   0.00857

  Beta  occ. eigenvalues --  -38.44615 -38.44228 -38.43724 -38.43544 -38.43536
  Beta  occ. eigenvalues --  -38.43464 -38.42773  -2.20430  -2.20067  -2.19528
  Beta  occ. eigenvalues --   -2.19408  -2.19405  -2.19284  -2.18648  -1.14120
  Beta  occ. eigenvalues --   -1.14073  -1.14065  -1.13744  -1.13714  -1.13708
  Beta  occ. eigenvalues --   -1.13194  -1.13183  -1.13173  -1.13142  -1.13110
  Beta  occ. eigenvalues --   -1.13080  -1.13061  -1.13046  -1.13039  -1.13005
  Beta  occ. eigenvalues --   -1.12955  -1.12940  -1.12351  -1.12291  -1.12273
  Beta  occ. eigenvalues --   -0.17804  -0.13187  -0.11720
  Beta virt. eigenvalues --   -0.06863  -0.06069  -0.05439  -0.04017  -0.02619
  Beta virt. eigenvalues --   -0.02028  -0.01845  -0.01522  -0.01162  -0.00423
  Beta virt. eigenvalues --   -0.00176   0.00091   0.00346   0.00773   0.00838

 Mulliken charges and spin densities:
               1          2
     1  Na   0.252275  -0.040638
     2  Na  -0.388871   0.734218
     3  Na   0.071595  -0.141888
     4  Na   0.217365  -0.079774
     5  Na  -0.257589   0.611694
     6  Na   0.016138  -0.046837
     7  Na   0.089088  -0.036775
 Sum of Mulliken charges =  -0.00000   1.00000

 Dipole moment (field-independent basis, Debye):
    X=             -0.0205    Y=              0.0158    Z=             -0.0073  Tot=              0.0269
 Quadrupole moment (field-independent basis, Debye-Ang):
   XX=            -51.7900   YY=            -67.4651   ZZ=            -74.0851
   XY=             -0.6907   XZ=              0.1449   YZ=              1.2499

 Normal termination of Gaussian 16 at Tue Dec  5 12:40:40 2023.
