 Gaussian 16, Revision B.01,
 Gaussian 16:  ES64L-G16RevB.01 20-Dec-2017

 -------------------------
 #P B3LYP/6-311+g(d) force
 -------------------------

 -----
 DPGEN
 -----
 Symbolic Z-matrix:
 Charge =  0 Multiplicity = 2

                         Standard orientation:
 ---------------------------------------------------------------------
 Center     Atomic      Atomic             Coordinates (Angstroms)
 Number     Number       Type             X           Y           Z
 ---------------------------------------------------------------------
      1         11           0        0.969554   -3.123012   -0.278712
      2         11           0        3.153205   -1.485137    1.597661
      3         11           0        3.791750    1.373374   -0.624830
      4         11           0        0.924108    2.669279   -1.055015
      5         11           0       -2.238806    2.908929    0.921522
      6         11           0       -3.924056   -0.223309    0.689230
      7         11           0       -2.675755   -2.120124   -1.249856
 ---------------------------------------------------------------------

 SCF Done:  E(UB3LYP) =  -1136.10749153     A.U. after   23 cycles

 The electronic state is 2-A.
 Alpha  occ. eigenvalues --  -38.44970 -38.44901 -38.44550 -38.44475 -38.44387
 Alpha  occ. eigenvalues --  -38.43939 -38.43919  -2.20782  -2.20657  -2.20346
 Alpha  occ. eigenvalues --   -2.20289  -2.20170  -2.19772  -2.19712  -1.14504
 Alpha  occ. eigenvalues --   -1.14443  -1.14418  -1.14340  -1.14332  -1.14296
 Alpha  occ. eigenvalues --   -1.14008  -1.13994  -1.13987  -1.13985  -1.13945
 Alpha  occ. eigenvalues --   -1.13911  -1.13844  -1.13832  -1.13788  -1.13442
 Alpha  occ. eigenvalues --   -1.13406  -1.13390  -1.13366  -1.13349  -1.13342
 Alpha  occ. eigenvalues --   -0.15814  -0.14124  -0.13027  -0.10687
 Alpha virt. eigenvalues --   -0.07462  -0.04880  -0.04386  -0.03747  -0.03621
 Alpha virt. eigenvalues --   -0.02185  -0.01818  -0.01590  -0.01322  -0.01031
 Alpha virt. eigenvalues --   -0.00650  -0.00144   0.00115   0.00411   0.00619

  Beta  occ. eigenvalues --  -38.44964 -38.44893 -38.44513 -38.44432 -38.44377
  Beta  occ. eigenvalues --  -38.43888 -38.43846  -2.20778  -2.20648  -2.20279
  Beta  occ. eigenvalues --   -2.20212  -2.20156  -2.19677  -2.19578  -1.14484
  Beta  occ. eigenvalues --   -1.14447  -1.14391  -1.14333  -1.14330  -1.14268
  Beta  occ. eigenvalues --   -1.13963  -1.13946  -1.13937  -1.13930  -1.13894
  Beta  occ. eigenvalues --   -1.13857  -1.13838  -1.13824  -1.13741  -1.13380
  Beta  occ. eigenvalues --   -1.13341  -1.13328  -1.13274  -1.13262  -1.13251
  Beta  occ. eigenvalues --   -0.15330  -0.13421  -0.12265
  Beta virt. eigenvalues --   -0.07618  -0.07564  -0.04397  -0.03867  -0.03585
  Beta virt. eigenvalues --   -0.03408  -0.02003  -0.01498  -0.01293  -0.01101
  Beta virt. eigenvalues --   -0.00744  -0.00544   0.00096   0.00234   0.00467

 Mulliken charges and spin densities:
               1          2
     1  Na  -0.233149   0.054765
     2  Na   0.021379   0.161435
     3  Na   0.365889   0.140196
     4  Na  -0.534741   0.032836
     5  Na   0.342357   0.365546
     6  Na  -0.129668   0.042188
     7  Na   0.167933   0.203033
 Sum of Mulliken charges =  -0.00000   1.00000

 Dipole moment (field-independent basis, Debye):
    X=              0.5766    Y=             -0.4085    Z=              0.2108  Tot=              0.7374
 Quadrupole moment (field-independent basis, Debye-Ang):
   XX=            -60.7678   YY=            -74.1668   ZZ=            -67.4583
   XY=             -0.0813   XZ=              0.2557   YZ=              1.8538

 Normal termination of Gaussian 16 at Sun Dec  3 23:46:49 2023.
