 Gaussian 16, Revision B.01,
 Gaussian 16:  ES64L-G16RevB.01 20-Dec-2017

 -------------------------
 #P B3LYP/6-311+g(d) force
 -------------------------

 -----
 DPGEN
 -----
 Symbolic Z-matrix:
 Charge =  0 Multiplicity = 2

                         Standard orientation:
 ---------------------------------------------------------------------
 Center     Atomic      Atomic             Coordinates (Angstroms)
 Number     Number       Type             X           Y           Z
 ---------------------------------------------------------------------
      1         11           0        3.865741    0.727494   -0.379118
      2         11           0       -1.759048    3.285413   -0.122586
      3         11           0       -4.323639    0.439839   -0.303434
      4         11           0        0.270333   -3.478680    1.034761
      5         11           0       -3.116591   -2.261952   -0.198358
      6         11           0        1.826157    3.834120    0.608639
      7         11           0        3.237046   -2.546234   -0.639904
 ---------------------------------------------------------------------

 SCF Done:  E(UB3LYP) =  -1136.10487723     A.U. after   24 cycles

 The electronic state is 2-A.
 Alpha  occ. eigenvalues --  -38.45695 -38.45174 -38.44624 -38.44614 -38.44586
 Alpha  occ. eigenvalues --  -38.44028 -38.43955  -2.21427  -2.20978  -2.20403
 Alpha  occ. eigenvalues --   -2.20371  -2.20357  -2.19819  -2.19794  -1.15111
 Alpha  occ. eigenvalues --   -1.15096  -1.15039  -1.14685  -1.14642  -1.14623
 Alpha  occ. eigenvalues --   -1.14099  -1.14082  -1.14059  -1.14038  -1.14035
 Alpha  occ. eigenvalues --   -1.14025  -1.14015  -1.13997  -1.13969  -1.13473
 Alpha  occ. eigenvalues --   -1.13472  -1.13463  -1.13442  -1.13430  -1.13415
 Alpha  occ. eigenvalues --   -0.15456  -0.14006  -0.13389  -0.10797
 Alpha virt. eigenvalues --   -0.07946  -0.04802  -0.04653  -0.03533  -0.03405
 Alpha virt. eigenvalues --   -0.02449  -0.02265  -0.01882  -0.01599  -0.00936
 Alpha virt. eigenvalues --   -0.00515  -0.00106  -0.00032   0.00301   0.00526

  Beta  occ. eigenvalues --  -38.45665 -38.45159 -38.44624 -38.44610 -38.44531
  Beta  occ. eigenvalues --  -38.43953 -38.43916  -2.21374  -2.20958  -2.20409
  Beta  occ. eigenvalues --   -2.20353  -2.20270  -2.19722  -2.19680  -1.15077
  Beta  occ. eigenvalues --   -1.15063  -1.14986  -1.14656  -1.14633  -1.14585
  Beta  occ. eigenvalues --   -1.14090  -1.14089  -1.14036  -1.14032  -1.14022
  Beta  occ. eigenvalues --   -1.13979  -1.13968  -1.13953  -1.13903  -1.13423
  Beta  occ. eigenvalues --   -1.13381  -1.13377  -1.13369  -1.13367  -1.13351
  Beta  occ. eigenvalues --   -0.14895  -0.13383  -0.12684
  Beta virt. eigenvalues --   -0.08120  -0.07586  -0.04342  -0.04168  -0.03260
  Beta virt. eigenvalues --   -0.03105  -0.02295  -0.02063  -0.01779  -0.01457
  Beta virt. eigenvalues --   -0.00591  -0.00253   0.00149   0.00199   0.00309

 Mulliken charges and spin densities:
               1          2
     1  Na  -0.065213   0.224256
     2  Na  -0.168042   0.206678
     3  Na   0.484000   0.190529
     4  Na  -0.316514   0.329563
     5  Na  -0.392017   0.102939
     6  Na   0.309446  -0.010001
     7  Na   0.148341  -0.043964
 Sum of Mulliken charges =  -0.00000   1.00000

 Dipole moment (field-independent basis, Debye):
    X=             -0.1935    Y=              0.4850    Z=             -0.1097  Tot=              0.5335
 Quadrupole moment (field-independent basis, Debye-Ang):
   XX=            -63.5902   YY=            -64.4363   ZZ=            -72.7202
   XY=             -0.6829   XZ=              0.7177   YZ=              1.6229

 Normal termination of Gaussian 16 at Sun Dec  3 20:12:56 2023.
