 Gaussian 16, Revision B.01,
 Gaussian 16:  ES64L-G16RevB.01 20-Dec-2017

 -------------------------
 #P B3LYP/6-311+g(d) force
 -------------------------

 -----
 DPGEN
 -----
 Symbolic Z-matrix:
 Charge =  0 Multiplicity = 2

                         Standard orientation:
 ---------------------------------------------------------------------
 Center     Atomic      Atomic             Coordinates (Angstroms)
 Number     Number       Type             X           Y           Z
 ---------------------------------------------------------------------
      1         11           0       -0.508692    0.260691    1.897353
      2         11           0        0.430977   -2.337525   -0.014901
      3         11           0       -2.588095    1.965254    0.269970
      4         11           0        3.232521   -0.677082    0.605287
      5         11           0       -2.808643   -1.546553   -0.502943
      6         11           0        0.413921    0.139692   -1.713360
      7         11           0        1.828012    2.195523   -0.541406
 ---------------------------------------------------------------------

 SCF Done:  E(UB3LYP) =  -1136.12445212     A.U. after   20 cycles

 The electronic state is 2-A.
 Alpha  occ. eigenvalues --  -38.44569 -38.44216 -38.43903 -38.43885 -38.43810
 Alpha  occ. eigenvalues --  -38.43684 -38.42595  -2.20408  -2.20041  -2.19833
 Alpha  occ. eigenvalues --   -2.19797  -2.19724  -2.19583  -2.18545  -1.14073
 Alpha  occ. eigenvalues --   -1.14062  -1.14050  -1.13740  -1.13712  -1.13696
 Alpha  occ. eigenvalues --   -1.13680  -1.13523  -1.13511  -1.13467  -1.13418
 Alpha  occ. eigenvalues --   -1.13409  -1.13376  -1.13352  -1.13339  -1.13202
 Alpha  occ. eigenvalues --   -1.13173  -1.13163  -1.12262  -1.12209  -1.12149
 Alpha  occ. eigenvalues --   -0.18840  -0.13596  -0.11929  -0.11007
 Alpha virt. eigenvalues --   -0.06158  -0.05403  -0.03817  -0.03529  -0.02756
 Alpha virt. eigenvalues --   -0.02601  -0.02011  -0.01175  -0.00301  -0.00028
 Alpha virt. eigenvalues --    0.00081   0.00275   0.00685   0.00812   0.00840

  Beta  occ. eigenvalues --  -38.44552 -38.44206 -38.43900 -38.43814 -38.43734
  Beta  occ. eigenvalues --  -38.43665 -38.42586  -2.20378  -2.20024  -2.19721
  Beta  occ. eigenvalues --   -2.19698  -2.19666  -2.19549  -2.18533  -1.14056
  Beta  occ. eigenvalues --   -1.14035  -1.14021  -1.13698  -1.13684  -1.13665
  Beta  occ. eigenvalues --   -1.13653  -1.13468  -1.13421  -1.13382  -1.13364
  Beta  occ. eigenvalues --   -1.13353  -1.13328  -1.13320  -1.13281  -1.13165
  Beta  occ. eigenvalues --   -1.13149  -1.13113  -1.12255  -1.12185  -1.12123
  Beta  occ. eigenvalues --   -0.18150  -0.13354  -0.11584
  Beta virt. eigenvalues --   -0.07192  -0.06011  -0.05345  -0.03715  -0.02913
  Beta virt. eigenvalues --   -0.02055  -0.01872  -0.01590  -0.01045  -0.00268
  Beta virt. eigenvalues --    0.00057   0.00077   0.00317   0.00760   0.00847

 Mulliken charges and spin densities:
               1          2
     1  Na  -0.456865   0.504259
     2  Na   0.186738   0.139695
     3  Na   0.132417  -0.071450
     4  Na   0.070413   0.135070
     5  Na   0.064136  -0.010971
     6  Na  -0.300362   0.297295
     7  Na   0.303523   0.006101
 Sum of Mulliken charges =  -0.00000   1.00000

 Dipole moment (field-independent basis, Debye):
    X=             -0.1010    Y=              0.0631    Z=              0.2420  Tot=              0.2697
 Quadrupole moment (field-independent basis, Debye-Ang):
   XX=            -51.0743   YY=            -69.6563   ZZ=            -72.9657
   XY=              0.1265   XZ=              3.5558   YZ=             -0.2420

 Normal termination of Gaussian 16 at Thu Dec  7 13:18:01 2023.
