 Gaussian 16, Revision B.01,
 Gaussian 16:  ES64L-G16RevB.01 20-Dec-2017

 -------------------------
 #P B3LYP/6-311+g(d) force
 -------------------------

 -----
 DPGEN
 -----
 Symbolic Z-matrix:
 Charge =  0 Multiplicity = 2

                         Standard orientation:
 ---------------------------------------------------------------------
 Center     Atomic      Atomic             Coordinates (Angstroms)
 Number     Number       Type             X           Y           Z
 ---------------------------------------------------------------------
      1         11           0        0.250003   -0.463941   -0.305450
      2         11           0       -1.950220   -0.979290    2.327570
      3         11           0       -2.957382   -0.870333   -1.788712
      4         11           0       -2.163852    1.443588    0.182258
      5         11           0        1.311658    2.819332   -0.462888
      6         11           0        2.913950    0.371519    0.643444
      7         11           0        2.595843   -2.320876   -0.596222
 ---------------------------------------------------------------------

 SCF Done:  E(UB3LYP) =  -1136.11477241     A.U. after   23 cycles

 The electronic state is 2-A.
 Alpha  occ. eigenvalues --  -38.44553 -38.44487 -38.44253 -38.44117 -38.43415
 Alpha  occ. eigenvalues --  -38.43230 -38.42458  -2.20403  -2.20339  -2.20221
 Alpha  occ. eigenvalues --   -2.20050  -2.19332  -2.19308  -2.18312  -1.14082
 Alpha  occ. eigenvalues --   -1.14048  -1.14013  -1.14001  -1.13980  -1.13978
 Alpha  occ. eigenvalues --   -1.13941  -1.13875  -1.13852  -1.13766  -1.13716
 Alpha  occ. eigenvalues --   -1.13639  -1.13127  -1.13032  -1.12967  -1.12952
 Alpha  occ. eigenvalues --   -1.12927  -1.12875  -1.11996  -1.11971  -1.11948
 Alpha  occ. eigenvalues --   -0.18373  -0.14421  -0.11475  -0.11210
 Alpha virt. eigenvalues --   -0.05919  -0.05542  -0.04417  -0.03434  -0.02728
 Alpha virt. eigenvalues --   -0.02226  -0.01844  -0.00994  -0.00656  -0.00369
 Alpha virt. eigenvalues --    0.00055   0.00308   0.00434   0.00666   0.00783

  Beta  occ. eigenvalues --  -38.44477 -38.44384 -38.44257 -38.44104 -38.43417
  Beta  occ. eigenvalues --  -38.43219 -38.42461  -2.20262  -2.20227  -2.20148
  Beta  occ. eigenvalues --   -2.20033  -2.19322  -2.19305  -2.18318  -1.13991
  Beta  occ. eigenvalues --   -1.13982  -1.13948  -1.13915  -1.13877  -1.13875
  Beta  occ. eigenvalues --   -1.13860  -1.13847  -1.13813  -1.13757  -1.13641
  Beta  occ. eigenvalues --   -1.13631  -1.13126  -1.12984  -1.12964  -1.12950
  Beta  occ. eigenvalues --   -1.12924  -1.12874  -1.12001  -1.11973  -1.11951
  Beta  occ. eigenvalues --   -0.17825  -0.14070  -0.11395
  Beta virt. eigenvalues --   -0.07151  -0.05655  -0.05315  -0.04127  -0.03170
  Beta virt. eigenvalues --   -0.02153  -0.01731  -0.01459  -0.00891  -0.00287
  Beta virt. eigenvalues --   -0.00202   0.00186   0.00375   0.00624   0.00791

 Mulliken charges and spin densities:
               1          2
     1  Na  -3.808722   0.520584
     2  Na   0.020693   0.268415
     3  Na   0.400059   0.207969
     4  Na   2.433100   0.457292
     5  Na  -0.018854  -0.050200
     6  Na   1.029413  -0.191948
     7  Na  -0.055689  -0.212111
 Sum of Mulliken charges =  -0.00000   1.00000

 Dipole moment (field-independent basis, Debye):
    X=             -0.5097    Y=             -0.4862    Z=              0.1776  Tot=              0.7264
 Quadrupole moment (field-independent basis, Debye-Ang):
   XX=            -56.8494   YY=            -69.1026   ZZ=            -68.8328
   XY=             -0.1733   XZ=              1.4921   YZ=              0.8272

 Normal termination of Gaussian 16 at Thu Dec  7 19:11:32 2023.
