 Gaussian 16, Revision B.01,
 Gaussian 16:  ES64L-G16RevB.01 20-Dec-2017

 -------------------------
 #P B3LYP/6-311+g(d) force
 -------------------------

 -----
 DPGEN
 -----
 Symbolic Z-matrix:
 Charge =  0 Multiplicity = 2

                         Standard orientation:
 ---------------------------------------------------------------------
 Center     Atomic      Atomic             Coordinates (Angstroms)
 Number     Number       Type             X           Y           Z
 ---------------------------------------------------------------------
      1         11           0        1.642000   -3.325271   -0.891680
      2         11           0       -1.716386   -2.737516    1.008713
      3         11           0        3.412746    2.221728    0.939714
      4         11           0       -4.283346   -0.804913    0.133264
      5         11           0        0.234420    3.273378   -0.350653
      6         11           0        3.784688   -0.993799   -0.282672
      7         11           0       -3.074121    2.366393   -0.556684
 ---------------------------------------------------------------------

 SCF Done:  E(UB3LYP) =  -1136.11068059     A.U. after   23 cycles

 The electronic state is 2-A.
 Alpha  occ. eigenvalues --  -38.45255 -38.45025 -38.44855 -38.44622 -38.44223
 Alpha  occ. eigenvalues --  -38.43872 -38.43770  -2.21018  -2.20818  -2.20616
 Alpha  occ. eigenvalues --   -2.20420  -2.20023  -2.19678  -2.19580  -1.14693
 Alpha  occ. eigenvalues --   -1.14685  -1.14648  -1.14498  -1.14488  -1.14464
 Alpha  occ. eigenvalues --   -1.14303  -1.14297  -1.14248  -1.14085  -1.14077
 Alpha  occ. eigenvalues --   -1.14068  -1.13685  -1.13677  -1.13653  -1.13338
 Alpha  occ. eigenvalues --   -1.13328  -1.13309  -1.13229  -1.13226  -1.13211
 Alpha  occ. eigenvalues --   -0.15660  -0.14124  -0.13383  -0.10871
 Alpha virt. eigenvalues --   -0.07660  -0.04687  -0.04485  -0.03633  -0.03515
 Alpha virt. eigenvalues --   -0.02381  -0.02217  -0.01665  -0.01269  -0.00990
 Alpha virt. eigenvalues --   -0.00644  -0.00153  -0.00014   0.00449   0.00734

  Beta  occ. eigenvalues --  -38.45227 -38.45005 -38.44843 -38.44605 -38.44178
  Beta  occ. eigenvalues --  -38.43825 -38.43710  -2.20971  -2.20788  -2.20600
  Beta  occ. eigenvalues --   -2.20391  -2.19943  -2.19593  -2.19468  -1.14664
  Beta  occ. eigenvalues --   -1.14656  -1.14596  -1.14481  -1.14473  -1.14401
  Beta  occ. eigenvalues --   -1.14297  -1.14291  -1.14198  -1.14068  -1.14061
  Beta  occ. eigenvalues --   -1.14029  -1.13631  -1.13622  -1.13592  -1.13277
  Beta  occ. eigenvalues --   -1.13271  -1.13252  -1.13153  -1.13148  -1.13140
  Beta  occ. eigenvalues --   -0.15130  -0.13412  -0.12580
  Beta virt. eigenvalues --   -0.07885  -0.07694  -0.04267  -0.03961  -0.03403
  Beta virt. eigenvalues --   -0.03213  -0.02180  -0.02047  -0.01434  -0.01111
  Beta virt. eigenvalues --   -0.00660  -0.00418   0.00057   0.00213   0.00463

 Mulliken charges and spin densities:
               1          2
     1  Na   0.119647   0.167143
     2  Na  -0.379308   0.121354
     3  Na   0.307331   0.268587
     4  Na   0.112712   0.092809
     5  Na  -0.143504   0.052055
     6  Na  -0.097872   0.151633
     7  Na   0.080995   0.146420
 Sum of Mulliken charges =  -0.00000   1.00000

 Dipole moment (field-independent basis, Debye):
    X=             -0.5271    Y=             -0.3447    Z=              0.1102  Tot=              0.6394
 Quadrupole moment (field-independent basis, Debye-Ang):
   XX=            -59.6694   YY=            -69.5750   ZZ=            -71.5046
   XY=              0.2867   XZ=              1.2235   YZ=             -0.3470

 Normal termination of Gaussian 16 at Sun Dec  3 19:53:11 2023.
