 Gaussian 16, Revision B.01,
 Gaussian 16:  ES64L-G16RevB.01 20-Dec-2017

 -------------------------
 #P B3LYP/6-311+g(d) force
 -------------------------

 -----
 DPGEN
 -----
 Symbolic Z-matrix:
 Charge =  0 Multiplicity = 2

                         Standard orientation:
 ---------------------------------------------------------------------
 Center     Atomic      Atomic             Coordinates (Angstroms)
 Number     Number       Type             X           Y           Z
 ---------------------------------------------------------------------
      1         11           0       -2.677598   -1.164042   -0.453349
      2         11           0        2.964203   -0.861244   -0.189127
      3         11           0       -1.924774    2.062288    0.273089
      4         11           0        0.034300    0.090578   -1.774589
      5         11           0        0.063543    0.145097    1.955694
      6         11           0        0.100775   -2.827736    0.345153
      7         11           0        1.439553    2.555059   -0.156871
 ---------------------------------------------------------------------

 SCF Done:  E(UB3LYP) =  -1136.14067546     A.U. after   19 cycles

 The electronic state is 2-A.
 Alpha  occ. eigenvalues --  -38.43684 -38.43572 -38.43531 -38.43378 -38.43372
 Alpha  occ. eigenvalues --  -38.43333 -38.43316  -2.19516  -2.19510  -2.19401
 Alpha  occ. eigenvalues --   -2.19301  -2.19279  -2.19244  -2.19216  -1.13207
 Alpha  occ. eigenvalues --   -1.13195  -1.13183  -1.13160  -1.13152  -1.13137
 Alpha  occ. eigenvalues --   -1.13113  -1.13058  -1.13030  -1.13010  -1.12962
 Alpha  occ. eigenvalues --   -1.12950  -1.12946  -1.12925  -1.12913  -1.12910
 Alpha  occ. eigenvalues --   -1.12899  -1.12884  -1.12860  -1.12841  -1.12822
 Alpha  occ. eigenvalues --   -0.19029  -0.12807  -0.12765  -0.11092
 Alpha virt. eigenvalues --   -0.05254  -0.04910  -0.04756  -0.03194  -0.03125
 Alpha virt. eigenvalues --   -0.02734  -0.01232  -0.01113  -0.00173  -0.00092
 Alpha virt. eigenvalues --    0.00049   0.00378   0.00897   0.00917   0.00957

  Beta  occ. eigenvalues --  -38.43682 -38.43526 -38.43483 -38.43368 -38.43364
  Beta  occ. eigenvalues --  -38.43324 -38.43242  -2.19510  -2.19394  -2.19351
  Beta  occ. eigenvalues --   -2.19266  -2.19233  -2.19201  -2.19164  -1.13188
  Beta  occ. eigenvalues --   -1.13168  -1.13149  -1.13121  -1.13084  -1.13058
  Beta  occ. eigenvalues --   -1.13047  -1.13023  -1.13006  -1.12963  -1.12940
  Beta  occ. eigenvalues --   -1.12909  -1.12908  -1.12886  -1.12884  -1.12872
  Beta  occ. eigenvalues --   -1.12864  -1.12829  -1.12817  -1.12815  -1.12790
  Beta  occ. eigenvalues --   -0.18278  -0.12543  -0.12501
  Beta virt. eigenvalues --   -0.07148  -0.05263  -0.04858  -0.04729  -0.02367
  Beta virt. eigenvalues --   -0.02343  -0.01667  -0.01152  -0.01042  -0.00161
  Beta virt. eigenvalues --   -0.00146   0.00127   0.00391   0.00898   0.00932

 Mulliken charges and spin densities:
               1          2
     1  Na   0.122231  -0.006423
     2  Na  -0.019676  -0.114198
     3  Na   0.281057   0.007073
     4  Na  -0.253600   0.608098
     5  Na  -0.321105   0.636881
     6  Na   0.089605  -0.013609
     7  Na   0.101488  -0.117821
 Sum of Mulliken charges =  -0.00000   1.00000

 Dipole moment (field-independent basis, Debye):
    X=              0.2209    Y=              0.0770    Z=              0.0637  Tot=              0.2425
 Quadrupole moment (field-independent basis, Debye-Ang):
   XX=            -59.8095   YY=            -61.7016   ZZ=            -72.6217
   XY=              0.0926   XZ=             -0.0319   YZ=             -0.1093

 Normal termination of Gaussian 16 at Thu Dec  7 21:27:56 2023.
