 Gaussian 16, Revision B.01,
 Gaussian 16:  ES64L-G16RevB.01 20-Dec-2017

 -------------------------
 #P B3LYP/6-311+g(d) force
 -------------------------

 -----
 DPGEN
 -----
 Symbolic Z-matrix:
 Charge =  0 Multiplicity = 2

                         Standard orientation:
 ---------------------------------------------------------------------
 Center     Atomic      Atomic             Coordinates (Angstroms)
 Number     Number       Type             X           Y           Z
 ---------------------------------------------------------------------
      1         11           0        0.993340    2.773351    0.489620
      2         11           0       -3.018147   -1.559673    0.654170
      3         11           0       -2.902180    1.603447   -0.731238
      4         11           0       -0.130091   -0.289454    1.586556
      5         11           0        3.832315   -0.776535    0.283031
      6         11           0        0.989989    0.715930   -1.293204
      7         11           0        0.234774   -2.467066   -0.988935
 ---------------------------------------------------------------------

 SCF Done:  E(UB3LYP) =  -1136.11599193     A.U. after   25 cycles

 The electronic state is 2-A.
 Alpha  occ. eigenvalues --  -38.45901 -38.44732 -38.43886 -38.43571 -38.43538
 Alpha  occ. eigenvalues --  -38.43302 -38.43261  -2.21627  -2.20499  -2.19715
 Alpha  occ. eigenvalues --   -2.19434  -2.19413  -2.19276  -2.19246  -1.15313
 Alpha  occ. eigenvalues --   -1.15284  -1.15258  -1.14170  -1.14155  -1.14127
 Alpha  occ. eigenvalues --   -1.13431  -1.13398  -1.13366  -1.13355  -1.13146
 Alpha  occ. eigenvalues --   -1.13085  -1.13077  -1.13011  -1.13009  -1.12987
 Alpha  occ. eigenvalues --   -1.12905  -1.12866  -1.12856  -1.12839  -1.12796
 Alpha  occ. eigenvalues --   -0.18188  -0.13260  -0.11978  -0.10085
 Alpha virt. eigenvalues --   -0.07139  -0.05236  -0.04195  -0.03185  -0.02871
 Alpha virt. eigenvalues --   -0.02523  -0.01813  -0.01244  -0.00610  -0.00283
 Alpha virt. eigenvalues --   -0.00101   0.00165   0.00471   0.00693   0.00746

  Beta  occ. eigenvalues --  -38.45911 -38.44706 -38.43873 -38.43537 -38.43533
  Beta  occ. eigenvalues --  -38.43237 -38.43222  -2.21646  -2.20453  -2.19695
  Beta  occ. eigenvalues --   -2.19426  -2.19354  -2.19208  -2.19127  -1.15322
  Beta  occ. eigenvalues --   -1.15291  -1.15271  -1.14130  -1.14123  -1.14097
  Beta  occ. eigenvalues --   -1.13406  -1.13374  -1.13347  -1.13340  -1.13104
  Beta  occ. eigenvalues --   -1.13060  -1.13015  -1.12997  -1.12970  -1.12933
  Beta  occ. eigenvalues --   -1.12835  -1.12788  -1.12783  -1.12760  -1.12753
  Beta  occ. eigenvalues --   -0.17515  -0.13061  -0.11707
  Beta virt. eigenvalues --   -0.07052  -0.06381  -0.05103  -0.04065  -0.02632
  Beta virt. eigenvalues --   -0.02602  -0.01998  -0.01205  -0.00952  -0.00530
  Beta virt. eigenvalues --   -0.00201   0.00013   0.00202   0.00580   0.00717

 Mulliken charges and spin densities:
               1          2
     1  Na   0.319071   0.088999
     2  Na   0.351782   0.079700
     3  Na  -0.235608   0.093140
     4  Na  -0.279878   0.394914
     5  Na   0.139907  -0.045210
     6  Na  -0.074313   0.336207
     7  Na  -0.220961   0.052250
 Sum of Mulliken charges =  -0.00000   1.00000

 Dipole moment (field-independent basis, Debye):
    X=              0.6661    Y=             -0.2052    Z=              0.1755  Tot=              0.7188
 Quadrupole moment (field-independent basis, Debye-Ang):
   XX=            -46.2141   YY=            -67.0730   ZZ=            -76.2488
   XY=             -1.0197   XZ=              2.5896   YZ=              0.8098

 Normal termination of Gaussian 16 at Tue Dec  5 19:59:18 2023.
