 Gaussian 16, Revision B.01,
 Gaussian 16:  ES64L-G16RevB.01 20-Dec-2017

 -------------------------
 #P B3LYP/6-311+g(d) force
 -------------------------

 -----
 DPGEN
 -----
 Symbolic Z-matrix:
 Charge =  0 Multiplicity = 2

                         Standard orientation:
 ---------------------------------------------------------------------
 Center     Atomic      Atomic             Coordinates (Angstroms)
 Number     Number       Type             X           Y           Z
 ---------------------------------------------------------------------
      1         11           0       -0.141528    0.109387   -1.874140
      2         11           0        1.274015    2.357646    0.108504
      3         11           0       -2.820954   -1.284015    0.090980
      4         11           0        0.550647   -2.631750   -0.261533
      5         11           0        3.244950   -0.235034    0.015204
      6         11           0       -2.129300    2.061767    0.044034
      7         11           0        0.022169   -0.378001    1.876951
 ---------------------------------------------------------------------

 SCF Done:  E(UB3LYP) =  -1136.13909591     A.U. after   19 cycles

 The electronic state is 2-A.
 Alpha  occ. eigenvalues --  -38.44194 -38.43975 -38.43468 -38.43388 -38.43386
 Alpha  occ. eigenvalues --  -38.43133 -38.43043  -2.20023  -2.19820  -2.19415
 Alpha  occ. eigenvalues --   -2.19349  -2.19252  -2.19029  -2.18945  -1.13698
 Alpha  occ. eigenvalues --   -1.13685  -1.13663  -1.13496  -1.13485  -1.13458
 Alpha  occ. eigenvalues --   -1.13113  -1.13066  -1.13030  -1.13021  -1.13012
 Alpha  occ. eigenvalues --   -1.12973  -1.12913  -1.12904  -1.12895  -1.12710
 Alpha  occ. eigenvalues --   -1.12700  -1.12629  -1.12625  -1.12609  -1.12571
 Alpha  occ. eigenvalues --   -0.18991  -0.13157  -0.12419  -0.10918
 Alpha virt. eigenvalues --   -0.05818  -0.05006  -0.04328  -0.03242  -0.02953
 Alpha virt. eigenvalues --   -0.02619  -0.01687  -0.00967  -0.00194  -0.00069
 Alpha virt. eigenvalues --   -0.00026   0.00362   0.00809   0.00911   0.00948

  Beta  occ. eigenvalues --  -38.44194 -38.43971 -38.43389 -38.43383 -38.43303
  Beta  occ. eigenvalues --  -38.43121 -38.43036  -2.20024  -2.19815  -2.19269
  Beta  occ. eigenvalues --   -2.19248  -2.19194  -2.19013  -2.18936  -1.13702
  Beta  occ. eigenvalues --   -1.13669  -1.13665  -1.13489  -1.13462  -1.13459
  Beta  occ. eigenvalues --   -1.13020  -1.12971  -1.12946  -1.12921  -1.12916
  Beta  occ. eigenvalues --   -1.12903  -1.12888  -1.12874  -1.12839  -1.12697
  Beta  occ. eigenvalues --   -1.12650  -1.12624  -1.12619  -1.12577  -1.12565
  Beta  occ. eigenvalues --   -0.18232  -0.12931  -0.12154
  Beta virt. eigenvalues --   -0.06974  -0.05778  -0.05021  -0.04303  -0.02453
  Beta virt. eigenvalues --   -0.02127  -0.01601  -0.01544  -0.00917  -0.00247
  Beta virt. eigenvalues --   -0.00113   0.00106   0.00379   0.00862   0.00904

 Mulliken charges and spin densities:
               1          2
     1  Na  -0.400152   0.698802
     2  Na   0.156627  -0.069196
     3  Na   0.253701  -0.082084
     4  Na   0.260833  -0.119608
     5  Na   0.096697  -0.080538
     6  Na   0.119254  -0.072900
     7  Na  -0.486960   0.725524
 Sum of Mulliken charges =  -0.00000   1.00000

 Dipole moment (field-independent basis, Debye):
    X=             -0.0000    Y=             -0.1805    Z=              0.0379  Tot=              0.1845
 Quadrupole moment (field-independent basis, Debye-Ang):
   XX=            -54.3048   YY=            -65.9587   ZZ=            -73.2842
   XY=             -0.1918   XZ=             -0.3638   YZ=              0.9406

 Normal termination of Gaussian 16 at Thu Dec  7 23:48:45 2023.
