 Gaussian 16, Revision B.01,
 Gaussian 16:  ES64L-G16RevB.01 20-Dec-2017

 -------------------------
 #P B3LYP/6-311+g(d) force
 -------------------------

 -----
 DPGEN
 -----
 Symbolic Z-matrix:
 Charge =  0 Multiplicity = 2

                         Standard orientation:
 ---------------------------------------------------------------------
 Center     Atomic      Atomic             Coordinates (Angstroms)
 Number     Number       Type             X           Y           Z
 ---------------------------------------------------------------------
      1         11           0       -0.328237    0.158061   -1.526689
      2         11           0        0.301101   -0.252291    2.097985
      3         11           0        2.198633    2.173611   -0.052183
      4         11           0       -0.485040   -2.758978    0.165115
      5         11           0       -3.110445   -0.703835   -0.336834
      6         11           0       -1.723464    2.573000    0.183190
      7         11           0        3.147451   -1.189568   -0.530583
 ---------------------------------------------------------------------

 SCF Done:  E(UB3LYP) =  -1136.13530822     A.U. after   20 cycles

 The electronic state is 2-A.
 Alpha  occ. eigenvalues --  -38.44273 -38.44073 -38.43917 -38.43571 -38.43530
 Alpha  occ. eigenvalues --  -38.43314 -38.43123  -2.20058  -2.19935  -2.19724
 Alpha  occ. eigenvalues --   -2.19452  -2.19352  -2.19291  -2.18999  -1.13731
 Alpha  occ. eigenvalues --   -1.13710  -1.13697  -1.13643  -1.13585  -1.13563
 Alpha  occ. eigenvalues --   -1.13406  -1.13393  -1.13351  -1.13128  -1.13081
 Alpha  occ. eigenvalues --   -1.13067  -1.13062  -1.13017  -1.12982  -1.12976
 Alpha  occ. eigenvalues --   -1.12926  -1.12904  -1.12682  -1.12663  -1.12621
 Alpha  occ. eigenvalues --   -0.18407  -0.13148  -0.12229  -0.10633
 Alpha virt. eigenvalues --   -0.05743  -0.05476  -0.04549  -0.03198  -0.02850
 Alpha virt. eigenvalues --   -0.02435  -0.01726  -0.01224  -0.00488  -0.00399
 Alpha virt. eigenvalues --   -0.00023   0.00318   0.00733   0.00822   0.00870

  Beta  occ. eigenvalues --  -38.44258 -38.44065 -38.43914 -38.43527 -38.43470
  Beta  occ. eigenvalues --  -38.43268 -38.43115  -2.20033  -2.19922  -2.19722
  Beta  occ. eigenvalues --   -2.19350  -2.19265  -2.19208  -2.18988  -1.13704
  Beta  occ. eigenvalues --   -1.13692  -1.13680  -1.13626  -1.13564  -1.13558
  Beta  occ. eigenvalues --   -1.13398  -1.13386  -1.13346  -1.13054  -1.13010
  Beta  occ. eigenvalues --   -1.13004  -1.12976  -1.12943  -1.12937  -1.12918
  Beta  occ. eigenvalues --   -1.12865  -1.12848  -1.12673  -1.12625  -1.12616
  Beta  occ. eigenvalues --   -0.17721  -0.12875  -0.12008
  Beta virt. eigenvalues --   -0.06789  -0.05625  -0.05469  -0.04480  -0.02501
  Beta virt. eigenvalues --   -0.02084  -0.01604  -0.01442  -0.01158  -0.00512
  Beta virt. eigenvalues --   -0.00416   0.00126   0.00371   0.00818   0.00827

 Mulliken charges and spin densities:
               1          2
     1  Na  -0.228679   0.320423
     2  Na  -0.397963   0.677415
     3  Na   0.044734  -0.023782
     4  Na   0.243164   0.004055
     5  Na   0.331390   0.000995
     6  Na   0.008747  -0.020079
     7  Na  -0.001391   0.040974
 Sum of Mulliken charges =  -0.00000   1.00000

 Dipole moment (field-independent basis, Debye):
    X=              0.0980    Y=              0.0722    Z=              0.0856  Tot=              0.1488
 Quadrupole moment (field-independent basis, Debye-Ang):
   XX=            -54.9679   YY=            -63.4885   ZZ=            -74.7002
   XY=             -0.2801   XZ=             -1.1426   YZ=              1.4568

 Normal termination of Gaussian 16 at Thu Dec  7 02:55:47 2023.
