 Gaussian 16, Revision B.01,
 Gaussian 16:  ES64L-G16RevB.01 20-Dec-2017

 -------------------------
 #P B3LYP/6-311+g(d) force
 -------------------------

 -----
 DPGEN
 -----
 Symbolic Z-matrix:
 Charge =  0 Multiplicity = 2

                         Standard orientation:
 ---------------------------------------------------------------------
 Center     Atomic      Atomic             Coordinates (Angstroms)
 Number     Number       Type             X           Y           Z
 ---------------------------------------------------------------------
      1         11           0        2.327670    1.681991   -1.120018
      2         11           0        6.978640   -1.373855    1.143804
      3         11           0        3.975112   -1.194807   -1.008515
      4         11           0       -1.192590    2.004232   -1.171871
      5         11           0       -5.815018   -2.009683   -1.356548
      6         11           0       -1.599354    1.722246    1.876342
      7         11           0       -4.674460   -0.830124    1.636806
 ---------------------------------------------------------------------

 SCF Done:  E(UB3LYP) =  -1136.10274333     A.U. after   19 cycles

 The electronic state is 2-A.
 Alpha  occ. eigenvalues --  -38.44932 -38.44910 -38.44729 -38.44341 -38.44244
 Alpha  occ. eigenvalues --  -38.44219 -38.44154  -2.20729  -2.20676  -2.20547
 Alpha  occ. eigenvalues --   -2.20153  -2.20017  -2.19962  -2.19916  -1.14463
 Alpha  occ. eigenvalues --   -1.14397  -1.14374  -1.14322  -1.14321  -1.14278
 Alpha  occ. eigenvalues --   -1.14194  -1.14181  -1.14150  -1.13822  -1.13812
 Alpha  occ. eigenvalues --   -1.13767  -1.13672  -1.13671  -1.13666  -1.13650
 Alpha  occ. eigenvalues --   -1.13627  -1.13602  -1.13594  -1.13582  -1.13556
 Alpha  occ. eigenvalues --   -0.15495  -0.13796  -0.12458  -0.10972
 Alpha virt. eigenvalues --   -0.07195  -0.05199  -0.04842  -0.03514  -0.02906
 Alpha virt. eigenvalues --   -0.02711  -0.02146  -0.01816  -0.01420  -0.01228
 Alpha virt. eigenvalues --   -0.00760  -0.00334  -0.00301   0.00194   0.00385

  Beta  occ. eigenvalues --  -38.44954 -38.44815 -38.44669 -38.44282 -38.44240
  Beta  occ. eigenvalues --  -38.44191 -38.44178  -2.20773  -2.20497  -2.20436
  Beta  occ. eigenvalues --   -2.20042  -2.20003  -2.19964  -2.19916  -1.14471
  Beta  occ. eigenvalues --   -1.14430  -1.14393  -1.14200  -1.14199  -1.14162
  Beta  occ. eigenvalues --   -1.14118  -1.14113  -1.14083  -1.13753  -1.13732
  Beta  occ. eigenvalues --   -1.13708  -1.13684  -1.13669  -1.13639  -1.13630
  Beta  occ. eigenvalues --   -1.13622  -1.13602  -1.13600  -1.13555  -1.13549
  Beta  occ. eigenvalues --   -0.15106  -0.13248  -0.11905
  Beta virt. eigenvalues --   -0.07874  -0.06588  -0.04830  -0.04682  -0.03356
  Beta virt. eigenvalues --   -0.02750  -0.02388  -0.01907  -0.01639  -0.01119
  Beta virt. eigenvalues --   -0.00859  -0.00434  -0.00118  -0.00039   0.00270

 Mulliken charges and spin densities:
               1          2
     1  Na  -0.246915   0.250392
     2  Na   0.168768   0.472830
     3  Na   0.018546  -0.102472
     4  Na  -0.297416  -0.031308
     5  Na   0.138264   0.278179
     6  Na   0.403573   0.239905
     7  Na  -0.184821  -0.107525
 Sum of Mulliken charges =  -0.00000   1.00000

 Dipole moment (field-independent basis, Debye):
    X=              0.1487    Y=              0.7212    Z=              0.0569  Tot=              0.7386
 Quadrupole moment (field-independent basis, Debye-Ang):
   XX=            -73.6253   YY=            -71.2553   ZZ=            -60.4985
   XY=             -0.7992   XZ=              7.9337   YZ=              1.6883

 Normal termination of Gaussian 16 at Sun Dec  3 21:10:25 2023.
