 Gaussian 16, Revision B.01,
 Gaussian 16:  ES64L-G16RevB.01 20-Dec-2017

 -------------------------
 #P B3LYP/6-311+g(d) force
 -------------------------

 -----
 DPGEN
 -----
 Symbolic Z-matrix:
 Charge =  0 Multiplicity = 2

                         Standard orientation:
 ---------------------------------------------------------------------
 Center     Atomic      Atomic             Coordinates (Angstroms)
 Number     Number       Type             X           Y           Z
 ---------------------------------------------------------------------
      1         11           0       -4.549888   -0.205679    0.593269
      2         11           0        1.091836   -3.425175   -0.379258
      3         11           0        0.729359    3.766365    0.528643
      4         11           0        3.994991    1.668695   -0.332873
      5         11           0       -2.282823    3.227730   -0.694077
      6         11           0        3.863653   -2.021787    0.489156
      7         11           0       -2.847128   -3.010149   -0.204860
 ---------------------------------------------------------------------

 SCF Done:  E(UB3LYP) =  -1136.10378431     A.U. after   21 cycles

 The electronic state is 2-A.
 Alpha  occ. eigenvalues --  -38.45049 -38.44859 -38.44775 -38.44615 -38.44579
 Alpha  occ. eigenvalues --  -38.44511 -38.44273  -2.20810  -2.20611  -2.20543
 Alpha  occ. eigenvalues --   -2.20371  -2.20354  -2.20291  -2.20067  -1.14475
 Alpha  occ. eigenvalues --   -1.14462  -1.14452  -1.14290  -1.14279  -1.14243
 Alpha  occ. eigenvalues --   -1.14231  -1.14222  -1.14194  -1.14060  -1.14051
 Alpha  occ. eigenvalues --   -1.14029  -1.14006  -1.13988  -1.13969  -1.13947
 Alpha  occ. eigenvalues --   -1.13934  -1.13902  -1.13722  -1.13715  -1.13692
 Alpha  occ. eigenvalues --   -0.15106  -0.13680  -0.13451  -0.10956
 Alpha virt. eigenvalues --   -0.07803  -0.05125  -0.04563  -0.03465  -0.03255
 Alpha virt. eigenvalues --   -0.02615  -0.02474  -0.01944  -0.01476  -0.00729
 Alpha virt. eigenvalues --   -0.00532  -0.00368  -0.00063   0.00209   0.00276

  Beta  occ. eigenvalues --  -38.45016 -38.44857 -38.44785 -38.44619 -38.44484
  Beta  occ. eigenvalues --  -38.44462 -38.44217  -2.20752  -2.20612  -2.20568
  Beta  occ. eigenvalues --   -2.20383  -2.20202  -2.20177  -2.19964  -1.14437
  Beta  occ. eigenvalues --   -1.14425  -1.14404  -1.14293  -1.14281  -1.14244
  Beta  occ. eigenvalues --   -1.14243  -1.14222  -1.14181  -1.14064  -1.14062
  Beta  occ. eigenvalues --   -1.14006  -1.13887  -1.13885  -1.13876  -1.13871
  Beta  occ. eigenvalues --   -1.13854  -1.13843  -1.13651  -1.13647  -1.13626
  Beta  occ. eigenvalues --   -0.14562  -0.12990  -0.12771
  Beta virt. eigenvalues --   -0.07919  -0.07800  -0.04636  -0.04149  -0.03246
  Beta virt. eigenvalues --   -0.02935  -0.02369  -0.02278  -0.01784  -0.01386
  Beta virt. eigenvalues --   -0.00495  -0.00164  -0.00043   0.00065   0.00212

 Mulliken charges and spin densities:
               1          2
     1  Na  -0.003514   0.126837
     2  Na  -0.046762   0.256207
     3  Na  -0.103827  -0.049708
     4  Na  -0.005916   0.488347
     5  Na  -0.070650   0.227755
     6  Na   0.131039  -0.074964
     7  Na   0.099630   0.025525
 Sum of Mulliken charges =  -0.00000   1.00000

 Dipole moment (field-independent basis, Debye):
    X=             -0.6248    Y=             -0.0780    Z=              0.0881  Tot=              0.6358
 Quadrupole moment (field-independent basis, Debye-Ang):
   XX=            -60.0795   YY=            -68.3986   ZZ=            -72.0216
   XY=             -2.0721   XZ=              1.5149   YZ=              1.3601

 Normal termination of Gaussian 16 at Mon Dec  4 03:46:19 2023.
