 Gaussian 16, Revision B.01,
 Gaussian 16:  ES64L-G16RevB.01 20-Dec-2017

 -------------------------
 #P B3LYP/6-311+g(d) force
 -------------------------

 -----
 DPGEN
 -----
 Symbolic Z-matrix:
 Charge =  0 Multiplicity = 2

                         Standard orientation:
 ---------------------------------------------------------------------
 Center     Atomic      Atomic             Coordinates (Angstroms)
 Number     Number       Type             X           Y           Z
 ---------------------------------------------------------------------
      1         11           0        0.093807   -3.018914    1.176824
      2         11           0        1.923363    3.098538    0.368562
      3         11           0        2.852456   -2.303125   -0.994199
      4         11           0        4.195912    0.666344    0.054040
      5         11           0       -1.849592    3.279345   -0.174222
      6         11           0       -4.168625    0.967966   -0.137552
      7         11           0       -3.047322   -2.690153   -0.293453
 ---------------------------------------------------------------------

 SCF Done:  E(UB3LYP) =  -1136.10830724     A.U. after   23 cycles

 The electronic state is 2-A.
 Alpha  occ. eigenvalues --  -38.45195 -38.44982 -38.44665 -38.44514 -38.44390
 Alpha  occ. eigenvalues --  -38.44090 -38.43909  -2.20948  -2.20766  -2.20449
 Alpha  occ. eigenvalues --   -2.20289  -2.20169  -2.19898  -2.19704  -1.14630
 Alpha  occ. eigenvalues --   -1.14623  -1.14583  -1.14446  -1.14437  -1.14417
 Alpha  occ. eigenvalues --   -1.14127  -1.14116  -1.14088  -1.13962  -1.13952
 Alpha  occ. eigenvalues --   -1.13915  -1.13830  -1.13814  -1.13802  -1.13547
 Alpha  occ. eigenvalues --   -1.13537  -1.13533  -1.13361  -1.13352  -1.13333
 Alpha  occ. eigenvalues --   -0.15550  -0.13914  -0.13378  -0.10605
 Alpha virt. eigenvalues --   -0.07756  -0.05156  -0.04149  -0.03531  -0.03312
 Alpha virt. eigenvalues --   -0.02707  -0.02317  -0.01927  -0.01232  -0.00702
 Alpha virt. eigenvalues --   -0.00335  -0.00108   0.00086   0.00276   0.00550

  Beta  occ. eigenvalues --  -38.45194 -38.44976 -38.44635 -38.44499 -38.44343
  Beta  occ. eigenvalues --  -38.44025 -38.43850  -2.20950  -2.20761  -2.20397
  Beta  occ. eigenvalues --   -2.20265  -2.20083  -2.19777  -2.19595  -1.14636
  Beta  occ. eigenvalues --   -1.14629  -1.14554  -1.14448  -1.14437  -1.14368
  Beta  occ. eigenvalues --   -1.14086  -1.14083  -1.14040  -1.13949  -1.13939
  Beta  occ. eigenvalues --   -1.13872  -1.13771  -1.13758  -1.13739  -1.13463
  Beta  occ. eigenvalues --   -1.13457  -1.13452  -1.13287  -1.13281  -1.13258
  Beta  occ. eigenvalues --   -0.15017  -0.13153  -0.12648
  Beta virt. eigenvalues --   -0.07951  -0.07513  -0.04739  -0.03722  -0.03262
  Beta virt. eigenvalues --   -0.02949  -0.02465  -0.02111  -0.01721  -0.01119
  Beta virt. eigenvalues --   -0.00445  -0.00128   0.00110   0.00137   0.00420

 Mulliken charges and spin densities:
               1          2
     1  Na  -0.183250   0.007087
     2  Na   0.149168   0.257461
     3  Na  -0.046964   0.294275
     4  Na   0.045320   0.035838
     5  Na   0.103101   0.074731
     6  Na   0.016806   0.105724
     7  Na  -0.084180   0.224885
 Sum of Mulliken charges =  -0.00000   1.00000

 Dipole moment (field-independent basis, Debye):
    X=             -0.1199    Y=             -0.5370    Z=              0.0520  Tot=              0.5527
 Quadrupole moment (field-independent basis, Debye-Ang):
   XX=            -60.4528   YY=            -70.9658   ZZ=            -70.0937
   XY=              1.1761   XZ=              1.6132   YZ=              0.0542

 Normal termination of Gaussian 16 at Sun Dec  3 16:39:16 2023.
