 Gaussian 16, Revision B.01,
 Gaussian 16:  ES64L-G16RevB.01 20-Dec-2017

 -------------------------
 #P B3LYP/6-311+g(d) force
 -------------------------

 -----
 DPGEN
 -----
 Symbolic Z-matrix:
 Charge =  0 Multiplicity = 2

                         Standard orientation:
 ---------------------------------------------------------------------
 Center     Atomic      Atomic             Coordinates (Angstroms)
 Number     Number       Type             X           Y           Z
 ---------------------------------------------------------------------
      1         11           0        0.217331   -3.245879   -0.328851
      2         11           0        2.926506   -0.236264   -0.602258
      3         11           0        6.154831    0.059236    0.112657
      4         11           0       -4.451742   -0.265795   -0.561460
      5         11           0       -2.308874    3.189072   -0.500319
      6         11           0        0.178111    2.960764    0.895893
      7         11           0       -2.716163   -2.461134    0.984337
 ---------------------------------------------------------------------

 SCF Done:  E(UB3LYP) =  -1136.10511808     A.U. after   17 cycles

 The electronic state is 2-A.
 Alpha  occ. eigenvalues --  -38.44803 -38.44710 -38.44697 -38.44516 -38.44195
 Alpha  occ. eigenvalues --  -38.44188 -38.44157  -2.20610  -2.20496  -2.20489
 Alpha  occ. eigenvalues --   -2.20341  -2.20001  -2.19975  -2.19939  -1.14269
 Alpha  occ. eigenvalues --   -1.14250  -1.14229  -1.14143  -1.14139  -1.14138
 Alpha  occ. eigenvalues --   -1.14133  -1.14126  -1.14122  -1.14114  -1.13976
 Alpha  occ. eigenvalues --   -1.13966  -1.13673  -1.13668  -1.13660  -1.13628
 Alpha  occ. eigenvalues --   -1.13622  -1.13614  -1.13613  -1.13600  -1.13588
 Alpha  occ. eigenvalues --   -0.15558  -0.13564  -0.13196  -0.11336
 Alpha virt. eigenvalues --   -0.06488  -0.06106  -0.03763  -0.03556  -0.03332
 Alpha virt. eigenvalues --   -0.02749  -0.02034  -0.01618  -0.01345  -0.01146
 Alpha virt. eigenvalues --   -0.00631  -0.00383   0.00083   0.00313   0.00548

  Beta  occ. eigenvalues --  -38.44721 -38.44639 -38.44624 -38.44492 -38.44205
  Beta  occ. eigenvalues --  -38.44205 -38.44165  -2.20457  -2.20364  -2.20352
  Beta  occ. eigenvalues --   -2.20295  -2.20026  -2.19993  -2.19975  -1.14170
  Beta  occ. eigenvalues --   -1.14146  -1.14126  -1.14103  -1.14050  -1.14049
  Beta  occ. eigenvalues --   -1.14049  -1.14042  -1.14037  -1.14025  -1.13944
  Beta  occ. eigenvalues --   -1.13935  -1.13692  -1.13689  -1.13657  -1.13641
  Beta  occ. eigenvalues --   -1.13636  -1.13636  -1.13623  -1.13594  -1.13580
  Beta  occ. eigenvalues --   -0.15014  -0.12870  -0.12779
  Beta virt. eigenvalues --   -0.08192  -0.06103  -0.05620  -0.03541  -0.03289
  Beta virt. eigenvalues --   -0.03120  -0.02520  -0.01729  -0.01397  -0.01060
  Beta virt. eigenvalues --   -0.00731  -0.00434  -0.00231   0.00279   0.00373

 Mulliken charges and spin densities:
               1          2
     1  Na   0.502733   0.319148
     2  Na  -0.521125   0.034587
     3  Na   0.131358   0.253318
     4  Na   0.033532   0.411380
     5  Na   0.381145  -0.041330
     6  Na  -0.276736   0.096888
     7  Na  -0.250907  -0.073991
 Sum of Mulliken charges =  -0.00000   1.00000

 Dipole moment (field-independent basis, Debye):
    X=              0.0910    Y=              0.0014    Z=              0.0946  Tot=              0.1313
 Quadrupole moment (field-independent basis, Debye-Ang):
   XX=            -57.4312   YY=            -70.6499   ZZ=            -69.4613
   XY=             -1.0973   XZ=              4.5455   YZ=             -0.3949

 Normal termination of Gaussian 16 at Mon Dec  4 01:18:08 2023.
