 Gaussian 16, Revision B.01,
 Gaussian 16:  ES64L-G16RevB.01 20-Dec-2017

 -------------------------
 #P B3LYP/6-311+g(d) force
 -------------------------

 -----
 DPGEN
 -----
 Symbolic Z-matrix:
 Charge =  0 Multiplicity = 2

                         Standard orientation:
 ---------------------------------------------------------------------
 Center     Atomic      Atomic             Coordinates (Angstroms)
 Number     Number       Type             X           Y           Z
 ---------------------------------------------------------------------
      1         11           0        3.506370   -0.650831   -1.099698
      2         11           0        2.352785    1.662537    0.919627
      3         11           0       -0.749751   -2.836065    0.874553
      4         11           0       -0.781272    0.098474    2.114024
      5         11           0        0.231505   -1.068680   -1.223369
      6         11           0       -3.305314   -0.035955   -1.118743
      7         11           0       -1.254322    2.830519   -0.466393
 ---------------------------------------------------------------------

 SCF Done:  E(UB3LYP) =  -1136.12516713     A.U. after   20 cycles

 The electronic state is 2-A.
 Alpha  occ. eigenvalues --  -38.44743 -38.44200 -38.43954 -38.43918 -38.43620
 Alpha  occ. eigenvalues --  -38.43588 -38.43412  -2.20535  -2.20082  -2.19780
 Alpha  occ. eigenvalues --   -2.19724  -2.19522  -2.19393  -2.19300  -1.14211
 Alpha  occ. eigenvalues --   -1.14168  -1.14154  -1.13759  -1.13718  -1.13701
 Alpha  occ. eigenvalues --   -1.13462  -1.13457  -1.13423  -1.13402  -1.13378
 Alpha  occ. eigenvalues --   -1.13331  -1.13325  -1.13179  -1.13135  -1.13078
 Alpha  occ. eigenvalues --   -1.13056  -1.13033  -1.12957  -1.12923  -1.12897
 Alpha  occ. eigenvalues --   -0.17880  -0.13154  -0.12021  -0.11379
 Alpha virt. eigenvalues --   -0.05888  -0.05160  -0.04620  -0.03439  -0.03194
 Alpha virt. eigenvalues --   -0.02623  -0.01817  -0.00950  -0.00718  -0.00198
 Alpha virt. eigenvalues --    0.00042   0.00301   0.00498   0.00698   0.00801

  Beta  occ. eigenvalues --  -38.44696 -38.44114 -38.43931 -38.43907 -38.43625
  Beta  occ. eigenvalues --  -38.43564 -38.43397  -2.20447  -2.19926  -2.19738
  Beta  occ. eigenvalues --   -2.19706  -2.19478  -2.19405  -2.19276  -1.14143
  Beta  occ. eigenvalues --   -1.14114  -1.14094  -1.13657  -1.13605  -1.13585
  Beta  occ. eigenvalues --   -1.13441  -1.13420  -1.13396  -1.13380  -1.13367
  Beta  occ. eigenvalues --   -1.13308  -1.13296  -1.13147  -1.13099  -1.13085
  Beta  occ. eigenvalues --   -1.13067  -1.13026  -1.12922  -1.12902  -1.12882
  Beta  occ. eigenvalues --   -0.17205  -0.12814  -0.11781
  Beta virt. eigenvalues --   -0.07692  -0.05681  -0.04696  -0.04500  -0.03061
  Beta virt. eigenvalues --   -0.02574  -0.01967  -0.01530  -0.00849  -0.00501
  Beta virt. eigenvalues --   -0.00112   0.00118   0.00377   0.00595   0.00808

 Mulliken charges and spin densities:
               1          2
     1  Na   0.178984   0.030218
     2  Na  -0.247997   0.078099
     3  Na  -0.037617   0.031461
     4  Na   0.168918   0.386947
     5  Na   0.086548   0.252075
     6  Na   0.068758   0.256087
     7  Na  -0.217594  -0.034888
 Sum of Mulliken charges =  -0.00000   1.00000

 Dipole moment (field-independent basis, Debye):
    X=             -0.3082    Y=             -0.1371    Z=              0.0636  Tot=              0.3433
 Quadrupole moment (field-independent basis, Debye-Ang):
   XX=            -58.1105   YY=            -67.9846   ZZ=            -69.1702
   XY=              1.8189   XZ=              0.5392   YZ=              0.0801

 Normal termination of Gaussian 16 at Sun Dec  3 16:46:25 2023.
