 Gaussian 16, Revision B.01,
 Gaussian 16:  ES64L-G16RevB.01 20-Dec-2017

 -------------------------
 #P B3LYP/6-311+g(d) force
 -------------------------

 -----
 DPGEN
 -----
 Symbolic Z-matrix:
 Charge =  0 Multiplicity = 2

                         Standard orientation:
 ---------------------------------------------------------------------
 Center     Atomic      Atomic             Coordinates (Angstroms)
 Number     Number       Type             X           Y           Z
 ---------------------------------------------------------------------
      1         11           0        0.686369   -1.388967    1.224647
      2         11           0       -0.801461   -0.679845   -1.417706
      3         11           0       -3.875172   -0.989766   -0.542491
      4         11           0       -1.969794    0.496497    1.597499
      5         11           0       -0.379483    2.587552   -0.609579
      6         11           0        2.662894    1.354828    0.232549
      7         11           0        3.676647   -1.380300   -0.484919
 ---------------------------------------------------------------------

 SCF Done:  E(UB3LYP) =  -1136.11598085     A.U. after   24 cycles

 The electronic state is 2-A.
 Alpha  occ. eigenvalues --  -38.44990 -38.44619 -38.44318 -38.44237 -38.44114
 Alpha  occ. eigenvalues --  -38.43867 -38.42074  -2.20910  -2.20464  -2.20197
 Alpha  occ. eigenvalues --   -2.20088  -2.20047  -2.19794  -2.17941  -1.14644
 Alpha  occ. eigenvalues --   -1.14553  -1.14533  -1.14142  -1.14105  -1.14086
 Alpha  occ. eigenvalues --   -1.13965  -1.13873  -1.13844  -1.13750  -1.13727
 Alpha  occ. eigenvalues --   -1.13717  -1.13688  -1.13685  -1.13657  -1.13514
 Alpha  occ. eigenvalues --   -1.13431  -1.13371  -1.11623  -1.11596  -1.11580
 Alpha  occ. eigenvalues --   -0.18649  -0.14447  -0.11283  -0.10843
 Alpha virt. eigenvalues --   -0.07382  -0.05265  -0.04032  -0.03382  -0.03015
 Alpha virt. eigenvalues --   -0.02319  -0.02074  -0.01456  -0.00543  -0.00306
 Alpha virt. eigenvalues --   -0.00040   0.00233   0.00352   0.00650   0.00756

  Beta  occ. eigenvalues --  -38.44958 -38.44585 -38.44315 -38.44225 -38.44062
  Beta  occ. eigenvalues --  -38.43807 -38.42067  -2.20856  -2.20402  -2.20193
  Beta  occ. eigenvalues --   -2.20065  -2.19958  -2.19688  -2.17928  -1.14579
  Beta  occ. eigenvalues --   -1.14522  -1.14489  -1.14099  -1.14058  -1.14043
  Beta  occ. eigenvalues --   -1.13957  -1.13859  -1.13841  -1.13709  -1.13701
  Beta  occ. eigenvalues --   -1.13676  -1.13670  -1.13612  -1.13599  -1.13447
  Beta  occ. eigenvalues --   -1.13356  -1.13278  -1.11611  -1.11585  -1.11568
  Beta  occ. eigenvalues --   -0.17991  -0.14134  -0.11137
  Beta virt. eigenvalues --   -0.07237  -0.06884  -0.05126  -0.03593  -0.03181
  Beta virt. eigenvalues --   -0.02795  -0.01766  -0.01466  -0.01113  -0.00297
  Beta virt. eigenvalues --   -0.00189   0.00036   0.00295   0.00514   0.00732

 Mulliken charges and spin densities:
               1          2
     1  Na  -0.253231   0.268308
     2  Na  -0.412257   0.391834
     3  Na   0.124497   0.113829
     4  Na   0.392327   0.005773
     5  Na  -0.188423   0.043710
     6  Na  -0.349908   0.105351
     7  Na   0.686994   0.071195
 Sum of Mulliken charges =  -0.00000   1.00000

 Dipole moment (field-independent basis, Debye):
    X=             -0.1016    Y=             -0.3020    Z=              0.1474  Tot=              0.3511
 Quadrupole moment (field-independent basis, Debye-Ang):
   XX=            -50.5485   YY=            -74.6487   ZZ=            -70.8364
   XY=             -1.6492   XZ=             -3.1945   YZ=              3.3372

 Normal termination of Gaussian 16 at Sun Dec  3 17:04:46 2023.
