 Gaussian 16, Revision B.01,
 Gaussian 16:  ES64L-G16RevB.01 20-Dec-2017

 -------------------------
 #P B3LYP/6-311+g(d) force
 -------------------------

 -----
 DPGEN
 -----
 Symbolic Z-matrix:
 Charge =  0 Multiplicity = 2

                         Standard orientation:
 ---------------------------------------------------------------------
 Center     Atomic      Atomic             Coordinates (Angstroms)
 Number     Number       Type             X           Y           Z
 ---------------------------------------------------------------------
      1         11           0       -1.265863    1.648583   -0.749018
      2         11           0        0.661294    2.314686    1.690853
      3         11           0        2.408726    1.039953   -1.159400
      4         11           0        4.001088   -1.689262   -0.209033
      5         11           0        0.332105   -1.364830    0.452651
      6         11           0       -2.446116   -1.551106    1.057118
      7         11           0       -3.691233   -0.398024   -1.083171
 ---------------------------------------------------------------------

 SCF Done:  E(UB3LYP) =  -1136.11500052     A.U. after   27 cycles

 The electronic state is 2-A.
 Alpha  occ. eigenvalues --  -38.44377 -38.44302 -38.44260 -38.43966 -38.43945
 Alpha  occ. eigenvalues --  -38.43568 -38.43517  -2.20321  -2.20230  -2.20159
 Alpha  occ. eigenvalues --   -2.19895  -2.19783  -2.19436  -2.19368  -1.14285
 Alpha  occ. eigenvalues --   -1.14039  -1.13948  -1.13913  -1.13866  -1.13832
 Alpha  occ. eigenvalues --   -1.13810  -1.13752  -1.13698  -1.13563  -1.13521
 Alpha  occ. eigenvalues --   -1.13480  -1.13468  -1.13427  -1.13415  -1.13129
 Alpha  occ. eigenvalues --   -1.13102  -1.13044  -1.13034  -1.13030  -1.12999
 Alpha  occ. eigenvalues --   -0.18321  -0.14367  -0.11938  -0.10879
 Alpha virt. eigenvalues --   -0.06387  -0.05624  -0.04245  -0.03566  -0.02795
 Alpha virt. eigenvalues --   -0.02353  -0.02178  -0.01261  -0.00679  -0.00362
 Alpha virt. eigenvalues --    0.00063   0.00228   0.00466   0.00593   0.00722

  Beta  occ. eigenvalues --  -38.44327 -38.44284 -38.44225 -38.43927 -38.43908
  Beta  occ. eigenvalues --  -38.43562 -38.43489  -2.20235  -2.20166  -2.20125
  Beta  occ. eigenvalues --   -2.19794  -2.19749  -2.19390  -2.19357  -1.14222
  Beta  occ. eigenvalues --   -1.13978  -1.13878  -1.13849  -1.13843  -1.13809
  Beta  occ. eigenvalues --   -1.13770  -1.13724  -1.13639  -1.13492  -1.13454
  Beta  occ. eigenvalues --   -1.13445  -1.13399  -1.13395  -1.13390  -1.13102
  Beta  occ. eigenvalues --   -1.13065  -1.13026  -1.13016  -1.12995  -1.12990
  Beta  occ. eigenvalues --   -0.17681  -0.14021  -0.11660
  Beta virt. eigenvalues --   -0.07153  -0.06170  -0.05368  -0.03773  -0.03303
  Beta virt. eigenvalues --   -0.02471  -0.02120  -0.01667  -0.00941  -0.00366
  Beta virt. eigenvalues --   -0.00236   0.00190   0.00342   0.00590   0.00730

 Mulliken charges and spin densities:
               1          2
     1  Na  -0.211048   0.269254
     2  Na   0.119472   0.093341
     3  Na   0.162055   0.086337
     4  Na   1.092557   0.285264
     5  Na  -2.420709   0.569515
     6  Na   0.946207  -0.466764
     7  Na   0.311466   0.163054
 Sum of Mulliken charges =  -0.00000   1.00000

 Dipole moment (field-independent basis, Debye):
    X=              0.1288    Y=              0.5263    Z=              0.5577  Tot=              0.7776
 Quadrupole moment (field-independent basis, Debye-Ang):
   XX=            -60.4401   YY=            -71.4374   ZZ=            -66.5769
   XY=              2.9531   XZ=              1.0501   YZ=              0.6129

 Normal termination of Gaussian 16 at Tue Dec  5 17:27:35 2023.
