 Gaussian 16, Revision B.01,
 Gaussian 16:  ES64L-G16RevB.01 20-Dec-2017

 -------------------------
 #P B3LYP/6-311+g(d) force
 -------------------------

 -----
 DPGEN
 -----
 Symbolic Z-matrix:
 Charge =  0 Multiplicity = 2

                         Standard orientation:
 ---------------------------------------------------------------------
 Center     Atomic      Atomic             Coordinates (Angstroms)
 Number     Number       Type             X           Y           Z
 ---------------------------------------------------------------------
      1         11           0       -2.875886   -2.177308    1.328681
      2         11           0       -0.973721   -2.580890   -1.510955
      3         11           0       -4.079298    1.051069    0.089695
      4         11           0       -1.025183    3.257868   -0.334381
      5         11           0        3.108270   -2.769062   -0.425419
      6         11           0        2.246443    3.048323   -0.463632
      7         11           0        3.599374    0.169998    1.316011
 ---------------------------------------------------------------------

 SCF Done:  E(UB3LYP) =  -1136.10519418     A.U. after   24 cycles

 The electronic state is 2-A.
 Alpha  occ. eigenvalues --  -38.45376 -38.44766 -38.44750 -38.44635 -38.44391
 Alpha  occ. eigenvalues --  -38.43977 -38.43690  -2.21129  -2.20535  -2.20521
 Alpha  occ. eigenvalues --   -2.20386  -2.20156  -2.19768  -2.19497  -1.14809
 Alpha  occ. eigenvalues --   -1.14789  -1.14778  -1.14211  -1.14194  -1.14176
 Alpha  occ. eigenvalues --   -1.14173  -1.14166  -1.14141  -1.14060  -1.14040
 Alpha  occ. eigenvalues --   -1.14019  -1.13843  -1.13833  -1.13800  -1.13426
 Alpha  occ. eigenvalues --   -1.13407  -1.13388  -1.13154  -1.13146  -1.13132
 Alpha  occ. eigenvalues --   -0.15422  -0.13728  -0.12952  -0.10357
 Alpha virt. eigenvalues --   -0.07576  -0.05376  -0.04596  -0.03458  -0.03229
 Alpha virt. eigenvalues --   -0.02208  -0.02081  -0.01785  -0.01398  -0.01145
 Alpha virt. eigenvalues --   -0.00607  -0.00018   0.00031   0.00255   0.00564

  Beta  occ. eigenvalues --  -38.45384 -38.44743 -38.44689 -38.44619 -38.44387
  Beta  occ. eigenvalues --  -38.43899 -38.43652  -2.21146  -2.20495  -2.20407
  Beta  occ. eigenvalues --   -2.20359  -2.20155  -2.19622  -2.19426  -1.14825
  Beta  occ. eigenvalues --   -1.14801  -1.14765  -1.14186  -1.14170  -1.14129
  Beta  occ. eigenvalues --   -1.14096  -1.14090  -1.14068  -1.14044  -1.14024
  Beta  occ. eigenvalues --   -1.13985  -1.13847  -1.13837  -1.13760  -1.13325
  Beta  occ. eigenvalues --   -1.13309  -1.13291  -1.13106  -1.13100  -1.13081
  Beta  occ. eigenvalues --   -0.14924  -0.13145  -0.12190
  Beta virt. eigenvalues --   -0.07673  -0.07243  -0.05059  -0.04215  -0.03214
  Beta virt. eigenvalues --   -0.02854  -0.01972  -0.01786  -0.01575  -0.01152
  Beta virt. eigenvalues --   -0.01030  -0.00313   0.00073   0.00215   0.00325

 Mulliken charges and spin densities:
               1          2
     1  Na   0.163032  -0.043959
     2  Na  -0.154273   0.308234
     3  Na  -0.006004   0.409364
     4  Na   0.075769   0.019288
     5  Na   0.085760   0.047371
     6  Na  -0.099788   0.126457
     7  Na  -0.064496   0.133244
 Sum of Mulliken charges =  -0.00000   1.00000

 Dipole moment (field-independent basis, Debye):
    X=             -0.0338    Y=             -1.1332    Z=              0.3137  Tot=              1.1764
 Quadrupole moment (field-independent basis, Debye-Ang):
   XX=            -68.1325   YY=            -70.9274   ZZ=            -64.5428
   XY=              3.0056   XZ=             -1.5587   YZ=             -0.5518

 Normal termination of Gaussian 16 at Sun Dec  3 22:29:44 2023.
