 Gaussian 16, Revision B.01,
 Gaussian 16:  ES64L-G16RevB.01 20-Dec-2017

 -------------------------
 #P B3LYP/6-311+g(d) force
 -------------------------

 -----
 DPGEN
 -----
 Symbolic Z-matrix:
 Charge =  0 Multiplicity = 2

                         Standard orientation:
 ---------------------------------------------------------------------
 Center     Atomic      Atomic             Coordinates (Angstroms)
 Number     Number       Type             X           Y           Z
 ---------------------------------------------------------------------
      1         11           0       -2.692695   -1.948537   -0.077675
      2         11           0       -2.881700    1.407249   -0.583630
      3         11           0        1.415857   -2.636947   -0.110598
      4         11           0       -0.526246    0.307827    2.211534
      5         11           0        1.124440    3.147996   -0.114146
      6         11           0        0.174946   -0.032394   -1.259961
      7         11           0        3.385398   -0.245194   -0.065524
 ---------------------------------------------------------------------

 SCF Done:  E(UB3LYP) =  -1136.12896991     A.U. after   20 cycles

 The electronic state is 2-A.
 Alpha  occ. eigenvalues --  -38.44601 -38.44424 -38.44157 -38.43606 -38.43512
 Alpha  occ. eigenvalues --  -38.43491 -38.43222  -2.20430  -2.20241  -2.19959
 Alpha  occ. eigenvalues --   -2.19374  -2.19364  -2.19354  -2.19203  -1.14117
 Alpha  occ. eigenvalues --   -1.14096  -1.14059  -1.13920  -1.13897  -1.13872
 Alpha  occ. eigenvalues --   -1.13627  -1.13611  -1.13608  -1.13111  -1.13053
 Alpha  occ. eigenvalues --   -1.13035  -1.13022  -1.13019  -1.13014  -1.12986
 Alpha  occ. eigenvalues --   -1.12983  -1.12958  -1.12898  -1.12832  -1.12821
 Alpha  occ. eigenvalues --   -0.18072  -0.13425  -0.11939  -0.10296
 Alpha virt. eigenvalues --   -0.06109  -0.05627  -0.04692  -0.03167  -0.02528
 Alpha virt. eigenvalues --   -0.02301  -0.01954  -0.01438  -0.00810  -0.00584
 Alpha virt. eigenvalues --   -0.00044   0.00283   0.00672   0.00742   0.00818

  Beta  occ. eigenvalues --  -38.44600 -38.44403 -38.44153 -38.43607 -38.43488
  Beta  occ. eigenvalues --  -38.43401 -38.43190  -2.20430  -2.20205  -2.19955
  Beta  occ. eigenvalues --   -2.19379  -2.19361  -2.19150  -2.19145  -1.14119
  Beta  occ. eigenvalues --   -1.14085  -1.14060  -1.13888  -1.13865  -1.13845
  Beta  occ. eigenvalues --   -1.13618  -1.13609  -1.13593  -1.13102  -1.13049
  Beta  occ. eigenvalues --   -1.13032  -1.13025  -1.13013  -1.12973  -1.12889
  Beta  occ. eigenvalues --   -1.12843  -1.12833  -1.12812  -1.12795  -1.12780
  Beta  occ. eigenvalues --   -0.17423  -0.13186  -0.11789
  Beta virt. eigenvalues --   -0.06370  -0.06013  -0.05583  -0.04663  -0.02486
  Beta virt. eigenvalues --   -0.01845  -0.01840  -0.01377  -0.01292  -0.00779
  Beta virt. eigenvalues --   -0.00613   0.00155   0.00351   0.00739   0.00767

 Mulliken charges and spin densities:
               1          2
     1  Na   0.251761   0.080597
     2  Na   0.208379   0.086678
     3  Na   0.248894   0.039533
     4  Na  -0.549168   0.754620
     5  Na  -0.013347  -0.046348
     6  Na  -0.332077   0.078950
     7  Na   0.185558   0.005970
 Sum of Mulliken charges =  -0.00000   1.00000

 Dipole moment (field-independent basis, Debye):
    X=              0.0158    Y=             -0.0384    Z=              0.0878  Tot=              0.0972
 Quadrupole moment (field-independent basis, Debye-Ang):
   XX=            -53.1263   YY=            -62.2456   ZZ=            -77.2138
   XY=              0.8607   XZ=              1.3539   YZ=             -0.6467

 Normal termination of Gaussian 16 at Thu Dec  7 04:29:38 2023.
