 Gaussian 16, Revision B.01,
 Gaussian 16:  ES64L-G16RevB.01 20-Dec-2017

 -------------------------
 #P B3LYP/6-311+g(d) force
 -------------------------

 -----
 DPGEN
 -----
 Symbolic Z-matrix:
 Charge =  0 Multiplicity = 2

                         Standard orientation:
 ---------------------------------------------------------------------
 Center     Atomic      Atomic             Coordinates (Angstroms)
 Number     Number       Type             X           Y           Z
 ---------------------------------------------------------------------
      1         11           0       -2.022752   -2.581849   -0.859939
      2         11           0        4.800865    0.441939   -0.507346
      3         11           0       -3.772358    0.201150   -0.481107
      4         11           0       -1.787300    2.899078   -0.328183
      5         11           0       -0.789633   -0.295900    2.178776
      6         11           0        1.904823   -2.223742    0.079217
      7         11           0        1.666356    1.559324   -0.081419
 ---------------------------------------------------------------------

 SCF Done:  E(UB3LYP) =  -1136.12105825     A.U. after   22 cycles

 The electronic state is 2-A.
 Alpha  occ. eigenvalues --  -38.45206 -38.44789 -38.44361 -38.44048 -38.43950
 Alpha  occ. eigenvalues --  -38.43812 -38.43551  -2.20992  -2.20536  -2.20162
 Alpha  occ. eigenvalues --   -2.19887  -2.19756  -2.19599  -2.19340  -1.14660
 Alpha  occ. eigenvalues --   -1.14633  -1.14604  -1.14239  -1.14216  -1.14143
 Alpha  occ. eigenvalues --   -1.13819  -1.13813  -1.13777  -1.13560  -1.13540
 Alpha  occ. eigenvalues --   -1.13523  -1.13461  -1.13442  -1.13370  -1.13278
 Alpha  occ. eigenvalues --   -1.13259  -1.13225  -1.13018  -1.13001  -1.12983
 Alpha  occ. eigenvalues --   -0.16922  -0.13922  -0.11805  -0.10896
 Alpha virt. eigenvalues --   -0.06604  -0.06052  -0.04397  -0.03421  -0.02713
 Alpha virt. eigenvalues --   -0.02635  -0.01997  -0.01685  -0.01201  -0.00710
 Alpha virt. eigenvalues --   -0.00451   0.00052   0.00370   0.00518   0.00656

  Beta  occ. eigenvalues --  -38.45133 -38.44790 -38.44302 -38.43997 -38.43947
  Beta  occ. eigenvalues --  -38.43795 -38.43550  -2.20858  -2.20540  -2.20051
  Beta  occ. eigenvalues --   -2.19793  -2.19755  -2.19570  -2.19340  -1.14560
  Beta  occ. eigenvalues --   -1.14544  -1.14508  -1.14244  -1.14211  -1.14141
  Beta  occ. eigenvalues --   -1.13744  -1.13736  -1.13706  -1.13494  -1.13480
  Beta  occ. eigenvalues --   -1.13466  -1.13452  -1.13429  -1.13350  -1.13261
  Beta  occ. eigenvalues --   -1.13240  -1.13188  -1.13018  -1.13000  -1.12973
  Beta  occ. eigenvalues --   -0.16307  -0.13289  -0.11669
  Beta virt. eigenvalues --   -0.07440  -0.06258  -0.05880  -0.04003  -0.03122
  Beta virt. eigenvalues --   -0.02337  -0.02189  -0.01555  -0.01490  -0.01127
  Beta virt. eigenvalues --   -0.00437  -0.00247   0.00198   0.00491   0.00618

 Mulliken charges and spin densities:
               1          2
     1  Na   0.242023   0.035749
     2  Na   0.804712   0.327469
     3  Na  -0.304453   0.351390
     4  Na   0.586254  -0.123143
     5  Na  -0.096926   0.394075
     6  Na  -0.073935  -0.029044
     7  Na  -1.157674   0.043503
 Sum of Mulliken charges =  -0.00000   1.00000

 Dipole moment (field-independent basis, Debye):
    X=              0.6155    Y=             -0.4235    Z=              0.5276  Tot=              0.9147
 Quadrupole moment (field-independent basis, Debye-Ang):
   XX=            -60.9803   YY=            -69.6517   ZZ=            -68.5883
   XY=             -3.4199   XZ=             -2.1000   YZ=              0.3326

 Normal termination of Gaussian 16 at Sun Dec  3 12:52:18 2023.
