 Gaussian 16, Revision B.01,
 Gaussian 16:  ES64L-G16RevB.01 20-Dec-2017

 -------------------------
 #P B3LYP/6-311+g(d) force
 -------------------------

 -----
 DPGEN
 -----
 Symbolic Z-matrix:
 Charge =  0 Multiplicity = 2

                         Standard orientation:
 ---------------------------------------------------------------------
 Center     Atomic      Atomic             Coordinates (Angstroms)
 Number     Number       Type             X           Y           Z
 ---------------------------------------------------------------------
      1         11           0       -0.251701   -0.180727   -1.309580
      2         11           0       -4.231824   -0.024131   -0.698170
      3         11           0       -0.705893    2.477466    0.635209
      4         11           0        2.954031   -1.599616   -1.161214
      5         11           0        1.383571   -0.823122    1.836554
      6         11           0        2.357438    1.991019   -0.232144
      7         11           0       -1.505621   -1.840889    0.929345
 ---------------------------------------------------------------------

 SCF Done:  E(UB3LYP) =  -1136.12555837     A.U. after   22 cycles

 The electronic state is 2-A.
 Alpha  occ. eigenvalues --  -38.45008 -38.44273 -38.43764 -38.43665 -38.43613
 Alpha  occ. eigenvalues --  -38.43504 -38.43023  -2.20764  -2.20211  -2.19597
 Alpha  occ. eigenvalues --   -2.19574  -2.19501  -2.19366  -2.18867  -1.14434
 Alpha  occ. eigenvalues --   -1.14420  -1.14375  -1.13965  -1.13878  -1.13811
 Alpha  occ. eigenvalues --   -1.13310  -1.13266  -1.13249  -1.13233  -1.13205
 Alpha  occ. eigenvalues --   -1.13202  -1.13172  -1.13144  -1.13077  -1.13044
 Alpha  occ. eigenvalues --   -1.13039  -1.12994  -1.12557  -1.12524  -1.12485
 Alpha  occ. eigenvalues --   -0.18336  -0.13429  -0.11696  -0.10979
 Alpha virt. eigenvalues --   -0.06729  -0.04904  -0.04288  -0.03277  -0.02741
 Alpha virt. eigenvalues --   -0.02510  -0.02197  -0.01082  -0.00877  -0.00251
 Alpha virt. eigenvalues --    0.00089   0.00195   0.00407   0.00663   0.00778

  Beta  occ. eigenvalues --  -38.44978 -38.44255 -38.43722 -38.43602 -38.43582
  Beta  occ. eigenvalues --  -38.43499 -38.43016  -2.20708  -2.20179  -2.19518
  Beta  occ. eigenvalues --   -2.19462  -2.19450  -2.19359  -2.18857  -1.14395
  Beta  occ. eigenvalues --   -1.14383  -1.14340  -1.13927  -1.13857  -1.13787
  Beta  occ. eigenvalues --   -1.13232  -1.13208  -1.13194  -1.13172  -1.13162
  Beta  occ. eigenvalues --   -1.13129  -1.13104  -1.13089  -1.13039  -1.13030
  Beta  occ. eigenvalues --   -1.13015  -1.12980  -1.12553  -1.12505  -1.12479
  Beta  occ. eigenvalues --   -0.17697  -0.13070  -0.11450
  Beta virt. eigenvalues --   -0.07272  -0.06396  -0.04854  -0.03954  -0.02985
  Beta virt. eigenvalues --   -0.02329  -0.02078  -0.01444  -0.01043  -0.00507
  Beta virt. eigenvalues --   -0.00119   0.00161   0.00246   0.00539   0.00729

 Mulliken charges and spin densities:
               1          2
     1  Na  -0.668314   0.101305
     2  Na   0.389930   0.172751
     3  Na  -0.293808   0.030612
     4  Na   0.218154   0.256160
     5  Na   0.204742   0.233485
     6  Na   0.298954   0.072915
     7  Na  -0.149658   0.132772
 Sum of Mulliken charges =  -0.00000   1.00000

 Dipole moment (field-independent basis, Debye):
    X=             -0.5034    Y=              0.0299    Z=              0.0923  Tot=              0.5127
 Quadrupole moment (field-independent basis, Debye-Ang):
   XX=            -50.0461   YY=            -73.4118   ZZ=            -69.6856
   XY=             -0.8819   XZ=              0.6203   YZ=              0.8713

 Normal termination of Gaussian 16 at Tue Dec  5 23:32:33 2023.
