 Gaussian 16, Revision B.01,
 Gaussian 16:  ES64L-G16RevB.01 20-Dec-2017

 -------------------------
 #P B3LYP/6-311+g(d) force
 -------------------------

 -----
 DPGEN
 -----
 Symbolic Z-matrix:
 Charge =  0 Multiplicity = 2

                         Standard orientation:
 ---------------------------------------------------------------------
 Center     Atomic      Atomic             Coordinates (Angstroms)
 Number     Number       Type             X           Y           Z
 ---------------------------------------------------------------------
      1         11           0        1.078942    2.136561    0.891522
      2         11           0       -0.121164   -0.594729   -1.399590
      3         11           0        2.893141    0.453362   -0.845689
      4         11           0        1.871220   -2.205733    0.365872
      5         11           0       -0.717939   -0.558492    1.806769
      6         11           0       -3.232511   -0.958369   -0.326482
      7         11           0       -1.771689    1.727400   -0.492401
 ---------------------------------------------------------------------

 SCF Done:  E(UB3LYP) =  -1136.12228144     A.U. after   21 cycles

 The electronic state is 2-A.
 Alpha  occ. eigenvalues --  -38.44504 -38.44375 -38.43527 -38.43512 -38.43503
 Alpha  occ. eigenvalues --  -38.43270 -38.42604  -2.20400  -2.20308  -2.19582
 Alpha  occ. eigenvalues --   -2.19518  -2.19500  -2.19180  -2.18543  -1.14092
 Alpha  occ. eigenvalues --   -1.14055  -1.14040  -1.13990  -1.13974  -1.13948
 Alpha  occ. eigenvalues --   -1.13401  -1.13308  -1.13197  -1.13180  -1.13159
 Alpha  occ. eigenvalues --   -1.13138  -1.13120  -1.13117  -1.13096  -1.12847
 Alpha  occ. eigenvalues --   -1.12823  -1.12820  -1.12218  -1.12207  -1.12173
 Alpha  occ. eigenvalues --   -0.19618  -0.14193  -0.11791  -0.11301
 Alpha virt. eigenvalues --   -0.06190  -0.04932  -0.04091  -0.03367  -0.02753
 Alpha virt. eigenvalues --   -0.02505  -0.02018  -0.00802  -0.00276   0.00172
 Alpha virt. eigenvalues --    0.00297   0.00376   0.00667   0.00856   0.00892

  Beta  occ. eigenvalues --  -38.44496 -38.44355 -38.43510 -38.43457 -38.43422
  Beta  occ. eigenvalues --  -38.43263 -38.42587  -2.20387  -2.20273  -2.19505
  Beta  occ. eigenvalues --   -2.19485  -2.19336  -2.19172  -2.18515  -1.14085
  Beta  occ. eigenvalues --   -1.14036  -1.14020  -1.13970  -1.13937  -1.13926
  Beta  occ. eigenvalues --   -1.13361  -1.13231  -1.13144  -1.13125  -1.13113
  Beta  occ. eigenvalues --   -1.13079  -1.13057  -1.13008  -1.12979  -1.12840
  Beta  occ. eigenvalues --   -1.12820  -1.12783  -1.12198  -1.12188  -1.12133
  Beta  occ. eigenvalues --   -0.18865  -0.13896  -0.11558
  Beta virt. eigenvalues --   -0.07310  -0.06076  -0.04900  -0.03613  -0.03042
  Beta virt. eigenvalues --   -0.02047  -0.01867  -0.01486  -0.00741  -0.00051
  Beta virt. eigenvalues --    0.00177   0.00330   0.00383   0.00782   0.00895

 Mulliken charges and spin densities:
               1          2
     1  Na  -0.335262   0.042797
     2  Na  -0.572501   0.179402
     3  Na   0.650914   0.007379
     4  Na  -0.200754   0.064671
     5  Na  -0.190719   0.499080
     6  Na   0.602672   0.106686
     7  Na   0.045650   0.099984
 Sum of Mulliken charges =  -0.00000   1.00000

 Dipole moment (field-independent basis, Debye):
    X=             -0.4767    Y=             -0.3032    Z=              0.0113  Tot=              0.5650
 Quadrupole moment (field-independent basis, Debye-Ang):
   XX=            -51.6753   YY=            -71.6363   ZZ=            -70.7886
   XY=              1.3056   XZ=              0.0830   YZ=             -1.0846

 Normal termination of Gaussian 16 at Tue Dec  5 23:13:19 2023.
