 Gaussian 16, Revision B.01,
 Gaussian 16:  ES64L-G16RevB.01 20-Dec-2017

 -------------------------
 #P B3LYP/6-311+g(d) force
 -------------------------

 -----
 DPGEN
 -----
 Symbolic Z-matrix:
 Charge =  0 Multiplicity = 2

                         Standard orientation:
 ---------------------------------------------------------------------
 Center     Atomic      Atomic             Coordinates (Angstroms)
 Number     Number       Type             X           Y           Z
 ---------------------------------------------------------------------
      1         11           0       -0.618397   -2.484389    0.172300
      2         11           0       -1.215829    2.662205   -0.145696
      3         11           0        2.581396   -1.708068   -0.104643
      4         11           0        0.409116    0.358577    2.176365
      5         11           0       -3.130149   -0.426853    0.098595
      6         11           0       -0.295818   -0.389277   -1.794610
      7         11           0        2.269679    1.987806   -0.402310
 ---------------------------------------------------------------------

 SCF Done:  E(UB3LYP) =  -1136.13661852     A.U. after   19 cycles

 The electronic state is 2-A.
 Alpha  occ. eigenvalues --  -38.43888 -38.43781 -38.43759 -38.43624 -38.43615
 Alpha  occ. eigenvalues --  -38.43525 -38.43197  -2.19751  -2.19605  -2.19599
 Alpha  occ. eigenvalues --   -2.19586  -2.19462  -2.19350  -2.19153  -1.13415
 Alpha  occ. eigenvalues --   -1.13384  -1.13383  -1.13374  -1.13287  -1.13275
 Alpha  occ. eigenvalues --   -1.13273  -1.13260  -1.13248  -1.13238  -1.13218
 Alpha  occ. eigenvalues --   -1.13177  -1.13134  -1.13121  -1.13103  -1.13027
 Alpha  occ. eigenvalues --   -1.13018  -1.12978  -1.12829  -1.12794  -1.12749
 Alpha  occ. eigenvalues --   -0.18676  -0.12831  -0.12569  -0.11031
 Alpha virt. eigenvalues --   -0.05400  -0.05228  -0.04559  -0.03368  -0.03086
 Alpha virt. eigenvalues --   -0.02773  -0.01384  -0.01047  -0.00284  -0.00084
 Alpha virt. eigenvalues --   -0.00068   0.00374   0.00779   0.00908   0.00935

  Beta  occ. eigenvalues --  -38.43795 -38.43774 -38.43757 -38.43621 -38.43550
  Beta  occ. eigenvalues --  -38.43521 -38.43186  -2.19605  -2.19589  -2.19578
  Beta  occ. eigenvalues --   -2.19467  -2.19460  -2.19346  -2.19138  -1.13328
  Beta  occ. eigenvalues --   -1.13302  -1.13275  -1.13272  -1.13257  -1.13252
  Beta  occ. eigenvalues --   -1.13251  -1.13241  -1.13234  -1.13228  -1.13142
  Beta  occ. eigenvalues --   -1.13139  -1.13112  -1.13100  -1.13077  -1.13017
  Beta  occ. eigenvalues --   -1.13000  -1.12980  -1.12811  -1.12750  -1.12743
  Beta  occ. eigenvalues --   -0.17922  -0.12629  -0.12344
  Beta virt. eigenvalues --   -0.07095  -0.05381  -0.05188  -0.04472  -0.02574
  Beta virt. eigenvalues --   -0.02312  -0.01737  -0.01305  -0.00985  -0.00335
  Beta virt. eigenvalues --   -0.00123   0.00092   0.00394   0.00843   0.00906

 Mulliken charges and spin densities:
               1          2
     1  Na   0.423346   0.117811
     2  Na   0.093892  -0.076184
     3  Na   0.201452  -0.054030
     4  Na  -0.614959   0.658944
     5  Na   0.162358  -0.040332
     6  Na  -0.360596   0.458499
     7  Na   0.094507  -0.064708
 Sum of Mulliken charges =  -0.00000   1.00000

 Dipole moment (field-independent basis, Debye):
    X=              0.0849    Y=              0.2356    Z=              0.1174  Tot=              0.2766
 Quadrupole moment (field-independent basis, Debye-Ang):
   XX=            -57.6936   YY=            -65.0367   ZZ=            -71.9710
   XY=             -0.5577   XZ=             -1.4416   YZ=             -1.2970

 Normal termination of Gaussian 16 at Thu Dec  7 13:03:53 2023.
