 Gaussian 16, Revision B.01,
 Gaussian 16:  ES64L-G16RevB.01 20-Dec-2017

 -------------------------
 #P B3LYP/6-311+g(d) force
 -------------------------

 -----
 DPGEN
 -----
 Symbolic Z-matrix:
 Charge =  0 Multiplicity = 2

                         Standard orientation:
 ---------------------------------------------------------------------
 Center     Atomic      Atomic             Coordinates (Angstroms)
 Number     Number       Type             X           Y           Z
 ---------------------------------------------------------------------
      1         11           0       -0.559732    1.783815   -0.201519
      2         11           0        6.330444   -0.414395    1.985014
      3         11           0        4.907057    0.432094   -0.779147
      4         11           0        1.576904   -0.852983   -1.852188
      5         11           0       -2.864092   -1.310719   -0.957212
      6         11           0       -4.915606   -1.618780    1.358860
      7         11           0       -4.474975    1.980967    0.446192
 ---------------------------------------------------------------------

 SCF Done:  E(UB3LYP) =  -1136.10926555     A.U. after   20 cycles

 The electronic state is 2-A.
 Alpha  occ. eigenvalues --  -38.45059 -38.44894 -38.44758 -38.44320 -38.44123
 Alpha  occ. eigenvalues --  -38.43994 -38.43768  -2.20876  -2.20683  -2.20510
 Alpha  occ. eigenvalues --   -2.20145  -2.19881  -2.19765  -2.19554  -1.14577
 Alpha  occ. eigenvalues --   -1.14530  -1.14499  -1.14356  -1.14324  -1.14290
 Alpha  occ. eigenvalues --   -1.14203  -1.14182  -1.14116  -1.13818  -1.13795
 Alpha  occ. eigenvalues --   -1.13760  -1.13559  -1.13543  -1.13502  -1.13431
 Alpha  occ. eigenvalues --   -1.13424  -1.13423  -1.13230  -1.13217  -1.13174
 Alpha  occ. eigenvalues --   -0.16198  -0.13788  -0.11754  -0.11075
 Alpha virt. eigenvalues --   -0.07024  -0.05574  -0.04591  -0.03504  -0.03024
 Alpha virt. eigenvalues --   -0.02593  -0.02377  -0.01607  -0.01170  -0.00985
 Alpha virt. eigenvalues --   -0.00590  -0.00200  -0.00093   0.00228   0.00460

  Beta  occ. eigenvalues --  -38.45021 -38.44821 -38.44733 -38.44288 -38.44104
  Beta  occ. eigenvalues --  -38.43985 -38.43770  -2.20808  -2.20547  -2.20467
  Beta  occ. eigenvalues --   -2.20088  -2.19845  -2.19750  -2.19559  -1.14528
  Beta  occ. eigenvalues --   -1.14476  -1.14445  -1.14265  -1.14228  -1.14193
  Beta  occ. eigenvalues --   -1.14177  -1.14157  -1.14063  -1.13768  -1.13754
  Beta  occ. eigenvalues --   -1.13724  -1.13534  -1.13519  -1.13481  -1.13422
  Beta  occ. eigenvalues --   -1.13414  -1.13412  -1.13233  -1.13221  -1.13172
  Beta  occ. eigenvalues --   -0.15500  -0.13640  -0.11452
  Beta virt. eigenvalues --   -0.07489  -0.06703  -0.05131  -0.04402  -0.03324
  Beta virt. eigenvalues --   -0.02514  -0.02242  -0.02104  -0.01486  -0.00866
  Beta virt. eigenvalues --   -0.00658  -0.00397  -0.00123   0.00117   0.00364

 Mulliken charges and spin densities:
               1          2
     1  Na  -0.229220   0.288419
     2  Na   0.222115   0.048103
     3  Na  -0.447067   0.016073
     4  Na   0.067720   0.066812
     5  Na  -0.733183   0.423475
     6  Na   0.790881  -0.038374
     7  Na   0.328754   0.195491
 Sum of Mulliken charges =  -0.00000   1.00000

 Dipole moment (field-independent basis, Debye):
    X=             -1.7222    Y=             -0.0919    Z=              0.6247  Tot=              1.8343
 Quadrupole moment (field-independent basis, Debye-Ang):
   XX=            -66.8349   YY=            -69.6183   ZZ=            -63.4921
   XY=             -1.5891   XZ=             -1.1616   YZ=             -0.5007

 Normal termination of Gaussian 16 at Mon Dec  4 00:53:39 2023.
