 Gaussian 16, Revision B.01,
 Gaussian 16:  ES64L-G16RevB.01 20-Dec-2017

 -------------------------
 #P B3LYP/6-311+g(d) force
 -------------------------

 -----
 DPGEN
 -----
 Symbolic Z-matrix:
 Charge =  0 Multiplicity = 2

                         Standard orientation:
 ---------------------------------------------------------------------
 Center     Atomic      Atomic             Coordinates (Angstroms)
 Number     Number       Type             X           Y           Z
 ---------------------------------------------------------------------
      1         11           0        3.018734    1.178809   -0.307187
      2         11           0        0.138863    0.039683    2.044938
      3         11           0       -0.806240    2.920483   -0.048161
      4         11           0        2.335120   -1.968787    0.205792
      5         11           0       -3.120581    0.014697    0.286798
      6         11           0       -1.399817   -2.489136   -0.532148
      7         11           0       -0.166080    0.304251   -1.650032
 ---------------------------------------------------------------------

 SCF Done:  E(UB3LYP) =  -1136.13536644     A.U. after   19 cycles

 The electronic state is 2-A.
 Alpha  occ. eigenvalues --  -38.44382 -38.44287 -38.43744 -38.43687 -38.43243
 Alpha  occ. eigenvalues --  -38.43233 -38.43125  -2.20196  -2.20141  -2.19622
 Alpha  occ. eigenvalues --   -2.19524  -2.19206  -2.19081  -2.19000  -1.13874
 Alpha  occ. eigenvalues --   -1.13857  -1.13832  -1.13826  -1.13806  -1.13774
 Alpha  occ. eigenvalues --   -1.13295  -1.13254  -1.13246  -1.13188  -1.13182
 Alpha  occ. eigenvalues --   -1.13165  -1.12928  -1.12891  -1.12829  -1.12741
 Alpha  occ. eigenvalues --   -1.12728  -1.12705  -1.12669  -1.12657  -1.12627
 Alpha  occ. eigenvalues --   -0.18565  -0.13300  -0.12133  -0.10804
 Alpha virt. eigenvalues --   -0.05960  -0.05139  -0.04442  -0.03397  -0.02796
 Alpha virt. eigenvalues --   -0.02604  -0.01727  -0.01067  -0.00393  -0.00299
 Alpha virt. eigenvalues --   -0.00007   0.00364   0.00789   0.00839   0.00886

  Beta  occ. eigenvalues --  -38.44377 -38.44282 -38.43683 -38.43652 -38.43241
  Beta  occ. eigenvalues --  -38.43169 -38.43113  -2.20189  -2.20134  -2.19520
  Beta  occ. eigenvalues --   -2.19451  -2.19090  -2.19079  -2.18982  -1.13867
  Beta  occ. eigenvalues --   -1.13840  -1.13830  -1.13824  -1.13781  -1.13769
  Beta  occ. eigenvalues --   -1.13206  -1.13177  -1.13168  -1.13160  -1.13129
  Beta  occ. eigenvalues --   -1.13107  -1.12871  -1.12814  -1.12750  -1.12722
  Beta  occ. eigenvalues --   -1.12704  -1.12697  -1.12650  -1.12630  -1.12605
  Beta  occ. eigenvalues --   -0.17837  -0.13089  -0.11886
  Beta virt. eigenvalues --   -0.06905  -0.05899  -0.05103  -0.04412  -0.02617
  Beta virt. eigenvalues --   -0.02058  -0.01633  -0.01549  -0.00991  -0.00440
  Beta virt. eigenvalues --   -0.00308   0.00122   0.00391   0.00827   0.00870

 Mulliken charges and spin densities:
               1          2
     1  Na   0.059143  -0.089068
     2  Na  -0.350883   0.680020
     3  Na  -0.000853  -0.101229
     4  Na   0.091458   0.015290
     5  Na   0.180855   0.045940
     6  Na   0.085502   0.004500
     7  Na  -0.065220   0.444546
 Sum of Mulliken charges =  -0.00000   1.00000

 Dipole moment (field-independent basis, Debye):
    X=              0.1854    Y=              0.2020    Z=              0.2059  Tot=              0.3429
 Quadrupole moment (field-independent basis, Debye-Ang):
   XX=            -55.0412   YY=            -64.4569   ZZ=            -74.2116
   XY=              0.0622   XZ=             -1.2502   YZ=              0.5503

 Normal termination of Gaussian 16 at Fri Dec  8 07:29:29 2023.
