 Gaussian 16, Revision B.01,
 Gaussian 16:  ES64L-G16RevB.01 20-Dec-2017

 -------------------------
 #P B3LYP/6-311+g(d) force
 -------------------------

 -----
 DPGEN
 -----
 Symbolic Z-matrix:
 Charge =  0 Multiplicity = 2

                         Standard orientation:
 ---------------------------------------------------------------------
 Center     Atomic      Atomic             Coordinates (Angstroms)
 Number     Number       Type             X           Y           Z
 ---------------------------------------------------------------------
      1         11           0       -0.434497   -2.619521    0.437726
      2         11           0       -3.214240   -0.661363   -0.211095
      3         11           0       -0.115009    0.297422    1.987654
      4         11           0        0.198908   -0.185627   -1.721413
      5         11           0        2.976836   -1.396222   -0.348317
      6         11           0       -1.620231    2.381574   -0.375810
      7         11           0        2.208232    2.183737    0.231256
 ---------------------------------------------------------------------

 SCF Done:  E(UB3LYP) =  -1136.13823724     A.U. after   19 cycles

 The electronic state is 2-A.
 Alpha  occ. eigenvalues --  -38.44149 -38.44036 -38.43769 -38.43554 -38.43441
 Alpha  occ. eigenvalues --  -38.43390 -38.43031  -2.19971  -2.19848  -2.19581
 Alpha  occ. eigenvalues --   -2.19465  -2.19386  -2.19240  -2.18913  -1.13640
 Alpha  occ. eigenvalues --   -1.13628  -1.13623  -1.13536  -1.13498  -1.13486
 Alpha  occ. eigenvalues --   -1.13268  -1.13245  -1.13212  -1.13142  -1.13101
 Alpha  occ. eigenvalues --   -1.13077  -1.13074  -1.13037  -1.13005  -1.12913
 Alpha  occ. eigenvalues --   -1.12906  -1.12859  -1.12604  -1.12582  -1.12523
 Alpha  occ. eigenvalues --   -0.18569  -0.13057  -0.12239  -0.10865
 Alpha virt. eigenvalues --   -0.05760  -0.05358  -0.04293  -0.03220  -0.02943
 Alpha virt. eigenvalues --   -0.02595  -0.01732  -0.01179  -0.00307  -0.00232
 Alpha virt. eigenvalues --   -0.00018   0.00335   0.00746   0.00853   0.00909

  Beta  occ. eigenvalues --  -38.44147 -38.44029 -38.43764 -38.43463 -38.43381
  Beta  occ. eigenvalues --  -38.43378 -38.43017  -2.19969  -2.19839  -2.19575
  Beta  occ. eigenvalues --   -2.19297  -2.19272  -2.19226  -2.18891  -1.13636
  Beta  occ. eigenvalues --   -1.13625  -1.13610  -1.13517  -1.13488  -1.13483
  Beta  occ. eigenvalues --   -1.13251  -1.13233  -1.13209  -1.13037  -1.12993
  Beta  occ. eigenvalues --   -1.12986  -1.12962  -1.12955  -1.12925  -1.12890
  Beta  occ. eigenvalues --   -1.12879  -1.12844  -1.12590  -1.12541  -1.12509
  Beta  occ. eigenvalues --   -0.17843  -0.12809  -0.11984
  Beta virt. eigenvalues --   -0.06975  -0.05685  -0.05346  -0.04249  -0.02494
  Beta virt. eigenvalues --   -0.02167  -0.01644  -0.01541  -0.01121  -0.00349
  Beta virt. eigenvalues --   -0.00225   0.00101   0.00362   0.00818   0.00845

 Mulliken charges and spin densities:
               1          2
     1  Na   0.175558   0.017426
     2  Na   0.053618  -0.055510
     3  Na  -0.248439   0.648678
     4  Na  -0.228647   0.563229
     5  Na   0.108717  -0.043616
     6  Na   0.089155  -0.048654
     7  Na   0.050038  -0.081553
 Sum of Mulliken charges =  -0.00000   1.00000

 Dipole moment (field-independent basis, Debye):
    X=              0.0853    Y=              0.0564    Z=              0.0048  Tot=              0.1024
 Quadrupole moment (field-independent basis, Debye-Ang):
   XX=            -54.0142   YY=            -65.4177   ZZ=            -73.6914
   XY=              0.2974   XZ=              0.6382   YZ=             -0.6886

 Normal termination of Gaussian 16 at Thu Dec  7 21:19:55 2023.
