 Gaussian 16, Revision B.01,
 Gaussian 16:  ES64L-G16RevB.01 20-Dec-2017

 -------------------------
 #P B3LYP/6-311+g(d) force
 -------------------------

 -----
 DPGEN
 -----
 Symbolic Z-matrix:
 Charge =  0 Multiplicity = 2

                         Standard orientation:
 ---------------------------------------------------------------------
 Center     Atomic      Atomic             Coordinates (Angstroms)
 Number     Number       Type             X           Y           Z
 ---------------------------------------------------------------------
      1         11           0        4.000360    0.881281   -0.377624
      2         11           0        0.176482    0.163913    1.612546
      3         11           0        2.305860   -2.420286    0.394939
      4         11           0       -0.393366   -1.469431   -0.736471
      5         11           0       -3.835742   -1.296420   -0.668369
      6         11           0        0.737631    2.376654   -0.861151
      7         11           0       -2.991225    1.764288    0.636130
 ---------------------------------------------------------------------

 SCF Done:  E(UB3LYP) =  -1136.11685153     A.U. after   22 cycles

 The electronic state is 2-A.
 Alpha  occ. eigenvalues --  -38.44955 -38.44329 -38.44069 -38.44058 -38.43920
 Alpha  occ. eigenvalues --  -38.43782 -38.43673  -2.20737  -2.20273  -2.20002
 Alpha  occ. eigenvalues --   -2.19858  -2.19766  -2.19578  -2.19501  -1.14432
 Alpha  occ. eigenvalues --   -1.14389  -1.14373  -1.14097  -1.13897  -1.13855
 Alpha  occ. eigenvalues --   -1.13674  -1.13655  -1.13644  -1.13518  -1.13494
 Alpha  occ. eigenvalues --   -1.13475  -1.13433  -1.13398  -1.13393  -1.13280
 Alpha  occ. eigenvalues --   -1.13258  -1.13193  -1.13154  -1.13141  -1.13125
 Alpha  occ. eigenvalues --   -0.17928  -0.13934  -0.11924  -0.10475
 Alpha virt. eigenvalues --   -0.06975  -0.05750  -0.04117  -0.03534  -0.02980
 Alpha virt. eigenvalues --   -0.02441  -0.02040  -0.01369  -0.00801  -0.00542
 Alpha virt. eigenvalues --   -0.00157  -0.00048   0.00489   0.00506   0.00538

  Beta  occ. eigenvalues --  -38.44950 -38.44266 -38.44061 -38.43977 -38.43918
  Beta  occ. eigenvalues --  -38.43794 -38.43609  -2.20732  -2.20158  -2.19991
  Beta  occ. eigenvalues --   -2.19765  -2.19706  -2.19602  -2.19381  -1.14429
  Beta  occ. eigenvalues --   -1.14389  -1.14342  -1.14024  -1.13831  -1.13768
  Beta  occ. eigenvalues --   -1.13654  -1.13646  -1.13622  -1.13434  -1.13412
  Beta  occ. eigenvalues --   -1.13406  -1.13386  -1.13377  -1.13368  -1.13300
  Beta  occ. eigenvalues --   -1.13273  -1.13189  -1.13071  -1.13057  -1.13050
  Beta  occ. eigenvalues --   -0.17458  -0.13269  -0.11614
  Beta virt. eigenvalues --   -0.07093  -0.06799  -0.05520  -0.03702  -0.03152
  Beta virt. eigenvalues --   -0.02636  -0.02174  -0.01757  -0.01053  -0.00530
  Beta virt. eigenvalues --   -0.00232  -0.00060   0.00101   0.00539   0.00639

 Mulliken charges and spin densities:
               1          2
     1  Na  -0.116606   0.441832
     2  Na  -0.141625   0.070800
     3  Na   0.839079   0.104761
     4  Na  -0.845792   0.033697
     5  Na   0.093927   0.299440
     6  Na  -0.088026  -0.029462
     7  Na   0.259042   0.078933
 Sum of Mulliken charges =  -0.00000   1.00000

 Dipole moment (field-independent basis, Debye):
    X=             -0.3160    Y=              0.1892    Z=              0.7956  Tot=              0.8768
 Quadrupole moment (field-independent basis, Debye-Ang):
   XX=            -64.4086   YY=            -70.8243   ZZ=            -66.9809
   XY=             -8.7708   XZ=              0.1435   YZ=              0.0623

 Normal termination of Gaussian 16 at Thu Dec  7 06:56:25 2023.
