 Gaussian 16, Revision B.01,
 Gaussian 16:  ES64L-G16RevB.01 20-Dec-2017

 -------------------------
 #P B3LYP/6-311+g(d) force
 -------------------------

 -----
 DPGEN
 -----
 Symbolic Z-matrix:
 Charge =  0 Multiplicity = 2

                         Standard orientation:
 ---------------------------------------------------------------------
 Center     Atomic      Atomic             Coordinates (Angstroms)
 Number     Number       Type             X           Y           Z
 ---------------------------------------------------------------------
      1         11           0       -0.964886    3.268474   -0.298467
      2         11           0       -0.023648    0.087863    1.925385
      3         11           0       -3.546285   -0.192205    0.036433
      4         11           0        2.237551    1.660150    0.073036
      5         11           0        0.726758   -0.244732   -1.729050
      6         11           0        3.010472   -1.720511    0.217813
      7         11           0       -1.439962   -2.859040   -0.225149
 ---------------------------------------------------------------------

 SCF Done:  E(UB3LYP) =  -1136.12777853     A.U. after   19 cycles

 The electronic state is 2-A.
 Alpha  occ. eigenvalues --  -38.44758 -38.44262 -38.43961 -38.43758 -38.43682
 Alpha  occ. eigenvalues --  -38.43653 -38.43561  -2.20514  -2.20074  -2.19751
 Alpha  occ. eigenvalues --   -2.19676  -2.19516  -2.19482  -2.19445  -1.14191
 Alpha  occ. eigenvalues --   -1.14165  -1.14161  -1.13745  -1.13734  -1.13723
 Alpha  occ. eigenvalues --   -1.13456  -1.13427  -1.13415  -1.13386  -1.13366
 Alpha  occ. eigenvalues --   -1.13265  -1.13192  -1.13147  -1.13138  -1.13125
 Alpha  occ. eigenvalues --   -1.13118  -1.13108  -1.13103  -1.13088  -1.13080
 Alpha  occ. eigenvalues --   -0.17997  -0.13097  -0.12086  -0.10340
 Alpha virt. eigenvalues --   -0.06118  -0.05453  -0.05061  -0.03167  -0.02699
 Alpha virt. eigenvalues --   -0.02283  -0.01847  -0.01338  -0.00878  -0.00605
 Alpha virt. eigenvalues --   -0.00048   0.00311   0.00661   0.00781   0.00794

  Beta  occ. eigenvalues --  -38.44761 -38.44258 -38.43957 -38.43744 -38.43681
  Beta  occ. eigenvalues --  -38.43566 -38.43494  -2.20521  -2.20070  -2.19745
  Beta  occ. eigenvalues --   -2.19657  -2.19445  -2.19360  -2.19355  -1.14187
  Beta  occ. eigenvalues --   -1.14171  -1.14168  -1.13739  -1.13731  -1.13703
  Beta  occ. eigenvalues --   -1.13432  -1.13416  -1.13404  -1.13385  -1.13312
  Beta  occ. eigenvalues --   -1.13254  -1.13112  -1.13101  -1.13092  -1.13087
  Beta  occ. eigenvalues --   -1.13059  -1.13032  -1.13021  -1.13006  -1.12992
  Beta  occ. eigenvalues --   -0.17263  -0.12941  -0.11894
  Beta virt. eigenvalues --   -0.06478  -0.06041  -0.05416  -0.04944  -0.02468
  Beta virt. eigenvalues --   -0.02031  -0.01757  -0.01311  -0.01282  -0.00885
  Beta virt. eigenvalues --   -0.00633   0.00118   0.00354   0.00706   0.00808

 Mulliken charges and spin densities:
               1          2
     1  Na  -0.266372  -0.109306
     2  Na  -0.125019   0.638961
     3  Na  -0.080049  -0.074273
     4  Na   0.331806   0.172996
     5  Na   0.029281   0.585091
     6  Na   0.194935  -0.074753
     7  Na  -0.084582  -0.138717
 Sum of Mulliken charges =  -0.00000   1.00000

 Dipole moment (field-independent basis, Debye):
    X=             -0.2082    Y=             -0.3753    Z=              0.0874  Tot=              0.4380
 Quadrupole moment (field-independent basis, Debye-Ang):
   XX=            -54.4579   YY=            -61.9910   ZZ=            -76.7092
   XY=             -3.2680   XZ=              1.5065   YZ=             -0.8741

 Normal termination of Gaussian 16 at Fri Dec  8 03:30:43 2023.
