 Gaussian 16, Revision B.01,
 Gaussian 16:  ES64L-G16RevB.01 20-Dec-2017

 -------------------------
 #P B3LYP/6-311+g(d) force
 -------------------------

 -----
 DPGEN
 -----
 Symbolic Z-matrix:
 Charge =  0 Multiplicity = 2

                         Standard orientation:
 ---------------------------------------------------------------------
 Center     Atomic      Atomic             Coordinates (Angstroms)
 Number     Number       Type             X           Y           Z
 ---------------------------------------------------------------------
      1         11           0       -0.573062   -0.239618   -0.923335
      2         11           0       -1.267853   -2.360053    1.571000
      3         11           0        2.223419   -2.292180   -0.629814
      4         11           0       -1.921119    2.703216   -0.318596
      5         11           0        1.652039    2.443451    1.130317
      6         11           0        3.733873    0.282691   -0.370389
      7         11           0       -3.847297   -0.537507   -0.459182
 ---------------------------------------------------------------------

 SCF Done:  E(UB3LYP) =  -1136.11911627     A.U. after   23 cycles

 The electronic state is 2-A.
 Alpha  occ. eigenvalues --  -38.45190 -38.44550 -38.44209 -38.44063 -38.43774
 Alpha  occ. eigenvalues --  -38.43550 -38.43327  -2.20991  -2.20401  -2.20119
 Alpha  occ. eigenvalues --   -2.19859  -2.19633  -2.19376  -2.19135  -1.14677
 Alpha  occ. eigenvalues --   -1.14644  -1.14614  -1.14114  -1.14056  -1.14038
 Alpha  occ. eigenvalues --   -1.13835  -1.13787  -1.13759  -1.13550  -1.13532
 Alpha  occ. eigenvalues --   -1.13470  -1.13298  -1.13296  -1.13250  -1.13033
 Alpha  occ. eigenvalues --   -1.13005  -1.13001  -1.12795  -1.12787  -1.12760
 Alpha  occ. eigenvalues --   -0.17332  -0.14114  -0.12360  -0.09961
 Alpha virt. eigenvalues --   -0.07023  -0.05532  -0.04034  -0.03704  -0.03109
 Alpha virt. eigenvalues --   -0.02536  -0.01629  -0.01353  -0.00899  -0.00370
 Alpha virt. eigenvalues --   -0.00225   0.00057   0.00216   0.00641   0.00681

  Beta  occ. eigenvalues --  -38.45171 -38.44530 -38.44210 -38.44063 -38.43744
  Beta  occ. eigenvalues --  -38.43476 -38.43276  -2.20959  -2.20369  -2.20121
  Beta  occ. eigenvalues --   -2.19863  -2.19581  -2.19238  -2.19040  -1.14657
  Beta  occ. eigenvalues --   -1.14625  -1.14570  -1.14080  -1.14033  -1.14000
  Beta  occ. eigenvalues --   -1.13822  -1.13789  -1.13764  -1.13556  -1.13538
  Beta  occ. eigenvalues --   -1.13449  -1.13266  -1.13264  -1.13191  -1.12938
  Beta  occ. eigenvalues --   -1.12914  -1.12910  -1.12731  -1.12722  -1.12699
  Beta  occ. eigenvalues --   -0.16946  -0.13513  -0.11859
  Beta virt. eigenvalues --   -0.07006  -0.06718  -0.05277  -0.03687  -0.03254
  Beta virt. eigenvalues --   -0.02670  -0.02283  -0.01486  -0.01020  -0.00720
  Beta virt. eigenvalues --   -0.00199  -0.00018   0.00184   0.00405   0.00684

 Mulliken charges and spin densities:
               1          2
     1  Na  -0.363546  -0.114216
     2  Na  -0.352648   0.332395
     3  Na   0.320339   0.233533
     4  Na  -0.080544   0.068584
     5  Na  -0.148328   0.266750
     6  Na   0.111035   0.081710
     7  Na   0.513692   0.131244
 Sum of Mulliken charges =  -0.00000   1.00000

 Dipole moment (field-independent basis, Debye):
    X=             -1.0169    Y=             -0.1620    Z=              0.1253  Tot=              1.0373
 Quadrupole moment (field-independent basis, Debye-Ang):
   XX=            -53.7873   YY=            -70.0556   ZZ=            -72.4945
   XY=              1.7342   XZ=              0.2533   YZ=              0.0646

 Normal termination of Gaussian 16 at Tue Dec  5 11:11:52 2023.
