 Gaussian 16, Revision B.01,
 Gaussian 16:  ES64L-G16RevB.01 20-Dec-2017

 -------------------------
 #P B3LYP/6-311+g(d) force
 -------------------------

 -----
 DPGEN
 -----
 Symbolic Z-matrix:
 Charge =  0 Multiplicity = 2

                         Standard orientation:
 ---------------------------------------------------------------------
 Center     Atomic      Atomic             Coordinates (Angstroms)
 Number     Number       Type             X           Y           Z
 ---------------------------------------------------------------------
      1         11           0       -3.011003   -1.454048    0.248809
      2         11           0        1.799223   -2.074315   -0.294747
      3         11           0        3.815695    0.475910    0.128512
      4         11           0       -0.095975   -0.250707    2.098874
      5         11           0       -0.867933   -0.702884   -1.706089
      6         11           0       -2.441873    1.944774    0.033615
      7         11           0        0.801866    2.061268   -0.508974
 ---------------------------------------------------------------------

 SCF Done:  E(UB3LYP) =  -1136.12439594     A.U. after   22 cycles

 The electronic state is 2-A.
 Alpha  occ. eigenvalues --  -38.45447 -38.44605 -38.44207 -38.43643 -38.43607
 Alpha  occ. eigenvalues --  -38.43421 -38.42676  -2.21237  -2.20461  -2.20065
 Alpha  occ. eigenvalues --   -2.19502  -2.19457  -2.19384  -2.18556  -1.14904
 Alpha  occ. eigenvalues --   -1.14899  -1.14878  -1.14184  -1.14103  -1.14093
 Alpha  occ. eigenvalues --   -1.13738  -1.13691  -1.13680  -1.13178  -1.13168
 Alpha  occ. eigenvalues --   -1.13160  -1.13153  -1.13125  -1.13087  -1.13052
 Alpha  occ. eigenvalues --   -1.13032  -1.12972  -1.12255  -1.12228  -1.12173
 Alpha  occ. eigenvalues --   -0.18628  -0.13903  -0.11436  -0.10930
 Alpha virt. eigenvalues --   -0.07069  -0.05414  -0.03815  -0.03330  -0.02828
 Alpha virt. eigenvalues --   -0.02467  -0.02401  -0.01299  -0.00432  -0.00243
 Alpha virt. eigenvalues --    0.00095   0.00183   0.00434   0.00676   0.00753

  Beta  occ. eigenvalues --  -38.45453 -38.44600 -38.44112 -38.43639 -38.43598
  Beta  occ. eigenvalues --  -38.43354 -38.42663  -2.21248  -2.20455  -2.19890
  Beta  occ. eigenvalues --   -2.19498  -2.19445  -2.19262  -2.18536  -1.14914
  Beta  occ. eigenvalues --   -1.14901  -1.14885  -1.14173  -1.14096  -1.14077
  Beta  occ. eigenvalues --   -1.13620  -1.13568  -1.13554  -1.13173  -1.13157
  Beta  occ. eigenvalues --   -1.13148  -1.13133  -1.13095  -1.13082  -1.12968
  Beta  occ. eigenvalues --   -1.12954  -1.12884  -1.12244  -1.12188  -1.12164
  Beta  occ. eigenvalues --   -0.17879  -0.13765  -0.11198
  Beta virt. eigenvalues --   -0.06987  -0.06897  -0.05437  -0.03407  -0.02981
  Beta virt. eigenvalues --   -0.02447  -0.01780  -0.01580  -0.01229  -0.00425
  Beta virt. eigenvalues --   -0.00056   0.00117   0.00199   0.00624   0.00737

 Mulliken charges and spin densities:
               1          2
     1  Na   0.333120   0.074122
     2  Na   0.094866   0.236604
     3  Na   0.077362  -0.133202
     4  Na  -0.392026   0.525773
     5  Na   0.174657   0.070662
     6  Na  -0.005425   0.073084
     7  Na  -0.282554   0.152957
 Sum of Mulliken charges =  -0.00000   1.00000

 Dipole moment (field-independent basis, Debye):
    X=              0.4634    Y=             -0.0956    Z=              0.4247  Tot=              0.6358
 Quadrupole moment (field-independent basis, Debye-Ang):
   XX=            -45.0520   YY=            -74.3772   ZZ=            -73.4117
   XY=              0.7395   XZ=             -0.5355   YZ=             -0.3270

 Normal termination of Gaussian 16 at Wed Nov 29 16:03:44 2023.
