 Gaussian 16, Revision B.01,
 Gaussian 16:  ES64L-G16RevB.01 20-Dec-2017

 -------------------------
 #P B3LYP/6-311+g(d) force
 -------------------------

 -----
 DPGEN
 -----
 Symbolic Z-matrix:
 Charge =  0 Multiplicity = 2

                         Standard orientation:
 ---------------------------------------------------------------------
 Center     Atomic      Atomic             Coordinates (Angstroms)
 Number     Number       Type             X           Y           Z
 ---------------------------------------------------------------------
      1         11           0       -0.127280   -2.812066   -0.753304
      2         11           0       -0.306150    0.073632   -1.784429
      3         11           0        3.580953   -0.627991    0.363065
      4         11           0        1.542273    2.356695   -0.547358
      5         11           0       -3.015978   -0.885994    0.303686
      6         11           0       -1.855299    2.325933    0.304942
      7         11           0        0.181481   -0.430210    2.113398
 ---------------------------------------------------------------------

 SCF Done:  E(UB3LYP) =  -1136.13240631     A.U. after   20 cycles

 The electronic state is 2-A.
 Alpha  occ. eigenvalues --  -38.44514 -38.44360 -38.44097 -38.43523 -38.43432
 Alpha  occ. eigenvalues --  -38.43378 -38.43226  -2.20262  -2.20188  -2.19934
 Alpha  occ. eigenvalues --   -2.19495  -2.19283  -2.19223  -2.19078  -1.13937
 Alpha  occ. eigenvalues --   -1.13920  -1.13901  -1.13856  -1.13832  -1.13800
 Alpha  occ. eigenvalues --   -1.13609  -1.13600  -1.13568  -1.13216  -1.13173
 Alpha  occ. eigenvalues --   -1.13124  -1.12958  -1.12920  -1.12909  -1.12889
 Alpha  occ. eigenvalues --   -1.12883  -1.12832  -1.12751  -1.12744  -1.12711
 Alpha  occ. eigenvalues --   -0.18291  -0.12788  -0.12213  -0.11196
 Alpha virt. eigenvalues --   -0.06084  -0.04859  -0.04470  -0.03309  -0.03096
 Alpha virt. eigenvalues --   -0.02875  -0.01829  -0.00994  -0.00424  -0.00141
 Alpha virt. eigenvalues --   -0.00067   0.00332   0.00657   0.00780   0.00843

  Beta  occ. eigenvalues --  -38.44513 -38.44281 -38.44090 -38.43447 -38.43408
  Beta  occ. eigenvalues --  -38.43366 -38.43222  -2.20260  -2.20042  -2.19923
  Beta  occ. eigenvalues --   -2.19358  -2.19243  -2.19205  -2.19074  -1.13925
  Beta  occ. eigenvalues --   -1.13921  -1.13900  -1.13759  -1.13733  -1.13689
  Beta  occ. eigenvalues --   -1.13602  -1.13580  -1.13553  -1.13126  -1.13083
  Beta  occ. eigenvalues --   -1.13032  -1.12913  -1.12887  -1.12875  -1.12868
  Beta  occ. eigenvalues --   -1.12858  -1.12820  -1.12748  -1.12736  -1.12693
  Beta  occ. eigenvalues --   -0.17560  -0.12569  -0.11930
  Beta virt. eigenvalues --   -0.07343  -0.05927  -0.04826  -0.04375  -0.02647
  Beta virt. eigenvalues --   -0.02385  -0.01923  -0.01624  -0.00939  -0.00396
  Beta virt. eigenvalues --   -0.00163   0.00057   0.00366   0.00792   0.00833

 Mulliken charges and spin densities:
               1          2
     1  Na   0.207736  -0.019240
     2  Na   0.111795   0.351547
     3  Na  -0.076561  -0.033999
     4  Na   0.133024  -0.032571
     5  Na   0.153083   0.044690
     6  Na  -0.068028   0.016218
     7  Na  -0.461050   0.673356
 Sum of Mulliken charges =  -0.00000   1.00000

 Dipole moment (field-independent basis, Debye):
    X=              0.0955    Y=             -0.2757    Z=              0.3653  Tot=              0.4675
 Quadrupole moment (field-independent basis, Debye-Ang):
   XX=            -55.9597   YY=            -66.3794   ZZ=            -72.0776
   XY=             -0.3456   XZ=             -1.1967   YZ=              0.6793

 Normal termination of Gaussian 16 at Thu Dec  7 03:00:27 2023.
