 Gaussian 16, Revision B.01,
 Gaussian 16:  ES64L-G16RevB.01 20-Dec-2017

 -------------------------
 #P B3LYP/6-311+g(d) force
 -------------------------

 -----
 DPGEN
 -----
 Symbolic Z-matrix:
 Charge =  0 Multiplicity = 2

                         Standard orientation:
 ---------------------------------------------------------------------
 Center     Atomic      Atomic             Coordinates (Angstroms)
 Number     Number       Type             X           Y           Z
 ---------------------------------------------------------------------
      1         11           0       -0.181663    2.690140    0.126534
      2         11           0       -5.648422   -1.027679    1.191355
      3         11           0       -7.655955   -2.311048   -0.810811
      4         11           0       -3.393441    2.167868    0.161791
      5         11           0        2.305649    0.697722   -0.759360
      6         11           0        5.982544   -0.684391   -0.792388
      7         11           0        8.591289   -1.532612    0.882879
 ---------------------------------------------------------------------

 SCF Done:  E(UB3LYP) =  -1136.10614480     A.U. after   19 cycles

 The electronic state is 2-A.
 Alpha  occ. eigenvalues --  -38.44951 -38.44942 -38.44697 -38.44664 -38.44464
 Alpha  occ. eigenvalues --  -38.44123 -38.43993  -2.20750  -2.20733  -2.20498
 Alpha  occ. eigenvalues --   -2.20454  -2.20246  -2.19925  -2.19761  -1.14399
 Alpha  occ. eigenvalues --   -1.14398  -1.14394  -1.14379  -1.14377  -1.14375
 Alpha  occ. eigenvalues --   -1.14147  -1.14145  -1.14115  -1.14098  -1.14098
 Alpha  occ. eigenvalues --   -1.14094  -1.13913  -1.13906  -1.13895  -1.13598
 Alpha  occ. eigenvalues --   -1.13594  -1.13594  -1.13440  -1.13437  -1.13410
 Alpha  occ. eigenvalues --   -0.15153  -0.14071  -0.13149  -0.11521
 Alpha virt. eigenvalues --   -0.07117  -0.05571  -0.03983  -0.03281  -0.03167
 Alpha virt. eigenvalues --   -0.02708  -0.02368  -0.02302  -0.01854  -0.01181
 Alpha virt. eigenvalues --   -0.00887  -0.00595  -0.00285   0.00206   0.00465

  Beta  occ. eigenvalues --  -38.44908 -38.44871 -38.44611 -38.44610 -38.44472
  Beta  occ. eigenvalues --  -38.44136 -38.44006  -2.20669  -2.20602  -2.20353
  Beta  occ. eigenvalues --   -2.20337  -2.20265  -2.19957  -2.19791  -1.14359
  Beta  occ. eigenvalues --   -1.14336  -1.14334  -1.14297  -1.14296  -1.14278
  Beta  occ. eigenvalues --   -1.14038  -1.14035  -1.14030  -1.14029  -1.14027
  Beta  occ. eigenvalues --   -1.14016  -1.13929  -1.13921  -1.13886  -1.13624
  Beta  occ. eigenvalues --   -1.13621  -1.13564  -1.13464  -1.13462  -1.13396
  Beta  occ. eigenvalues --   -0.14446  -0.13502  -0.12680
  Beta virt. eigenvalues --   -0.08437  -0.06612  -0.05146  -0.03737  -0.03071
  Beta virt. eigenvalues --   -0.02949  -0.02517  -0.02142  -0.02085  -0.01673
  Beta virt. eigenvalues --   -0.00912  -0.00468  -0.00342  -0.00031   0.00305

 Mulliken charges and spin densities:
               1          2
     1  Na  -0.145086  -0.038815
     2  Na  -0.252140  -0.030247
     3  Na   0.295212   0.141792
     4  Na   0.148365   0.375725
     5  Na  -0.241309   0.397382
     6  Na  -0.122970  -0.086104
     7  Na   0.317928   0.240267
 Sum of Mulliken charges =  -0.00000   1.00000

 Dipole moment (field-independent basis, Debye):
    X=             -1.1520    Y=             -0.5755    Z=             -0.0025  Tot=              1.2877
 Quadrupole moment (field-independent basis, Debye-Ang):
   XX=            -48.1355   YY=            -69.3725   ZZ=            -68.4782
   XY=              0.9833   XZ=             10.3268   YZ=              1.2685

 Normal termination of Gaussian 16 at Sun Dec  3 23:10:34 2023.
