 Gaussian 16, Revision B.01,
 Gaussian 16:  ES64L-G16RevB.01 20-Dec-2017

 -------------------------
 #P B3LYP/6-311+g(d) force
 -------------------------

 -----
 DPGEN
 -----
 Symbolic Z-matrix:
 Charge =  0 Multiplicity = 2

                         Standard orientation:
 ---------------------------------------------------------------------
 Center     Atomic      Atomic             Coordinates (Angstroms)
 Number     Number       Type             X           Y           Z
 ---------------------------------------------------------------------
      1         11           0        1.992508   -0.511228    2.005145
      2         11           0       -1.575070    1.922763    1.251604
      3         11           0        2.411619    2.153892   -0.691756
      4         11           0        2.176246   -1.558155   -1.093285
      5         11           0       -0.520785   -2.113230    0.503456
      6         11           0       -4.104890   -0.317658   -0.412311
      7         11           0       -0.379628    0.423615   -1.562853
 ---------------------------------------------------------------------

 SCF Done:  E(UB3LYP) =  -1136.12532973     A.U. after   22 cycles

 The electronic state is 2-A.
 Alpha  occ. eigenvalues --  -38.45239 -38.44475 -38.44089 -38.43668 -38.43582
 Alpha  occ. eigenvalues --  -38.43139 -38.42891  -2.20979  -2.20257  -2.19958
 Alpha  occ. eigenvalues --   -2.19594  -2.19524  -2.18943  -2.18789  -1.14661
 Alpha  occ. eigenvalues --   -1.14643  -1.14602  -1.13945  -1.13925  -1.13858
 Alpha  occ. eigenvalues --   -1.13629  -1.13616  -1.13561  -1.13326  -1.13249
 Alpha  occ. eigenvalues --   -1.13223  -1.13209  -1.13167  -1.13122  -1.12617
 Alpha  occ. eigenvalues --   -1.12601  -1.12587  -1.12503  -1.12465  -1.12383
 Alpha  occ. eigenvalues --   -0.18291  -0.13353  -0.11365  -0.11180
 Alpha virt. eigenvalues --   -0.06635  -0.05085  -0.04187  -0.03233  -0.02829
 Alpha virt. eigenvalues --   -0.02686  -0.02296  -0.00953  -0.00695  -0.00167
 Alpha virt. eigenvalues --    0.00158   0.00217   0.00349   0.00693   0.00784

  Beta  occ. eigenvalues --  -38.45243 -38.44446 -38.44014 -38.43642 -38.43530
  Beta  occ. eigenvalues --  -38.43136 -38.42880  -2.20987  -2.20203  -2.19820
  Beta  occ. eigenvalues --   -2.19550  -2.19432  -2.18941  -2.18774  -1.14664
  Beta  occ. eigenvalues --   -1.14647  -1.14608  -1.13911  -1.13880  -1.13821
  Beta  occ. eigenvalues --   -1.13530  -1.13526  -1.13463  -1.13281  -1.13205
  Beta  occ. eigenvalues --   -1.13176  -1.13162  -1.13091  -1.13053  -1.12606
  Beta  occ. eigenvalues --   -1.12602  -1.12580  -1.12495  -1.12420  -1.12376
  Beta  occ. eigenvalues --   -0.17528  -0.13203  -0.11140
  Beta virt. eigenvalues --   -0.07286  -0.06477  -0.04861  -0.03849  -0.03047
  Beta virt. eigenvalues --   -0.02223  -0.02103  -0.01783  -0.00880  -0.00298
  Beta virt. eigenvalues --   -0.00090   0.00157   0.00250   0.00490   0.00771

 Mulliken charges and spin densities:
               1          2
     1  Na  -0.234713   0.542991
     2  Na  -0.197834   0.187561
     3  Na  -0.127804  -0.056259
     4  Na   0.571086   0.017348
     5  Na  -0.090292   0.099860
     6  Na   0.209882  -0.037557
     7  Na  -0.130324   0.246056
 Sum of Mulliken charges =  -0.00000   1.00000

 Dipole moment (field-independent basis, Debye):
    X=             -1.0428    Y=             -0.0418    Z=              0.1574  Tot=              1.0554
 Quadrupole moment (field-independent basis, Debye-Ang):
   XX=            -49.2110   YY=            -74.1393   ZZ=            -69.0339
   XY=              0.2930   XZ=              0.3611   YZ=              3.0134

 Normal termination of Gaussian 16 at Wed Nov 29 16:12:25 2023.
