 Gaussian 16, Revision B.01,
 Gaussian 16:  ES64L-G16RevB.01 20-Dec-2017

 -------------------------
 #P B3LYP/6-311+g(d) force
 -------------------------

 -----
 DPGEN
 -----
 Symbolic Z-matrix:
 Charge =  0 Multiplicity = 2

                         Standard orientation:
 ---------------------------------------------------------------------
 Center     Atomic      Atomic             Coordinates (Angstroms)
 Number     Number       Type             X           Y           Z
 ---------------------------------------------------------------------
      1         11           0       -0.060707    0.060799   -1.626586
      2         11           0        0.125531   -1.934587    0.002014
      3         11           0       -2.519476   -0.868624   -0.001386
      4         11           0       -0.061007    0.061099    1.626914
      5         11           0        2.492568   -0.745581   -0.001586
      6         11           0        1.393244    1.670253    0.000514
      7         11           0       -1.370153    1.756640    0.000114
 ---------------------------------------------------------------------

 SCF Done:  E(UB3LYP) =  -1136.04265406     A.U. after   21 cycles

 The electronic state is 2-A.
 Alpha  occ. eigenvalues --  -38.44608 -38.44603 -38.44414 -38.44104 -38.44010
 Alpha  occ. eigenvalues --  -38.43941 -38.43848  -2.21039  -2.21011  -2.20586
 Alpha  occ. eigenvalues --   -2.20409  -2.20286  -2.20094  -2.20029  -1.15155
 Alpha  occ. eigenvalues --   -1.14975  -1.14931  -1.14766  -1.14756  -1.14635
 Alpha  occ. eigenvalues --   -1.14548  -1.14427  -1.14125  -1.14031  -1.13950
 Alpha  occ. eigenvalues --   -1.13907  -1.13856  -1.13828  -1.13812  -1.13755
 Alpha  occ. eigenvalues --   -1.13663  -1.13635  -1.13625  -1.13602  -1.13464
 Alpha  occ. eigenvalues --   -0.22350  -0.14395  -0.12974  -0.12317
 Alpha virt. eigenvalues --   -0.05416  -0.04261  -0.03972  -0.03762  -0.03041
 Alpha virt. eigenvalues --   -0.02494  -0.01320  -0.00412  -0.00035   0.00315
 Alpha virt. eigenvalues --    0.00763   0.00863   0.01054   0.01177   0.01257

  Beta  occ. eigenvalues --  -38.44512 -38.44507 -38.44403 -38.44082 -38.43990
  Beta  occ. eigenvalues --  -38.43932 -38.43830  -2.20871  -2.20838  -2.20571
  Beta  occ. eigenvalues --   -2.20378  -2.20259  -2.20072  -2.20017  -1.15080
  Beta  occ. eigenvalues --   -1.14876  -1.14802  -1.14684  -1.14646  -1.14545
  Beta  occ. eigenvalues --   -1.14506  -1.14383  -1.14060  -1.14011  -1.13922
  Beta  occ. eigenvalues --   -1.13841  -1.13811  -1.13805  -1.13741  -1.13714
  Beta  occ. eigenvalues --   -1.13615  -1.13596  -1.13593  -1.13563  -1.13459
  Beta  occ. eigenvalues --   -0.21531  -0.13986  -0.12575
  Beta virt. eigenvalues --   -0.08038  -0.05466  -0.04236  -0.03910  -0.02751
  Beta virt. eigenvalues --   -0.02088  -0.01442  -0.01242  -0.00376   0.00103
  Beta virt. eigenvalues --    0.00349   0.00766   0.00859   0.01057   0.01198

 Mulliken charges and spin densities:
               1          2
     1  Na  -0.413106   0.469099
     2  Na   0.385854   0.097469
     3  Na  -0.028314  -0.069367
     4  Na  -0.413019   0.468505
     5  Na  -0.119744  -0.060592
     6  Na   0.359092   0.068278
     7  Na   0.229236   0.026607
 Sum of Mulliken charges =  -0.00000   1.00000

 Dipole moment (field-independent basis, Debye):
    X=             -0.1824    Y=             -0.1093    Z=             -0.0012  Tot=              0.2126
 Quadrupole moment (field-independent basis, Debye-Ang):
   XX=            -57.0794   YY=            -70.9418   ZZ=            -69.9065
   XY=              0.1926   XZ=              0.0002   YZ=              0.0017

 Normal termination of Gaussian 16 at Fri Dec  8 17:07:34 2023.
