 Gaussian 16, Revision B.01,
 Gaussian 16:  ES64L-G16RevB.01 20-Dec-2017

 -------------------------
 #P B3LYP/6-311+g(d) force
 -------------------------

 -----
 DPGEN
 -----
 Symbolic Z-matrix:
 Charge =  0 Multiplicity = 2

                         Standard orientation:
 ---------------------------------------------------------------------
 Center     Atomic      Atomic             Coordinates (Angstroms)
 Number     Number       Type             X           Y           Z
 ---------------------------------------------------------------------
      1         11           0        4.107383   -0.580193   -0.728849
      2         11           0       -1.429306   -1.461156    2.262412
      3         11           0       -0.859410    2.140084    0.704483
      4         11           0       -4.173055    0.903338   -0.974006
      5         11           0        1.763029   -2.308578    0.177225
      6         11           0       -1.661708   -1.795753   -1.456792
      7         11           0        2.253067    3.102259    0.015526
 ---------------------------------------------------------------------

 SCF Done:  E(UB3LYP) =  -1136.11242902     A.U. after   21 cycles

 The electronic state is 2-A.
 Alpha  occ. eigenvalues --  -38.45523 -38.45054 -38.44960 -38.44293 -38.43903
 Alpha  occ. eigenvalues --  -38.43619 -38.43601  -2.21273  -2.20844  -2.20734
 Alpha  occ. eigenvalues --   -2.20094  -2.19661  -2.19417  -2.19399  -1.14970
 Alpha  occ. eigenvalues --   -1.14934  -1.14900  -1.14499  -1.14473  -1.14459
 Alpha  occ. eigenvalues --   -1.14392  -1.14375  -1.14351  -1.13800  -1.13745
 Alpha  occ. eigenvalues --   -1.13710  -1.13338  -1.13333  -1.13299  -1.13095
 Alpha  occ. eigenvalues --   -1.13087  -1.13084  -1.13078  -1.13055  -1.13015
 Alpha  occ. eigenvalues --   -0.16521  -0.13403  -0.12111  -0.11135
 Alpha virt. eigenvalues --   -0.07076  -0.05742  -0.04594  -0.03348  -0.02922
 Alpha virt. eigenvalues --   -0.02584  -0.02192  -0.01576  -0.01168  -0.00841
 Alpha virt. eigenvalues --   -0.00311  -0.00044   0.00189   0.00255   0.00554

  Beta  occ. eigenvalues --  -38.45521 -38.44965 -38.44892 -38.44262 -38.43901
  Beta  occ. eigenvalues --  -38.43608 -38.43599  -2.21272  -2.20679  -2.20608
  Beta  occ. eigenvalues --   -2.20036  -2.19658  -2.19417  -2.19379  -1.14972
  Beta  occ. eigenvalues --   -1.14932  -1.14882  -1.14382  -1.14362  -1.14349
  Beta  occ. eigenvalues --   -1.14305  -1.14285  -1.14270  -1.13760  -1.13705
  Beta  occ. eigenvalues --   -1.13671  -1.13336  -1.13329  -1.13296  -1.13096
  Beta  occ. eigenvalues --   -1.13091  -1.13073  -1.13054  -1.13030  -1.13002
  Beta  occ. eigenvalues --   -0.15986  -0.12774  -0.11915
  Beta virt. eigenvalues --   -0.07711  -0.06748  -0.05523  -0.04144  -0.03094
  Beta virt. eigenvalues --   -0.02578  -0.02007  -0.01934  -0.01390  -0.00999
  Beta virt. eigenvalues --   -0.00530  -0.00259   0.00105   0.00256   0.00487

 Mulliken charges and spin densities:
               1          2
     1  Na   0.000073   0.117440
     2  Na   0.204524   0.301227
     3  Na  -0.646700   0.208845
     4  Na   0.303932   0.285920
     5  Na  -0.154136   0.165771
     6  Na   0.131516   0.025770
     7  Na   0.160789  -0.104973
 Sum of Mulliken charges =  -0.00000   1.00000

 Dipole moment (field-independent basis, Debye):
    X=             -1.0342    Y=             -0.5912    Z=             -0.1000  Tot=              1.1954
 Quadrupole moment (field-independent basis, Debye-Ang):
   XX=            -58.0333   YY=            -72.4993   ZZ=            -68.3593
   XY=              2.4196   XZ=             -2.8440   YZ=             -0.7595

 Normal termination of Gaussian 16 at Sun Dec  3 22:51:23 2023.
