 Gaussian 16, Revision B.01,
 Gaussian 16:  ES64L-G16RevB.01 20-Dec-2017

 -------------------------
 #P B3LYP/6-311+g(d) force
 -------------------------

 -----
 DPGEN
 -----
 Symbolic Z-matrix:
 Charge =  0 Multiplicity = 2

                         Standard orientation:
 ---------------------------------------------------------------------
 Center     Atomic      Atomic             Coordinates (Angstroms)
 Number     Number       Type             X           Y           Z
 ---------------------------------------------------------------------
      1         11           0       -2.781288    1.705563   -0.542126
      2         11           0        1.934329   -1.934846   -0.749818
      3         11           0       -0.099091    0.383569    1.437981
      4         11           0       -1.020141   -1.067717   -1.533207
      5         11           0        4.106250    0.353635    0.878103
      6         11           0       -3.241803   -1.235444    1.299764
      7         11           0        1.101744    1.795240   -0.790697
 ---------------------------------------------------------------------

 SCF Done:  E(UB3LYP) =  -1136.11907987     A.U. after   27 cycles

 The electronic state is 2-A.
 Alpha  occ. eigenvalues --  -38.45097 -38.45008 -38.44368 -38.44212 -38.43357
 Alpha  occ. eigenvalues --  -38.42961 -38.42889  -2.20925  -2.20885  -2.20206
 Alpha  occ. eigenvalues --   -2.20052  -2.19254  -2.18906  -2.18745  -1.14708
 Alpha  occ. eigenvalues --   -1.14567  -1.14550  -1.14530  -1.14524  -1.14494
 Alpha  occ. eigenvalues --   -1.13897  -1.13860  -1.13830  -1.13717  -1.13680
 Alpha  occ. eigenvalues --   -1.13673  -1.13013  -1.12902  -1.12827  -1.12628
 Alpha  occ. eigenvalues --   -1.12554  -1.12536  -1.12413  -1.12409  -1.12368
 Alpha  occ. eigenvalues --   -0.18577  -0.14253  -0.11176  -0.10840
 Alpha virt. eigenvalues --   -0.07141  -0.05133  -0.04612  -0.02983  -0.02935
 Alpha virt. eigenvalues --   -0.02421  -0.02031  -0.01269  -0.01013  -0.00193
 Alpha virt. eigenvalues --    0.00010   0.00199   0.00347   0.00603   0.00655

  Beta  occ. eigenvalues --  -38.45046 -38.45005 -38.44354 -38.44151 -38.43345
  Beta  occ. eigenvalues --  -38.42914 -38.42879  -2.20921  -2.20788  -2.20182
  Beta  occ. eigenvalues --   -2.19939  -2.19235  -2.18824  -2.18733  -1.14679
  Beta  occ. eigenvalues --   -1.14572  -1.14524  -1.14482  -1.14467  -1.14432
  Beta  occ. eigenvalues --   -1.13878  -1.13842  -1.13800  -1.13636  -1.13606
  Beta  occ. eigenvalues --   -1.13599  -1.13008  -1.12871  -1.12802  -1.12571
  Beta  occ. eigenvalues --   -1.12500  -1.12458  -1.12405  -1.12389  -1.12341
  Beta  occ. eigenvalues --   -0.17951  -0.13778  -0.10601
  Beta virt. eigenvalues --   -0.07561  -0.06791  -0.04991  -0.04089  -0.02791
  Beta virt. eigenvalues --   -0.02685  -0.01855  -0.01411  -0.01101  -0.00661
  Beta virt. eigenvalues --   -0.00102   0.00114   0.00277   0.00444   0.00679

 Mulliken charges and spin densities:
               1          2
     1  Na   0.411073   0.105968
     2  Na  -0.517798  -0.080590
     3  Na  -0.461592   0.121399
     4  Na   0.048154   0.209755
     5  Na   0.586234   0.306805
     6  Na   0.033197   0.224783
     7  Na  -0.099267   0.111880
 Sum of Mulliken charges =  -0.00000   1.00000

 Dipole moment (field-independent basis, Debye):
    X=             -0.0337    Y=              0.3979    Z=              0.2570  Tot=              0.4749
 Quadrupole moment (field-independent basis, Debye-Ang):
   XX=            -48.1594   YY=            -78.1430   ZZ=            -67.7587
   XY=             -1.1313   XZ=              2.5351   YZ=             -3.9568

 Normal termination of Gaussian 16 at Thu Dec  7 15:20:45 2023.
