 Gaussian 16, Revision B.01,
 Gaussian 16:  ES64L-G16RevB.01 20-Dec-2017

 -------------------------
 #P B3LYP/6-311+g(d) force
 -------------------------

 -----
 DPGEN
 -----
 Symbolic Z-matrix:
 Charge =  0 Multiplicity = 2

                         Standard orientation:
 ---------------------------------------------------------------------
 Center     Atomic      Atomic             Coordinates (Angstroms)
 Number     Number       Type             X           Y           Z
 ---------------------------------------------------------------------
      1         11           0        1.337548   -2.684124    0.081831
      2         11           0       -2.402263    2.000007   -0.222660
      3         11           0        3.013199    0.138428   -0.214420
      4         11           0        1.093503    2.663457   -0.176012
      5         11           0       -0.205009   -0.380510   -1.469945
      6         11           0       -2.631314   -1.908676   -0.125511
      7         11           0       -0.205665    0.171419    2.126717
 ---------------------------------------------------------------------

 SCF Done:  E(UB3LYP) =  -1136.13654188     A.U. after   20 cycles

 The electronic state is 2-A.
 Alpha  occ. eigenvalues --  -38.44187 -38.44030 -38.43737 -38.43603 -38.43520
 Alpha  occ. eigenvalues --  -38.43327 -38.42960  -2.19997  -2.19845  -2.19591
 Alpha  occ. eigenvalues --   -2.19481  -2.19391  -2.19196  -2.18969  -1.13699
 Alpha  occ. eigenvalues --   -1.13651  -1.13623  -1.13526  -1.13507  -1.13477
 Alpha  occ. eigenvalues --   -1.13305  -1.13253  -1.13231  -1.13178  -1.13134
 Alpha  occ. eigenvalues --   -1.13114  -1.13056  -1.13013  -1.13009  -1.12867
 Alpha  occ. eigenvalues --   -1.12853  -1.12830  -1.12654  -1.12604  -1.12599
 Alpha  occ. eigenvalues --   -0.18629  -0.12972  -0.12585  -0.10585
 Alpha virt. eigenvalues --   -0.05799  -0.05244  -0.04696  -0.03037  -0.02879
 Alpha virt. eigenvalues --   -0.02475  -0.01504  -0.01342  -0.00450  -0.00356
 Alpha virt. eigenvalues --   -0.00005   0.00344   0.00798   0.00822   0.00910

  Beta  occ. eigenvalues --  -38.44184 -38.44025 -38.43733 -38.43599 -38.43415
  Beta  occ. eigenvalues --  -38.43320 -38.42910  -2.19994  -2.19839  -2.19586
  Beta  occ. eigenvalues --   -2.19475  -2.19199  -2.19188  -2.18878  -1.13689
  Beta  occ. eigenvalues --   -1.13637  -1.13624  -1.13514  -1.13491  -1.13477
  Beta  occ. eigenvalues --   -1.13301  -1.13242  -1.13219  -1.13175  -1.13116
  Beta  occ. eigenvalues --   -1.13104  -1.12930  -1.12882  -1.12873  -1.12858
  Beta  occ. eigenvalues --   -1.12833  -1.12816  -1.12584  -1.12538  -1.12532
  Beta  occ. eigenvalues --   -0.17917  -0.12743  -0.12367
  Beta virt. eigenvalues --   -0.06646  -0.05802  -0.05185  -0.04672  -0.02275
  Beta virt. eigenvalues --   -0.02111  -0.01448  -0.01363  -0.01275  -0.00496
  Beta virt. eigenvalues --   -0.00402   0.00151   0.00382   0.00810   0.00867

 Mulliken charges and spin densities:
               1          2
     1  Na   0.315104   0.023789
     2  Na   0.190799  -0.040765
     3  Na   0.150660   0.027589
     4  Na   0.223510   0.036103
     5  Na  -0.464867   0.245359
     6  Na   0.203062  -0.064772
     7  Na  -0.618269   0.772698
 Sum of Mulliken charges =  -0.00000   1.00000

 Dipole moment (field-independent basis, Debye):
    X=             -0.4478    Y=             -0.1877    Z=              0.1659  Tot=              0.5131
 Quadrupole moment (field-independent basis, Debye-Ang):
   XX=            -56.8179   YY=            -60.6344   ZZ=            -75.5092
   XY=             -0.2407   XZ=             -0.0318   YZ=             -1.2732

 Normal termination of Gaussian 16 at Thu Dec  7 07:52:11 2023.
