 Gaussian 16, Revision B.01,
 Gaussian 16:  ES64L-G16RevB.01 20-Dec-2017

 -------------------------
 #P B3LYP/6-311+g(d) force
 -------------------------

 -----
 DPGEN
 -----
 Symbolic Z-matrix:
 Charge =  0 Multiplicity = 2

                         Standard orientation:
 ---------------------------------------------------------------------
 Center     Atomic      Atomic             Coordinates (Angstroms)
 Number     Number       Type             X           Y           Z
 ---------------------------------------------------------------------
      1         11           0       -0.424039    1.814074    0.112791
      2         11           0       -1.238265   -2.735961    1.446810
      3         11           0        3.517808    2.251325    0.281947
      4         11           0        4.014923   -0.831539   -0.115280
      5         11           0       -3.363897   -1.166372   -0.812775
      6         11           0        1.102374   -1.848939   -1.001942
      7         11           0       -3.608904    2.517412    0.088450
 ---------------------------------------------------------------------

 SCF Done:  E(UB3LYP) =  -1136.11281574     A.U. after   26 cycles

 The electronic state is 2-A.
 Alpha  occ. eigenvalues --  -38.45592 -38.45204 -38.44520 -38.44060 -38.43727
 Alpha  occ. eigenvalues --  -38.43642 -38.43324  -2.21361  -2.20970  -2.20366
 Alpha  occ. eigenvalues --   -2.19854  -2.19576  -2.19453  -2.19160  -1.15055
 Alpha  occ. eigenvalues --   -1.15014  -1.14971  -1.14677  -1.14649  -1.14575
 Alpha  occ. eigenvalues --   -1.14046  -1.14028  -1.14022  -1.13526  -1.13514
 Alpha  occ. eigenvalues --   -1.13490  -1.13249  -1.13241  -1.13180  -1.13117
 Alpha  occ. eigenvalues --   -1.13108  -1.13084  -1.12818  -1.12800  -1.12779
 Alpha  occ. eigenvalues --   -0.16616  -0.14162  -0.12574  -0.09877
 Alpha virt. eigenvalues --   -0.07276  -0.05977  -0.04141  -0.03169  -0.02971
 Alpha virt. eigenvalues --   -0.02802  -0.02435  -0.01824  -0.00830  -0.00509
 Alpha virt. eigenvalues --   -0.00216  -0.00036   0.00100   0.00305   0.00594

  Beta  occ. eigenvalues --  -38.45569 -38.45198 -38.44498 -38.44049 -38.43674
  Beta  occ. eigenvalues --  -38.43621 -38.43252  -2.21321  -2.20962  -2.20334
  Beta  occ. eigenvalues --   -2.19835  -2.19480  -2.19415  -2.19026  -1.15027
  Beta  occ. eigenvalues --   -1.14989  -1.14933  -1.14673  -1.14647  -1.14555
  Beta  occ. eigenvalues --   -1.14014  -1.14009  -1.13964  -1.13514  -1.13496
  Beta  occ. eigenvalues --   -1.13472  -1.13185  -1.13180  -1.13100  -1.13090
  Beta  occ. eigenvalues --   -1.13081  -1.13061  -1.12731  -1.12708  -1.12688
  Beta  occ. eigenvalues --   -0.16289  -0.13551  -0.12039
  Beta virt. eigenvalues --   -0.07227  -0.06464  -0.05829  -0.03838  -0.02922
  Beta virt. eigenvalues --   -0.02670  -0.02465  -0.02266  -0.01326  -0.00604
  Beta virt. eigenvalues --   -0.00443   0.00038   0.00066   0.00364   0.00437

 Mulliken charges and spin densities:
               1          2
     1  Na  -1.952174   0.030787
     2  Na   0.368387   0.026116
     3  Na   0.891927   0.335017
     4  Na  -0.308985  -0.037720
     5  Na  -0.043059   0.176155
     6  Na   0.054036   0.381541
     7  Na   0.989867   0.088105
 Sum of Mulliken charges =  -0.00000   1.00000

 Dipole moment (field-independent basis, Debye):
    X=             -1.3788    Y=             -0.7332    Z=              0.0556  Tot=              1.5627
 Quadrupole moment (field-independent basis, Debye-Ang):
   XX=            -57.0660   YY=            -77.1773   ZZ=            -67.7314
   XY=             -2.7063   XZ=              3.4763   YZ=             -1.3808

 Normal termination of Gaussian 16 at Sun Dec  3 15:16:17 2023.
