 Gaussian 16, Revision B.01,
 Gaussian 16:  ES64L-G16RevB.01 20-Dec-2017

 -------------------------
 #P B3LYP/6-311+g(d) force
 -------------------------

 -----
 DPGEN
 -----
 Symbolic Z-matrix:
 Charge =  0 Multiplicity = 2

                         Standard orientation:
 ---------------------------------------------------------------------
 Center     Atomic      Atomic             Coordinates (Angstroms)
 Number     Number       Type             X           Y           Z
 ---------------------------------------------------------------------
      1         11           0       -0.173554    0.174443   -1.790205
      2         11           0        0.914925    2.915154   -0.176487
      3         11           0       -2.812811   -1.713622   -0.320420
      4         11           0       -2.128113    1.695323    0.438924
      5         11           0        1.476830   -2.722742   -0.090858
      6         11           0        2.862896    0.040971    0.096420
      7         11           0       -0.140173   -0.389528    1.842626
 ---------------------------------------------------------------------

 SCF Done:  E(UB3LYP) =  -1136.13773720     A.U. after   19 cycles

 The electronic state is 2-A.
 Alpha  occ. eigenvalues --  -38.43927 -38.43775 -38.43621 -38.43593 -38.43392
 Alpha  occ. eigenvalues --  -38.43326 -38.43206  -2.19731  -2.19628  -2.19512
 Alpha  occ. eigenvalues --   -2.19503  -2.19330  -2.19272  -2.19068  -1.13403
 Alpha  occ. eigenvalues --   -1.13383  -1.13382  -1.13363  -1.13292  -1.13269
 Alpha  occ. eigenvalues --   -1.13230  -1.13183  -1.13181  -1.13169  -1.13120
 Alpha  occ. eigenvalues --   -1.13114  -1.13001  -1.12956  -1.12949  -1.12940
 Alpha  occ. eigenvalues --   -1.12906  -1.12892  -1.12728  -1.12720  -1.12717
 Alpha  occ. eigenvalues --   -0.18811  -0.13136  -0.12482  -0.10774
 Alpha virt. eigenvalues --   -0.05510  -0.05119  -0.04762  -0.03271  -0.02902
 Alpha virt. eigenvalues --   -0.02489  -0.01445  -0.01212  -0.00299  -0.00205
 Alpha virt. eigenvalues --    0.00020   0.00362   0.00835   0.00867   0.00897

  Beta  occ. eigenvalues --  -38.43921 -38.43773 -38.43616 -38.43577 -38.43312
  Beta  occ. eigenvalues --  -38.43250 -38.43203  -2.19723  -2.19627  -2.19506
  Beta  occ. eigenvalues --   -2.19479  -2.19185  -2.19135  -2.19066  -1.13385
  Beta  occ. eigenvalues --   -1.13379  -1.13371  -1.13365  -1.13281  -1.13258
  Beta  occ. eigenvalues --   -1.13206  -1.13176  -1.13145  -1.13132  -1.13118
  Beta  occ. eigenvalues --   -1.13102  -1.12909  -1.12860  -1.12847  -1.12839
  Beta  occ. eigenvalues --   -1.12811  -1.12795  -1.12723  -1.12714  -1.12695
  Beta  occ. eigenvalues --   -0.18073  -0.12888  -0.12253
  Beta virt. eigenvalues --   -0.06860  -0.05495  -0.05033  -0.04759  -0.02458
  Beta virt. eigenvalues --   -0.02178  -0.01458  -0.01349  -0.01128  -0.00351
  Beta virt. eigenvalues --   -0.00205   0.00136   0.00383   0.00854   0.00872

 Mulliken charges and spin densities:
               1          2
     1  Na  -0.369082   0.719777
     2  Na   0.104051  -0.040563
     3  Na  -0.025547  -0.104781
     4  Na   0.311740   0.051694
     5  Na   0.057115  -0.124958
     6  Na   0.116317  -0.001863
     7  Na  -0.194595   0.500693
 Sum of Mulliken charges =  -0.00000   1.00000

 Dipole moment (field-independent basis, Debye):
    X=             -0.1395    Y=             -0.3431    Z=             -0.0226  Tot=              0.3710
 Quadrupole moment (field-independent basis, Debye-Ang):
   XX=            -59.4261   YY=            -60.0132   ZZ=            -74.2209
   XY=              1.1219   XZ=              0.0437   YZ=              1.3335

 Normal termination of Gaussian 16 at Thu Dec  7 03:43:42 2023.
