 Gaussian 16, Revision B.01,
 Gaussian 16:  ES64L-G16RevB.01 20-Dec-2017

 -------------------------
 #P B3LYP/6-311+g(d) force
 -------------------------

 -----
 DPGEN
 -----
 Symbolic Z-matrix:
 Charge =  0 Multiplicity = 2

                         Standard orientation:
 ---------------------------------------------------------------------
 Center     Atomic      Atomic             Coordinates (Angstroms)
 Number     Number       Type             X           Y           Z
 ---------------------------------------------------------------------
      1         11           0        3.050770    0.645702    0.006744
      2         11           0       -3.215260    0.946214    0.159073
      3         11           0       -2.369050   -1.588285   -0.425031
      4         11           0        0.870869   -0.463344   -1.754587
      5         11           0        1.110047   -2.759125    0.431463
      6         11           0        0.233745    2.941742   -0.334349
      7         11           0        0.318878    0.277096    1.916687
 ---------------------------------------------------------------------

 SCF Done:  E(UB3LYP) =  -1136.12688548     A.U. after   19 cycles

 The electronic state is 2-A.
 Alpha  occ. eigenvalues --  -38.44598 -38.44285 -38.43869 -38.43753 -38.43515
 Alpha  occ. eigenvalues --  -38.43485 -38.43443  -2.20477  -2.20141  -2.19757
 Alpha  occ. eigenvalues --   -2.19557  -2.19444  -2.19425  -2.19300  -1.14207
 Alpha  occ. eigenvalues --   -1.14142  -1.14075  -1.14050  -1.13771  -1.13741
 Alpha  occ. eigenvalues --   -1.13395  -1.13378  -1.13346  -1.13237  -1.13235
 Alpha  occ. eigenvalues --   -1.13185  -1.13138  -1.13099  -1.13087  -1.13073
 Alpha  occ. eigenvalues --   -1.13059  -1.13049  -1.12956  -1.12937  -1.12926
 Alpha  occ. eigenvalues --   -0.18583  -0.13440  -0.12282  -0.10799
 Alpha virt. eigenvalues --   -0.06146  -0.04966  -0.04682  -0.03348  -0.02964
 Alpha virt. eigenvalues --   -0.02539  -0.01626  -0.01087  -0.00553  -0.00190
 Alpha virt. eigenvalues --   -0.00019   0.00362   0.00706   0.00814   0.00905

  Beta  occ. eigenvalues --  -38.44587 -38.44288 -38.43864 -38.43749 -38.43432
  Beta  occ. eigenvalues --  -38.43427 -38.43418  -2.20461  -2.20147  -2.19749
  Beta  occ. eigenvalues --   -2.19552  -2.19320  -2.19283  -2.19265  -1.14187
  Beta  occ. eigenvalues --   -1.14105  -1.14067  -1.14055  -1.13766  -1.13746
  Beta  occ. eigenvalues --   -1.13382  -1.13364  -1.13346  -1.13234  -1.13213
  Beta  occ. eigenvalues --   -1.13182  -1.13071  -1.13008  -1.13000  -1.12984
  Beta  occ. eigenvalues --   -1.12952  -1.12944  -1.12920  -1.12900  -1.12890
  Beta  occ. eigenvalues --   -0.17859  -0.13234  -0.12068
  Beta virt. eigenvalues --   -0.06878  -0.06061  -0.04930  -0.04599  -0.02641
  Beta virt. eigenvalues --   -0.02224  -0.01593  -0.01473  -0.01017  -0.00565
  Beta virt. eigenvalues --   -0.00213   0.00135   0.00412   0.00810   0.00870

 Mulliken charges and spin densities:
               1          2
     1  Na   0.452131  -0.017085
     2  Na   0.001671  -0.064444
     3  Na  -0.141906  -0.026132
     4  Na   0.074865   0.539851
     5  Na   0.073713  -0.057130
     6  Na  -0.255602  -0.108140
     7  Na  -0.204871   0.733080
 Sum of Mulliken charges =  -0.00000   1.00000

 Dipole moment (field-independent basis, Debye):
    X=              0.4364    Y=              0.2703    Z=              0.1004  Tot=              0.5231
 Quadrupole moment (field-independent basis, Debye-Ang):
   XX=            -57.8980   YY=            -63.6269   ZZ=            -74.0172
   XY=             -1.0939   XZ=              0.7116   YZ=             -1.3033

 Normal termination of Gaussian 16 at Tue Dec  5 14:19:35 2023.
