 Gaussian 16, Revision B.01,
 Gaussian 16:  ES64L-G16RevB.01 20-Dec-2017

 -------------------------
 #P B3LYP/6-311+g(d) force
 -------------------------

 -----
 DPGEN
 -----
 Symbolic Z-matrix:
 Charge =  0 Multiplicity = 2

                         Standard orientation:
 ---------------------------------------------------------------------
 Center     Atomic      Atomic             Coordinates (Angstroms)
 Number     Number       Type             X           Y           Z
 ---------------------------------------------------------------------
      1         11           0       -2.545493   -2.162177    0.679342
      2         11           0        1.903490    2.054611    0.089329
      3         11           0       -1.904708    2.411151    0.413667
      4         11           0        0.245859   -1.488919   -1.231506
      5         11           0       -1.757686    0.499548   -1.890023
      6         11           0        0.262829   -0.399190    2.273715
      7         11           0        3.795709   -0.915025   -0.334523
 ---------------------------------------------------------------------

 SCF Done:  E(UB3LYP) =  -1136.12331534     A.U. after   21 cycles

 The electronic state is 2-A.
 Alpha  occ. eigenvalues --  -38.44852 -38.44407 -38.44028 -38.44013 -38.44005
 Alpha  occ. eigenvalues --  -38.43547 -38.43225  -2.20673  -2.20180  -2.19951
 Alpha  occ. eigenvalues --   -2.19817  -2.19806  -2.19463  -2.19058  -1.14337
 Alpha  occ. eigenvalues --   -1.14305  -1.14287  -1.13849  -1.13843  -1.13811
 Alpha  occ. eigenvalues --   -1.13739  -1.13615  -1.13530  -1.13513  -1.13498
 Alpha  occ. eigenvalues --   -1.13470  -1.13468  -1.13445  -1.13424  -1.13155
 Alpha  occ. eigenvalues --   -1.13116  -1.13032  -1.12755  -1.12703  -1.12681
 Alpha  occ. eigenvalues --   -0.18046  -0.13085  -0.11682  -0.11626
 Alpha virt. eigenvalues --   -0.06087  -0.05342  -0.04220  -0.03343  -0.03231
 Alpha virt. eigenvalues --   -0.02958  -0.01830  -0.01299  -0.00429  -0.00059
 Alpha virt. eigenvalues --    0.00098   0.00275   0.00452   0.00622   0.00762

  Beta  occ. eigenvalues --  -38.44760 -38.44401 -38.44026 -38.43994 -38.43955
  Beta  occ. eigenvalues --  -38.43510 -38.43226  -2.20505  -2.20169  -2.19845
  Beta  occ. eigenvalues --   -2.19815  -2.19787  -2.19398  -2.19062  -1.14228
  Beta  occ. eigenvalues --   -1.14186  -1.14161  -1.13839  -1.13833  -1.13806
  Beta  occ. eigenvalues --   -1.13656  -1.13547  -1.13501  -1.13494  -1.13466
  Beta  occ. eigenvalues --   -1.13459  -1.13443  -1.13424  -1.13423  -1.13104
  Beta  occ. eigenvalues --   -1.13052  -1.12992  -1.12751  -1.12698  -1.12684
  Beta  occ. eigenvalues --   -0.17289  -0.12914  -0.11469
  Beta virt. eigenvalues --   -0.07711  -0.05814  -0.05273  -0.03760  -0.03036
  Beta virt. eigenvalues --   -0.02502  -0.02137  -0.01749  -0.01192  -0.00172
  Beta virt. eigenvalues --   -0.00031   0.00127   0.00318   0.00678   0.00739

 Mulliken charges and spin densities:
               1          2
     1  Na  -0.009513   0.016872
     2  Na  -0.241229   0.056938
     3  Na  -0.135336   0.025431
     4  Na  -0.317118   0.425202
     5  Na   0.591823  -0.045036
     6  Na  -0.214074   0.613165
     7  Na   0.325447  -0.092573
 Sum of Mulliken charges =  -0.00000   1.00000

 Dipole moment (field-independent basis, Debye):
    X=              0.4315    Y=             -0.3337    Z=              0.5208  Tot=              0.7541
 Quadrupole moment (field-independent basis, Debye-Ang):
   XX=            -55.1462   YY=            -71.8281   ZZ=            -68.4825
   XY=              0.7668   XZ=             -1.5685   YZ=             -0.3580

 Normal termination of Gaussian 16 at Thu Dec  7 19:57:42 2023.
