 Gaussian 16, Revision B.01,
 Gaussian 16:  ES64L-G16RevB.01 20-Dec-2017

 -------------------------
 #P B3LYP/6-311+g(d) force
 -------------------------

 -----
 DPGEN
 -----
 Symbolic Z-matrix:
 Charge =  0 Multiplicity = 2

                         Standard orientation:
 ---------------------------------------------------------------------
 Center     Atomic      Atomic             Coordinates (Angstroms)
 Number     Number       Type             X           Y           Z
 ---------------------------------------------------------------------
      1         11           0        0.068594    0.168406    1.854212
      2         11           0        0.847305   -2.905344    0.365187
      3         11           0       -0.034994   -0.329816   -1.070795
      4         11           0       -3.023422   -1.443850   -0.188633
      5         11           0        3.087436   -0.278300   -0.803859
      6         11           0        1.254251    2.740498    0.316829
      7         11           0       -2.199169    2.048405   -0.472940
 ---------------------------------------------------------------------

 SCF Done:  E(UB3LYP) =  -1136.13178239     A.U. after   19 cycles

 The electronic state is 2-A.
 Alpha  occ. eigenvalues --  -38.44083 -38.43787 -38.43762 -38.43722 -38.43395
 Alpha  occ. eigenvalues --  -38.43269 -38.42759  -2.19888  -2.19632  -2.19616
 Alpha  occ. eigenvalues --   -2.19579  -2.19254  -2.19241  -2.18885  -1.13573
 Alpha  occ. eigenvalues --   -1.13545  -1.13522  -1.13337  -1.13324  -1.13297
 Alpha  occ. eigenvalues --   -1.13293  -1.13252  -1.13246  -1.13241  -1.13237
 Alpha  occ. eigenvalues --   -1.13185  -1.13031  -1.12965  -1.12907  -1.12885
 Alpha  occ. eigenvalues --   -1.12834  -1.12810  -1.12580  -1.12512  -1.12490
 Alpha  occ. eigenvalues --   -0.18765  -0.13033  -0.12599  -0.10338
 Alpha virt. eigenvalues --   -0.05609  -0.05114  -0.04912  -0.02914  -0.02772
 Alpha virt. eigenvalues --   -0.01942  -0.01653  -0.01370  -0.00503  -0.00335
 Alpha virt. eigenvalues --    0.00039   0.00314   0.00797   0.00825   0.00860

  Beta  occ. eigenvalues --  -38.44081 -38.43776 -38.43727 -38.43712 -38.43387
  Beta  occ. eigenvalues --  -38.43177 -38.42726  -2.19887  -2.19614  -2.19566
  Beta  occ. eigenvalues --   -2.19552  -2.19242  -2.19073  -2.18830  -1.13568
  Beta  occ. eigenvalues --   -1.13545  -1.13513  -1.13321  -1.13297  -1.13275
  Beta  occ. eigenvalues --   -1.13268  -1.13229  -1.13218  -1.13200  -1.13199
  Beta  occ. eigenvalues --   -1.13167  -1.12961  -1.12900  -1.12888  -1.12873
  Beta  occ. eigenvalues --   -1.12725  -1.12693  -1.12506  -1.12478  -1.12448
  Beta  occ. eigenvalues --   -0.18102  -0.12675  -0.12363
  Beta virt. eigenvalues --   -0.06576  -0.05539  -0.04991  -0.04827  -0.02272
  Beta virt. eigenvalues --   -0.02058  -0.01556  -0.01294  -0.01010  -0.00453
  Beta virt. eigenvalues --   -0.00317   0.00170   0.00387   0.00822   0.00881

 Mulliken charges and spin densities:
               1          2
     1  Na   0.048477   0.553039
     2  Na   0.236294   0.133892
     3  Na  -0.807077  -0.054300
     4  Na   0.113471   0.030479
     5  Na   0.156071   0.167183
     6  Na   0.239674   0.105010
     7  Na   0.013089   0.064696
 Sum of Mulliken charges =  -0.00000   1.00000

 Dipole moment (field-independent basis, Debye):
    X=             -0.2383    Y=             -0.1323    Z=              0.2634  Tot=              0.3790
 Quadrupole moment (field-independent basis, Debye-Ang):
   XX=            -56.6187   YY=            -58.1886   ZZ=            -75.7628
   XY=              0.8012   XZ=             -0.3230   YZ=             -1.3524

 Normal termination of Gaussian 16 at Fri Dec  8 04:41:17 2023.
