 Gaussian 16, Revision B.01,
 Gaussian 16:  ES64L-G16RevB.01 20-Dec-2017

 -------------------------
 #P B3LYP/6-311+g(d) force
 -------------------------

 -----
 DPGEN
 -----
 Symbolic Z-matrix:
 Charge =  0 Multiplicity = 2

                         Standard orientation:
 ---------------------------------------------------------------------
 Center     Atomic      Atomic             Coordinates (Angstroms)
 Number     Number       Type             X           Y           Z
 ---------------------------------------------------------------------
      1         11           0       -2.915130   -1.377953    0.589098
      2         11           0        3.019636   -0.340154    0.328943
      3         11           0       -0.236468   -0.322339   -1.797148
      4         11           0        0.214335    0.208268    1.867464
      5         11           0        1.256215    2.764618   -0.272794
      6         11           0        0.839368   -2.854980   -0.436479
      7         11           0       -2.177956    1.922539   -0.279084
 ---------------------------------------------------------------------

 SCF Done:  E(UB3LYP) =  -1136.13814282     A.U. after   19 cycles

 The electronic state is 2-A.
 Alpha  occ. eigenvalues --  -38.43959 -38.43803 -38.43616 -38.43599 -38.43455
 Alpha  occ. eigenvalues --  -38.43411 -38.43389  -2.19763  -2.19659  -2.19533
 Alpha  occ. eigenvalues --   -2.19459  -2.19358  -2.19313  -2.19224  -1.13433
 Alpha  occ. eigenvalues --   -1.13418  -1.13405  -1.13375  -1.13317  -1.13290
 Alpha  occ. eigenvalues --   -1.13209  -1.13173  -1.13166  -1.13146  -1.13125
 Alpha  occ. eigenvalues --   -1.13118  -1.13081  -1.13012  -1.12971  -1.12952
 Alpha  occ. eigenvalues --   -1.12931  -1.12915  -1.12895  -1.12884  -1.12860
 Alpha  occ. eigenvalues --   -0.18572  -0.13004  -0.12441  -0.10878
 Alpha virt. eigenvalues --   -0.05423  -0.05132  -0.04819  -0.03269  -0.03030
 Alpha virt. eigenvalues --   -0.02533  -0.01459  -0.01153  -0.00392  -0.00228
 Alpha virt. eigenvalues --    0.00003   0.00357   0.00817   0.00875   0.00886

  Beta  occ. eigenvalues --  -38.43943 -38.43795 -38.43591 -38.43543 -38.43443
  Beta  occ. eigenvalues --  -38.43385 -38.43337  -2.19736  -2.19648  -2.19449
  Beta  occ. eigenvalues --   -2.19398  -2.19296  -2.19224  -2.19218  -1.13404
  Beta  occ. eigenvalues --   -1.13400  -1.13385  -1.13352  -1.13301  -1.13282
  Beta  occ. eigenvalues --   -1.13153  -1.13123  -1.13108  -1.13075  -1.13070
  Beta  occ. eigenvalues --   -1.13065  -1.13044  -1.12938  -1.12928  -1.12916
  Beta  occ. eigenvalues --   -1.12888  -1.12884  -1.12870  -1.12848  -1.12841
  Beta  occ. eigenvalues --   -0.17868  -0.12734  -0.12170
  Beta virt. eigenvalues --   -0.07049  -0.05316  -0.05127  -0.04726  -0.02541
  Beta virt. eigenvalues --   -0.02291  -0.01554  -0.01324  -0.01063  -0.00396
  Beta virt. eigenvalues --   -0.00269   0.00117   0.00390   0.00878   0.00880

 Mulliken charges and spin densities:
               1          2
     1  Na  -0.045386   0.054742
     2  Na   0.148181  -0.030307
     3  Na  -0.079091   0.508143
     4  Na  -0.209266   0.616827
     5  Na  -0.064439  -0.062718
     6  Na   0.115933  -0.046301
     7  Na   0.134069  -0.040387
 Sum of Mulliken charges =  -0.00000   1.00000

 Dipole moment (field-independent basis, Debye):
    X=             -0.0605    Y=             -0.0423    Z=              0.1147  Tot=              0.1364
 Quadrupole moment (field-independent basis, Debye-Ang):
   XX=            -58.1196   YY=            -62.2180   ZZ=            -73.5312
   XY=              0.6553   XZ=             -0.9249   YZ=             -1.6247

 Normal termination of Gaussian 16 at Thu Dec  7 18:17:14 2023.
