 Gaussian 16, Revision B.01,
 Gaussian 16:  ES64L-G16RevB.01 20-Dec-2017

 -------------------------
 #P B3LYP/6-311+g(d) force
 -------------------------

 -----
 DPGEN
 -----
 Symbolic Z-matrix:
 Charge =  0 Multiplicity = 2

                         Standard orientation:
 ---------------------------------------------------------------------
 Center     Atomic      Atomic             Coordinates (Angstroms)
 Number     Number       Type             X           Y           Z
 ---------------------------------------------------------------------
      1         11           0        3.387175   -1.499090    0.333485
      2         11           0       -3.667123    0.630447    0.373502
      3         11           0        2.741940    1.825443   -0.153460
      4         11           0       -0.947653    1.899653   -0.680641
      5         11           0        0.694175   -0.705162   -1.457243
      6         11           0       -2.230925   -2.095686   -0.440214
      7         11           0        0.022411   -0.055605    2.024571
 ---------------------------------------------------------------------

 SCF Done:  E(UB3LYP) =  -1136.11797816     A.U. after   31 cycles

 The electronic state is 2-A.
 Alpha  occ. eigenvalues --  -38.45443 -38.44836 -38.44591 -38.44466 -38.43561
 Alpha  occ. eigenvalues --  -38.43308 -38.42558  -2.21282  -2.20663  -2.20391
 Alpha  occ. eigenvalues --   -2.20289  -2.19404  -2.19274  -2.18472  -1.14957
 Alpha  occ. eigenvalues --   -1.14939  -1.14917  -1.14358  -1.14296  -1.14268
 Alpha  occ. eigenvalues --   -1.14074  -1.14065  -1.14041  -1.13965  -1.13938
 Alpha  occ. eigenvalues --   -1.13916  -1.13087  -1.13063  -1.13056  -1.12973
 Alpha  occ. eigenvalues --   -1.12917  -1.12878  -1.12180  -1.12133  -1.12090
 Alpha  occ. eigenvalues --   -0.18568  -0.14261  -0.11038  -0.10712
 Alpha virt. eigenvalues --   -0.07368  -0.05819  -0.04044  -0.03105  -0.02895
 Alpha virt. eigenvalues --   -0.02338  -0.02257  -0.01550  -0.00697  -0.00366
 Alpha virt. eigenvalues --    0.00075   0.00137   0.00410   0.00558   0.00656

  Beta  occ. eigenvalues --  -38.45433 -38.44761 -38.44607 -38.44458 -38.43547
  Beta  occ. eigenvalues --  -38.43236 -38.42541  -2.21264  -2.20525  -2.20423
  Beta  occ. eigenvalues --   -2.20275  -2.19382  -2.19145  -2.18446  -1.14942
  Beta  occ. eigenvalues --   -1.14931  -1.14896  -1.14262  -1.14201  -1.14164
  Beta  occ. eigenvalues --   -1.14094  -1.14082  -1.14054  -1.13943  -1.13930
  Beta  occ. eigenvalues --   -1.13911  -1.13059  -1.13053  -1.13024  -1.12899
  Beta  occ. eigenvalues --   -1.12813  -1.12776  -1.12162  -1.12082  -1.12079
  Beta  occ. eigenvalues --   -0.17838  -0.14160  -0.10769
  Beta virt. eigenvalues --   -0.07197  -0.06790  -0.05832  -0.03486  -0.02924
  Beta virt. eigenvalues --   -0.02682  -0.01723  -0.01421  -0.01280  -0.00642
  Beta virt. eigenvalues --   -0.00204   0.00070   0.00159   0.00565   0.00615

 Mulliken charges and spin densities:
               1          2
     1  Na   0.177123  -0.071793
     2  Na   0.480060   0.158576
     3  Na   0.200421   0.026615
     4  Na  -0.296211  -0.057883
     5  Na   0.010041   0.321670
     6  Na  -0.118773   0.015687
     7  Na  -0.452660   0.607129
 Sum of Mulliken charges =  -0.00000   1.00000

 Dipole moment (field-independent basis, Debye):
    X=              0.1552    Y=              0.2798    Z=              0.5379  Tot=              0.6258
 Quadrupole moment (field-independent basis, Debye-Ang):
   XX=            -44.2886   YY=            -74.3455   ZZ=            -74.0749
   XY=              0.0721   XZ=             -0.1565   YZ=             -0.4192

 Normal termination of Gaussian 16 at Thu Dec  7 16:38:59 2023.
