 Gaussian 16, Revision B.01,
 Gaussian 16:  ES64L-G16RevB.01 20-Dec-2017

 -------------------------
 #P B3LYP/6-311+g(d) force
 -------------------------

 -----
 DPGEN
 -----
 Symbolic Z-matrix:
 Charge =  0 Multiplicity = 2

                         Standard orientation:
 ---------------------------------------------------------------------
 Center     Atomic      Atomic             Coordinates (Angstroms)
 Number     Number       Type             X           Y           Z
 ---------------------------------------------------------------------
      1         11           0        1.567266   -1.339514    0.469394
      2         11           0        4.861960   -1.619861   -0.021369
      3         11           0        2.368985    0.864778   -1.369023
      4         11           0       -1.067758    2.034896   -0.985684
      5         11           0       -2.475284   -0.801141    0.788057
      6         11           0        0.289083    2.209521    1.664837
      7         11           0       -5.544253   -1.348679   -0.546212
 ---------------------------------------------------------------------

 SCF Done:  E(UB3LYP) =  -1136.11239113     A.U. after   22 cycles

 The electronic state is 2-A.
 Alpha  occ. eigenvalues --  -38.45124 -38.44860 -38.44617 -38.44518 -38.44502
 Alpha  occ. eigenvalues --  -38.43444 -38.43074  -2.20902  -2.20700  -2.20481
 Alpha  occ. eigenvalues --   -2.20403  -2.20374  -2.19213  -2.18879  -1.14574
 Alpha  occ. eigenvalues --   -1.14571  -1.14527  -1.14464  -1.14348  -1.14327
 Alpha  occ. eigenvalues --   -1.14260  -1.14148  -1.14116  -1.14081  -1.14074
 Alpha  occ. eigenvalues --   -1.14045  -1.13996  -1.13974  -1.13908  -1.12872
 Alpha  occ. eigenvalues --   -1.12871  -1.12846  -1.12579  -1.12569  -1.12484
 Alpha  occ. eigenvalues --   -0.17741  -0.13785  -0.11879  -0.10284
 Alpha virt. eigenvalues --   -0.07047  -0.06207  -0.04454  -0.03161  -0.02997
 Alpha virt. eigenvalues --   -0.02442  -0.01922  -0.01851  -0.01137  -0.00624
 Alpha virt. eigenvalues --   -0.00351  -0.00025   0.00275   0.00359   0.00536

  Beta  occ. eigenvalues --  -38.45126 -38.44847 -38.44593 -38.44480 -38.44448
  Beta  occ. eigenvalues --  -38.43416 -38.43067  -2.20905  -2.20678  -2.20438
  Beta  occ. eigenvalues --   -2.20334  -2.20279  -2.19160  -2.18871  -1.14575
  Beta  occ. eigenvalues --   -1.14569  -1.14529  -1.14449  -1.14336  -1.14289
  Beta  occ. eigenvalues --   -1.14200  -1.14119  -1.14078  -1.14046  -1.14026
  Beta  occ. eigenvalues --   -1.13982  -1.13939  -1.13910  -1.13831  -1.12836
  Beta  occ. eigenvalues --   -1.12835  -1.12813  -1.12578  -1.12566  -1.12448
  Beta  occ. eigenvalues --   -0.17099  -0.13668  -0.11546
  Beta virt. eigenvalues --   -0.06828  -0.06716  -0.05949  -0.03923  -0.03060
  Beta virt. eigenvalues --   -0.02663  -0.02251  -0.01775  -0.01301  -0.00802
  Beta virt. eigenvalues --   -0.00387  -0.00212   0.00189   0.00393   0.00471

 Mulliken charges and spin densities:
               1          2
     1  Na  -0.849398   0.346796
     2  Na   1.221424   0.150285
     3  Na  -0.041689   0.249256
     4  Na   0.008279   0.207638
     5  Na  -0.702454  -0.295023
     6  Na   0.343523   0.186439
     7  Na   0.020315   0.154610
 Sum of Mulliken charges =  -0.00000   1.00000

 Dipole moment (field-independent basis, Debye):
    X=              2.8794    Y=              0.7868    Z=              0.4511  Tot=              3.0188
 Quadrupole moment (field-independent basis, Debye-Ang):
   XX=            -55.9243   YY=            -68.4081   ZZ=            -71.0897
   XY=             -6.5061   XZ=              4.5942   YZ=              3.7067

 Normal termination of Gaussian 16 at Tue Nov 28 23:54:06 2023.
