 Gaussian 16, Revision B.01,
 Gaussian 16:  ES64L-G16RevB.01 20-Dec-2017

 -------------------------
 #P B3LYP/6-311+g(d) force
 -------------------------

 -----
 DPGEN
 -----
 Symbolic Z-matrix:
 Charge =  0 Multiplicity = 2

                         Standard orientation:
 ---------------------------------------------------------------------
 Center     Atomic      Atomic             Coordinates (Angstroms)
 Number     Number       Type             X           Y           Z
 ---------------------------------------------------------------------
      1         11           0        4.790046   -1.797419    1.185656
      2         11           0       -8.486136   -1.346581    0.544816
      3         11           0        0.868201    2.595606    0.983641
      4         11           0       -1.881197    0.588122   -0.830309
      5         11           0        6.701689   -1.080848   -0.974152
      6         11           0        3.590546    0.991046   -0.220433
      7         11           0       -5.583149    0.050075   -0.689218
 ---------------------------------------------------------------------

 SCF Done:  E(UB3LYP) =  -1136.10759620     A.U. after   20 cycles

 The electronic state is 2-A.
 Alpha  occ. eigenvalues --  -38.46496 -38.45859 -38.44451 -38.43919 -38.43786
 Alpha  occ. eigenvalues --  -38.43480 -38.42885  -2.22338  -2.21692  -2.20293
 Alpha  occ. eigenvalues --   -2.19699  -2.19555  -2.19266  -2.18639  -1.16034
 Alpha  occ. eigenvalues --   -1.15990  -1.15986  -1.15351  -1.15336  -1.15313
 Alpha  occ. eigenvalues --   -1.13991  -1.13968  -1.13879  -1.13360  -1.13358
 Alpha  occ. eigenvalues --   -1.13290  -1.13233  -1.13213  -1.13209  -1.12910
 Alpha  occ. eigenvalues --   -1.12909  -1.12882  -1.12333  -1.12331  -1.12276
 Alpha  occ. eigenvalues --   -0.16640  -0.13672  -0.12301  -0.10482
 Alpha virt. eigenvalues --   -0.07034  -0.06135  -0.04695  -0.03698  -0.02859
 Alpha virt. eigenvalues --   -0.02617  -0.01812  -0.01718  -0.01639  -0.01222
 Alpha virt. eigenvalues --   -0.00534  -0.00396  -0.00016   0.00047   0.00200

  Beta  occ. eigenvalues --  -38.46493 -38.45840 -38.44412 -38.43828 -38.43797
  Beta  occ. eigenvalues --  -38.43398 -38.42901  -2.22335  -2.21657  -2.20221
  Beta  occ. eigenvalues --   -2.19579  -2.19532  -2.19113  -2.18674  -1.16027
  Beta  occ. eigenvalues --   -1.15988  -1.15976  -1.15324  -1.15312  -1.15292
  Beta  occ. eigenvalues --   -1.13942  -1.13917  -1.13833  -1.13253  -1.13246
  Beta  occ. eigenvalues --   -1.13245  -1.13231  -1.13206  -1.13175  -1.12805
  Beta  occ. eigenvalues --   -1.12805  -1.12784  -1.12364  -1.12361  -1.12252
  Beta  occ. eigenvalues --   -0.16389  -0.12990  -0.11658
  Beta virt. eigenvalues --   -0.07305  -0.06916  -0.05731  -0.04445  -0.03378
  Beta virt. eigenvalues --   -0.02671  -0.02420  -0.01620  -0.01591  -0.01439
  Beta virt. eigenvalues --   -0.00820  -0.00235  -0.00049   0.00012   0.00143

 Mulliken charges and spin densities:
               1          2
     1  Na   0.327677  -0.008411
     2  Na   0.490495   0.406767
     3  Na   0.270701  -0.155974
     4  Na  -0.644403   0.532126
     5  Na   0.349182   0.164976
     6  Na  -1.007687   0.289630
     7  Na   0.214036  -0.229114
 Sum of Mulliken charges =  -0.00000   1.00000

 Dipole moment (field-independent basis, Debye):
    X=              7.0489    Y=             -1.2827    Z=              0.4314  Tot=              7.1777
 Quadrupole moment (field-independent basis, Debye-Ang):
   XX=            -60.2269   YY=            -69.1020   ZZ=            -66.3261
   XY=             -4.6432   XZ=             -7.5936   YZ=             -2.9204

 Normal termination of Gaussian 16 at Sun Dec  3 12:28:21 2023.
