 Gaussian 16, Revision B.01,
 Gaussian 16:  ES64L-G16RevB.01 20-Dec-2017

 -------------------------
 #P B3LYP/6-311+g(d) force
 -------------------------

 -----
 DPGEN
 -----
 Symbolic Z-matrix:
 Charge =  0 Multiplicity = 2

                         Standard orientation:
 ---------------------------------------------------------------------
 Center     Atomic      Atomic             Coordinates (Angstroms)
 Number     Number       Type             X           Y           Z
 ---------------------------------------------------------------------
      1         11           0        2.847803    1.345040    1.015385
      2         11           0        1.123694    3.511391   -0.558577
      3         11           0       -3.791394    0.157782   -1.071665
      4         11           0        4.505338   -1.676839   -0.121254
      5         11           0       -5.720856   -1.166006    0.830158
      6         11           0       -0.816442    0.851736    0.321322
      7         11           0        1.851857   -3.023103   -0.415369
 ---------------------------------------------------------------------

 SCF Done:  E(UB3LYP) =  -1136.11331874     A.U. after   18 cycles

 The electronic state is 2-A.
 Alpha  occ. eigenvalues --  -38.44574 -38.44543 -38.44179 -38.44077 -38.44016
 Alpha  occ. eigenvalues --  -38.43938 -38.43610  -2.20380  -2.20359  -2.20023
 Alpha  occ. eigenvalues --   -2.19908  -2.19841  -2.19781  -2.19450  -1.14086
 Alpha  occ. eigenvalues --   -1.14043  -1.14031  -1.14020  -1.14015  -1.14008
 Alpha  occ. eigenvalues --   -1.13705  -1.13678  -1.13630  -1.13562  -1.13555
 Alpha  occ. eigenvalues --   -1.13546  -1.13539  -1.13473  -1.13468  -1.13466
 Alpha  occ. eigenvalues --   -1.13441  -1.13383  -1.13108  -1.13103  -1.13100
 Alpha  occ. eigenvalues --   -0.16314  -0.14031  -0.12808  -0.10268
 Alpha virt. eigenvalues --   -0.06423  -0.05766  -0.04397  -0.03709  -0.02894
 Alpha virt. eigenvalues --   -0.02447  -0.02124  -0.01550  -0.01077  -0.00618
 Alpha virt. eigenvalues --   -0.00290  -0.00161   0.00030   0.00359   0.00581

  Beta  occ. eigenvalues --  -38.44549 -38.44546 -38.44133 -38.44073 -38.43947
  Beta  occ. eigenvalues --  -38.43883 -38.43614  -2.20367  -2.20332  -2.19938
  Beta  occ. eigenvalues --   -2.19902  -2.19714  -2.19679  -2.19464  -1.14058
  Beta  occ. eigenvalues --   -1.14040  -1.14024  -1.14004  -1.13998  -1.13981
  Beta  occ. eigenvalues --   -1.13643  -1.13616  -1.13579  -1.13558  -1.13547
  Beta  occ. eigenvalues --   -1.13528  -1.13463  -1.13391  -1.13386  -1.13380
  Beta  occ. eigenvalues --   -1.13370  -1.13323  -1.13122  -1.13114  -1.13058
  Beta  occ. eigenvalues --   -0.15779  -0.13535  -0.12565
  Beta virt. eigenvalues --   -0.07100  -0.05882  -0.05349  -0.04029  -0.03421
  Beta virt. eigenvalues --   -0.02627  -0.02353  -0.01982  -0.01157  -0.01010
  Beta virt. eigenvalues --   -0.00296  -0.00036   0.00042   0.00230   0.00531

 Mulliken charges and spin densities:
               1          2
     1  Na  -0.066437   0.427791
     2  Na   0.799436   0.117105
     3  Na   0.159988   0.026554
     4  Na   0.228203   0.005735
     5  Na   0.174943   0.300627
     6  Na  -1.275068  -0.037330
     7  Na  -0.021065   0.159518
 Sum of Mulliken charges =  -0.00000   1.00000

 Dipole moment (field-independent basis, Debye):
    X=              0.9199    Y=              0.4239    Z=             -0.2166  Tot=              1.0358
 Quadrupole moment (field-independent basis, Debye-Ang):
   XX=            -70.2579   YY=            -63.0260   ZZ=            -67.5679
   XY=              0.9390   XZ=             -2.3673   YZ=             -4.4683

 Normal termination of Gaussian 16 at Wed Nov 29 02:48:09 2023.
