 Gaussian 16, Revision B.01,
 Gaussian 16:  ES64L-G16RevB.01 20-Dec-2017

 -------------------------
 #P B3LYP/6-311+g(d) force
 -------------------------

 -----
 DPGEN
 -----
 Symbolic Z-matrix:
 Charge =  0 Multiplicity = 2

                         Standard orientation:
 ---------------------------------------------------------------------
 Center     Atomic      Atomic             Coordinates (Angstroms)
 Number     Number       Type             X           Y           Z
 ---------------------------------------------------------------------
      1         11           0        1.577167    1.785246    1.191660
      2         11           0       -2.854321   -1.902760   -0.705680
      3         11           0       -1.741618    0.442619    1.690648
      4         11           0       -1.409734    2.637549   -0.963947
      5         11           0        0.204149   -0.058766   -1.498254
      6         11           0        3.630501   -0.665574   -0.715214
      7         11           0        0.593857   -2.238315    1.000787
 ---------------------------------------------------------------------

 SCF Done:  E(UB3LYP) =  -1136.13465578     A.U. after   19 cycles

 The electronic state is 2-A.
 Alpha  occ. eigenvalues --  -38.44048 -38.43971 -38.43876 -38.43859 -38.43573
 Alpha  occ. eigenvalues --  -38.43281 -38.43231  -2.19836  -2.19760  -2.19702
 Alpha  occ. eigenvalues --   -2.19682  -2.19457  -2.19192  -2.19127  -1.13511
 Alpha  occ. eigenvalues --   -1.13494  -1.13468  -1.13437  -1.13418  -1.13402
 Alpha  occ. eigenvalues --   -1.13393  -1.13385  -1.13368  -1.13360  -1.13308
 Alpha  occ. eigenvalues --   -1.13271  -1.13143  -1.13113  -1.13062  -1.12912
 Alpha  occ. eigenvalues --   -1.12886  -1.12806  -1.12777  -1.12756  -1.12739
 Alpha  occ. eigenvalues --   -0.18221  -0.12841  -0.11951  -0.10978
 Alpha virt. eigenvalues --   -0.05842  -0.05226  -0.04381  -0.03201  -0.02996
 Alpha virt. eigenvalues --   -0.02510  -0.01785  -0.01142  -0.00707   0.00071
 Alpha virt. eigenvalues --    0.00145   0.00310   0.00562   0.00606   0.00796

  Beta  occ. eigenvalues --  -38.44042 -38.43964 -38.43847 -38.43840 -38.43523
  Beta  occ. eigenvalues --  -38.43261 -38.43176  -2.19825  -2.19748  -2.19654
  Beta  occ. eigenvalues --   -2.19649  -2.19368  -2.19095  -2.19089  -1.13495
  Beta  occ. eigenvalues --   -1.13488  -1.13462  -1.13424  -1.13406  -1.13387
  Beta  occ. eigenvalues --   -1.13374  -1.13357  -1.13316  -1.13313  -1.13277
  Beta  occ. eigenvalues --   -1.13253  -1.13079  -1.13040  -1.13000  -1.12856
  Beta  occ. eigenvalues --   -1.12807  -1.12753  -1.12735  -1.12713  -1.12701
  Beta  occ. eigenvalues --   -0.17479  -0.12667  -0.11746
  Beta virt. eigenvalues --   -0.07089  -0.05713  -0.05068  -0.04181  -0.02772
  Beta virt. eigenvalues --   -0.02408  -0.01703  -0.01571  -0.01024  -0.00357
  Beta virt. eigenvalues --    0.00064   0.00196   0.00340   0.00646   0.00732

 Mulliken charges and spin densities:
               1          2
     1  Na  -0.141115   0.176584
     2  Na   0.071972  -0.044769
     3  Na   0.158334   0.384379
     4  Na   0.143069  -0.019878
     5  Na  -0.436810   0.442820
     6  Na   0.322897  -0.028851
     7  Na  -0.118346   0.089715
 Sum of Mulliken charges =  -0.00000   1.00000

 Dipole moment (field-independent basis, Debye):
    X=              0.1891    Y=             -0.1437    Z=              0.1207  Tot=              0.2664
 Quadrupole moment (field-independent basis, Debye-Ang):
   XX=            -54.5163   YY=            -67.3969   ZZ=            -69.9989
   XY=              0.0513   XZ=              1.1492   YZ=              0.3189

 Normal termination of Gaussian 16 at Tue Dec  5 21:11:38 2023.
