 Gaussian 16, Revision B.01,
 Gaussian 16:  ES64L-G16RevB.01 20-Dec-2017

 -------------------------
 #P B3LYP/6-311+g(d) force
 -------------------------

 -----
 DPGEN
 -----
 Symbolic Z-matrix:
 Charge =  0 Multiplicity = 2

                         Standard orientation:
 ---------------------------------------------------------------------
 Center     Atomic      Atomic             Coordinates (Angstroms)
 Number     Number       Type             X           Y           Z
 ---------------------------------------------------------------------
      1         11           0        0.753439    1.162879    1.164236
      2         11           0        0.656311   -1.273135   -1.062987
      3         11           0        2.875073   -0.119896   -0.043249
      4         11           0       -0.446135   -1.514018    1.659930
      5         11           0       -2.019710   -0.887887   -1.073382
      6         11           0       -0.026358    1.445808   -1.493540
      7         11           0       -1.792622    1.186249    0.848992
 ---------------------------------------------------------------------

 SCF Done:  E(UB3LYP) =  -1136.07131590     A.U. after   32 cycles

 The electronic state is 2-A.
 Alpha  occ. eigenvalues --  -38.44340 -38.44231 -38.44165 -38.44023 -38.43867
 Alpha  occ. eigenvalues --  -38.43746 -38.43695  -2.20556  -2.20352  -2.20297
 Alpha  occ. eigenvalues --   -2.20191  -2.20137  -2.19862  -2.19807  -1.14736
 Alpha  occ. eigenvalues --   -1.14438  -1.14384  -1.14204  -1.14141  -1.14120
 Alpha  occ. eigenvalues --   -1.13944  -1.13923  -1.13889  -1.13835  -1.13771
 Alpha  occ. eigenvalues --   -1.13749  -1.13683  -1.13623  -1.13551  -1.13493
 Alpha  occ. eigenvalues --   -1.13477  -1.13444  -1.13392  -1.13377  -1.13357
 Alpha  occ. eigenvalues --   -0.21713  -0.13764  -0.13533  -0.11958
 Alpha virt. eigenvalues --   -0.05290  -0.04213  -0.04152  -0.03487  -0.03320
 Alpha virt. eigenvalues --   -0.03059  -0.01102  -0.00470  -0.00202   0.00315
 Alpha virt. eigenvalues --    0.00777   0.00901   0.01009   0.01106   0.01166

  Beta  occ. eigenvalues --  -38.44337 -38.44174 -38.44127 -38.43990 -38.43816
  Beta  occ. eigenvalues --  -38.43688 -38.43643  -2.20463  -2.20346  -2.20231
  Beta  occ. eigenvalues --   -2.20136  -2.20054  -2.19770  -2.19706  -1.14672
  Beta  occ. eigenvalues --   -1.14399  -1.14329  -1.14121  -1.14093  -1.14075
  Beta  occ. eigenvalues --   -1.13910  -1.13886  -1.13836  -1.13767  -1.13710
  Beta  occ. eigenvalues --   -1.13686  -1.13645  -1.13572  -1.13499  -1.13432
  Beta  occ. eigenvalues --   -1.13404  -1.13352  -1.13319  -1.13306  -1.13286
  Beta  occ. eigenvalues --   -0.20787  -0.13516  -0.11829
  Beta virt. eigenvalues --   -0.08864  -0.05238  -0.03665  -0.03526  -0.03210
  Beta virt. eigenvalues --   -0.02685  -0.02190  -0.01055  -0.00231  -0.00149
  Beta virt. eigenvalues --    0.00347   0.00838   0.00996   0.01050   0.01156

 Mulliken charges and spin densities:
               1          2
     1  Na   0.515260   0.294373
     2  Na   0.642868   0.240817
     3  Na  -0.418015  -0.089030
     4  Na  -1.026656   0.226143
     5  Na   0.579657   0.040274
     6  Na  -1.081131   0.384394
     7  Na   0.788017  -0.096971
 Sum of Mulliken charges =  -0.00000   1.00000

 Dipole moment (field-independent basis, Debye):
    X=              0.0819    Y=             -0.2609    Z=              0.0718  Tot=              0.2828
 Quadrupole moment (field-independent basis, Debye-Ang):
   XX=            -59.9112   YY=            -76.1094   ZZ=            -61.8095
   XY=              0.2122   XZ=              0.3442   YZ=             -0.1787

 Normal termination of Gaussian 16 at Fri Dec  8 17:17:39 2023.
