 Gaussian 16, Revision B.01,
 Gaussian 16:  ES64L-G16RevB.01 20-Dec-2017

 -------------------------
 #P B3LYP/6-311+g(d) force
 -------------------------

 -----
 DPGEN
 -----
 Symbolic Z-matrix:
 Charge =  0 Multiplicity = 2

                         Standard orientation:
 ---------------------------------------------------------------------
 Center     Atomic      Atomic             Coordinates (Angstroms)
 Number     Number       Type             X           Y           Z
 ---------------------------------------------------------------------
      1         11           0       -0.836708    3.376555   -0.255176
      2         11           0        2.527556   -0.023369    2.866766
      3         11           0       -3.279231    0.673951    0.475474
      4         11           0       -2.244619   -2.784032   -0.254148
      5         11           0       -0.096108   -0.043702    0.271070
      6         11           0        1.638228   -2.434209   -1.020785
      7         11           0        2.290882    1.234807   -2.083200
 ---------------------------------------------------------------------

 SCF Done:  E(UB3LYP) =  -1136.12233178     A.U. after   20 cycles

 The electronic state is 2-A.
 Alpha  occ. eigenvalues --  -38.45115 -38.44458 -38.44124 -38.43838 -38.43787
 Alpha  occ. eigenvalues --  -38.43730 -38.42802  -2.20904  -2.20225  -2.19916
 Alpha  occ. eigenvalues --   -2.19606  -2.19593  -2.19509  -2.18774  -1.14537
 Alpha  occ. eigenvalues --   -1.14524  -1.14502  -1.13898  -1.13870  -1.13846
 Alpha  occ. eigenvalues --   -1.13615  -1.13582  -1.13529  -1.13297  -1.13286
 Alpha  occ. eigenvalues --   -1.13273  -1.13265  -1.13242  -1.13197  -1.13190
 Alpha  occ. eigenvalues --   -1.13168  -1.13138  -1.12497  -1.12438  -1.12406
 Alpha  occ. eigenvalues --   -0.16948  -0.12738  -0.11973  -0.11457
 Alpha virt. eigenvalues --   -0.05934  -0.05385  -0.04999  -0.03260  -0.02593
 Alpha virt. eigenvalues --   -0.02527  -0.01402  -0.01270  -0.00861  -0.00832
 Alpha virt. eigenvalues --   -0.00662   0.00300   0.00326   0.00494   0.00767

  Beta  occ. eigenvalues --  -38.44969 -38.44417 -38.44117 -38.43840 -38.43790
  Beta  occ. eigenvalues --  -38.43733 -38.42795  -2.20634  -2.20149  -2.19904
  Beta  occ. eigenvalues --   -2.19611  -2.19598  -2.19514  -2.18764  -1.14350
  Beta  occ. eigenvalues --   -1.14340  -1.14321  -1.13843  -1.13823  -1.13792
  Beta  occ. eigenvalues --   -1.13610  -1.13564  -1.13519  -1.13299  -1.13288
  Beta  occ. eigenvalues --   -1.13276  -1.13269  -1.13244  -1.13204  -1.13193
  Beta  occ. eigenvalues --   -1.13171  -1.13143  -1.12456  -1.12438  -1.12406
  Beta  occ. eigenvalues --   -0.16559  -0.12339  -0.11874
  Beta virt. eigenvalues --   -0.07242  -0.05706  -0.05290  -0.04663  -0.02804
  Beta virt. eigenvalues --   -0.02131  -0.02034  -0.01243  -0.01118  -0.00766
  Beta virt. eigenvalues --   -0.00699  -0.00219   0.00370   0.00617   0.00766

 Mulliken charges and spin densities:
               1          2
     1  Na   0.255171   0.063643
     2  Na   0.212094   0.589873
     3  Na   0.421210  -0.213349
     4  Na   0.402262  -0.112250
     5  Na  -2.190173   0.147649
     6  Na   0.566292   0.194127
     7  Na   0.333145   0.330307
 Sum of Mulliken charges =  -0.00000   1.00000

 Dipole moment (field-independent basis, Debye):
    X=              0.2849    Y=             -0.0010    Z=             -0.3888  Tot=              0.4820
 Quadrupole moment (field-independent basis, Debye-Ang):
   XX=            -60.7921   YY=            -61.1185   ZZ=            -70.1375
   XY=              0.1192   XZ=             -1.8606   YZ=              0.5238

 Normal termination of Gaussian 16 at Tue Dec  5 11:33:28 2023.
