 Gaussian 16, Revision B.01,
 Gaussian 16:  ES64L-G16RevB.01 20-Dec-2017

 -------------------------
 #P B3LYP/6-311+g(d) force
 -------------------------

 -----
 DPGEN
 -----
 Symbolic Z-matrix:
 Charge =  0 Multiplicity = 2

                         Standard orientation:
 ---------------------------------------------------------------------
 Center     Atomic      Atomic             Coordinates (Angstroms)
 Number     Number       Type             X           Y           Z
 ---------------------------------------------------------------------
      1         11           0        0.410132    0.047267    1.531234
      2         11           0        3.858384   -0.501964    0.094276
      3         11           0        0.600441    0.112968   -1.247120
      4         11           0       -2.954567   -1.656575   -0.102124
      5         11           0        0.847794    3.356650   -0.227174
      6         11           0        0.172140   -3.179334   -0.159708
      7         11           0       -2.934325    1.820987    0.110616
 ---------------------------------------------------------------------

 SCF Done:  E(UB3LYP) =  -1136.11848147     A.U. after   26 cycles

 The electronic state is 2-A.
 Alpha  occ. eigenvalues --  -38.45366 -38.44143 -38.43896 -38.43876 -38.43836
 Alpha  occ. eigenvalues --  -38.43698 -38.43592  -2.21252  -2.19932  -2.19861
 Alpha  occ. eigenvalues --   -2.19681  -2.19642  -2.19490  -2.19428  -1.15103
 Alpha  occ. eigenvalues --   -1.14863  -1.14820  -1.13635  -1.13601  -1.13580
 Alpha  occ. eigenvalues --   -1.13549  -1.13457  -1.13445  -1.13371  -1.13344
 Alpha  occ. eigenvalues --   -1.13326  -1.13308  -1.13280  -1.13266  -1.13170
 Alpha  occ. eigenvalues --   -1.13141  -1.13111  -1.13100  -1.13078  -1.13049
 Alpha  occ. eigenvalues --   -0.17929  -0.13030  -0.12691  -0.09397
 Alpha virt. eigenvalues --   -0.06767  -0.05743  -0.05029  -0.02704  -0.02525
 Alpha virt. eigenvalues --   -0.02429  -0.01924  -0.01369  -0.01095  -0.00856
 Alpha virt. eigenvalues --   -0.00108   0.00158   0.00488   0.00535   0.00674

  Beta  occ. eigenvalues --  -38.45357 -38.44092 -38.43871 -38.43869 -38.43802
  Beta  occ. eigenvalues --  -38.43668 -38.43567  -2.21234  -2.19836  -2.19812
  Beta  occ. eigenvalues --   -2.19677  -2.19578  -2.19436  -2.19382  -1.15081
  Beta  occ. eigenvalues --   -1.14859  -1.14804  -1.13600  -1.13529  -1.13516
  Beta  occ. eigenvalues --   -1.13488  -1.13427  -1.13400  -1.13374  -1.13343
  Beta  occ. eigenvalues --   -1.13289  -1.13257  -1.13240  -1.13227  -1.13135
  Beta  occ. eigenvalues --   -1.13105  -1.13065  -1.13062  -1.13047  -1.13017
  Beta  occ. eigenvalues --   -0.17624  -0.12504  -0.12231
  Beta virt. eigenvalues --   -0.06423  -0.06235  -0.05445  -0.04997  -0.02241
  Beta virt. eigenvalues --   -0.02194  -0.02061  -0.01678  -0.01031  -0.00884
  Beta virt. eigenvalues --   -0.00721   0.00035   0.00296   0.00617   0.00764

 Mulliken charges and spin densities:
               1          2
     1  Na  -0.139467   0.422059
     2  Na   0.038449   0.275933
     3  Na  -0.010585  -0.252584
     4  Na  -0.107764   0.048667
     5  Na   0.090708   0.126866
     6  Na   0.190550   0.151176
     7  Na  -0.061891   0.227884
 Sum of Mulliken charges =  -0.00000   1.00000

 Dipole moment (field-independent basis, Debye):
    X=              0.3635    Y=              0.0105    Z=             -0.0935  Tot=              0.3754
 Quadrupole moment (field-independent basis, Debye-Ang):
   XX=            -66.6215   YY=            -61.1992   ZZ=            -71.0165
   XY=              1.6139   XZ=             -0.6398   YZ=              0.5072

 Normal termination of Gaussian 16 at Tue Dec  5 13:59:42 2023.
