 Gaussian 16, Revision B.01,
 Gaussian 16:  ES64L-G16RevB.01 20-Dec-2017

 -------------------------
 #P B3LYP/6-311+g(d) force
 -------------------------

 -----
 DPGEN
 -----
 Symbolic Z-matrix:
 Charge =  0 Multiplicity = 2

                         Standard orientation:
 ---------------------------------------------------------------------
 Center     Atomic      Atomic             Coordinates (Angstroms)
 Number     Number       Type             X           Y           Z
 ---------------------------------------------------------------------
      1         11           0       -0.687423   -2.210551    0.858034
      2         11           0       -3.782718   -0.255228   -0.715574
      3         11           0        1.210369    2.932752   -0.502667
      4         11           0       -0.190086    0.638947   -1.600264
      5         11           0        2.295006   -2.320462   -0.925579
      6         11           0        2.254899    0.223023    1.039134
      7         11           0       -1.100047    0.991519    1.846916
 ---------------------------------------------------------------------

 SCF Done:  E(UB3LYP) =  -1136.13097312     A.U. after   19 cycles

 The electronic state is 2-A.
 Alpha  occ. eigenvalues --  -38.44386 -38.43871 -38.43771 -38.43717 -38.43687
 Alpha  occ. eigenvalues --  -38.43297 -38.43288  -2.20145  -2.19749  -2.19633
 Alpha  occ. eigenvalues --   -2.19628  -2.19609  -2.19181  -2.19136  -1.13817
 Alpha  occ. eigenvalues --   -1.13810  -1.13765  -1.13464  -1.13401  -1.13379
 Alpha  occ. eigenvalues --   -1.13357  -1.13325  -1.13311  -1.13296  -1.13293
 Alpha  occ. eigenvalues --   -1.13280  -1.13263  -1.13231  -1.13203  -1.12848
 Alpha  occ. eigenvalues --   -1.12814  -1.12803  -1.12790  -1.12786  -1.12767
 Alpha  occ. eigenvalues --   -0.18442  -0.12742  -0.12336  -0.11173
 Alpha virt. eigenvalues --   -0.05928  -0.04757  -0.04580  -0.03379  -0.03044
 Alpha virt. eigenvalues --   -0.02650  -0.01746  -0.01000  -0.00626  -0.00004
 Alpha virt. eigenvalues --    0.00249   0.00305   0.00601   0.00722   0.00793

  Beta  occ. eigenvalues --  -38.44373 -38.43803 -38.43757 -38.43697 -38.43631
  Beta  occ. eigenvalues --  -38.43284 -38.43281  -2.20121  -2.19625  -2.19599
  Beta  occ. eigenvalues --   -2.19587  -2.19525  -2.19171  -2.19113  -1.13797
  Beta  occ. eigenvalues --   -1.13788  -1.13752  -1.13385  -1.13330  -1.13300
  Beta  occ. eigenvalues --   -1.13294  -1.13287  -1.13265  -1.13251  -1.13246
  Beta  occ. eigenvalues --   -1.13236  -1.13209  -1.13194  -1.13156  -1.12823
  Beta  occ. eigenvalues --   -1.12810  -1.12789  -1.12774  -1.12763  -1.12753
  Beta  occ. eigenvalues --   -0.17687  -0.12533  -0.12147
  Beta virt. eigenvalues --   -0.07285  -0.05716  -0.04662  -0.04355  -0.02891
  Beta virt. eigenvalues --   -0.02476  -0.01747  -0.01589  -0.00951  -0.00284
  Beta virt. eigenvalues --    0.00002   0.00321   0.00347   0.00745   0.00802

 Mulliken charges and spin densities:
               1          2
     1  Na  -0.179661   0.084372
     2  Na   0.021799  -0.044357
     3  Na   0.220416  -0.093484
     4  Na  -0.443979   0.625108
     5  Na   0.288098  -0.160126
     6  Na   0.142953   0.286665
     7  Na  -0.049627   0.301821
 Sum of Mulliken charges =  -0.00000   1.00000

 Dipole moment (field-independent basis, Debye):
    X=             -0.4582    Y=              0.0510    Z=              0.0787  Tot=              0.4677
 Quadrupole moment (field-independent basis, Debye-Ang):
   XX=            -58.3380   YY=            -65.8871   ZZ=            -69.4613
   XY=              0.9373   XZ=              0.5724   YZ=              1.7068

 Normal termination of Gaussian 16 at Sun Dec  3 22:43:24 2023.
