 Gaussian 16, Revision B.01,
 Gaussian 16:  ES64L-G16RevB.01 20-Dec-2017

 -------------------------
 #P B3LYP/6-311+g(d) force
 -------------------------

 -----
 DPGEN
 -----
 Symbolic Z-matrix:
 Charge =  0 Multiplicity = 2

                         Standard orientation:
 ---------------------------------------------------------------------
 Center     Atomic      Atomic             Coordinates (Angstroms)
 Number     Number       Type             X           Y           Z
 ---------------------------------------------------------------------
      1         11           0        0.938695   -1.992327   -0.795777
      2         11           0        4.245088   -0.169129   -0.410094
      3         11           0        1.603468    0.319919    1.833313
      4         11           0       -2.106821   -2.727096   -0.014278
      5         11           0       -2.434443    0.661404    1.423873
      6         11           0       -0.088302    3.078404   -0.681755
      7         11           0       -2.157685    0.828826   -1.355282
 ---------------------------------------------------------------------

 SCF Done:  E(UB3LYP) =  -1136.11844119     A.U. after   22 cycles

 The electronic state is 2-A.
 Alpha  occ. eigenvalues --  -38.45184 -38.44484 -38.44196 -38.43981 -38.43929
 Alpha  occ. eigenvalues --  -38.43854 -38.43337  -2.20940  -2.20368  -2.20006
 Alpha  occ. eigenvalues --   -2.19915  -2.19739  -2.19676  -2.19158  -1.14612
 Alpha  occ. eigenvalues --   -1.14605  -1.14569  -1.14218  -1.13998  -1.13946
 Alpha  occ. eigenvalues --   -1.13692  -1.13665  -1.13608  -1.13599  -1.13571
 Alpha  occ. eigenvalues --   -1.13506  -1.13395  -1.13378  -1.13373  -1.13356
 Alpha  occ. eigenvalues --   -1.13349  -1.13289  -1.12831  -1.12817  -1.12798
 Alpha  occ. eigenvalues --   -0.17557  -0.13548  -0.12168  -0.10338
 Alpha virt. eigenvalues --   -0.06847  -0.05099  -0.04666  -0.03738  -0.02784
 Alpha virt. eigenvalues --   -0.02307  -0.02206  -0.01198  -0.00775  -0.00410
 Alpha virt. eigenvalues --   -0.00084   0.00209   0.00245   0.00663   0.00718

  Beta  occ. eigenvalues --  -38.45186 -38.44440 -38.44144 -38.43952 -38.43902
  Beta  occ. eigenvalues --  -38.43836 -38.43338  -2.20944  -2.20287  -2.19909
  Beta  occ. eigenvalues --   -2.19863  -2.19693  -2.19643  -2.19163  -1.14611
  Beta  occ. eigenvalues --   -1.14606  -1.14572  -1.14161  -1.13935  -1.13892
  Beta  occ. eigenvalues --   -1.13628  -1.13602  -1.13556  -1.13529  -1.13524
  Beta  occ. eigenvalues --   -1.13467  -1.13361  -1.13345  -1.13334  -1.13332
  Beta  occ. eigenvalues --   -1.13319  -1.13266  -1.12835  -1.12810  -1.12797
  Beta  occ. eigenvalues --   -0.16959  -0.13420  -0.11888
  Beta virt. eigenvalues --   -0.06727  -0.06629  -0.05024  -0.04195  -0.03424
  Beta virt. eigenvalues --   -0.02226  -0.02162  -0.01422  -0.01086  -0.00724
  Beta virt. eigenvalues --   -0.00118   0.00000   0.00305   0.00375   0.00699

 Mulliken charges and spin densities:
               1          2
     1  Na  -0.472651   0.123041
     2  Na   0.448668  -0.069188
     3  Na  -0.250988   0.270907
     4  Na   0.263092  -0.075943
     5  Na   0.133423   0.345198
     6  Na  -0.146836   0.027777
     7  Na   0.025292   0.378208
 Sum of Mulliken charges =  -0.00000   1.00000

 Dipole moment (field-independent basis, Debye):
    X=              1.2127    Y=              0.2216    Z=             -0.0986  Tot=              1.2367
 Quadrupole moment (field-independent basis, Debye-Ang):
   XX=            -51.8083   YY=            -69.7704   ZZ=            -73.1022
   XY=              3.5763   XZ=             -3.6095   YZ=             -0.0184

 Normal termination of Gaussian 16 at Tue Dec  5 20:06:59 2023.
