 Gaussian 16, Revision B.01,
 Gaussian 16:  ES64L-G16RevB.01 20-Dec-2017

 -------------------------
 #P B3LYP/6-311+g(d) force
 -------------------------

 -----
 DPGEN
 -----
 Symbolic Z-matrix:
 Charge =  0 Multiplicity = 2

                         Standard orientation:
 ---------------------------------------------------------------------
 Center     Atomic      Atomic             Coordinates (Angstroms)
 Number     Number       Type             X           Y           Z
 ---------------------------------------------------------------------
      1         11           0       -2.158477   -1.918801   -0.193203
      2         11           0        1.356665   -2.386447   -0.164773
      3         11           0        3.140444    0.408433    0.001220
      4         11           0       -0.106575   -0.382437    1.787102
      5         11           0        0.211146    2.916651    0.152922
      6         11           0        0.230346    0.275370   -1.471157
      7         11           0       -2.673549    1.087231   -0.112111
 ---------------------------------------------------------------------

 SCF Done:  E(UB3LYP) =  -1136.13439374     A.U. after   19 cycles

 The electronic state is 2-A.
 Alpha  occ. eigenvalues --  -38.44227 -38.43711 -38.43443 -38.43369 -38.43363
 Alpha  occ. eigenvalues --  -38.43001 -38.42770  -2.20075  -2.19630  -2.19367
 Alpha  occ. eigenvalues --   -2.19295  -2.19237  -2.19002  -2.18855  -1.13760
 Alpha  occ. eigenvalues --   -1.13731  -1.13713  -1.13363  -1.13287  -1.13280
 Alpha  occ. eigenvalues --   -1.13057  -1.13022  -1.13012  -1.12993  -1.12975
 Alpha  occ. eigenvalues --   -1.12958  -1.12900  -1.12891  -1.12858  -1.12693
 Alpha  occ. eigenvalues --   -1.12615  -1.12606  -1.12528  -1.12481  -1.12467
 Alpha  occ. eigenvalues --   -0.19405  -0.13411  -0.12677  -0.10490
 Alpha virt. eigenvalues --   -0.05738  -0.04935  -0.04732  -0.03110  -0.02742
 Alpha virt. eigenvalues --   -0.02054  -0.01612  -0.01053  -0.00246  -0.00147
 Alpha virt. eigenvalues --    0.00044   0.00360   0.00838   0.00918   0.00937

  Beta  occ. eigenvalues --  -38.44224 -38.43703 -38.43434 -38.43364 -38.43352
  Beta  occ. eigenvalues --  -38.42914 -38.42708  -2.20073  -2.19620  -2.19355
  Beta  occ. eigenvalues --   -2.19281  -2.19231  -2.18844  -2.18744  -1.13754
  Beta  occ. eigenvalues --   -1.13720  -1.13708  -1.13359  -1.13283  -1.13242
  Beta  occ. eigenvalues --   -1.13047  -1.13012  -1.12989  -1.12973  -1.12952
  Beta  occ. eigenvalues --   -1.12921  -1.12896  -1.12867  -1.12858  -1.12593
  Beta  occ. eigenvalues --   -1.12502  -1.12493  -1.12445  -1.12401  -1.12383
  Beta  occ. eigenvalues --   -0.18670  -0.13133  -0.12421
  Beta virt. eigenvalues --   -0.06550  -0.05710  -0.04937  -0.04709  -0.02290
  Beta virt. eigenvalues --   -0.01965  -0.01534  -0.01042  -0.00978  -0.00286
  Beta virt. eigenvalues --   -0.00201   0.00181   0.00397   0.00869   0.00924

 Mulliken charges and spin densities:
               1          2
     1  Na   0.348504   0.022565
     2  Na   0.373149  -0.036186
     3  Na   0.125150  -0.078047
     4  Na  -0.556454   0.735176
     5  Na   0.089153  -0.073715
     6  Na  -0.606875   0.423942
     7  Na   0.227372   0.006265
 Sum of Mulliken charges =  -0.00000   1.00000

 Dipole moment (field-independent basis, Debye):
    X=              0.3275    Y=              0.1181    Z=              0.1532  Tot=              0.3804
 Quadrupole moment (field-independent basis, Debye-Ang):
   XX=            -54.7273   YY=            -61.6457   ZZ=            -75.8021
   XY=              0.5902   XZ=              0.7997   YZ=              1.5374

 Normal termination of Gaussian 16 at Tue Nov 28 21:53:02 2023.
