 Gaussian 16, Revision B.01,
 Gaussian 16:  ES64L-G16RevB.01 20-Dec-2017

 -------------------------
 #P B3LYP/6-311+g(d) force
 -------------------------

 -----
 DPGEN
 -----
 Symbolic Z-matrix:
 Charge =  0 Multiplicity = 2

                         Standard orientation:
 ---------------------------------------------------------------------
 Center     Atomic      Atomic             Coordinates (Angstroms)
 Number     Number       Type             X           Y           Z
 ---------------------------------------------------------------------
      1         11           0        0.724363   -1.870569   -0.040489
      2         11           0       -0.109564    0.072108   -1.786425
      3         11           0       -1.963741    1.506660    0.074021
      4         11           0        0.829643    1.877834    0.033580
      5         11           0        2.731996   -0.013422    0.047321
      6         11           0       -0.244706   -0.170944    1.806019
      7         11           0       -1.967990   -1.401668   -0.134026
 ---------------------------------------------------------------------

 SCF Done:  E(UB3LYP) =  -1136.06716766     A.U. after   19 cycles

 The electronic state is 2-A.
 Alpha  occ. eigenvalues --  -38.44511 -38.44472 -38.44360 -38.43723 -38.43682
 Alpha  occ. eigenvalues --  -38.43546 -38.43529  -2.20794  -2.20733  -2.20429
 Alpha  occ. eigenvalues --   -2.19963  -2.19880  -2.19774  -2.19649  -1.14690
 Alpha  occ. eigenvalues --   -1.14557  -1.14553  -1.14440  -1.14408  -1.14375
 Alpha  occ. eigenvalues --   -1.14273  -1.14233  -1.13996  -1.13810  -1.13607
 Alpha  occ. eigenvalues --   -1.13573  -1.13531  -1.13495  -1.13488  -1.13370
 Alpha  occ. eigenvalues --   -1.13344  -1.13320  -1.13269  -1.13233  -1.13132
 Alpha  occ. eigenvalues --   -0.21989  -0.14093  -0.12848  -0.12501
 Alpha virt. eigenvalues --   -0.05310  -0.04197  -0.03959  -0.03815  -0.03209
 Alpha virt. eigenvalues --   -0.02884  -0.01146  -0.00401  -0.00114   0.00323
 Alpha virt. eigenvalues --    0.00802   0.00876   0.01038   0.01166   0.01268

  Beta  occ. eigenvalues --  -38.44412 -38.44374 -38.44355 -38.43707 -38.43661
  Beta  occ. eigenvalues --  -38.43528 -38.43517  -2.20616  -2.20557  -2.20424
  Beta  occ. eigenvalues --   -2.19936  -2.19858  -2.19751  -2.19633  -1.14600
  Beta  occ. eigenvalues --   -1.14443  -1.14427  -1.14348  -1.14289  -1.14272
  Beta  occ. eigenvalues --   -1.14251  -1.14186  -1.13953  -1.13791  -1.13597
  Beta  occ. eigenvalues --   -1.13561  -1.13481  -1.13441  -1.13402  -1.13337
  Beta  occ. eigenvalues --   -1.13313  -1.13280  -1.13228  -1.13202  -1.13127
  Beta  occ. eigenvalues --   -0.21136  -0.13713  -0.12453
  Beta virt. eigenvalues --   -0.08263  -0.05333  -0.04192  -0.03882  -0.02833
  Beta virt. eigenvalues --   -0.02260  -0.01841  -0.01072  -0.00363   0.00038
  Beta virt. eigenvalues --    0.00349   0.00810   0.00852   0.01068   0.01164

 Mulliken charges and spin densities:
               1          2
     1  Na   0.089539   0.035036
     2  Na  -0.137358   0.480887
     3  Na   0.134252  -0.000614
     4  Na   0.193097   0.074606
     5  Na  -0.356479  -0.097732
     6  Na  -0.141902   0.515349
     7  Na   0.218851  -0.007532
 Sum of Mulliken charges =  -0.00000   1.00000

 Dipole moment (field-independent basis, Debye):
    X=              0.0618    Y=              0.1207    Z=              0.0703  Tot=              0.1527
 Quadrupole moment (field-independent basis, Debye-Ang):
   XX=            -58.9445   YY=            -71.6631   ZZ=            -67.7509
   XY=             -0.2120   XZ=              0.2639   YZ=              0.4657

 Normal termination of Gaussian 16 at Fri Dec  8 17:17:10 2023.
