 Gaussian 16, Revision B.01,
 Gaussian 16:  ES64L-G16RevB.01 20-Dec-2017

 -------------------------
 #P B3LYP/6-311+g(d) force
 -------------------------

 -----
 DPGEN
 -----
 Symbolic Z-matrix:
 Charge =  0 Multiplicity = 2

                         Standard orientation:
 ---------------------------------------------------------------------
 Center     Atomic      Atomic             Coordinates (Angstroms)
 Number     Number       Type             X           Y           Z
 ---------------------------------------------------------------------
      1         11           0       -3.355070   -0.294661   -0.507913
      2         11           0        2.409230    1.711031   -0.001622
      3         11           0       -0.904504   -2.422744    0.452895
      4         11           0       -0.713123    2.808384    0.021792
      5         11           0        0.117831    0.137872   -1.858324
      6         11           0        2.512796   -2.110913   -0.360035
      7         11           0       -0.067161    0.171032    2.253208
 ---------------------------------------------------------------------

 SCF Done:  E(UB3LYP) =  -1136.13653203     A.U. after   19 cycles

 The electronic state is 2-A.
 Alpha  occ. eigenvalues --  -38.44243 -38.43894 -38.43795 -38.43783 -38.43480
 Alpha  occ. eigenvalues --  -38.43474 -38.43228  -2.20115  -2.19711  -2.19686
 Alpha  occ. eigenvalues --   -2.19636  -2.19331  -2.19279  -2.19107  -1.13776
 Alpha  occ. eigenvalues --   -1.13744  -1.13733  -1.13413  -1.13373  -1.13354
 Alpha  occ. eigenvalues --   -1.13349  -1.13341  -1.13323  -1.13305  -1.13289
 Alpha  occ. eigenvalues --   -1.13263  -1.13005  -1.13001  -1.12953  -1.12952
 Alpha  occ. eigenvalues --   -1.12936  -1.12927  -1.12809  -1.12773  -1.12713
 Alpha  occ. eigenvalues --   -0.18408  -0.12754  -0.12300  -0.11322
 Alpha virt. eigenvalues --   -0.05447  -0.05090  -0.04611  -0.03391  -0.03083
 Alpha virt. eigenvalues --   -0.03030  -0.01464  -0.01120  -0.00230  -0.00162
 Alpha virt. eigenvalues --   -0.00006   0.00359   0.00773   0.00862   0.00908

  Beta  occ. eigenvalues --  -38.44139 -38.43888 -38.43779 -38.43729 -38.43479
  Beta  occ. eigenvalues --  -38.43470 -38.43217  -2.19923  -2.19676  -2.19632
  Beta  occ. eigenvalues --   -2.19590  -2.19326  -2.19280  -2.19090  -1.13648
  Beta  occ. eigenvalues --   -1.13604  -1.13601  -1.13360  -1.13349  -1.13333
  Beta  occ. eigenvalues --   -1.13324  -1.13296  -1.13287  -1.13267  -1.13260
  Beta  occ. eigenvalues --   -1.13222  -1.13002  -1.12974  -1.12949  -1.12947
  Beta  occ. eigenvalues --   -1.12932  -1.12928  -1.12789  -1.12739  -1.12709
  Beta  occ. eigenvalues --   -0.17641  -0.12532  -0.12083
  Beta virt. eigenvalues --   -0.07384  -0.05383  -0.05043  -0.04496  -0.02575
  Beta virt. eigenvalues --   -0.02354  -0.02062  -0.01358  -0.01070  -0.00260
  Beta virt. eigenvalues --   -0.00109   0.00070   0.00381   0.00825   0.00893

 Mulliken charges and spin densities:
               1          2
     1  Na   0.017792  -0.055268
     2  Na   0.191212  -0.041316
     3  Na   0.163669   0.083660
     4  Na   0.172334  -0.045148
     5  Na  -0.277651   0.635267
     6  Na   0.014155  -0.088221
     7  Na  -0.281512   0.511027
 Sum of Mulliken charges =  -0.00000   1.00000

 Dipole moment (field-independent basis, Debye):
    X=              0.0181    Y=              0.3159    Z=              0.0556  Tot=              0.3212
 Quadrupole moment (field-independent basis, Debye-Ang):
   XX=            -58.9371   YY=            -65.1655   ZZ=            -71.0141
   XY=             -0.7143   XZ=              0.8148   YZ=              0.1815

 Normal termination of Gaussian 16 at Tue Dec  5 18:17:16 2023.
