 Gaussian 16, Revision B.01,
 Gaussian 16:  ES64L-G16RevB.01 20-Dec-2017

 -------------------------
 #P B3LYP/6-311+g(d) force
 -------------------------

 -----
 DPGEN
 -----
 Symbolic Z-matrix:
 Charge =  0 Multiplicity = 2

                         Standard orientation:
 ---------------------------------------------------------------------
 Center     Atomic      Atomic             Coordinates (Angstroms)
 Number     Number       Type             X           Y           Z
 ---------------------------------------------------------------------
      1         11           0       -3.572147   -1.490930   -0.512647
      2         11           0       -3.766428    1.651648    0.093713
      3         11           0        4.218209   -0.701986   -0.120709
      4         11           0        2.172131   -3.015119   -0.663699
      5         11           0       -1.156285   -3.285324    1.017918
      6         11           0       -0.156291    3.666059   -0.509008
      7         11           0        2.260812    3.175651    0.694432
 ---------------------------------------------------------------------

 SCF Done:  E(UB3LYP) =  -1136.10420208     A.U. after   18 cycles

 The electronic state is 2-A.
 Alpha  occ. eigenvalues --  -38.44518 -38.44508 -38.44481 -38.44471 -38.44441
 Alpha  occ. eigenvalues --  -38.44436 -38.44426  -2.20383  -2.20330  -2.20282
 Alpha  occ. eigenvalues --   -2.20277  -2.20247  -2.20236  -2.20211  -1.14374
 Alpha  occ. eigenvalues --   -1.14017  -1.14006  -1.14003  -1.13990  -1.13944
 Alpha  occ. eigenvalues --   -1.13936  -1.13934  -1.13930  -1.13922  -1.13915
 Alpha  occ. eigenvalues --   -1.13909  -1.13900  -1.13891  -1.13885  -1.13880
 Alpha  occ. eigenvalues --   -1.13865  -1.13857  -1.13831  -1.13824  -1.13814
 Alpha  occ. eigenvalues --   -0.15512  -0.13828  -0.13676  -0.11042
 Alpha virt. eigenvalues --   -0.07141  -0.04781  -0.04380  -0.03685  -0.03190
 Alpha virt. eigenvalues --   -0.02574  -0.02461  -0.01707  -0.01497  -0.00842
 Alpha virt. eigenvalues --   -0.00283  -0.00135   0.00095   0.00493   0.00572

  Beta  occ. eigenvalues --  -38.44508 -38.44484 -38.44441 -38.44430 -38.44426
  Beta  occ. eigenvalues --  -38.44397 -38.44359  -2.20359  -2.20299  -2.20253
  Beta  occ. eigenvalues --   -2.20224  -2.20182  -2.20139  -2.20094  -1.14341
  Beta  occ. eigenvalues --   -1.14003  -1.13989  -1.13957  -1.13950  -1.13927
  Beta  occ. eigenvalues --   -1.13924  -1.13913  -1.13907  -1.13901  -1.13878
  Beta  occ. eigenvalues --   -1.13857  -1.13843  -1.13825  -1.13812  -1.13794
  Beta  occ. eigenvalues --   -1.13791  -1.13785  -1.13782  -1.13767  -1.13754
  Beta  occ. eigenvalues --   -0.14942  -0.13213  -0.12918
  Beta virt. eigenvalues --   -0.07889  -0.07119  -0.04431  -0.03926  -0.03457
  Beta virt. eigenvalues --   -0.02780  -0.02380  -0.02166  -0.01583  -0.01368
  Beta virt. eigenvalues --   -0.00439  -0.00100   0.00055   0.00309   0.00479

 Mulliken charges and spin densities:
               1          2
     1  Na  -0.023890  -0.025974
     2  Na   0.063707   0.363223
     3  Na   0.131165   0.230135
     4  Na  -0.041142  -0.010513
     5  Na  -0.043050   0.363837
     6  Na  -0.213693   0.016452
     7  Na   0.126903   0.062840
 Sum of Mulliken charges =  -0.00000   1.00000

 Dipole moment (field-independent basis, Debye):
    X=              0.1809    Y=              0.1738    Z=              0.1335  Tot=              0.2841
 Quadrupole moment (field-independent basis, Debye-Ang):
   XX=            -64.7502   YY=            -68.1444   ZZ=            -69.9929
   XY=              1.5610   XZ=              2.8658   YZ=              0.9303

 Normal termination of Gaussian 16 at Sun Dec  3 20:07:50 2023.
