 Gaussian 16, Revision B.01,
 Gaussian 16:  ES64L-G16RevB.01 20-Dec-2017

 -------------------------
 #P B3LYP/6-311+g(d) force
 -------------------------

 -----
 DPGEN
 -----
 Symbolic Z-matrix:
 Charge =  0 Multiplicity = 2

                         Standard orientation:
 ---------------------------------------------------------------------
 Center     Atomic      Atomic             Coordinates (Angstroms)
 Number     Number       Type             X           Y           Z
 ---------------------------------------------------------------------
      1         11           0        4.509020   -1.120198   -0.250377
      2         11           0       -3.328818    2.670429    0.235011
      3         11           0       -1.807490   -3.171532    0.333422
      4         11           0        3.514006    1.783108    0.591216
      5         11           0       -4.267456   -1.385199   -0.177152
      6         11           0        1.488381   -2.404468   -0.249629
      7         11           0       -0.107642    3.627860   -0.482491
 ---------------------------------------------------------------------

 SCF Done:  E(UB3LYP) =  -1136.10636336     A.U. after   23 cycles

 The electronic state is 2-A.
 Alpha  occ. eigenvalues --  -38.45204 -38.45059 -38.45033 -38.44428 -38.44077
 Alpha  occ. eigenvalues --  -38.43958 -38.43946  -2.20946  -2.20856  -2.20852
 Alpha  occ. eigenvalues --   -2.20180  -2.19892  -2.19785  -2.19767  -1.14623
 Alpha  occ. eigenvalues --   -1.14607  -1.14586  -1.14579  -1.14526  -1.14521
 Alpha  occ. eigenvalues --   -1.14503  -1.14490  -1.14429  -1.13852  -1.13845
 Alpha  occ. eigenvalues --   -1.13813  -1.13629  -1.13565  -1.13559  -1.13437
 Alpha  occ. eigenvalues --   -1.13432  -1.13406  -1.13403  -1.13390  -1.13372
 Alpha  occ. eigenvalues --   -0.15773  -0.14085  -0.13194  -0.10616
 Alpha virt. eigenvalues --   -0.07844  -0.04992  -0.04551  -0.03541  -0.03241
 Alpha virt. eigenvalues --   -0.02700  -0.02230  -0.02100  -0.01176  -0.00541
 Alpha virt. eigenvalues --   -0.00439  -0.00174   0.00052   0.00283   0.00389

  Beta  occ. eigenvalues --  -38.45191 -38.45035 -38.45002 -38.44414 -38.44078
  Beta  occ. eigenvalues --  -38.43882 -38.43881  -2.20926  -2.20863  -2.20750
  Beta  occ. eigenvalues --   -2.20158  -2.19901  -2.19647  -2.19645  -1.14611
  Beta  occ. eigenvalues --   -1.14596  -1.14557  -1.14549  -1.14527  -1.14510
  Beta  occ. eigenvalues --   -1.14438  -1.14419  -1.14378  -1.13838  -1.13832
  Beta  occ. eigenvalues --   -1.13787  -1.13600  -1.13573  -1.13548  -1.13344
  Beta  occ. eigenvalues --   -1.13341  -1.13323  -1.13316  -1.13308  -1.13298
  Beta  occ. eigenvalues --   -0.15201  -0.13466  -0.12593
  Beta virt. eigenvalues --   -0.07863  -0.07415  -0.04577  -0.04166  -0.03221
  Beta virt. eigenvalues --   -0.02824  -0.02534  -0.02105  -0.01913  -0.01106
  Beta virt. eigenvalues --   -0.00209  -0.00168  -0.00001   0.00158   0.00421

 Mulliken charges and spin densities:
               1          2
     1  Na   1.156533   0.166593
     2  Na  -0.000125   0.058085
     3  Na  -0.055623  -0.086868
     4  Na  -0.178166   0.260004
     5  Na  -0.099664   0.291221
     6  Na  -0.673663   0.253320
     7  Na  -0.149293   0.057646
 Sum of Mulliken charges =  -0.00000   1.00000

 Dipole moment (field-independent basis, Debye):
    X=              0.9351    Y=              0.6147    Z=              0.0440  Tot=              1.1199
 Quadrupole moment (field-independent basis, Debye-Ang):
   XX=            -55.9233   YY=            -70.5396   ZZ=            -73.2130
   XY=             -4.5350   XZ=             -1.7403   YZ=              0.4977

 Normal termination of Gaussian 16 at Sun Dec  3 16:55:36 2023.
