 Gaussian 16, Revision B.01,
 Gaussian 16:  ES64L-G16RevB.01 20-Dec-2017

 -------------------------
 #P B3LYP/6-311+g(d) force
 -------------------------

 -----
 DPGEN
 -----
 Symbolic Z-matrix:
 Charge =  0 Multiplicity = 2

                         Standard orientation:
 ---------------------------------------------------------------------
 Center     Atomic      Atomic             Coordinates (Angstroms)
 Number     Number       Type             X           Y           Z
 ---------------------------------------------------------------------
      1         11           0       -0.240038   -1.526641    0.120940
      2         11           0       -6.738566   -0.376900    0.193693
      3         11           0       -3.301470   -0.025830   -0.048074
      4         11           0       -0.791029    2.123435    0.091404
      5         11           0        2.440700    1.272366   -0.906795
      6         11           0        3.512084   -1.922758   -0.405883
      7         11           0        5.118320    0.456327    0.954716
 ---------------------------------------------------------------------

 SCF Done:  E(UB3LYP) =  -1136.11602661     A.U. after   23 cycles

 The electronic state is 2-A.
 Alpha  occ. eigenvalues --  -38.44871 -38.44853 -38.44792 -38.44703 -38.44304
 Alpha  occ. eigenvalues --  -38.43378 -38.43061  -2.20733  -2.20712  -2.20635
 Alpha  occ. eigenvalues --   -2.20530  -2.20141  -2.19111  -2.18911  -1.14439
 Alpha  occ. eigenvalues --   -1.14430  -1.14406  -1.14377  -1.14354  -1.14337
 Alpha  occ. eigenvalues --   -1.14279  -1.14269  -1.14222  -1.14209  -1.14184
 Alpha  occ. eigenvalues --   -1.14135  -1.13814  -1.13802  -1.13761  -1.12791
 Alpha  occ. eigenvalues --   -1.12790  -1.12766  -1.12620  -1.12590  -1.12494
 Alpha  occ. eigenvalues --   -0.17512  -0.14504  -0.11690  -0.11028
 Alpha virt. eigenvalues --   -0.07002  -0.05867  -0.04886  -0.03509  -0.03071
 Alpha virt. eigenvalues --   -0.02401  -0.02208  -0.01232  -0.01155  -0.00730
 Alpha virt. eigenvalues --   -0.00312  -0.00224   0.00004   0.00132   0.00512

  Beta  occ. eigenvalues --  -38.44826 -38.44813 -38.44759 -38.44640 -38.44273
  Beta  occ. eigenvalues --  -38.43417 -38.43050  -2.20654  -2.20641  -2.20573
  Beta  occ. eigenvalues --   -2.20414  -2.20085  -2.19185  -2.18888  -1.14385
  Beta  occ. eigenvalues --   -1.14374  -1.14357  -1.14319  -1.14288  -1.14278
  Beta  occ. eigenvalues --   -1.14237  -1.14213  -1.14173  -1.14133  -1.14096
  Beta  occ. eigenvalues --   -1.14049  -1.13773  -1.13747  -1.13731  -1.12840
  Beta  occ. eigenvalues --   -1.12840  -1.12813  -1.12594  -1.12572  -1.12504
  Beta  occ. eigenvalues --   -0.16718  -0.14364  -0.11164
  Beta virt. eigenvalues --   -0.07691  -0.06710  -0.05184  -0.04613  -0.03121
  Beta virt. eigenvalues --   -0.02633  -0.02253  -0.01692  -0.01141  -0.00800
  Beta virt. eigenvalues --   -0.00641  -0.00168  -0.00062   0.00211   0.00301

 Mulliken charges and spin densities:
               1          2
     1  Na   0.483314   0.614770
     2  Na  -0.444710  -0.123076
     3  Na  -0.599607  -0.268990
     4  Na   0.435129   0.271640
     5  Na  -0.683639   0.379129
     6  Na   0.355286   0.009222
     7  Na   0.454227   0.117306
 Sum of Mulliken charges =  -0.00000   1.00000

 Dipole moment (field-independent basis, Debye):
    X=              3.4364    Y=              0.2091    Z=              0.3098  Tot=              3.4567
 Quadrupole moment (field-independent basis, Debye-Ang):
   XX=            -66.8932   YY=            -67.1841   ZZ=            -69.5819
   XY=             -1.7774   XZ=              1.6905   YZ=              1.1702

 Normal termination of Gaussian 16 at Tue Nov 28 21:55:26 2023.
