 Gaussian 16, Revision B.01,
 Gaussian 16:  ES64L-G16RevB.01 20-Dec-2017

 -------------------------
 #P B3LYP/6-311+g(d) force
 -------------------------

 -----
 DPGEN
 -----
 Symbolic Z-matrix:
 Charge =  0 Multiplicity = 2

                         Standard orientation:
 ---------------------------------------------------------------------
 Center     Atomic      Atomic             Coordinates (Angstroms)
 Number     Number       Type             X           Y           Z
 ---------------------------------------------------------------------
      1         11           0        0.204513   -0.860288   -1.530811
      2         11           0       -2.701901    1.287563   -0.579599
      3         11           0        3.657882    0.493637   -0.284227
      4         11           0        0.631512    2.847631    0.118413
      5         11           0        2.987466   -2.091578    0.269268
      6         11           0       -0.695439   -0.162142    2.096442
      7         11           0       -4.084034   -1.514823   -0.089485
 ---------------------------------------------------------------------

 SCF Done:  E(UB3LYP) =  -1136.10961465     A.U. after   29 cycles

 The electronic state is 2-A.
 Alpha  occ. eigenvalues --  -38.46382 -38.45553 -38.44403 -38.44263 -38.44136
 Alpha  occ. eigenvalues --  -38.43651 -38.42366  -2.22151  -2.21417  -2.20185
 Alpha  occ. eigenvalues --   -2.20145  -2.19997  -2.19484  -2.18162  -1.15860
 Alpha  occ. eigenvalues --   -1.15809  -1.15765  -1.15225  -1.15052  -1.15016
 Alpha  occ. eigenvalues --   -1.13898  -1.13849  -1.13843  -1.13827  -1.13765
 Alpha  occ. eigenvalues --   -1.13748  -1.13685  -1.13662  -1.13593  -1.13146
 Alpha  occ. eigenvalues --   -1.13111  -1.13089  -1.11834  -1.11827  -1.11810
 Alpha  occ. eigenvalues --   -0.17687  -0.14346  -0.11238  -0.10300
 Alpha virt. eigenvalues --   -0.07575  -0.05738  -0.04214  -0.03749  -0.03013
 Alpha virt. eigenvalues --   -0.02488  -0.02124  -0.01726  -0.00778  -0.00523
 Alpha virt. eigenvalues --   -0.00263  -0.00009   0.00299   0.00498   0.00679

  Beta  occ. eigenvalues --  -38.46361 -38.45542 -38.44409 -38.44260 -38.44121
  Beta  occ. eigenvalues --  -38.43538 -38.42361  -2.22114  -2.21399  -2.20199
  Beta  occ. eigenvalues --   -2.20140  -2.19969  -2.19275  -2.18155  -1.15814
  Beta  occ. eigenvalues --   -1.15783  -1.15739  -1.15212  -1.15033  -1.15005
  Beta  occ. eigenvalues --   -1.13905  -1.13847  -1.13845  -1.13834  -1.13762
  Beta  occ. eigenvalues --   -1.13731  -1.13659  -1.13638  -1.13577  -1.13003
  Beta  occ. eigenvalues --   -1.12966  -1.12944  -1.11828  -1.11817  -1.11801
  Beta  occ. eigenvalues --   -0.17081  -0.14179  -0.11095
  Beta virt. eigenvalues --   -0.07391  -0.06497  -0.05574  -0.04035  -0.03318
  Beta virt. eigenvalues --   -0.02832  -0.01850  -0.01504  -0.01407  -0.00711
  Beta virt. eigenvalues --   -0.00314  -0.00182   0.00075   0.00448   0.00577

 Mulliken charges and spin densities:
               1          2
     1  Na  -0.314207   0.175090
     2  Na   0.145877   0.182751
     3  Na  -0.170702   0.021963
     4  Na  -0.050587   0.009241
     5  Na   0.613084   0.044113
     6  Na  -0.466896   0.654648
     7  Na   0.243433  -0.087805
 Sum of Mulliken charges =  -0.00000   1.00000

 Dipole moment (field-independent basis, Debye):
    X=              0.4692    Y=             -0.6273    Z=             -0.3034  Tot=              0.8401
 Quadrupole moment (field-independent basis, Debye-Ang):
   XX=            -55.5884   YY=            -69.7376   ZZ=            -74.3153
   XY=              2.0343   XZ=              0.1742   YZ=              0.3234

 Normal termination of Gaussian 16 at Tue Dec  5 11:31:43 2023.
