 Gaussian 16, Revision B.01,
 Gaussian 16:  ES64L-G16RevB.01 20-Dec-2017

 -------------------------
 #P B3LYP/6-311+g(d) force
 -------------------------

 -----
 DPGEN
 -----
 Symbolic Z-matrix:
 Charge =  0 Multiplicity = 2

                         Standard orientation:
 ---------------------------------------------------------------------
 Center     Atomic      Atomic             Coordinates (Angstroms)
 Number     Number       Type             X           Y           Z
 ---------------------------------------------------------------------
      1         11           0       -0.366396    0.364118    1.802092
      2         11           0        1.747957   -0.800041   -1.280665
      3         11           0       -4.261790    0.401451    0.565091
      4         11           0        2.927502   -0.949621    1.300825
      5         11           0       -0.792236   -2.426985   -0.594717
      6         11           0       -1.223516    0.819117   -1.427492
      7         11           0        1.968480    2.591960   -0.365133
 ---------------------------------------------------------------------

 SCF Done:  E(UB3LYP) =  -1136.11897431     A.U. after   25 cycles

 The electronic state is 2-A.
 Alpha  occ. eigenvalues --  -38.45327 -38.44844 -38.44797 -38.43679 -38.43329
 Alpha  occ. eigenvalues --  -38.42919 -38.42906  -2.21070  -2.20680  -2.20667
 Alpha  occ. eigenvalues --   -2.19586  -2.19343  -2.18776  -2.18725  -1.14744
 Alpha  occ. eigenvalues --   -1.14731  -1.14685  -1.14431  -1.14387  -1.14336
 Alpha  occ. eigenvalues --   -1.14311  -1.14270  -1.14238  -1.13307  -1.13235
 Alpha  occ. eigenvalues --   -1.13192  -1.13061  -1.13013  -1.12931  -1.12468
 Alpha  occ. eigenvalues --   -1.12434  -1.12402  -1.12385  -1.12379  -1.12366
 Alpha  occ. eigenvalues --   -0.18518  -0.13394  -0.11409  -0.11204
 Alpha virt. eigenvalues --   -0.07031  -0.04710  -0.04267  -0.03134  -0.02758
 Alpha virt. eigenvalues --   -0.02637  -0.02408  -0.01027  -0.00855  -0.00116
 Alpha virt. eigenvalues --    0.00080   0.00139   0.00282   0.00728   0.00777

  Beta  occ. eigenvalues --  -38.45310 -38.44800 -38.44750 -38.43632 -38.43303
  Beta  occ. eigenvalues --  -38.42908 -38.42896  -2.21039  -2.20600  -2.20581
  Beta  occ. eigenvalues --   -2.19505  -2.19301  -2.18761  -2.18707  -1.14721
  Beta  occ. eigenvalues --   -1.14709  -1.14665  -1.14378  -1.14330  -1.14274
  Beta  occ. eigenvalues --   -1.14247  -1.14206  -1.14182  -1.13257  -1.13160
  Beta  occ. eigenvalues --   -1.13125  -1.12995  -1.12986  -1.12902  -1.12453
  Beta  occ. eigenvalues --   -1.12405  -1.12384  -1.12380  -1.12365  -1.12349
  Beta  occ. eigenvalues --   -0.17761  -0.13136  -0.10964
  Beta virt. eigenvalues --   -0.07608  -0.06741  -0.04544  -0.03820  -0.03031
  Beta virt. eigenvalues --   -0.02436  -0.01967  -0.01729  -0.00803  -0.00613
  Beta virt. eigenvalues --   -0.00111   0.00170   0.00171   0.00398   0.00792

 Mulliken charges and spin densities:
               1          2
     1  Na  -0.229853   0.453875
     2  Na   0.582909   0.065314
     3  Na   0.179958   0.105533
     4  Na   0.028107   0.184090
     5  Na  -0.169929  -0.029741
     6  Na  -0.194083   0.183405
     7  Na  -0.197110   0.037523
 Sum of Mulliken charges =  -0.00000   1.00000

 Dipole moment (field-independent basis, Debye):
    X=             -0.9815    Y=             -0.1287    Z=              0.6288  Tot=              1.1727
 Quadrupole moment (field-independent basis, Debye-Ang):
   XX=            -49.4734   YY=            -74.4223   ZZ=            -68.5829
   XY=              0.0518   XZ=              0.2458   YZ=             -2.2248

 Normal termination of Gaussian 16 at Thu Dec  7 16:36:09 2023.
