 Gaussian 16, Revision B.01,
 Gaussian 16:  ES64L-G16RevB.01 20-Dec-2017

 -------------------------
 #P B3LYP/6-311+g(d) force
 -------------------------

 -----
 DPGEN
 -----
 Symbolic Z-matrix:
 Charge =  0 Multiplicity = 2

                         Standard orientation:
 ---------------------------------------------------------------------
 Center     Atomic      Atomic             Coordinates (Angstroms)
 Number     Number       Type             X           Y           Z
 ---------------------------------------------------------------------
      1         11           0       -0.201136   -0.061444    0.275430
      2         11           0        3.883656   -0.969942   -0.582818
      3         11           0       -2.868505   -2.227374   -1.210461
      4         11           0        2.624720    2.230706   -0.617984
      5         11           0        1.329942   -2.652251    1.374056
      6         11           0       -3.906385    0.587633    0.230563
      7         11           0       -0.862292    3.092672    0.531214
 ---------------------------------------------------------------------

 SCF Done:  E(UB3LYP) =  -1136.12283878     A.U. after   21 cycles

 The electronic state is 2-A.
 Alpha  occ. eigenvalues --  -38.44907 -38.44410 -38.44402 -38.44002 -38.43570
 Alpha  occ. eigenvalues --  -38.43417 -38.43262  -2.20698  -2.20203  -2.20197
 Alpha  occ. eigenvalues --   -2.19803  -2.19399  -2.19332  -2.19084  -1.14377
 Alpha  occ. eigenvalues --   -1.14352  -1.14335  -1.13874  -1.13870  -1.13859
 Alpha  occ. eigenvalues --   -1.13842  -1.13837  -1.13819  -1.13487  -1.13472
 Alpha  occ. eigenvalues --   -1.13413  -1.13126  -1.13049  -1.13035  -1.13014
 Alpha  occ. eigenvalues --   -1.12973  -1.12943  -1.12751  -1.12740  -1.12702
 Alpha  occ. eigenvalues --   -0.16837  -0.13912  -0.12313  -0.10429
 Alpha virt. eigenvalues --   -0.06750  -0.04889  -0.04593  -0.03405  -0.03253
 Alpha virt. eigenvalues --   -0.02303  -0.01740  -0.01322  -0.00884  -0.00658
 Alpha virt. eigenvalues --   -0.00193   0.00110   0.00115   0.00603   0.00692

  Beta  occ. eigenvalues --  -38.44894 -38.44374 -38.44367 -38.43967 -38.43516
  Beta  occ. eigenvalues --  -38.43393 -38.43242  -2.20676  -2.20140  -2.20134
  Beta  occ. eigenvalues --   -2.19743  -2.19298  -2.19289  -2.19046  -1.14365
  Beta  occ. eigenvalues --   -1.14341  -1.14295  -1.13834  -1.13828  -1.13811
  Beta  occ. eigenvalues --   -1.13802  -1.13782  -1.13757  -1.13448  -1.13435
  Beta  occ. eigenvalues --   -1.13348  -1.13058  -1.13008  -1.12970  -1.12955
  Beta  occ. eigenvalues --   -1.12942  -1.12909  -1.12720  -1.12715  -1.12683
  Beta  occ. eigenvalues --   -0.16396  -0.13187  -0.11945
  Beta virt. eigenvalues --   -0.07040  -0.06712  -0.04683  -0.04231  -0.03029
  Beta virt. eigenvalues --   -0.02739  -0.02186  -0.01474  -0.01118  -0.00658
  Beta virt. eigenvalues --   -0.00389   0.00056   0.00188   0.00283   0.00624

 Mulliken charges and spin densities:
               1          2
     1  Na  -2.995502   0.115932
     2  Na   0.509267   0.163065
     3  Na   0.425584   0.164674
     4  Na   0.363020   0.270647
     5  Na   0.894479   0.174578
     6  Na   0.315116   0.114636
     7  Na   0.488035  -0.003532
 Sum of Mulliken charges =  -0.00000   1.00000

 Dipole moment (field-independent basis, Debye):
    X=             -0.7326    Y=             -0.2272    Z=              0.0209  Tot=              0.7673
 Quadrupole moment (field-independent basis, Debye-Ang):
   XX=            -61.5784   YY=            -62.1681   ZZ=            -70.8528
   XY=             -6.0141   XZ=             -1.9589   YZ=              2.3048

 Normal termination of Gaussian 16 at Wed Nov 29 17:27:15 2023.
