 Gaussian 16, Revision B.01,
 Gaussian 16:  ES64L-G16RevB.01 20-Dec-2017

 -------------------------
 #P B3LYP/6-311+g(d) force
 -------------------------

 -----
 DPGEN
 -----
 Symbolic Z-matrix:
 Charge =  0 Multiplicity = 2

                         Standard orientation:
 ---------------------------------------------------------------------
 Center     Atomic      Atomic             Coordinates (Angstroms)
 Number     Number       Type             X           Y           Z
 ---------------------------------------------------------------------
      1         11           0        2.153211   -1.818428    1.025114
      2         11           0        1.646261    0.673119   -0.990859
      3         11           0       -2.589146    1.871485   -0.734931
      4         11           0       -1.436637   -1.912437    0.486162
      5         11           0       -4.346608   -1.145997   -0.605968
      6         11           0       -0.024560    2.336265    1.771195
      7         11           0        4.597479   -0.004007   -0.950713
 ---------------------------------------------------------------------

 SCF Done:  E(UB3LYP) =  -1136.12057861     A.U. after   22 cycles

 The electronic state is 2-A.
 Alpha  occ. eigenvalues --  -38.44475 -38.44456 -38.44429 -38.44416 -38.43735
 Alpha  occ. eigenvalues --  -38.43346 -38.43310  -2.20346  -2.20317  -2.20276
 Alpha  occ. eigenvalues --   -2.20214  -2.19555  -2.19141  -2.19128  -1.14112
 Alpha  occ. eigenvalues --   -1.14082  -1.14007  -1.13978  -1.13968  -1.13924
 Alpha  occ. eigenvalues --   -1.13914  -1.13904  -1.13884  -1.13878  -1.13833
 Alpha  occ. eigenvalues --   -1.13821  -1.13249  -1.13217  -1.13201  -1.12800
 Alpha  occ. eigenvalues --   -1.12795  -1.12790  -1.12789  -1.12783  -1.12756
 Alpha  occ. eigenvalues --   -0.17214  -0.14306  -0.11585  -0.11140
 Alpha virt. eigenvalues --   -0.06005  -0.05794  -0.04623  -0.03204  -0.02891
 Alpha virt. eigenvalues --   -0.02672  -0.01983  -0.01352  -0.01131  -0.00522
 Alpha virt. eigenvalues --   -0.00127   0.00122   0.00261   0.00496   0.00688

  Beta  occ. eigenvalues --  -38.44442 -38.44431 -38.44411 -38.44348 -38.43707
  Beta  occ. eigenvalues --  -38.43335 -38.43290  -2.20326  -2.20241  -2.20182
  Beta  occ. eigenvalues --   -2.20148  -2.19509  -2.19108  -2.19105  -1.14076
  Beta  occ. eigenvalues --   -1.14038  -1.13979  -1.13931  -1.13916  -1.13893
  Beta  occ. eigenvalues --   -1.13860  -1.13847  -1.13818  -1.13802  -1.13786
  Beta  occ. eigenvalues --   -1.13771  -1.13222  -1.13189  -1.13139  -1.12786
  Beta  occ. eigenvalues --   -1.12772  -1.12770  -1.12767  -1.12752  -1.12744
  Beta  occ. eigenvalues --   -0.16537  -0.13843  -0.11232
  Beta virt. eigenvalues --   -0.07608  -0.05810  -0.05519  -0.04074  -0.02985
  Beta virt. eigenvalues --   -0.02659  -0.02213  -0.01631  -0.01183  -0.00743
  Beta virt. eigenvalues --   -0.00273   0.00006   0.00209   0.00385   0.00641

 Mulliken charges and spin densities:
               1          2
     1  Na   0.240040  -0.056433
     2  Na  -1.185486   0.120135
     3  Na   0.036388   0.039205
     4  Na  -0.606277   0.025940
     5  Na   0.432792   0.485856
     6  Na   0.073144   0.186548
     7  Na   1.009400   0.198749
 Sum of Mulliken charges =  -0.00000   1.00000

 Dipole moment (field-independent basis, Debye):
    X=              1.0960    Y=              0.1713    Z=              0.1740  Tot=              1.1228
 Quadrupole moment (field-independent basis, Debye-Ang):
   XX=            -57.2400   YY=            -74.8547   ZZ=            -65.6139
   XY=             -3.5871   XZ=              3.4408   YZ=             -2.2124

 Normal termination of Gaussian 16 at Tue Nov 28 20:58:34 2023.
