 Gaussian 16, Revision B.01,
 Gaussian 16:  ES64L-G16RevB.01 20-Dec-2017

 -------------------------
 #P B3LYP/6-311+g(d) force
 -------------------------

 -----
 DPGEN
 -----
 Symbolic Z-matrix:
 Charge =  0 Multiplicity = 2

                         Standard orientation:
 ---------------------------------------------------------------------
 Center     Atomic      Atomic             Coordinates (Angstroms)
 Number     Number       Type             X           Y           Z
 ---------------------------------------------------------------------
      1         11           0        0.538407    2.878794    0.216365
      2         11           0        2.849161    0.284599   -0.189277
      3         11           0       -0.004642    0.170809   -1.583591
      4         11           0        1.494820   -2.304743   -0.119831
      5         11           0       -2.414916   -1.906395   -0.146441
      6         11           0        0.122621   -0.462089    1.829204
      7         11           0       -2.585451    1.339024   -0.006429
 ---------------------------------------------------------------------

 SCF Done:  E(UB3LYP) =  -1136.13347812     A.U. after   19 cycles

 The electronic state is 2-A.
 Alpha  occ. eigenvalues --  -38.43821 -38.43806 -38.43694 -38.43493 -38.43236
 Alpha  occ. eigenvalues --  -38.43152 -38.42968  -2.19774  -2.19689  -2.19549
 Alpha  occ. eigenvalues --   -2.19465  -2.19221  -2.19025  -2.19016  -1.13555
 Alpha  occ. eigenvalues --   -1.13433  -1.13410  -1.13396  -1.13354  -1.13336
 Alpha  occ. eigenvalues --   -1.13214  -1.13211  -1.13195  -1.13179  -1.13116
 Alpha  occ. eigenvalues --   -1.13059  -1.12888  -1.12833  -1.12819  -1.12737
 Alpha  occ. eigenvalues --   -1.12694  -1.12673  -1.12662  -1.12652  -1.12611
 Alpha  occ. eigenvalues --   -0.19402  -0.13498  -0.12559  -0.10726
 Alpha virt. eigenvalues --   -0.05428  -0.05206  -0.04618  -0.03285  -0.02789
 Alpha virt. eigenvalues --   -0.02254  -0.01419  -0.01079  -0.00150  -0.00133
 Alpha virt. eigenvalues --    0.00035   0.00367   0.00841   0.00919   0.00932

  Beta  occ. eigenvalues --  -38.43810 -38.43802 -38.43690 -38.43481 -38.43151
  Beta  occ. eigenvalues --  -38.43147 -38.42900  -2.19759  -2.19685  -2.19545
  Beta  occ. eigenvalues --   -2.19450  -2.19063  -2.19010  -2.18902  -1.13548
  Beta  occ. eigenvalues --   -1.13420  -1.13391  -1.13367  -1.13345  -1.13322
  Beta  occ. eigenvalues --   -1.13206  -1.13191  -1.13181  -1.13171  -1.13066
  Beta  occ. eigenvalues --   -1.13055  -1.12791  -1.12727  -1.12711  -1.12701
  Beta  occ. eigenvalues --   -1.12657  -1.12648  -1.12616  -1.12563  -1.12535
  Beta  occ. eigenvalues --   -0.18657  -0.13209  -0.12313
  Beta virt. eigenvalues --   -0.06770  -0.05395  -0.05209  -0.04592  -0.02429
  Beta virt. eigenvalues --   -0.02026  -0.01343  -0.01206  -0.01019  -0.00203
  Beta virt. eigenvalues --   -0.00171   0.00167   0.00392   0.00899   0.00913

 Mulliken charges and spin densities:
               1          2
     1  Na   0.011192  -0.040274
     2  Na   0.301911   0.042286
     3  Na  -0.434963   0.452583
     4  Na   0.514460  -0.029739
     5  Na   0.141525  -0.098088
     6  Na  -0.580688   0.726882
     7  Na   0.046562  -0.053649
 Sum of Mulliken charges =  -0.00000   1.00000

 Dipole moment (field-independent basis, Debye):
    X=             -0.2385    Y=             -0.0160    Z=              0.1179  Tot=              0.2665
 Quadrupole moment (field-independent basis, Debye-Ang):
   XX=            -56.8830   YY=            -61.9267   ZZ=            -74.6702
   XY=              0.6333   XZ=             -0.2704   YZ=              1.4800

 Normal termination of Gaussian 16 at Thu Dec  7 20:51:02 2023.
