 Gaussian 16, Revision B.01,
 Gaussian 16:  ES64L-G16RevB.01 20-Dec-2017

 -------------------------
 #P B3LYP/6-311+g(d) force
 -------------------------

 -----
 DPGEN
 -----
 Symbolic Z-matrix:
 Charge =  0 Multiplicity = 2

                         Standard orientation:
 ---------------------------------------------------------------------
 Center     Atomic      Atomic             Coordinates (Angstroms)
 Number     Number       Type             X           Y           Z
 ---------------------------------------------------------------------
      1         11           0       -3.027833    0.334556   -0.162807
      2         11           0       -0.017372    0.218317    2.190543
      3         11           0        0.225994   -0.349626   -1.819005
      4         11           0       -1.355306   -2.454660    0.005795
      5         11           0        2.148759   -2.132776    0.130569
      6         11           0       -0.794625    2.769923   -0.181681
      7         11           0        2.820383    1.614265   -0.163414
 ---------------------------------------------------------------------

 SCF Done:  E(UB3LYP) =  -1136.13859746     A.U. after   19 cycles

 The electronic state is 2-A.
 Alpha  occ. eigenvalues --  -38.44016 -38.43948 -38.43761 -38.43604 -38.43525
 Alpha  occ. eigenvalues --  -38.43432 -38.43256  -2.19806  -2.19799  -2.19598
 Alpha  occ. eigenvalues --   -2.19467  -2.19463  -2.19271  -2.19149  -1.13478
 Alpha  occ. eigenvalues --   -1.13467  -1.13454  -1.13444  -1.13434  -1.13425
 Alpha  occ. eigenvalues --   -1.13306  -1.13262  -1.13226  -1.13163  -1.13146
 Alpha  occ. eigenvalues --   -1.13131  -1.13119  -1.13101  -1.13079  -1.12942
 Alpha  occ. eigenvalues --   -1.12939  -1.12898  -1.12825  -1.12804  -1.12773
 Alpha  occ. eigenvalues --   -0.18545  -0.12824  -0.12475  -0.11019
 Alpha virt. eigenvalues --   -0.05553  -0.05202  -0.04602  -0.03237  -0.03122
 Alpha virt. eigenvalues --   -0.02838  -0.01380  -0.01119  -0.00307  -0.00251
 Alpha virt. eigenvalues --   -0.00063   0.00376   0.00791   0.00875   0.00931

  Beta  occ. eigenvalues --  -38.44016 -38.43849 -38.43757 -38.43601 -38.43459
  Beta  occ. eigenvalues --  -38.43428 -38.43250  -2.19801  -2.19624  -2.19594
  Beta  occ. eigenvalues --   -2.19462  -2.19343  -2.19266  -2.19141  -1.13463
  Beta  occ. eigenvalues --   -1.13456  -1.13447  -1.13345  -1.13305  -1.13299
  Beta  occ. eigenvalues --   -1.13291  -1.13239  -1.13227  -1.13149  -1.13141
  Beta  occ. eigenvalues --   -1.13096  -1.13071  -1.13017  -1.12995  -1.12936
  Beta  occ. eigenvalues --   -1.12914  -1.12898  -1.12815  -1.12774  -1.12767
  Beta  occ. eigenvalues --   -0.17788  -0.12620  -0.12257
  Beta virt. eigenvalues --   -0.07077  -0.05570  -0.05131  -0.04534  -0.02450
  Beta virt. eigenvalues --   -0.02313  -0.01802  -0.01296  -0.01051  -0.00360
  Beta virt. eigenvalues --   -0.00311   0.00094   0.00395   0.00848   0.00885

 Mulliken charges and spin densities:
               1          2
     1  Na   0.114450  -0.028332
     2  Na  -0.577376   0.735951
     3  Na  -0.225957   0.511171
     4  Na   0.331618   0.031022
     5  Na   0.206920  -0.061473
     6  Na   0.112769  -0.065524
     7  Na   0.037575  -0.122815
 Sum of Mulliken charges =  -0.00000   1.00000

 Dipole moment (field-independent basis, Debye):
    X=              0.3300    Y=              0.0506    Z=              0.1256  Tot=              0.3567
 Quadrupole moment (field-independent basis, Debye-Ang):
   XX=            -58.5711   YY=            -63.7132   ZZ=            -72.4650
   XY=              0.0179   XZ=              0.5499   YZ=             -1.2133

 Normal termination of Gaussian 16 at Thu Dec  7 08:34:41 2023.
