 Gaussian 16, Revision B.01,
 Gaussian 16:  ES64L-G16RevB.01 20-Dec-2017

 -------------------------
 #P B3LYP/6-311+g(d) force
 -------------------------

 -----
 DPGEN
 -----
 Symbolic Z-matrix:
 Charge =  0 Multiplicity = 2

                         Standard orientation:
 ---------------------------------------------------------------------
 Center     Atomic      Atomic             Coordinates (Angstroms)
 Number     Number       Type             X           Y           Z
 ---------------------------------------------------------------------
      1         11           0       -4.519556   -0.860116    1.070180
      2         11           0       -6.555197   -2.677951   -0.568235
      3         11           0       -3.724090    2.791407    0.115237
      4         11           0       -0.644735    2.065494   -0.686203
      5         11           0        2.256500   -0.164742   -0.518546
      6         11           0        5.229703    0.058441    0.882368
      7         11           0        7.957375   -1.212533   -0.294801
 ---------------------------------------------------------------------

 SCF Done:  E(UB3LYP) =  -1136.10779033     A.U. after   18 cycles

 The electronic state is 2-A.
 Alpha  occ. eigenvalues --  -38.45149 -38.44787 -38.44624 -38.44292 -38.44170
 Alpha  occ. eigenvalues --  -38.43987 -38.43943  -2.20947  -2.20592  -2.20438
 Alpha  occ. eigenvalues --   -2.20099  -2.19941  -2.19774  -2.19723  -1.14586
 Alpha  occ. eigenvalues --   -1.14584  -1.14577  -1.14242  -1.14234  -1.14221
 Alpha  occ. eigenvalues --   -1.14095  -1.14084  -1.14057  -1.13770  -1.13768
 Alpha  occ. eigenvalues --   -1.13759  -1.13625  -1.13620  -1.13593  -1.13477
 Alpha  occ. eigenvalues --   -1.13428  -1.13425  -1.13398  -1.13383  -1.13315
 Alpha  occ. eigenvalues --   -0.15306  -0.14381  -0.12590  -0.11486
 Alpha virt. eigenvalues --   -0.06650  -0.05489  -0.04285  -0.03303  -0.03155
 Alpha virt. eigenvalues --   -0.02689  -0.02264  -0.01907  -0.01794  -0.01075
 Alpha virt. eigenvalues --   -0.00620  -0.00419  -0.00341   0.00172   0.00626

  Beta  occ. eigenvalues --  -38.45067 -38.44726 -38.44545 -38.44303 -38.44185
  Beta  occ. eigenvalues --  -38.43956 -38.43950  -2.20794  -2.20477  -2.20290
  Beta  occ. eigenvalues --   -2.20125  -2.19975  -2.19739  -2.19716  -1.14482
  Beta  occ. eigenvalues --   -1.14480  -1.14477  -1.14165  -1.14159  -1.14145
  Beta  occ. eigenvalues --   -1.14000  -1.13983  -1.13964  -1.13794  -1.13789
  Beta  occ. eigenvalues --   -1.13727  -1.13654  -1.13648  -1.13573  -1.13456
  Beta  occ. eigenvalues --   -1.13417  -1.13397  -1.13383  -1.13379  -1.13297
  Beta  occ. eigenvalues --   -0.14672  -0.13777  -0.11918
  Beta virt. eigenvalues --   -0.08483  -0.06199  -0.05159  -0.03986  -0.03108
  Beta virt. eigenvalues --   -0.02938  -0.02426  -0.02124  -0.01614  -0.01382
  Beta virt. eigenvalues --   -0.00732  -0.00412  -0.00250  -0.00082   0.00275

 Mulliken charges and spin densities:
               1          2
     1  Na  -0.522281  -0.018015
     2  Na   0.250454   0.138902
     3  Na   0.694747   0.257611
     4  Na  -0.544271  -0.024957
     5  Na  -0.105099   0.264360
     6  Na  -0.085855   0.033025
     7  Na   0.312306   0.349075
 Sum of Mulliken charges =  -0.00000   1.00000

 Dipole moment (field-independent basis, Debye):
    X=              0.9912    Y=             -0.0120    Z=             -0.4256  Tot=              1.0788
 Quadrupole moment (field-independent basis, Debye-Ang):
   XX=            -52.8036   YY=            -67.3957   ZZ=            -70.0123
   XY=             -6.8046   XZ=              0.7444   YZ=              4.1134

 Normal termination of Gaussian 16 at Sun Dec  3 21:40:39 2023.
