 Gaussian 16, Revision B.01,
 Gaussian 16:  ES64L-G16RevB.01 20-Dec-2017

 -------------------------
 #P B3LYP/6-311+g(d) force
 -------------------------

 -----
 DPGEN
 -----
 Symbolic Z-matrix:
 Charge =  0 Multiplicity = 2

                         Standard orientation:
 ---------------------------------------------------------------------
 Center     Atomic      Atomic             Coordinates (Angstroms)
 Number     Number       Type             X           Y           Z
 ---------------------------------------------------------------------
      1         11           0        2.909230   -1.996284   -1.100421
      2         11           0       -2.972158   -2.062071   -0.511157
      3         11           0        0.227542   -2.705730    1.404650
      4         11           0       -1.333913    3.292060    0.217188
      5         11           0       -4.488219    0.635293    0.005063
      6         11           0        1.139302    1.562574   -0.516198
      7         11           0        4.518217    1.274159    0.500875
 ---------------------------------------------------------------------

 SCF Done:  E(UB3LYP) =  -1136.10946995     A.U. after   20 cycles

 The electronic state is 2-A.
 Alpha  occ. eigenvalues --  -38.45641 -38.44682 -38.44446 -38.44358 -38.44218
 Alpha  occ. eigenvalues --  -38.43768 -38.43439  -2.21372  -2.20472  -2.20245
 Alpha  occ. eigenvalues --   -2.20118  -2.20009  -2.19592  -2.19252  -1.15070
 Alpha  occ. eigenvalues --   -1.15031  -1.14998  -1.14123  -1.14117  -1.14078
 Alpha  occ. eigenvalues --   -1.13945  -1.13900  -1.13863  -1.13786  -1.13767
 Alpha  occ. eigenvalues --   -1.13748  -1.13680  -1.13669  -1.13633  -1.13291
 Alpha  occ. eigenvalues --   -1.13265  -1.13249  -1.12905  -1.12898  -1.12869
 Alpha  occ. eigenvalues --   -0.15894  -0.13808  -0.12473  -0.10689
 Alpha virt. eigenvalues --   -0.06839  -0.05739  -0.04365  -0.03167  -0.02857
 Alpha virt. eigenvalues --   -0.02798  -0.02215  -0.01765  -0.00745  -0.00678
 Alpha virt. eigenvalues --   -0.00638  -0.00236   0.00131   0.00346   0.00582

  Beta  occ. eigenvalues --  -38.45645 -38.44599 -38.44400 -38.44323 -38.44206
  Beta  occ. eigenvalues --  -38.43753 -38.43396  -2.21383  -2.20316  -2.20162
  Beta  occ. eigenvalues --   -2.20053  -2.19990  -2.19570  -2.19175  -1.15081
  Beta  occ. eigenvalues --   -1.15041  -1.14985  -1.14016  -1.14012  -1.13975
  Beta  occ. eigenvalues --   -1.13884  -1.13845  -1.13803  -1.13741  -1.13727
  Beta  occ. eigenvalues --   -1.13703  -1.13672  -1.13659  -1.13590  -1.13277
  Beta  occ. eigenvalues --   -1.13245  -1.13210  -1.12849  -1.12846  -1.12819
  Beta  occ. eigenvalues --   -0.15442  -0.13032  -0.11837
  Beta virt. eigenvalues --   -0.07528  -0.06839  -0.05428  -0.04061  -0.02782
  Beta virt. eigenvalues --   -0.02645  -0.02444  -0.01896  -0.01593  -0.00578
  Beta virt. eigenvalues --   -0.00554  -0.00262   0.00092   0.00177   0.00390

 Mulliken charges and spin densities:
               1          2
     1  Na   0.239098  -0.010977
     2  Na   0.035151   0.090612
     3  Na   0.034359   0.150113
     4  Na   0.552702   0.098502
     5  Na  -0.122066   0.157251
     6  Na  -1.161319   0.107147
     7  Na   0.422074   0.407351
 Sum of Mulliken charges =  -0.00000   1.00000

 Dipole moment (field-independent basis, Debye):
    X=              0.8703    Y=             -0.6432    Z=              0.0888  Tot=              1.0859
 Quadrupole moment (field-independent basis, Debye-Ang):
   XX=            -62.0185   YY=            -70.0127   ZZ=            -66.7803
   XY=             -6.4975   XZ=             -1.2682   YZ=              4.2937

 Normal termination of Gaussian 16 at Sun Dec  3 23:05:05 2023.
