 Gaussian 16, Revision B.01,
 Gaussian 16:  ES64L-G16RevB.01 20-Dec-2017

 -------------------------
 #P B3LYP/6-311+g(d) force
 -------------------------

 -----
 DPGEN
 -----
 Symbolic Z-matrix:
 Charge =  0 Multiplicity = 2

                         Standard orientation:
 ---------------------------------------------------------------------
 Center     Atomic      Atomic             Coordinates (Angstroms)
 Number     Number       Type             X           Y           Z
 ---------------------------------------------------------------------
      1         11           0       -1.975827    2.269602    0.218823
      2         11           0        3.913442   -0.343975    0.905140
      3         11           0       -3.255486   -1.603460    0.701331
      4         11           0       -0.020404   -0.290210    1.791536
      5         11           0       -1.519103   -0.302281   -1.504011
      6         11           0        1.501198   -1.526045   -1.444719
      7         11           0        1.356181    1.796369   -0.668101
 ---------------------------------------------------------------------

 SCF Done:  E(UB3LYP) =  -1136.12526293     A.U. after   25 cycles

 The electronic state is 2-A.
 Alpha  occ. eigenvalues --  -38.44949 -38.44867 -38.44009 -38.43578 -38.43451
 Alpha  occ. eigenvalues --  -38.43083 -38.42986  -2.20735  -2.20720  -2.19888
 Alpha  occ. eigenvalues --   -2.19449  -2.19405  -2.18954  -2.18876  -1.14421
 Alpha  occ. eigenvalues --   -1.14400  -1.14395  -1.14365  -1.14357  -1.14326
 Alpha  occ. eigenvalues --   -1.13593  -1.13532  -1.13496  -1.13198  -1.13137
 Alpha  occ. eigenvalues --   -1.13107  -1.13053  -1.13042  -1.12984  -1.12642
 Alpha  occ. eigenvalues --   -1.12614  -1.12583  -1.12569  -1.12555  -1.12462
 Alpha  occ. eigenvalues --   -0.18666  -0.13868  -0.11506  -0.11002
 Alpha virt. eigenvalues --   -0.06728  -0.05038  -0.04568  -0.03179  -0.02679
 Alpha virt. eigenvalues --   -0.02416  -0.02266  -0.01107  -0.00862  -0.00021
 Alpha virt. eigenvalues --    0.00153   0.00256   0.00305   0.00672   0.00685

  Beta  occ. eigenvalues --  -38.44928 -38.44815 -38.43948 -38.43578 -38.43403
  Beta  occ. eigenvalues --  -38.43079 -38.42974  -2.20696  -2.20625  -2.19780
  Beta  occ. eigenvalues --   -2.19405  -2.19365  -2.18947  -2.18858  -1.14373
  Beta  occ. eigenvalues --   -1.14363  -1.14355  -1.14333  -1.14297  -1.14253
  Beta  occ. eigenvalues --   -1.13511  -1.13455  -1.13408  -1.13166  -1.13081
  Beta  occ. eigenvalues --   -1.13056  -1.13045  -1.13029  -1.12943  -1.12632
  Beta  occ. eigenvalues --   -1.12606  -1.12574  -1.12558  -1.12514  -1.12457
  Beta  occ. eigenvalues --   -0.17890  -0.13691  -0.10849
  Beta virt. eigenvalues --   -0.07511  -0.06457  -0.04969  -0.04032  -0.02876
  Beta virt. eigenvalues --   -0.02272  -0.01891  -0.01703  -0.00978  -0.00532
  Beta virt. eigenvalues --    0.00043   0.00186   0.00335   0.00428   0.00721

 Mulliken charges and spin densities:
               1          2
     1  Na   0.004773   0.035502
     2  Na   0.493361   0.131552
     3  Na  -0.053714   0.100857
     4  Na  -0.459001   0.452026
     5  Na   0.389741  -0.063614
     6  Na  -0.138731   0.188830
     7  Na  -0.236429   0.154847
 Sum of Mulliken charges =  -0.00000   1.00000

 Dipole moment (field-independent basis, Debye):
    X=              0.9575    Y=              0.0568    Z=              0.5792  Tot=              1.1205
 Quadrupole moment (field-independent basis, Debye-Ang):
   XX=            -50.4780   YY=            -75.5641   ZZ=            -68.2218
   XY=             -1.5693   XZ=              0.6115   YZ=              0.3612

 Normal termination of Gaussian 16 at Thu Dec  7 18:08:09 2023.
