 Gaussian 16, Revision B.01,
 Gaussian 16:  ES64L-G16RevB.01 20-Dec-2017

 -------------------------
 #P B3LYP/6-311+g(d) force
 -------------------------

 -----
 DPGEN
 -----
 Symbolic Z-matrix:
 Charge =  0 Multiplicity = 2

                         Standard orientation:
 ---------------------------------------------------------------------
 Center     Atomic      Atomic             Coordinates (Angstroms)
 Number     Number       Type             X           Y           Z
 ---------------------------------------------------------------------
      1         11           0       -3.165927    1.273616   -0.260530
      2         11           0        3.095984    0.760577    0.136182
      3         11           0        0.051058   -1.297919   -1.124723
      4         11           0       -0.226125    0.596575    1.431268
      5         11           0       -3.261623   -1.995305    0.261224
      6         11           0        3.002705   -1.986233    0.084082
      7         11           0        0.503928    2.648688   -0.527504
 ---------------------------------------------------------------------

 SCF Done:  E(UB3LYP) =  -1136.11326474     A.U. after   26 cycles

 The electronic state is 2-A.
 Alpha  occ. eigenvalues --  -38.45290 -38.44359 -38.44328 -38.43835 -38.43689
 Alpha  occ. eigenvalues --  -38.43524 -38.42760  -2.21241  -2.20195  -2.20132
 Alpha  occ. eigenvalues --   -2.19757  -2.19648  -2.19425  -2.18694  -1.14965
 Alpha  occ. eigenvalues --   -1.14894  -1.14858  -1.13881  -1.13868  -1.13830
 Alpha  occ. eigenvalues --   -1.13807  -1.13770  -1.13750  -1.13724  -1.13394
 Alpha  occ. eigenvalues --   -1.13371  -1.13288  -1.13261  -1.13168  -1.13117
 Alpha  occ. eigenvalues --   -1.13061  -1.13045  -1.12384  -1.12329  -1.12296
 Alpha  occ. eigenvalues --   -0.18621  -0.14395  -0.12237  -0.09570
 Alpha virt. eigenvalues --   -0.06783  -0.06322  -0.04214  -0.03149  -0.02992
 Alpha virt. eigenvalues --   -0.02428  -0.01882  -0.01126  -0.00966  -0.00307
 Alpha virt. eigenvalues --   -0.00090   0.00133   0.00506   0.00568   0.00682

  Beta  occ. eigenvalues --  -38.45282 -38.44324 -38.44312 -38.43808 -38.43642
  Beta  occ. eigenvalues --  -38.43519 -38.42691  -2.21229  -2.20133  -2.20105
  Beta  occ. eigenvalues --   -2.19712  -2.19568  -2.19418  -2.18567  -1.14943
  Beta  occ. eigenvalues --   -1.14876  -1.14862  -1.13842  -1.13833  -1.13792
  Beta  occ. eigenvalues --   -1.13769  -1.13735  -1.13713  -1.13676  -1.13364
  Beta  occ. eigenvalues --   -1.13309  -1.13236  -1.13190  -1.13127  -1.13106
  Beta  occ. eigenvalues --   -1.13044  -1.13034  -1.12295  -1.12239  -1.12221
  Beta  occ. eigenvalues --   -0.18126  -0.13727  -0.12046
  Beta virt. eigenvalues --   -0.06637  -0.06207  -0.06003  -0.04080  -0.02882
  Beta virt. eigenvalues --   -0.02288  -0.02161  -0.01587  -0.00915  -0.00731
  Beta virt. eigenvalues --   -0.00200   0.00088   0.00358   0.00641   0.00661

 Mulliken charges and spin densities:
               1          2
     1  Na   0.147528   0.355698
     2  Na   0.042786   0.466673
     3  Na  -0.745011   0.149431
     4  Na  -0.433062  -0.012362
     5  Na   0.265283   0.088324
     6  Na   0.556087   0.047672
     7  Na   0.166389  -0.095436
 Sum of Mulliken charges =  -0.00000   1.00000

 Dipole moment (field-independent basis, Debye):
    X=             -0.9228    Y=              0.0082    Z=             -0.2635  Tot=              0.9597
 Quadrupole moment (field-independent basis, Debye-Ang):
   XX=            -76.8477   YY=            -64.8580   ZZ=            -65.1307
   XY=              1.3965   XZ=             -0.2909   YZ=             -4.8552

 Normal termination of Gaussian 16 at Wed Dec  6 01:05:18 2023.
