 Gaussian 16, Revision B.01,
 Gaussian 16:  ES64L-G16RevB.01 20-Dec-2017

 -------------------------
 #P B3LYP/6-311+g(d) force
 -------------------------

 -----
 DPGEN
 -----
 Symbolic Z-matrix:
 Charge =  0 Multiplicity = 2

                         Standard orientation:
 ---------------------------------------------------------------------
 Center     Atomic      Atomic             Coordinates (Angstroms)
 Number     Number       Type             X           Y           Z
 ---------------------------------------------------------------------
      1         11           0       -2.266212   -1.553506   -0.421984
      2         11           0       -5.832107   -0.500892    1.059015
      3         11           0       -3.784622    2.146324    0.102416
      4         11           0       -0.503864    1.059448   -1.162140
      5         11           0        1.091681   -1.819337   -0.272281
      6         11           0        4.275625    0.177709   -0.160692
      7         11           0        7.019498    0.490253    0.855665
 ---------------------------------------------------------------------

 SCF Done:  E(UB3LYP) =  -1136.11659252     A.U. after   21 cycles

 The electronic state is 2-A.
 Alpha  occ. eigenvalues --  -38.45051 -38.44377 -38.44355 -38.44246 -38.44230
 Alpha  occ. eigenvalues --  -38.44121 -38.43868  -2.20885  -2.20244  -2.20159
 Alpha  occ. eigenvalues --   -2.20081  -2.20029  -2.19904  -2.19693  -1.14595
 Alpha  occ. eigenvalues --   -1.14577  -1.14471  -1.13930  -1.13912  -1.13892
 Alpha  occ. eigenvalues --   -1.13847  -1.13803  -1.13803  -1.13748  -1.13737
 Alpha  occ. eigenvalues --   -1.13711  -1.13704  -1.13686  -1.13660  -1.13566
 Alpha  occ. eigenvalues --   -1.13555  -1.13520  -1.13352  -1.13349  -1.13318
 Alpha  occ. eigenvalues --   -0.16885  -0.14029  -0.12356  -0.10989
 Alpha virt. eigenvalues --   -0.07182  -0.05379  -0.04060  -0.03980  -0.02841
 Alpha virt. eigenvalues --   -0.02775  -0.02479  -0.01475  -0.01310  -0.00919
 Alpha virt. eigenvalues --   -0.00500  -0.00139   0.00119   0.00320   0.00575

  Beta  occ. eigenvalues --  -38.45022 -38.44359 -38.44317 -38.44226 -38.44195
  Beta  occ. eigenvalues --  -38.44080 -38.43866  -2.20834  -2.20167  -2.20136
  Beta  occ. eigenvalues --   -2.20045  -2.19968  -2.19827  -2.19691  -1.14549
  Beta  occ. eigenvalues --   -1.14538  -1.14431  -1.13897  -1.13860  -1.13842
  Beta  occ. eigenvalues --   -1.13808  -1.13808  -1.13759  -1.13723  -1.13700
  Beta  occ. eigenvalues --   -1.13674  -1.13673  -1.13646  -1.13592  -1.13513
  Beta  occ. eigenvalues --   -1.13498  -1.13472  -1.13348  -1.13347  -1.13320
  Beta  occ. eigenvalues --   -0.16255  -0.13851  -0.12204
  Beta virt. eigenvalues --   -0.07176  -0.07020  -0.04753  -0.03882  -0.03799
  Beta virt. eigenvalues --   -0.02622  -0.02424  -0.01992  -0.01420  -0.01197
  Beta virt. eigenvalues --   -0.00582  -0.00102   0.00113   0.00206   0.00471

 Mulliken charges and spin densities:
               1          2
     1  Na  -0.104768   0.163708
     2  Na   0.403347   0.233860
     3  Na   0.028843   0.041310
     4  Na  -0.295191   0.441561
     5  Na   0.063413   0.129353
     6  Na  -0.260912  -0.027969
     7  Na   0.165267   0.018177
 Sum of Mulliken charges =  -0.00000   1.00000

 Dipole moment (field-independent basis, Debye):
    X=             -0.0078    Y=             -0.1782    Z=              0.1598  Tot=              0.2395
 Quadrupole moment (field-independent basis, Debye-Ang):
   XX=            -56.3488   YY=            -68.6606   ZZ=            -71.6281
   XY=              0.3444   XZ=              1.1981   YZ=              0.4663

 Normal termination of Gaussian 16 at Wed Nov 29 02:06:19 2023.
