 Gaussian 16, Revision B.01,
 Gaussian 16:  ES64L-G16RevB.01 20-Dec-2017

 -------------------------
 #P B3LYP/6-311+g(d) force
 -------------------------

 -----
 DPGEN
 -----
 Symbolic Z-matrix:
 Charge =  0 Multiplicity = 2

                         Standard orientation:
 ---------------------------------------------------------------------
 Center     Atomic      Atomic             Coordinates (Angstroms)
 Number     Number       Type             X           Y           Z
 ---------------------------------------------------------------------
      1         11           0        0.666312   -2.505641   -0.296123
      2         11           0        3.462181   -0.547005    0.252097
      3         11           0       -0.704156   -0.420740   -1.712250
      4         11           0       -1.563215    2.234987   -0.244657
      5         11           0        2.087452    1.919526   -0.282986
      6         11           0       -0.056472    0.026835    1.881393
      7         11           0       -3.892102   -0.707963    0.402526
 ---------------------------------------------------------------------

 SCF Done:  E(UB3LYP) =  -1136.11696673     A.U. after   25 cycles

 The electronic state is 2-A.
 Alpha  occ. eigenvalues --  -38.45871 -38.44952 -38.44669 -38.43390 -38.43298
 Alpha  occ. eigenvalues --  -38.43267 -38.42773  -2.21614  -2.20810  -2.20538
 Alpha  occ. eigenvalues --   -2.19279  -2.19270  -2.19142  -2.18680  -1.15284
 Alpha  occ. eigenvalues --   -1.15271  -1.15231  -1.14562  -1.14449  -1.14420
 Alpha  occ. eigenvalues --   -1.14235  -1.14189  -1.14142  -1.13056  -1.12971
 Alpha  occ. eigenvalues --   -1.12969  -1.12918  -1.12905  -1.12861  -1.12816
 Alpha  occ. eigenvalues --   -1.12801  -1.12738  -1.12368  -1.12326  -1.12275
 Alpha  occ. eigenvalues --   -0.18583  -0.13712  -0.11653  -0.10672
 Alpha virt. eigenvalues --   -0.07417  -0.04956  -0.03854  -0.03410  -0.02999
 Alpha virt. eigenvalues --   -0.02469  -0.02356  -0.01208  -0.00369  -0.00209
 Alpha virt. eigenvalues --   -0.00033   0.00110   0.00421   0.00739   0.00829

  Beta  occ. eigenvalues --  -38.45845 -38.44951 -38.44615 -38.43390 -38.43253
  Beta  occ. eigenvalues --  -38.43216 -38.42761  -2.21566  -2.20809  -2.20436
  Beta  occ. eigenvalues --   -2.19274  -2.19131  -2.19120  -2.18663  -1.15243
  Beta  occ. eigenvalues --   -1.15236  -1.15201  -1.14567  -1.14434  -1.14422
  Beta  occ. eigenvalues --   -1.14163  -1.14121  -1.14064  -1.12975  -1.12957
  Beta  occ. eigenvalues --   -1.12919  -1.12898  -1.12882  -1.12793  -1.12759
  Beta  occ. eigenvalues --   -1.12743  -1.12717  -1.12348  -1.12288  -1.12268
  Beta  occ. eigenvalues --   -0.17921  -0.13466  -0.11376
  Beta virt. eigenvalues --   -0.07274  -0.06848  -0.04929  -0.03663  -0.02978
  Beta virt. eigenvalues --   -0.02660  -0.01798  -0.01439  -0.01141  -0.00276
  Beta virt. eigenvalues --   -0.00085  -0.00040   0.00165   0.00588   0.00795

 Mulliken charges and spin densities:
               1          2
     1  Na   0.350159  -0.070555
     2  Na   0.107388   0.067173
     3  Na  -0.130404   0.268851
     4  Na   0.087285   0.070201
     5  Na   0.008003  -0.052924
     6  Na  -0.473365   0.619303
     7  Na   0.050934   0.097952
 Sum of Mulliken charges =  -0.00000   1.00000

 Dipole moment (field-independent basis, Debye):
    X=             -0.7751    Y=             -0.2202    Z=              0.3146  Tot=              0.8650
 Quadrupole moment (field-independent basis, Debye-Ang):
   XX=            -46.6249   YY=            -72.8477   ZZ=            -73.4749
   XY=             -0.1090   XZ=             -0.4403   YZ=             -1.6079

 Normal termination of Gaussian 16 at Tue Dec  5 20:03:25 2023.
