 Gaussian 16, Revision B.01,
 Gaussian 16:  ES64L-G16RevB.01 20-Dec-2017

 -------------------------
 #P B3LYP/6-311+g(d) force
 -------------------------

 -----
 DPGEN
 -----
 Symbolic Z-matrix:
 Charge =  0 Multiplicity = 2

                         Standard orientation:
 ---------------------------------------------------------------------
 Center     Atomic      Atomic             Coordinates (Angstroms)
 Number     Number       Type             X           Y           Z
 ---------------------------------------------------------------------
      1         11           0       -2.713793    0.961096   -0.354051
      2         11           0        2.934558    1.189659   -0.180919
      3         11           0        0.090468   -0.099988   -1.596179
      4         11           0       -0.260050   -0.330160    2.060458
      5         11           0       -0.204448    2.894620    0.238297
      6         11           0       -2.407243   -2.304747   -0.146586
      7         11           0        2.560508   -2.310481   -0.021021
 ---------------------------------------------------------------------

 SCF Done:  E(UB3LYP) =  -1136.13429630     A.U. after   20 cycles

 The electronic state is 2-A.
 Alpha  occ. eigenvalues --  -38.44298 -38.44226 -38.43908 -38.43767 -38.43609
 Alpha  occ. eigenvalues --  -38.43407 -38.42849  -2.20114  -2.20001  -2.19727
 Alpha  occ. eigenvalues --   -2.19681  -2.19472  -2.19350  -2.18718  -1.13801
 Alpha  occ. eigenvalues --   -1.13778  -1.13747  -1.13675  -1.13654  -1.13641
 Alpha  occ. eigenvalues --   -1.13427  -1.13392  -1.13384  -1.13372  -1.13337
 Alpha  occ. eigenvalues --   -1.13288  -1.13141  -1.13093  -1.13090  -1.13040
 Alpha  occ. eigenvalues --   -1.12981  -1.12976  -1.12393  -1.12372  -1.12366
 Alpha  occ. eigenvalues --   -0.18418  -0.13310  -0.12081  -0.10591
 Alpha virt. eigenvalues --   -0.05944  -0.05561  -0.04453  -0.03260  -0.02759
 Alpha virt. eigenvalues --   -0.02455  -0.01690  -0.01345  -0.00680  -0.00301
 Alpha virt. eigenvalues --   -0.00007   0.00332   0.00726   0.00763   0.00890

  Beta  occ. eigenvalues --  -38.44294 -38.44228 -38.43905 -38.43754 -38.43510
  Beta  occ. eigenvalues --  -38.43351 -38.42844  -2.20110  -2.20006  -2.19725
  Beta  occ. eigenvalues --   -2.19661  -2.19289  -2.19248  -2.18710  -1.13790
  Beta  occ. eigenvalues --   -1.13767  -1.13748  -1.13671  -1.13655  -1.13644
  Beta  occ. eigenvalues --   -1.13425  -1.13385  -1.13363  -1.13362  -1.13292
  Beta  occ. eigenvalues --   -1.13282  -1.13023  -1.12967  -1.12964  -1.12957
  Beta  occ. eigenvalues --   -1.12905  -1.12900  -1.12391  -1.12368  -1.12337
  Beta  occ. eigenvalues --   -0.17690  -0.13095  -0.11880
  Beta virt. eigenvalues --   -0.06663  -0.05963  -0.05445  -0.04442  -0.02518
  Beta virt. eigenvalues --   -0.01989  -0.01598  -0.01496  -0.01200  -0.00729
  Beta virt. eigenvalues --   -0.00322   0.00144   0.00370   0.00754   0.00821

 Mulliken charges and spin densities:
               1          2
     1  Na   0.384416   0.153893
     2  Na   0.106123   0.001796
     3  Na  -0.037874   0.242963
     4  Na  -0.485972   0.709562
     5  Na  -0.014574   0.042980
     6  Na   0.081480  -0.062893
     7  Na  -0.033598  -0.088301
 Sum of Mulliken charges =  -0.00000   1.00000

 Dipole moment (field-independent basis, Debye):
    X=              0.3497    Y=             -0.4415    Z=              0.0480  Tot=              0.5653
 Quadrupole moment (field-independent basis, Debye-Ang):
   XX=            -56.0510   YY=            -61.7938   ZZ=            -75.4435
   XY=              0.7176   XZ=              0.7502   YZ=              0.4083

 Normal termination of Gaussian 16 at Thu Dec  7 04:28:13 2023.
