 Gaussian 16, Revision B.01,
 Gaussian 16:  ES64L-G16RevB.01 20-Dec-2017

 -------------------------
 #P B3LYP/6-311+g(d) force
 -------------------------

 -----
 DPGEN
 -----
 Symbolic Z-matrix:
 Charge =  0 Multiplicity = 2

                         Standard orientation:
 ---------------------------------------------------------------------
 Center     Atomic      Atomic             Coordinates (Angstroms)
 Number     Number       Type             X           Y           Z
 ---------------------------------------------------------------------
      1         11           0        1.839679    1.564813   -1.045885
      2         11           0       -1.223253    2.774684    0.187980
      3         11           0       -3.591435    0.666192    0.636741
      4         11           0        4.553415   -0.521052   -1.075991
      5         11           0       -4.825757   -2.490440   -1.072482
      6         11           0       -0.142300   -0.006206    1.095003
      7         11           0        3.389652   -1.987992    1.274635
 ---------------------------------------------------------------------

 SCF Done:  E(UB3LYP) =  -1136.10853263     A.U. after   23 cycles

 The electronic state is 2-A.
 Alpha  occ. eigenvalues --  -38.45179 -38.44731 -38.44651 -38.44274 -38.44171
 Alpha  occ. eigenvalues --  -38.44119 -38.43824  -2.21052  -2.20621  -2.20490
 Alpha  occ. eigenvalues --   -2.20032  -2.20002  -2.19925  -2.19684  -1.14742
 Alpha  occ. eigenvalues --   -1.14718  -1.14686  -1.14287  -1.14279  -1.14246
 Alpha  occ. eigenvalues --   -1.14204  -1.14147  -1.14138  -1.13685  -1.13684
 Alpha  occ. eigenvalues --   -1.13652  -1.13647  -1.13640  -1.13629  -1.13625
 Alpha  occ. eigenvalues --   -1.13606  -1.13557  -1.13375  -1.13355  -1.13282
 Alpha  occ. eigenvalues --   -0.17336  -0.14571  -0.11886  -0.10665
 Alpha virt. eigenvalues --   -0.07433  -0.05935  -0.04337  -0.03793  -0.02875
 Alpha virt. eigenvalues --   -0.02836  -0.02019  -0.01442  -0.01290  -0.00862
 Alpha virt. eigenvalues --   -0.00201  -0.00084  -0.00031   0.00348   0.00453

  Beta  occ. eigenvalues --  -38.45148 -38.44726 -38.44647 -38.44199 -38.44146
  Beta  occ. eigenvalues --  -38.44132 -38.43784  -2.20993  -2.20610  -2.20485
  Beta  occ. eigenvalues --   -2.19980  -2.19929  -2.19890  -2.19609  -1.14700
  Beta  occ. eigenvalues --   -1.14690  -1.14635  -1.14287  -1.14259  -1.14250
  Beta  occ. eigenvalues --   -1.14195  -1.14146  -1.14119  -1.13665  -1.13645
  Beta  occ. eigenvalues --   -1.13604  -1.13600  -1.13588  -1.13587  -1.13578
  Beta  occ. eigenvalues --   -1.13575  -1.13540  -1.13322  -1.13304  -1.13232
  Beta  occ. eigenvalues --   -0.17090  -0.14362  -0.11372
  Beta virt. eigenvalues --   -0.07386  -0.07021  -0.05255  -0.04117  -0.03664
  Beta virt. eigenvalues --   -0.02710  -0.02452  -0.01743  -0.01169  -0.00926
  Beta virt. eigenvalues --   -0.00568  -0.00040   0.00017   0.00202   0.00512

 Mulliken charges and spin densities:
               1          2
     1  Na   0.151251   0.288961
     2  Na   0.844705   0.068793
     3  Na   0.393905  -0.159356
     4  Na  -0.065443  -0.049997
     5  Na   0.151145   0.398462
     6  Na  -1.592773   0.306178
     7  Na   0.117210   0.146958
 Sum of Mulliken charges =  -0.00000   1.00000

 Dipole moment (field-independent basis, Debye):
    X=              0.8302    Y=              0.8874    Z=              0.0335  Tot=              1.2156
 Quadrupole moment (field-independent basis, Debye-Ang):
   XX=            -68.7502   YY=            -63.5342   ZZ=            -71.4145
   XY=             -7.2481   XZ=             -1.6052   YZ=              2.9356

 Normal termination of Gaussian 16 at Tue Nov 28 23:21:37 2023.
