 Gaussian 16, Revision B.01,
 Gaussian 16:  ES64L-G16RevB.01 20-Dec-2017

 -------------------------
 #P B3LYP/6-311+g(d) force
 -------------------------

 -----
 DPGEN
 -----
 Symbolic Z-matrix:
 Charge =  0 Multiplicity = 2

                         Standard orientation:
 ---------------------------------------------------------------------
 Center     Atomic      Atomic             Coordinates (Angstroms)
 Number     Number       Type             X           Y           Z
 ---------------------------------------------------------------------
      1         11           0       -2.650603   -0.216162   -1.770294
      2         11           0        0.695845   -3.008995   -1.824986
      3         11           0       -1.495818    3.199545   -0.208660
      4         11           0        2.325377    2.317144   -0.302095
      5         11           0        3.317029   -0.610417    0.873342
      6         11           0       -0.073287   -0.302262    0.449638
      7         11           0       -2.118544   -1.378852    2.783054
 ---------------------------------------------------------------------

 SCF Done:  E(UB3LYP) =  -1136.11671386     A.U. after   21 cycles

 The electronic state is 2-A.
 Alpha  occ. eigenvalues --  -38.45088 -38.44784 -38.44557 -38.43923 -38.43735
 Alpha  occ. eigenvalues --  -38.43730 -38.42845  -2.20895  -2.20546  -2.20311
 Alpha  occ. eigenvalues --   -2.19726  -2.19525  -2.19485  -2.18784  -1.14543
 Alpha  occ. eigenvalues --   -1.14508  -1.14496  -1.14226  -1.14208  -1.14160
 Alpha  occ. eigenvalues --   -1.13975  -1.13947  -1.13938  -1.13407  -1.13395
 Alpha  occ. eigenvalues --   -1.13363  -1.13208  -1.13194  -1.13170  -1.13148
 Alpha  occ. eigenvalues --   -1.13135  -1.13124  -1.12523  -1.12437  -1.12417
 Alpha  occ. eigenvalues --   -0.16802  -0.12724  -0.11782  -0.11519
 Alpha virt. eigenvalues --   -0.06149  -0.05299  -0.04976  -0.03118  -0.02815
 Alpha virt. eigenvalues --   -0.02607  -0.01431  -0.01369  -0.01163  -0.00606
 Alpha virt. eigenvalues --   -0.00376   0.00222   0.00301   0.00448   0.00747

  Beta  occ. eigenvalues --  -38.44958 -38.44762 -38.44504 -38.43927 -38.43740
  Beta  occ. eigenvalues --  -38.43736 -38.42834  -2.20654  -2.20505  -2.20212
  Beta  occ. eigenvalues --   -2.19732  -2.19536  -2.19495  -2.18768  -1.14375
  Beta  occ. eigenvalues --   -1.14345  -1.14335  -1.14198  -1.14180  -1.14128
  Beta  occ. eigenvalues --   -1.13906  -1.13884  -1.13868  -1.13411  -1.13399
  Beta  occ. eigenvalues --   -1.13367  -1.13214  -1.13201  -1.13174  -1.13158
  Beta  occ. eigenvalues --   -1.13143  -1.13132  -1.12461  -1.12434  -1.12416
  Beta  occ. eigenvalues --   -0.16341  -0.12360  -0.11494
  Beta virt. eigenvalues --   -0.07608  -0.05866  -0.05192  -0.04614  -0.02788
  Beta virt. eigenvalues --   -0.02425  -0.02101  -0.01355  -0.01096  -0.00751
  Beta virt. eigenvalues --   -0.00512  -0.00172   0.00347   0.00420   0.00687

 Mulliken charges and spin densities:
               1          2
     1  Na   0.335964   0.213301
     2  Na   0.010983   0.330711
     3  Na   0.128550   0.062615
     4  Na   0.439296  -0.179559
     5  Na   0.540370  -0.083702
     6  Na  -1.899043   0.103202
     7  Na   0.443880   0.553432
 Sum of Mulliken charges =  -0.00000   1.00000

 Dipole moment (field-independent basis, Debye):
    X=             -0.2843    Y=             -0.4685    Z=             -0.1779  Tot=              0.5761
 Quadrupole moment (field-independent basis, Debye-Ang):
   XX=            -59.8794   YY=            -65.8397   ZZ=            -66.6240
   XY=             -1.1778   XZ=              0.3509   YZ=              0.2138

 Normal termination of Gaussian 16 at Tue Dec  5 14:13:18 2023.
