 Gaussian 16, Revision B.01,
 Gaussian 16:  ES64L-G16RevB.01 20-Dec-2017

 -------------------------
 #P B3LYP/6-311+g(d) force
 -------------------------

 -----
 DPGEN
 -----
 Symbolic Z-matrix:
 Charge =  0 Multiplicity = 2

                         Standard orientation:
 ---------------------------------------------------------------------
 Center     Atomic      Atomic             Coordinates (Angstroms)
 Number     Number       Type             X           Y           Z
 ---------------------------------------------------------------------
      1         11           0        0.523460   -2.197564    0.309403
      2         11           0        1.617647    1.934784    0.393201
      3         11           0       -2.000686   -0.328028    1.882513
      4         11           0        3.798911   -0.653054    0.220839
      5         11           0        0.769086    0.079303   -1.670312
      6         11           0       -3.150514   -1.003656   -1.032732
      7         11           0       -1.557904    2.168216   -0.102912
 ---------------------------------------------------------------------

 SCF Done:  E(UB3LYP) =  -1136.12205911     A.U. after   22 cycles

 The electronic state is 2-A.
 Alpha  occ. eigenvalues --  -38.45089 -38.44965 -38.43760 -38.43684 -38.43656
 Alpha  occ. eigenvalues --  -38.43209 -38.42842  -2.20894  -2.20774  -2.19753
 Alpha  occ. eigenvalues --   -2.19586  -2.19511  -2.19133  -2.18746  -1.14569
 Alpha  occ. eigenvalues --   -1.14553  -1.14519  -1.14454  -1.14428  -1.14409
 Alpha  occ. eigenvalues --   -1.13518  -1.13483  -1.13332  -1.13250  -1.13245
 Alpha  occ. eigenvalues --   -1.13211  -1.13196  -1.13177  -1.13083  -1.12834
 Alpha  occ. eigenvalues --   -1.12778  -1.12746  -1.12433  -1.12404  -1.12373
 Alpha  occ. eigenvalues --   -0.18607  -0.14113  -0.11615  -0.10557
 Alpha virt. eigenvalues --   -0.06964  -0.05088  -0.04348  -0.03378  -0.02706
 Alpha virt. eigenvalues --   -0.02348  -0.02205  -0.01067  -0.00432  -0.00103
 Alpha virt. eigenvalues --    0.00099   0.00208   0.00397   0.00754   0.00836

  Beta  occ. eigenvalues --  -38.45083 -38.44950 -38.43697 -38.43643 -38.43620
  Beta  occ. eigenvalues --  -38.43204 -38.42832  -2.20884  -2.20750  -2.19640
  Beta  occ. eigenvalues --   -2.19492  -2.19466  -2.19126  -2.18733  -1.14557
  Beta  occ. eigenvalues --   -1.14546  -1.14514  -1.14432  -1.14406  -1.14385
  Beta  occ. eigenvalues --   -1.13451  -1.13405  -1.13250  -1.13192  -1.13166
  Beta  occ. eigenvalues --   -1.13155  -1.13133  -1.13116  -1.13071  -1.12821
  Beta  occ. eigenvalues --   -1.12764  -1.12740  -1.12423  -1.12372  -1.12359
  Beta  occ. eigenvalues --   -0.17952  -0.13889  -0.11406
  Beta virt. eigenvalues --   -0.06869  -0.06688  -0.05012  -0.03802  -0.03219
  Beta virt. eigenvalues --   -0.02480  -0.01715  -0.01360  -0.00994  -0.00152
  Beta virt. eigenvalues --   -0.00062   0.00109   0.00269   0.00579   0.00843

 Mulliken charges and spin densities:
               1          2
     1  Na  -0.279063   0.139436
     2  Na  -0.077750   0.090017
     3  Na  -0.159874   0.227092
     4  Na   0.552753  -0.079046
     5  Na  -0.488645   0.373041
     6  Na   0.211919   0.060616
     7  Na   0.240658   0.188843
 Sum of Mulliken charges =  -0.00000   1.00000

 Dipole moment (field-independent basis, Debye):
    X=              0.5086    Y=             -0.4290    Z=             -0.1778  Tot=              0.6887
 Quadrupole moment (field-independent basis, Debye-Ang):
   XX=            -46.3131   YY=            -74.6314   ZZ=            -71.8033
   XY=             -0.0862   XZ=              3.9491   YZ=              0.9283

 Normal termination of Gaussian 16 at Sat Dec  9 07:25:33 2023.
