 Gaussian 16, Revision B.01,
 Gaussian 16:  ES64L-G16RevB.01 20-Dec-2017

 -------------------------
 #P B3LYP/6-311+g(d) force
 -------------------------

 -----
 DPGEN
 -----
 Symbolic Z-matrix:
 Charge =  0 Multiplicity = 2

                         Standard orientation:
 ---------------------------------------------------------------------
 Center     Atomic      Atomic             Coordinates (Angstroms)
 Number     Number       Type             X           Y           Z
 ---------------------------------------------------------------------
      1         11           0        0.073067    3.922569    0.094391
      2         11           0       -4.562145   -0.796706   -0.098365
      3         11           0       -2.691999    2.526719   -0.501528
      4         11           0        3.628644   -0.820568   -0.969457
      5         11           0        1.665745   -3.746248   -0.124610
      6         11           0       -1.575672   -3.147615    0.718269
      7         11           0        3.462359    2.061849    0.881299
 ---------------------------------------------------------------------

 SCF Done:  E(UB3LYP) =  -1136.10694882     A.U. after   23 cycles

 The electronic state is 2-A.
 Alpha  occ. eigenvalues --  -38.45299 -38.45123 -38.44846 -38.44691 -38.44220
 Alpha  occ. eigenvalues --  -38.44164 -38.44039  -2.21038  -2.20884  -2.20614
 Alpha  occ. eigenvalues --   -2.20474  -2.20023  -2.19942  -2.19836  -1.14729
 Alpha  occ. eigenvalues --   -1.14718  -1.14669  -1.14563  -1.14554  -1.14524
 Alpha  occ. eigenvalues --   -1.14280  -1.14264  -1.14245  -1.14164  -1.14148
 Alpha  occ. eigenvalues --   -1.14115  -1.13682  -1.13679  -1.13647  -1.13595
 Alpha  occ. eigenvalues --   -1.13575  -1.13571  -1.13494  -1.13487  -1.13471
 Alpha  occ. eigenvalues --   -0.15338  -0.13772  -0.13529  -0.10996
 Alpha virt. eigenvalues --   -0.07716  -0.04763  -0.04655  -0.03503  -0.03474
 Alpha virt. eigenvalues --   -0.02355  -0.02246  -0.01786  -0.01635  -0.00951
 Alpha virt. eigenvalues --   -0.00749  -0.00296   0.00174   0.00330   0.00514

  Beta  occ. eigenvalues --  -38.45293 -38.45114 -38.44812 -38.44671 -38.44177
  Beta  occ. eigenvalues --  -38.44088 -38.43996  -2.21033  -2.20871  -2.20553
  Beta  occ. eigenvalues --   -2.20443  -2.19947  -2.19801  -2.19757  -1.14731
  Beta  occ. eigenvalues --   -1.14719  -1.14629  -1.14557  -1.14547  -1.14494
  Beta  occ. eigenvalues --   -1.14240  -1.14226  -1.14195  -1.14136  -1.14133
  Beta  occ. eigenvalues --   -1.14064  -1.13629  -1.13628  -1.13585  -1.13500
  Beta  occ. eigenvalues --   -1.13482  -1.13475  -1.13441  -1.13434  -1.13418
  Beta  occ. eigenvalues --   -0.14825  -0.12990  -0.12698
  Beta virt. eigenvalues --   -0.07961  -0.07886  -0.04349  -0.04157  -0.03261
  Beta virt. eigenvalues --   -0.03244  -0.02129  -0.01920  -0.01591  -0.01463
  Beta virt. eigenvalues --   -0.00626  -0.00546  -0.00087   0.00220   0.00307

 Mulliken charges and spin densities:
               1          2
     1  Na  -0.091323   0.072470
     2  Na   0.282455   0.390112
     3  Na   0.056402   0.111850
     4  Na  -0.269491   0.051610
     5  Na   0.257332   0.160361
     6  Na  -0.208302   0.062649
     7  Na  -0.027072   0.150948
 Sum of Mulliken charges =  -0.00000   1.00000

 Dipole moment (field-independent basis, Debye):
    X=              0.7536    Y=             -0.0156    Z=              0.0661  Tot=              0.7567
 Quadrupole moment (field-independent basis, Debye-Ang):
   XX=            -63.8140   YY=            -66.5494   ZZ=            -70.4058
   XY=              0.8956   XZ=             -0.0729   YZ=              1.4066

 Normal termination of Gaussian 16 at Mon Dec  4 04:23:24 2023.
