 Gaussian 16, Revision B.01,
 Gaussian 16:  ES64L-G16RevB.01 20-Dec-2017

 -------------------------
 #P B3LYP/6-311+g(d) force
 -------------------------

 -----
 DPGEN
 -----
 Symbolic Z-matrix:
 Charge =  0 Multiplicity = 2

                         Standard orientation:
 ---------------------------------------------------------------------
 Center     Atomic      Atomic             Coordinates (Angstroms)
 Number     Number       Type             X           Y           Z
 ---------------------------------------------------------------------
      1         11           0        0.723197    2.712130    0.210008
      2         11           0       -2.603133    1.374792   -0.078880
      3         11           0       -2.735811   -1.790370   -0.097726
      4         11           0        0.057791    0.123835    1.660116
      5         11           0        1.467158   -2.422542    0.388908
      6         11           0       -0.025319   -0.082645   -1.654652
      7         11           0        3.116119    0.084801   -0.427774
 ---------------------------------------------------------------------

 SCF Done:  E(UB3LYP) =  -1136.13347045     A.U. after   20 cycles

 The electronic state is 2-A.
 Alpha  occ. eigenvalues --  -38.44244 -38.43959 -38.43906 -38.43344 -38.43257
 Alpha  occ. eigenvalues --  -38.42999 -38.42834  -2.20128  -2.19805  -2.19789
 Alpha  occ. eigenvalues --   -2.19250  -2.19244  -2.19032  -2.18736  -1.13811
 Alpha  occ. eigenvalues --   -1.13791  -1.13761  -1.13549  -1.13483  -1.13463
 Alpha  occ. eigenvalues --   -1.13449  -1.13425  -1.13376  -1.12986  -1.12945
 Alpha  occ. eigenvalues --   -1.12909  -1.12879  -1.12862  -1.12856  -1.12739
 Alpha  occ. eigenvalues --   -1.12679  -1.12634  -1.12403  -1.12385  -1.12353
 Alpha  occ. eigenvalues --   -0.19170  -0.13669  -0.12214  -0.10602
 Alpha virt. eigenvalues --   -0.05891  -0.05247  -0.04274  -0.03361  -0.02591
 Alpha virt. eigenvalues --   -0.02194  -0.01813  -0.01107  -0.00313  -0.00126
 Alpha virt. eigenvalues --    0.00043   0.00344   0.00775   0.00887   0.00906

  Beta  occ. eigenvalues --  -38.44230 -38.43958 -38.43900 -38.43331 -38.43190
  Beta  occ. eigenvalues --  -38.42917 -38.42826  -2.20106  -2.19798  -2.19790
  Beta  occ. eigenvalues --   -2.19225  -2.19128  -2.18883  -2.18725  -1.13801
  Beta  occ. eigenvalues --   -1.13758  -1.13741  -1.13551  -1.13472  -1.13443
  Beta  occ. eigenvalues --   -1.13437  -1.13420  -1.13375  -1.12947  -1.12879
  Beta  occ. eigenvalues --   -1.12866  -1.12857  -1.12786  -1.12768  -1.12646
  Beta  occ. eigenvalues --   -1.12577  -1.12531  -1.12381  -1.12359  -1.12337
  Beta  occ. eigenvalues --   -0.18456  -0.13401  -0.11938
  Beta virt. eigenvalues --   -0.06698  -0.05815  -0.05253  -0.04259  -0.02567
  Beta virt. eigenvalues --   -0.01847  -0.01703  -0.01181  -0.01039  -0.00331
  Beta virt. eigenvalues --   -0.00147   0.00157   0.00370   0.00826   0.00875

 Mulliken charges and spin densities:
               1          2
     1  Na   0.153461  -0.035422
     2  Na   0.171403  -0.036386
     3  Na  -0.007031  -0.082644
     4  Na  -0.260234   0.572091
     5  Na   0.068210  -0.043384
     6  Na  -0.323633   0.539191
     7  Na   0.197823   0.086555
 Sum of Mulliken charges =  -0.00000   1.00000

 Dipole moment (field-independent basis, Debye):
    X=             -0.0964    Y=             -0.1037    Z=             -0.1123  Tot=              0.1807
 Quadrupole moment (field-independent basis, Debye-Ang):
   XX=            -53.2566   YY=            -63.8940   ZZ=            -75.4049
   XY=              0.7884   XZ=             -0.6127   YZ=             -0.6411

 Normal termination of Gaussian 16 at Wed Nov 29 01:20:07 2023.
