 Gaussian 16, Revision B.01,
 Gaussian 16:  ES64L-G16RevB.01 20-Dec-2017

 -------------------------
 #P B3LYP/6-311+g(d) force
 -------------------------

 -----
 DPGEN
 -----
 Symbolic Z-matrix:
 Charge =  0 Multiplicity = 2

                         Standard orientation:
 ---------------------------------------------------------------------
 Center     Atomic      Atomic             Coordinates (Angstroms)
 Number     Number       Type             X           Y           Z
 ---------------------------------------------------------------------
      1         11           0        2.222041   -2.168872    0.242841
      2         11           0       -0.380658    0.410861    2.109595
      3         11           0       -1.279340   -2.438634   -0.151635
      4         11           0        2.718431    1.360867   -0.135575
      5         11           0        0.420181   -0.139672   -1.520775
      6         11           0       -0.511783    2.877555   -0.246236
      7         11           0       -3.188872    0.097895   -0.298216
 ---------------------------------------------------------------------

 SCF Done:  E(UB3LYP) =  -1136.13671208     A.U. after   20 cycles

 The electronic state is 2-A.
 Alpha  occ. eigenvalues --  -38.44018 -38.43978 -38.43624 -38.43555 -38.43476
 Alpha  occ. eigenvalues --  -38.43301 -38.43071  -2.19851  -2.19837  -2.19468
 Alpha  occ. eigenvalues --   -2.19431  -2.19323  -2.19199  -2.19098  -1.13564
 Alpha  occ. eigenvalues --   -1.13538  -1.13511  -1.13490  -1.13487  -1.13453
 Alpha  occ. eigenvalues --   -1.13161  -1.13125  -1.13108  -1.13101  -1.13070
 Alpha  occ. eigenvalues --   -1.13049  -1.13008  -1.12980  -1.12947  -1.12935
 Alpha  occ. eigenvalues --   -1.12850  -1.12825  -1.12767  -1.12725  -1.12705
 Alpha  occ. eigenvalues --   -0.18729  -0.13072  -0.12576  -0.10660
 Alpha virt. eigenvalues --   -0.05630  -0.05173  -0.04696  -0.03165  -0.02958
 Alpha virt. eigenvalues --   -0.02443  -0.01500  -0.01145  -0.00405  -0.00236
 Alpha virt. eigenvalues --   -0.00013   0.00353   0.00805   0.00873   0.00916

  Beta  occ. eigenvalues --  -38.44013 -38.43972 -38.43620 -38.43470 -38.43458
  Beta  occ. eigenvalues --  -38.43294 -38.43016  -2.19844  -2.19830  -2.19463
  Beta  occ. eigenvalues --   -2.19315  -2.19252  -2.19190  -2.19000  -1.13553
  Beta  occ. eigenvalues --   -1.13536  -1.13490  -1.13480  -1.13468  -1.13453
  Beta  occ. eigenvalues --   -1.13155  -1.13108  -1.13103  -1.13020  -1.12977
  Beta  occ. eigenvalues --   -1.12964  -1.12947  -1.12924  -1.12916  -1.12911
  Beta  occ. eigenvalues --   -1.12829  -1.12812  -1.12698  -1.12659  -1.12636
  Beta  occ. eigenvalues --   -0.18017  -0.12839  -0.12347
  Beta virt. eigenvalues --   -0.06751  -0.05598  -0.05134  -0.04650  -0.02403
  Beta virt. eigenvalues --   -0.02170  -0.01415  -0.01398  -0.01072  -0.00455
  Beta virt. eigenvalues --   -0.00274   0.00149   0.00390   0.00848   0.00885

 Mulliken charges and spin densities:
               1          2
     1  Na   0.101381   0.037969
     2  Na  -0.660407   0.765690
     3  Na   0.229408   0.020991
     4  Na   0.293379  -0.029697
     5  Na  -0.294624   0.307994
     6  Na   0.193490  -0.077915
     7  Na   0.137374  -0.025033
 Sum of Mulliken charges =  -0.00000   1.00000

 Dipole moment (field-independent basis, Debye):
    X=              0.0683    Y=              0.1877    Z=              0.1875  Tot=              0.2740
 Quadrupole moment (field-independent basis, Debye-Ang):
   XX=            -56.2841   YY=            -62.5062   ZZ=            -74.5740
   XY=             -0.8462   XZ=              1.8105   YZ=             -1.3753

 Normal termination of Gaussian 16 at Thu Dec  7 04:37:54 2023.
