 Gaussian 16, Revision B.01,
 Gaussian 16:  ES64L-G16RevB.01 20-Dec-2017

 -------------------------
 #P B3LYP/6-311+g(d) force
 -------------------------

 -----
 DPGEN
 -----
 Symbolic Z-matrix:
 Charge =  0 Multiplicity = 2

                         Standard orientation:
 ---------------------------------------------------------------------
 Center     Atomic      Atomic             Coordinates (Angstroms)
 Number     Number       Type             X           Y           Z
 ---------------------------------------------------------------------
      1         11           0        3.482341   -0.711405    1.533191
      2         11           0        0.886027   -1.627360   -0.267159
      3         11           0        1.364468    2.292296    0.405548
      4         11           0       -1.729978    1.385320   -0.976616
      5         11           0        3.781344    0.044928   -1.133159
      6         11           0       -2.834255   -1.810976   -0.421307
      7         11           0       -4.949947    0.427197    0.859503
 ---------------------------------------------------------------------

 SCF Done:  E(UB3LYP) =  -1136.11156748     A.U. after   23 cycles

 The electronic state is 2-A.
 Alpha  occ. eigenvalues --  -38.45903 -38.45047 -38.44161 -38.44003 -38.43913
 Alpha  occ. eigenvalues --  -38.43443 -38.42150  -2.21803  -2.20957  -2.19977
 Alpha  occ. eigenvalues --   -2.19879  -2.19738  -2.19255  -2.17972  -1.15593
 Alpha  occ. eigenvalues --   -1.15450  -1.15387  -1.14631  -1.14596  -1.14552
 Alpha  occ. eigenvalues --   -1.13626  -1.13620  -1.13599  -1.13588  -1.13515
 Alpha  occ. eigenvalues --   -1.13479  -1.13427  -1.13411  -1.13366  -1.12956
 Alpha  occ. eigenvalues --   -1.12942  -1.12856  -1.11661  -1.11633  -1.11611
 Alpha  occ. eigenvalues --   -0.17643  -0.14922  -0.11053  -0.10636
 Alpha virt. eigenvalues --   -0.06635  -0.05708  -0.05243  -0.03164  -0.02926
 Alpha virt. eigenvalues --   -0.02268  -0.01732  -0.01234  -0.01011  -0.00520
 Alpha virt. eigenvalues --   -0.00460   0.00041   0.00290   0.00446   0.00542

  Beta  occ. eigenvalues --  -38.45884 -38.45035 -38.44083 -38.43926 -38.43907
  Beta  occ. eigenvalues --  -38.43439 -38.42151  -2.21770  -2.20936  -2.19830
  Beta  occ. eigenvalues --   -2.19741  -2.19733  -2.19250  -2.17974  -1.15566
  Beta  occ. eigenvalues --   -1.15420  -1.15365  -1.14605  -1.14584  -1.14535
  Beta  occ. eigenvalues --   -1.13530  -1.13520  -1.13506  -1.13496  -1.13430
  Beta  occ. eigenvalues --   -1.13417  -1.13413  -1.13371  -1.13309  -1.12949
  Beta  occ. eigenvalues --   -1.12928  -1.12856  -1.11663  -1.11636  -1.11605
  Beta  occ. eigenvalues --   -0.17122  -0.14352  -0.10479
  Beta virt. eigenvalues --   -0.07373  -0.06531  -0.05369  -0.04709  -0.02977
  Beta virt. eigenvalues --   -0.02688  -0.01549  -0.01482  -0.00911  -0.00854
  Beta virt. eigenvalues --   -0.00410  -0.00195   0.00125   0.00356   0.00503

 Mulliken charges and spin densities:
               1          2
     1  Na   0.859318   0.244936
     2  Na  -1.044866   0.171015
     3  Na  -0.367511  -0.066624
     4  Na  -0.301597   0.090566
     5  Na   0.836339   0.212608
     6  Na  -0.125195  -0.014397
     7  Na   0.143511   0.361897
 Sum of Mulliken charges =  -0.00000   1.00000

 Dipole moment (field-independent basis, Debye):
    X=              1.3854    Y=             -0.2575    Z=              0.1283  Tot=              1.4149
 Quadrupole moment (field-independent basis, Debye-Ang):
   XX=            -59.3406   YY=            -79.1977   ZZ=            -60.6184
   XY=              0.8130   XZ=             -2.4375   YZ=              0.9696

 Normal termination of Gaussian 16 at Tue Dec  5 14:16:49 2023.
