 Gaussian 16, Revision B.01,
 Gaussian 16:  ES64L-G16RevB.01 20-Dec-2017

 -------------------------
 #P B3LYP/6-311+g(d) force
 -------------------------

 -----
 DPGEN
 -----
 Symbolic Z-matrix:
 Charge =  0 Multiplicity = 2

                         Standard orientation:
 ---------------------------------------------------------------------
 Center     Atomic      Atomic             Coordinates (Angstroms)
 Number     Number       Type             X           Y           Z
 ---------------------------------------------------------------------
      1         11           0       -0.681119   -2.512556   -0.032396
      2         11           0        2.790364   -1.443605   -0.019233
      3         11           0       -0.001100   -0.289073    1.935486
      4         11           0        0.214959    0.026739   -1.833755
      5         11           0       -3.138985   -0.488185   -0.199542
      6         11           0       -1.308318    2.685947    0.150294
      7         11           0        2.124198    2.020732   -0.000854
 ---------------------------------------------------------------------

 SCF Done:  E(UB3LYP) =  -1136.13847518     A.U. after   19 cycles

 The electronic state is 2-A.
 Alpha  occ. eigenvalues --  -38.43977 -38.43776 -38.43601 -38.43554 -38.43422
 Alpha  occ. eigenvalues --  -38.43384 -38.43141  -2.19813  -2.19617  -2.19493
 Alpha  occ. eigenvalues --   -2.19458  -2.19376  -2.19206  -2.19089  -1.13496
 Alpha  occ. eigenvalues --   -1.13474  -1.13456  -1.13291  -1.13287  -1.13265
 Alpha  occ. eigenvalues --   -1.13211  -1.13166  -1.13143  -1.13110  -1.13090
 Alpha  occ. eigenvalues --   -1.13083  -1.13063  -1.13009  -1.12982  -1.12878
 Alpha  occ. eigenvalues --   -1.12868  -1.12843  -1.12769  -1.12749  -1.12690
 Alpha  occ. eigenvalues --   -0.18886  -0.13049  -0.12480  -0.10891
 Alpha virt. eigenvalues --   -0.05532  -0.05217  -0.04517  -0.03232  -0.02932
 Alpha virt. eigenvalues --   -0.02634  -0.01543  -0.01052  -0.00278  -0.00119
 Alpha virt. eigenvalues --   -0.00025   0.00361   0.00796   0.00905   0.00924

  Beta  occ. eigenvalues --  -38.43974 -38.43772 -38.43597 -38.43466 -38.43381
  Beta  occ. eigenvalues --  -38.43344 -38.43129  -2.19812  -2.19614  -2.19453
  Beta  occ. eigenvalues --   -2.19331  -2.19234  -2.19204  -2.19073  -1.13497
  Beta  occ. eigenvalues --   -1.13458  -1.13451  -1.13287  -1.13271  -1.13255
  Beta  occ. eigenvalues --   -1.13150  -1.13111  -1.13104  -1.13085  -1.13013
  Beta  occ. eigenvalues --   -1.12976  -1.12971  -1.12915  -1.12885  -1.12864
  Beta  occ. eigenvalues --   -1.12853  -1.12845  -1.12753  -1.12692  -1.12684
  Beta  occ. eigenvalues --   -0.18126  -0.12813  -0.12234
  Beta virt. eigenvalues --   -0.06956  -0.05484  -0.05237  -0.04479  -0.02420
  Beta virt. eigenvalues --   -0.02141  -0.01569  -0.01457  -0.00994  -0.00330
  Beta virt. eigenvalues --   -0.00174   0.00112   0.00378   0.00858   0.00892

 Mulliken charges and spin densities:
               1          2
     1  Na   0.484281  -0.035535
     2  Na   0.275977  -0.097032
     3  Na  -0.455945   0.750084
     4  Na  -0.345782   0.673715
     5  Na  -0.006356  -0.078811
     6  Na  -0.025098  -0.104996
     7  Na   0.072923  -0.107426
 Sum of Mulliken charges =  -0.00000   1.00000

 Dipole moment (field-independent basis, Debye):
    X=              0.0673    Y=              0.0650    Z=              0.0182  Tot=              0.0953
 Quadrupole moment (field-independent basis, Debye-Ang):
   XX=            -55.6785   YY=            -64.6051   ZZ=            -73.4675
   XY=             -0.7938   XZ=              0.5711   YZ=              0.7060

 Normal termination of Gaussian 16 at Fri Dec  8 07:48:32 2023.
