 Gaussian 16, Revision B.01,
 Gaussian 16:  ES64L-G16RevB.01 20-Dec-2017

 -------------------------
 #P B3LYP/6-311+g(d) force
 -------------------------

 -----
 DPGEN
 -----
 Symbolic Z-matrix:
 Charge =  0 Multiplicity = 2

                         Standard orientation:
 ---------------------------------------------------------------------
 Center     Atomic      Atomic             Coordinates (Angstroms)
 Number     Number       Type             X           Y           Z
 ---------------------------------------------------------------------
      1         11           0       -2.532544   -1.152385   -1.197566
      2         11           0        0.245429   -2.370591   -0.338382
      3         11           0       -0.411878    0.835739    0.403361
      4         11           0        2.233141   -0.250158   -1.697600
      5         11           0       -3.435833    1.129605    0.945184
      6         11           0        1.717341    3.215166   -0.293945
      7         11           0        2.184345   -1.407376    2.178948
 ---------------------------------------------------------------------

 SCF Done:  E(UB3LYP) =  -1136.12270872     A.U. after   21 cycles

 The electronic state is 2-A.
 Alpha  occ. eigenvalues --  -38.44608 -38.44360 -38.44328 -38.44055 -38.43362
 Alpha  occ. eigenvalues --  -38.42886 -38.42849  -2.20444  -2.20189  -2.20175
 Alpha  occ. eigenvalues --   -2.19946  -2.19147  -2.18851  -2.18837  -1.14134
 Alpha  occ. eigenvalues --   -1.14093  -1.14056  -1.13870  -1.13838  -1.13824
 Alpha  occ. eigenvalues --   -1.13819  -1.13808  -1.13798  -1.13643  -1.13604
 Alpha  occ. eigenvalues --   -1.13552  -1.12836  -1.12812  -1.12785  -1.12583
 Alpha  occ. eigenvalues --   -1.12540  -1.12501  -1.12491  -1.12476  -1.12468
 Alpha  occ. eigenvalues --   -0.18150  -0.13543  -0.11951  -0.11039
 Alpha virt. eigenvalues --   -0.06103  -0.05389  -0.04275  -0.03487  -0.02618
 Alpha virt. eigenvalues --   -0.02564  -0.01681  -0.01139  -0.00798  -0.00215
 Alpha virt. eigenvalues --    0.00204   0.00269   0.00344   0.00584   0.00762

  Beta  occ. eigenvalues --  -38.44573 -38.44311 -38.44261 -38.44032 -38.43372
  Beta  occ. eigenvalues --  -38.42869 -38.42836  -2.20379  -2.20143  -2.20005
  Beta  occ. eigenvalues --   -2.19906  -2.19166  -2.18831  -2.18813  -1.14089
  Beta  occ. eigenvalues --   -1.14044  -1.14011  -1.13845  -1.13803  -1.13787
  Beta  occ. eigenvalues --   -1.13709  -1.13694  -1.13677  -1.13614  -1.13579
  Beta  occ. eigenvalues --   -1.13512  -1.12850  -1.12823  -1.12794  -1.12567
  Beta  occ. eigenvalues --   -1.12501  -1.12488  -1.12476  -1.12463  -1.12408
  Beta  occ. eigenvalues --   -0.17537  -0.13232  -0.11703
  Beta virt. eigenvalues --   -0.07326  -0.05802  -0.05051  -0.04018  -0.03179
  Beta virt. eigenvalues --   -0.02180  -0.01940  -0.01461  -0.00968  -0.00375
  Beta virt. eigenvalues --   -0.00088   0.00263   0.00344   0.00496   0.00702

 Mulliken charges and spin densities:
               1          2
     1  Na   0.224821  -0.038829
     2  Na   0.620482   0.294015
     3  Na  -1.922581   0.259539
     4  Na   0.146679   0.197103
     5  Na   0.371944  -0.117159
     6  Na   0.347380   0.021247
     7  Na   0.211275   0.384084
 Sum of Mulliken charges =  -0.00000   1.00000

 Dipole moment (field-independent basis, Debye):
    X=             -0.2546    Y=             -0.0427    Z=             -0.1532  Tot=              0.3002
 Quadrupole moment (field-independent basis, Debye-Ang):
   XX=            -55.7265   YY=            -69.5564   ZZ=            -67.3917
   XY=             -0.5673   XZ=             -1.0718   YZ=              2.2743

 Normal termination of Gaussian 16 at Tue Nov 28 23:27:38 2023.
