 Gaussian 16, Revision B.01,
 Gaussian 16:  ES64L-G16RevB.01 20-Dec-2017

 -------------------------
 #P B3LYP/6-311+g(d) force
 -------------------------

 -----
 DPGEN
 -----
 Symbolic Z-matrix:
 Charge =  0 Multiplicity = 2

                         Standard orientation:
 ---------------------------------------------------------------------
 Center     Atomic      Atomic             Coordinates (Angstroms)
 Number     Number       Type             X           Y           Z
 ---------------------------------------------------------------------
      1         11           0        3.401841    0.341335    1.147106
      2         11           0       -2.571635    2.072501   -0.291589
      3         11           0        0.031815   -0.227450    1.547148
      4         11           0        1.690176    2.132695   -0.918739
      5         11           0       -3.353729   -1.104098    0.889947
      6         11           0        1.932497   -2.209176   -0.929881
      7         11           0       -1.130966   -1.005808   -1.443992
 ---------------------------------------------------------------------

 SCF Done:  E(UB3LYP) =  -1136.12422434     A.U. after   24 cycles

 The electronic state is 2-A.
 Alpha  occ. eigenvalues --  -38.44727 -38.44406 -38.44316 -38.44163 -38.43777
 Alpha  occ. eigenvalues --  -38.43255 -38.43220  -2.20582  -2.20293  -2.20171
 Alpha  occ. eigenvalues --   -2.19960  -2.19577  -2.19154  -2.19084  -1.14254
 Alpha  occ. eigenvalues --   -1.14233  -1.14205  -1.14010  -1.13933  -1.13925
 Alpha  occ. eigenvalues --   -1.13838  -1.13820  -1.13795  -1.13642  -1.13619
 Alpha  occ. eigenvalues --   -1.13596  -1.13245  -1.13239  -1.13222  -1.12863
 Alpha  occ. eigenvalues --   -1.12819  -1.12787  -1.12741  -1.12726  -1.12710
 Alpha  occ. eigenvalues --   -0.18231  -0.14274  -0.11179  -0.10737
 Alpha virt. eigenvalues --   -0.06452  -0.05841  -0.04806  -0.03207  -0.02543
 Alpha virt. eigenvalues --   -0.02416  -0.02103  -0.01254  -0.00900  -0.00271
 Alpha virt. eigenvalues --    0.00150   0.00193   0.00366   0.00521   0.00587

  Beta  occ. eigenvalues --  -38.44695 -38.44368 -38.44289 -38.44153 -38.43767
  Beta  occ. eigenvalues --  -38.43239 -38.43176  -2.20521  -2.20223  -2.20121
  Beta  occ. eigenvalues --   -2.19945  -2.19561  -2.19076  -2.19057  -1.14211
  Beta  occ. eigenvalues --   -1.14185  -1.14167  -1.13947  -1.13886  -1.13876
  Beta  occ. eigenvalues --   -1.13803  -1.13781  -1.13764  -1.13625  -1.13610
  Beta  occ. eigenvalues --   -1.13576  -1.13236  -1.13222  -1.13201  -1.12816
  Beta  occ. eigenvalues --   -1.12757  -1.12730  -1.12718  -1.12706  -1.12668
  Beta  occ. eigenvalues --   -0.17607  -0.14035  -0.10859
  Beta virt. eigenvalues --   -0.07136  -0.06239  -0.05785  -0.04132  -0.02997
  Beta virt. eigenvalues --   -0.02295  -0.01931  -0.01361  -0.01148  -0.00603
  Beta virt. eigenvalues --   -0.00126   0.00179   0.00237   0.00472   0.00646

 Mulliken charges and spin densities:
               1          2
     1  Na   1.039224   0.093197
     2  Na  -0.177719   0.047541
     3  Na  -0.959162   0.262794
     4  Na  -0.479211   0.045920
     5  Na   0.983919   0.091043
     6  Na  -0.215047   0.069121
     7  Na  -0.192004   0.390384
 Sum of Mulliken charges =  -0.00000   1.00000

 Dipole moment (field-independent basis, Debye):
    X=             -0.4364    Y=             -0.1342    Z=              0.3246  Tot=              0.5602
 Quadrupole moment (field-independent basis, Debye-Ang):
   XX=            -48.7012   YY=            -74.5184   ZZ=            -71.1165
   XY=             -0.6001   XZ=             -0.6147   YZ=             -1.8345

 Normal termination of Gaussian 16 at Fri Dec  8 06:41:22 2023.
