 Gaussian 16, Revision B.01,
 Gaussian 16:  ES64L-G16RevB.01 20-Dec-2017

 -------------------------
 #P B3LYP/6-311+g(d) force
 -------------------------

 -----
 DPGEN
 -----
 Symbolic Z-matrix:
 Charge =  0 Multiplicity = 2

                         Standard orientation:
 ---------------------------------------------------------------------
 Center     Atomic      Atomic             Coordinates (Angstroms)
 Number     Number       Type             X           Y           Z
 ---------------------------------------------------------------------
      1         11           0        2.440279    1.519394    1.149636
      2         11           0       -1.078848   -1.910363   -0.918617
      3         11           0        1.841282   -1.914770   -0.346407
      4         11           0       -0.145650   -0.695731    2.220382
      5         11           0       -0.891831    2.414072   -0.838541
      6         11           0       -3.300086    0.193487    0.483850
      7         11           0        1.134853    0.393910   -1.750304
 ---------------------------------------------------------------------

 SCF Done:  E(UB3LYP) =  -1136.12444653     A.U. after   20 cycles

 The electronic state is 2-A.
 Alpha  occ. eigenvalues --  -38.44669 -38.44157 -38.43808 -38.43778 -38.43368
 Alpha  occ. eigenvalues --  -38.43297 -38.43286  -2.20535  -2.19986  -2.19853
 Alpha  occ. eigenvalues --   -2.19594  -2.19359  -2.19237  -2.19147  -1.14198
 Alpha  occ. eigenvalues --   -1.14173  -1.14154  -1.13692  -1.13660  -1.13641
 Alpha  occ. eigenvalues --   -1.13610  -1.13532  -1.13431  -1.13273  -1.13251
 Alpha  occ. eigenvalues --   -1.13238  -1.13114  -1.13000  -1.12958  -1.12904
 Alpha  occ. eigenvalues --   -1.12870  -1.12857  -1.12807  -1.12789  -1.12744
 Alpha  occ. eigenvalues --   -0.19024  -0.12962  -0.12277  -0.12051
 Alpha virt. eigenvalues --   -0.05476  -0.04704  -0.04190  -0.03735  -0.03482
 Alpha virt. eigenvalues --   -0.03242  -0.01241  -0.00710  -0.00329   0.00208
 Alpha virt. eigenvalues --    0.00377   0.00389   0.00630   0.00848   0.00922

  Beta  occ. eigenvalues --  -38.44584 -38.44124 -38.43778 -38.43750 -38.43356
  Beta  occ. eigenvalues --  -38.43283 -38.43265  -2.20380  -2.19926  -2.19748
  Beta  occ. eigenvalues --   -2.19596  -2.19342  -2.19203  -2.19122  -1.14098
  Beta  occ. eigenvalues --   -1.14068  -1.14031  -1.13629  -1.13606  -1.13598
  Beta  occ. eigenvalues --   -1.13564  -1.13463  -1.13349  -1.13273  -1.13250
  Beta  occ. eigenvalues --   -1.13237  -1.13097  -1.12972  -1.12925  -1.12877
  Beta  occ. eigenvalues --   -1.12832  -1.12827  -1.12783  -1.12768  -1.12731
  Beta  occ. eigenvalues --   -0.18212  -0.12778  -0.11837
  Beta virt. eigenvalues --   -0.08146  -0.05280  -0.04603  -0.03921  -0.03271
  Beta virt. eigenvalues --   -0.02593  -0.02414  -0.01130  -0.00618  -0.00133
  Beta virt. eigenvalues --    0.00262   0.00401   0.00416   0.00780   0.00919

 Mulliken charges and spin densities:
               1          2
     1  Na  -0.084000   0.155171
     2  Na  -0.363498   0.102520
     3  Na   0.850894  -0.023949
     4  Na  -0.486197   0.551084
     5  Na  -0.401805   0.028387
     6  Na   0.315527  -0.012119
     7  Na   0.169080   0.198906
 Sum of Mulliken charges =  -0.00000   1.00000

 Dipole moment (field-independent basis, Debye):
    X=              0.0169    Y=              0.0548    Z=              0.7896  Tot=              0.7917
 Quadrupole moment (field-independent basis, Debye-Ang):
   XX=            -60.0789   YY=            -71.1431   ZZ=            -65.6769
   XY=              0.1215   XZ=              1.2902   YZ=              1.6499

 Normal termination of Gaussian 16 at Tue Dec  5 17:31:03 2023.
