 Gaussian 16, Revision B.01,
 Gaussian 16:  ES64L-G16RevB.01 20-Dec-2017

 -------------------------
 #P B3LYP/6-311+g(d) force
 -------------------------

 -----
 DPGEN
 -----
 Symbolic Z-matrix:
 Charge =  0 Multiplicity = 2

                         Standard orientation:
 ---------------------------------------------------------------------
 Center     Atomic      Atomic             Coordinates (Angstroms)
 Number     Number       Type             X           Y           Z
 ---------------------------------------------------------------------
      1         11           0       -4.182477   -0.233253    0.361535
      2         11           0        1.544249   -1.201796   -1.764807
      3         11           0       -1.427088   -2.650871   -0.387932
      4         11           0        0.459923   -0.245605    1.903987
      5         11           0        3.888322   -0.243271    1.044476
      6         11           0        1.528850    1.929179   -1.002758
      7         11           0       -1.811780    2.645617   -0.154500
 ---------------------------------------------------------------------

 SCF Done:  E(UB3LYP) =  -1136.11846889     A.U. after   23 cycles

 The electronic state is 2-A.
 Alpha  occ. eigenvalues --  -38.45568 -38.45382 -38.45282 -38.43966 -38.43466
 Alpha  occ. eigenvalues --  -38.43212 -38.43140  -2.21356  -2.21115  -2.21079
 Alpha  occ. eigenvalues --   -2.19825  -2.19322  -2.18994  -2.18907  -1.15034
 Alpha  occ. eigenvalues --   -1.15007  -1.14982  -1.14800  -1.14759  -1.14754
 Alpha  occ. eigenvalues --   -1.14736  -1.14732  -1.14697  -1.13515  -1.13455
 Alpha  occ. eigenvalues --   -1.13450  -1.13015  -1.12978  -1.12934  -1.12673
 Alpha  occ. eigenvalues --   -1.12669  -1.12626  -1.12591  -1.12580  -1.12546
 Alpha  occ. eigenvalues --   -0.17489  -0.13364  -0.11487  -0.11207
 Alpha virt. eigenvalues --   -0.07338  -0.05236  -0.04766  -0.03145  -0.02924
 Alpha virt. eigenvalues --   -0.02604  -0.02552  -0.01205  -0.00961  -0.00451
 Alpha virt. eigenvalues --   -0.00187  -0.00068   0.00214   0.00593   0.00652

  Beta  occ. eigenvalues --  -38.45520 -38.45379 -38.45234 -38.43896 -38.43432
  Beta  occ. eigenvalues --  -38.43206 -38.43147  -2.21268  -2.21108  -2.20992
  Beta  occ. eigenvalues --   -2.19699  -2.19263  -2.18985  -2.18922  -1.14973
  Beta  occ. eigenvalues --   -1.14950  -1.14904  -1.14793  -1.14755  -1.14750
  Beta  occ. eigenvalues --   -1.14678  -1.14654  -1.14644  -1.13424  -1.13365
  Beta  occ. eigenvalues --   -1.13361  -1.12968  -1.12923  -1.12900  -1.12666
  Beta  occ. eigenvalues --   -1.12662  -1.12613  -1.12600  -1.12590  -1.12551
  Beta  occ. eigenvalues --   -0.16803  -0.13171  -0.11287
  Beta virt. eigenvalues --   -0.07473  -0.06993  -0.05129  -0.04378  -0.02877
  Beta virt. eigenvalues --   -0.02513  -0.02073  -0.01900  -0.01171  -0.00691
  Beta virt. eigenvalues --   -0.00274  -0.00186   0.00045   0.00384   0.00711

 Mulliken charges and spin densities:
               1          2
     1  Na   0.053014   0.029973
     2  Na   0.061298   0.291714
     3  Na  -0.038598  -0.007064
     4  Na  -0.213091   0.383359
     5  Na   0.220292   0.150012
     6  Na   0.060439   0.236790
     7  Na  -0.143354  -0.084785
 Sum of Mulliken charges =  -0.00000   1.00000

 Dipole moment (field-independent basis, Debye):
    X=              0.5121    Y=             -0.3547    Z=              0.4952  Tot=              0.7957
 Quadrupole moment (field-independent basis, Debye-Ang):
   XX=            -46.9317   YY=            -76.6025   ZZ=            -71.6582
   XY=              0.3754   XZ=             -1.2501   YZ=              0.2778

 Normal termination of Gaussian 16 at Sun Dec  3 17:06:37 2023.
