 Gaussian 16, Revision B.01,
 Gaussian 16:  ES64L-G16RevB.01 20-Dec-2017

 -------------------------
 #P B3LYP/6-311+g(d) force
 -------------------------

 -----
 DPGEN
 -----
 Symbolic Z-matrix:
 Charge =  0 Multiplicity = 2

                         Standard orientation:
 ---------------------------------------------------------------------
 Center     Atomic      Atomic             Coordinates (Angstroms)
 Number     Number       Type             X           Y           Z
 ---------------------------------------------------------------------
      1         11           0        1.098738   -2.131883   -0.831482
      2         11           0        3.448968   -0.819943    0.532959
      3         11           0        1.227603    1.045902   -1.184561
      4         11           0       -0.030181    0.175446    1.978514
      5         11           0       -3.236377   -2.119597    0.461717
      6         11           0       -1.842296    0.342083   -1.229506
      7         11           0       -0.666455    3.507992    0.272359
 ---------------------------------------------------------------------

 SCF Done:  E(UB3LYP) =  -1136.12900570     A.U. after   20 cycles

 The electronic state is 2-A.
 Alpha  occ. eigenvalues --  -38.44246 -38.44169 -38.44105 -38.43636 -38.43614
 Alpha  occ. eigenvalues --  -38.43233 -38.43211  -2.20112  -2.20014  -2.20003
 Alpha  occ. eigenvalues --   -2.19416  -2.19412  -2.19203  -2.19145  -1.13867
 Alpha  occ. eigenvalues --   -1.13775  -1.13746  -1.13706  -1.13696  -1.13647
 Alpha  occ. eigenvalues --   -1.13633  -1.13628  -1.13570  -1.13099  -1.13092
 Alpha  occ. eigenvalues --   -1.13077  -1.13071  -1.13057  -1.13049  -1.12981
 Alpha  occ. eigenvalues --   -1.12865  -1.12829  -1.12802  -1.12781  -1.12719
 Alpha  occ. eigenvalues --   -0.18481  -0.13211  -0.11990  -0.10884
 Alpha virt. eigenvalues --   -0.06031  -0.05172  -0.04466  -0.03280  -0.02778
 Alpha virt. eigenvalues --   -0.02650  -0.01685  -0.01460  -0.00608  -0.00100
 Alpha virt. eigenvalues --    0.00244   0.00322   0.00686   0.00740   0.00826

  Beta  occ. eigenvalues --  -38.44240 -38.44084 -38.44083 -38.43637 -38.43615
  Beta  occ. eigenvalues --  -38.43203 -38.43167  -2.20103  -2.19968  -2.19857
  Beta  occ. eigenvalues --   -2.19420  -2.19415  -2.19128  -2.19092  -1.13860
  Beta  occ. eigenvalues --   -1.13769  -1.13721  -1.13670  -1.13606  -1.13592
  Beta  occ. eigenvalues --   -1.13553  -1.13521  -1.13516  -1.13101  -1.13095
  Beta  occ. eigenvalues --   -1.13068  -1.13065  -1.13060  -1.13050  -1.12927
  Beta  occ. eigenvalues --   -1.12806  -1.12773  -1.12740  -1.12734  -1.12683
  Beta  occ. eigenvalues --   -0.17678  -0.13052  -0.11873
  Beta virt. eigenvalues --   -0.06901  -0.05833  -0.05113  -0.04318  -0.02711
  Beta virt. eigenvalues --   -0.02254  -0.01747  -0.01486  -0.01349  -0.00381
  Beta virt. eigenvalues --   -0.00039   0.00269   0.00395   0.00719   0.00811

 Mulliken charges and spin densities:
               1          2
     1  Na  -0.106440   0.003655
     2  Na   0.553868  -0.017772
     3  Na   0.138835   0.388242
     4  Na  -0.581718   0.845415
     5  Na   0.090399  -0.132816
     6  Na  -0.134551   0.087678
     7  Na   0.039607  -0.174401
 Sum of Mulliken charges =  -0.00000   1.00000

 Dipole moment (field-independent basis, Debye):
    X=              0.6771    Y=              0.0069    Z=              0.4107  Tot=              0.7919
 Quadrupole moment (field-independent basis, Debye-Ang):
   XX=            -58.5593   YY=            -61.8255   ZZ=            -72.3835
   XY=             -1.5502   XZ=              0.4482   YZ=              0.2008

 Normal termination of Gaussian 16 at Thu Dec  7 02:43:38 2023.
