 Gaussian 16, Revision B.01,
 Gaussian 16:  ES64L-G16RevB.01 20-Dec-2017

 -------------------------
 #P B3LYP/6-311+g(d) force
 -------------------------

 -----
 DPGEN
 -----
 Symbolic Z-matrix:
 Charge =  0 Multiplicity = 2

                         Standard orientation:
 ---------------------------------------------------------------------
 Center     Atomic      Atomic             Coordinates (Angstroms)
 Number     Number       Type             X           Y           Z
 ---------------------------------------------------------------------
      1         11           0        0.112232    0.137644   -1.575873
      2         11           0       -1.078676    2.896880   -0.009425
      3         11           0       -3.332137   -0.252816   -0.204359
      4         11           0       -0.102158   -0.413997    2.041080
      5         11           0       -0.756267   -2.766950   -0.137227
      6         11           0        2.303088    1.828718    0.151805
      7         11           0        2.853918   -1.429478   -0.266000
 ---------------------------------------------------------------------

 SCF Done:  E(UB3LYP) =  -1136.13780684     A.U. after   20 cycles

 The electronic state is 2-A.
 Alpha  occ. eigenvalues --  -38.44438 -38.43853 -38.43629 -38.43470 -38.43467
 Alpha  occ. eigenvalues --  -38.43456 -38.43103  -2.20221  -2.19689  -2.19498
 Alpha  occ. eigenvalues --   -2.19343  -2.19332  -2.19281  -2.19083  -1.13898
 Alpha  occ. eigenvalues --   -1.13871  -1.13865  -1.13372  -1.13357  -1.13327
 Alpha  occ. eigenvalues --   -1.13194  -1.13159  -1.13124  -1.13073  -1.13020
 Alpha  occ. eigenvalues --   -1.12993  -1.12969  -1.12958  -1.12945  -1.12939
 Alpha  occ. eigenvalues --   -1.12939  -1.12915  -1.12769  -1.12718  -1.12696
 Alpha  occ. eigenvalues --   -0.18518  -0.13002  -0.12421  -0.10526
 Alpha virt. eigenvalues --   -0.05877  -0.05135  -0.04789  -0.03119  -0.02786
 Alpha virt. eigenvalues --   -0.02403  -0.01726  -0.01154  -0.00489  -0.00439
 Alpha virt. eigenvalues --   -0.00012   0.00339   0.00763   0.00857   0.00873

  Beta  occ. eigenvalues --  -38.44435 -38.43847 -38.43624 -38.43466 -38.43462
  Beta  occ. eigenvalues --  -38.43359 -38.43045  -2.20218  -2.19681  -2.19491
  Beta  occ. eigenvalues --   -2.19322  -2.19282  -2.19164  -2.18977  -1.13880
  Beta  occ. eigenvalues --   -1.13870  -1.13865  -1.13368  -1.13336  -1.13317
  Beta  occ. eigenvalues --   -1.13187  -1.13133  -1.13121  -1.13040  -1.12980
  Beta  occ. eigenvalues --   -1.12964  -1.12942  -1.12933  -1.12917  -1.12882
  Beta  occ. eigenvalues --   -1.12832  -1.12827  -1.12694  -1.12644  -1.12617
  Beta  occ. eigenvalues --   -0.17800  -0.12779  -0.12196
  Beta virt. eigenvalues --   -0.06622  -0.05842  -0.05144  -0.04718  -0.02344
  Beta virt. eigenvalues --   -0.02050  -0.01634  -0.01349  -0.01087  -0.00537
  Beta virt. eigenvalues --   -0.00482   0.00139   0.00373   0.00803   0.00872

 Mulliken charges and spin densities:
               1          2
     1  Na  -0.250554   0.479719
     2  Na   0.004791  -0.082111
     3  Na   0.032893  -0.080913
     4  Na  -0.469762   0.760811
     5  Na   0.257551  -0.073819
     6  Na   0.160498   0.014190
     7  Na   0.264584  -0.017878
 Sum of Mulliken charges =  -0.00000   1.00000

 Dipole moment (field-independent basis, Debye):
    X=             -0.2270    Y=             -0.0953    Z=              0.0909  Tot=              0.2624
 Quadrupole moment (field-independent basis, Debye-Ang):
   XX=            -54.5880   YY=            -62.3950   ZZ=            -75.5568
   XY=             -0.6685   XZ=              0.4442   YZ=              1.4168

 Normal termination of Gaussian 16 at Tue Dec  5 11:41:23 2023.
