 Gaussian 16, Revision B.01,
 Gaussian 16:  ES64L-G16RevB.01 20-Dec-2017

 -------------------------
 #P B3LYP/6-311+g(d) force
 -------------------------

 -----
 DPGEN
 -----
 Symbolic Z-matrix:
 Charge =  0 Multiplicity = 2

                         Standard orientation:
 ---------------------------------------------------------------------
 Center     Atomic      Atomic             Coordinates (Angstroms)
 Number     Number       Type             X           Y           Z
 ---------------------------------------------------------------------
      1         11           0       -0.061776    0.436066   -1.810655
      2         11           0        0.378262   -0.212203    1.877825
      3         11           0       -3.144844   -0.082265    0.452738
      4         11           0       -0.951182   -2.398690   -0.526793
      5         11           0        2.564839    1.566383    0.026428
      6         11           0       -0.842165    2.715154   -0.025167
      7         11           0        2.056866   -2.024444    0.005625
 ---------------------------------------------------------------------

 SCF Done:  E(UB3LYP) =  -1136.13583721     A.U. after   19 cycles

 The electronic state is 2-A.
 Alpha  occ. eigenvalues --  -38.43795 -38.43718 -38.43595 -38.43524 -38.43435
 Alpha  occ. eigenvalues --  -38.43411 -38.43137  -2.19619  -2.19577  -2.19484
 Alpha  occ. eigenvalues --   -2.19472  -2.19400  -2.19351  -2.19075  -1.13298
 Alpha  occ. eigenvalues --   -1.13290  -1.13284  -1.13270  -1.13261  -1.13254
 Alpha  occ. eigenvalues --   -1.13216  -1.13200  -1.13143  -1.13112  -1.13093
 Alpha  occ. eigenvalues --   -1.13074  -1.13068  -1.13042  -1.13004  -1.12994
 Alpha  occ. eigenvalues --   -1.12985  -1.12968  -1.12747  -1.12716  -1.12693
 Alpha  occ. eigenvalues --   -0.19118  -0.12875  -0.12818  -0.11052
 Alpha virt. eigenvalues --   -0.05428  -0.04968  -0.04560  -0.03240  -0.03181
 Alpha virt. eigenvalues --   -0.02624  -0.01363  -0.01021  -0.00145  -0.00049
 Alpha virt. eigenvalues --    0.00086   0.00366   0.00879   0.00925   0.00962

  Beta  occ. eigenvalues --  -38.43787 -38.43714 -38.43590 -38.43446 -38.43429
  Beta  occ. eigenvalues --  -38.43333 -38.43121  -2.19606  -2.19572  -2.19466
  Beta  occ. eigenvalues --   -2.19348  -2.19336  -2.19257  -2.19051  -1.13284
  Beta  occ. eigenvalues --   -1.13275  -1.13260  -1.13255  -1.13238  -1.13233
  Beta  occ. eigenvalues --   -1.13199  -1.13152  -1.13109  -1.13069  -1.13035
  Beta  occ. eigenvalues --   -1.13030  -1.12991  -1.12978  -1.12959  -1.12929
  Beta  occ. eigenvalues --   -1.12914  -1.12899  -1.12724  -1.12685  -1.12667
  Beta  occ. eigenvalues --   -0.18371  -0.12621  -0.12549
  Beta virt. eigenvalues --   -0.07128  -0.05406  -0.04904  -0.04534  -0.02455
  Beta virt. eigenvalues --   -0.02377  -0.01581  -0.01274  -0.00959  -0.00166
  Beta virt. eigenvalues --   -0.00019   0.00133   0.00386   0.00884   0.00953

 Mulliken charges and spin densities:
               1          2
     1  Na  -0.176522   0.494092
     2  Na  -0.465951   0.729392
     3  Na  -0.087010   0.005157
     4  Na   0.241054   0.057771
     5  Na   0.107008  -0.140355
     6  Na   0.116518  -0.081730
     7  Na   0.264903  -0.064327
 Sum of Mulliken charges =  -0.00000   1.00000

 Dipole moment (field-independent basis, Debye):
    X=              0.0691    Y=              0.2956    Z=              0.1477  Tot=              0.3376
 Quadrupole moment (field-independent basis, Debye-Ang):
   XX=            -58.1845   YY=            -63.6100   ZZ=            -72.5476
   XY=             -0.0653   XZ=             -1.2876   YZ=              1.3134

 Normal termination of Gaussian 16 at Fri Dec  8 04:04:03 2023.
