 Gaussian 16, Revision B.01,
 Gaussian 16:  ES64L-G16RevB.01 20-Dec-2017

 -------------------------
 #P B3LYP/6-311+g(d) force
 -------------------------

 -----
 DPGEN
 -----
 Symbolic Z-matrix:
 Charge =  0 Multiplicity = 2

                         Standard orientation:
 ---------------------------------------------------------------------
 Center     Atomic      Atomic             Coordinates (Angstroms)
 Number     Number       Type             X           Y           Z
 ---------------------------------------------------------------------
      1         11           0       -1.881233    2.445017   -0.022222
      2         11           0       -0.155038    0.386441   -1.706446
      3         11           0       -3.778090   -1.100381    0.238235
      4         11           0       -0.033354   -2.679854   -0.604387
      5         11           0        3.607854   -1.221254    0.251079
      6         11           0        2.226621    2.164205   -0.161166
      7         11           0        0.013240    0.005826    2.004906
 ---------------------------------------------------------------------

 SCF Done:  E(UB3LYP) =  -1136.12195843     A.U. after   24 cycles

 The electronic state is 2-A.
 Alpha  occ. eigenvalues --  -38.45374 -38.44856 -38.44390 -38.43994 -38.43778
 Alpha  occ. eigenvalues --  -38.43339 -38.43167  -2.21089  -2.20598  -2.20211
 Alpha  occ. eigenvalues --   -2.19799  -2.19596  -2.19151  -2.19112  -1.14770
 Alpha  occ. eigenvalues --   -1.14751  -1.14719  -1.14275  -1.14259  -1.14233
 Alpha  occ. eigenvalues --   -1.13894  -1.13850  -1.13820  -1.13497  -1.13466
 Alpha  occ. eigenvalues --   -1.13417  -1.13312  -1.13261  -1.13207  -1.12892
 Alpha  occ. eigenvalues --   -1.12817  -1.12774  -1.12754  -1.12739  -1.12715
 Alpha  occ. eigenvalues --   -0.17772  -0.12833  -0.11809  -0.10459
 Alpha virt. eigenvalues --   -0.06916  -0.05712  -0.04069  -0.03121  -0.02733
 Alpha virt. eigenvalues --   -0.02474  -0.02438  -0.01676  -0.00614  -0.00354
 Alpha virt. eigenvalues --   -0.00190   0.00178   0.00568   0.00599   0.00687

  Beta  occ. eigenvalues --  -38.45374 -38.44857 -38.44317 -38.43988 -38.43774
  Beta  occ. eigenvalues --  -38.43315 -38.43089  -2.21092  -2.20601  -2.20075
  Beta  occ. eigenvalues --   -2.19793  -2.19590  -2.19109  -2.18969  -1.14766
  Beta  occ. eigenvalues --   -1.14750  -1.14722  -1.14273  -1.14257  -1.14236
  Beta  occ. eigenvalues --   -1.13800  -1.13757  -1.13719  -1.13484  -1.13453
  Beta  occ. eigenvalues --   -1.13412  -1.13300  -1.13245  -1.13203  -1.12845
  Beta  occ. eigenvalues --   -1.12773  -1.12727  -1.12682  -1.12645  -1.12612
  Beta  occ. eigenvalues --   -0.17054  -0.12675  -0.11545
  Beta virt. eigenvalues --   -0.06921  -0.06485  -0.05729  -0.03986  -0.02572
  Beta virt. eigenvalues --   -0.02286  -0.02020  -0.01621  -0.01439  -0.00671
  Beta virt. eigenvalues --   -0.00283  -0.00050   0.00204   0.00661   0.00690

 Mulliken charges and spin densities:
               1          2
     1  Na   0.025072  -0.113866
     2  Na   0.449948   0.490583
     3  Na  -0.064870  -0.025601
     4  Na  -0.083628  -0.043400
     5  Na  -0.052542  -0.012057
     6  Na   0.062637  -0.100342
     7  Na  -0.336617   0.804683
 Sum of Mulliken charges =  -0.00000   1.00000

 Dipole moment (field-independent basis, Debye):
    X=             -0.1773    Y=              0.0383    Z=              0.2835  Tot=              0.3366
 Quadrupole moment (field-independent basis, Debye-Ang):
   XX=            -48.0735   YY=            -67.3824   ZZ=            -76.0039
   XY=             -0.0855   XZ=             -0.3193   YZ=              0.1651

 Normal termination of Gaussian 16 at Fri Dec  8 03:53:45 2023.
