 Gaussian 16, Revision B.01,
 Gaussian 16:  ES64L-G16RevB.01 20-Dec-2017

 -------------------------
 #P B3LYP/6-311+g(d) force
 -------------------------

 -----
 DPGEN
 -----
 Symbolic Z-matrix:
 Charge =  0 Multiplicity = 2

                         Standard orientation:
 ---------------------------------------------------------------------
 Center     Atomic      Atomic             Coordinates (Angstroms)
 Number     Number       Type             X           Y           Z
 ---------------------------------------------------------------------
      1         11           0        3.037048   -0.881700    0.255793
      2         11           0        0.214824   -2.817006   -0.534027
      3         11           0        1.997504    2.571955    0.089106
      4         11           0       -3.132764   -1.041945    0.336024
      5         11           0       -0.194931    0.042717    2.062008
      6         11           0        0.487831    0.004199   -1.624893
      7         11           0       -2.409512    2.121780   -0.584011
 ---------------------------------------------------------------------

 SCF Done:  E(UB3LYP) =  -1136.13248329     A.U. after   20 cycles

 The electronic state is 2-A.
 Alpha  occ. eigenvalues --  -38.44413 -38.44234 -38.44079 -38.43935 -38.43628
 Alpha  occ. eigenvalues --  -38.43323 -38.42986  -2.20255  -2.20038  -2.19870
 Alpha  occ. eigenvalues --   -2.19784  -2.19427  -2.19290  -2.18854  -1.13942
 Alpha  occ. eigenvalues --   -1.13922  -1.13876  -1.13714  -1.13706  -1.13683
 Alpha  occ. eigenvalues --   -1.13542  -1.13518  -1.13506  -1.13454  -1.13415
 Alpha  occ. eigenvalues --   -1.13399  -1.13112  -1.13088  -1.13070  -1.13002
 Alpha  occ. eigenvalues --   -1.12936  -1.12913  -1.12547  -1.12497  -1.12468
 Alpha  occ. eigenvalues --   -0.18231  -0.13249  -0.11968  -0.10710
 Alpha virt. eigenvalues --   -0.05895  -0.05593  -0.04418  -0.03412  -0.02737
 Alpha virt. eigenvalues --   -0.02549  -0.01741  -0.01227  -0.00618  -0.00358
 Alpha virt. eigenvalues --   -0.00026   0.00347   0.00723   0.00792   0.00852

  Beta  occ. eigenvalues --  -38.44408 -38.44231 -38.44065 -38.43846 -38.43629
  Beta  occ. eigenvalues --  -38.43262 -38.42974  -2.20248  -2.20034  -2.19846
  Beta  occ. eigenvalues --   -2.19620  -2.19431  -2.19179  -2.18837  -1.13933
  Beta  occ. eigenvalues --   -1.13907  -1.13870  -1.13706  -1.13690  -1.13683
  Beta  occ. eigenvalues --   -1.13515  -1.13502  -1.13490  -1.13344  -1.13302
  Beta  occ. eigenvalues --   -1.13278  -1.13107  -1.13086  -1.13068  -1.12928
  Beta  occ. eigenvalues --   -1.12854  -1.12833  -1.12524  -1.12476  -1.12453
  Beta  occ. eigenvalues --   -0.17527  -0.13054  -0.11718
  Beta virt. eigenvalues --   -0.06878  -0.05792  -0.05508  -0.04364  -0.02693
  Beta virt. eigenvalues --   -0.02047  -0.01643  -0.01541  -0.01129  -0.00645
  Beta virt. eigenvalues --   -0.00360   0.00112   0.00381   0.00795   0.00809

 Mulliken charges and spin densities:
               1          2
     1  Na   0.211239   0.043785
     2  Na   0.077483  -0.008478
     3  Na  -0.138276  -0.083383
     4  Na   0.094635   0.031086
     5  Na  -0.278192   0.660444
     6  Na   0.137358   0.381940
     7  Na  -0.104248  -0.025394
 Sum of Mulliken charges =  -0.00000   1.00000

 Dipole moment (field-independent basis, Debye):
    X=              0.0362    Y=              0.0671    Z=              0.2752  Tot=              0.2855
 Quadrupole moment (field-independent basis, Debye-Ang):
   XX=            -54.5080   YY=            -64.4074   ZZ=            -74.6135
   XY=              0.2676   XZ=              1.5125   YZ=             -0.7700

 Normal termination of Gaussian 16 at Fri Dec  8 03:24:11 2023.
