 Gaussian 16, Revision B.01,
 Gaussian 16:  ES64L-G16RevB.01 20-Dec-2017

 -------------------------
 #P B3LYP/6-311+g(d) force
 -------------------------

 -----
 DPGEN
 -----
 Symbolic Z-matrix:
 Charge =  0 Multiplicity = 2

                         Standard orientation:
 ---------------------------------------------------------------------
 Center     Atomic      Atomic             Coordinates (Angstroms)
 Number     Number       Type             X           Y           Z
 ---------------------------------------------------------------------
      1         11           0        0.361177    0.112588    1.841569
      2         11           0       -1.347541    2.173161    0.351542
      3         11           0       -0.476785   -2.630820    0.402030
      4         11           0        2.662805   -1.425308   -0.281627
      5         11           0        1.879387    2.229328   -0.217453
      6         11           0       -0.209575   -0.029312   -1.825529
      7         11           0       -2.869467   -0.429637   -0.270531
 ---------------------------------------------------------------------

 SCF Done:  E(UB3LYP) =  -1136.13583562     A.U. after   18 cycles

 The electronic state is 2-A.
 Alpha  occ. eigenvalues --  -38.43710 -38.43442 -38.43427 -38.43422 -38.43421
 Alpha  occ. eigenvalues --  -38.43248 -38.43185  -2.19555  -2.19437  -2.19426
 Alpha  occ. eigenvalues --   -2.19352  -2.19323  -2.19166  -2.19159  -1.13233
 Alpha  occ. eigenvalues --   -1.13229  -1.13197  -1.13194  -1.13156  -1.13103
 Alpha  occ. eigenvalues --   -1.13088  -1.13073  -1.13060  -1.13040  -1.12991
 Alpha  occ. eigenvalues --   -1.12988  -1.12975  -1.12963  -1.12951  -1.12836
 Alpha  occ. eigenvalues --   -1.12821  -1.12813  -1.12803  -1.12771  -1.12754
 Alpha  occ. eigenvalues --   -0.19479  -0.13022  -0.12786  -0.11241
 Alpha virt. eigenvalues --   -0.05212  -0.04931  -0.04449  -0.03277  -0.03174
 Alpha virt. eigenvalues --   -0.02712  -0.01238  -0.00992  -0.00090   0.00098
 Alpha virt. eigenvalues --    0.00192   0.00373   0.00887   0.00957   0.00989

  Beta  occ. eigenvalues --  -38.43705 -38.43437 -38.43414 -38.43344 -38.43342
  Beta  occ. eigenvalues --  -38.43237 -38.43171  -2.19549  -2.19345  -2.19317
  Beta  occ. eigenvalues --   -2.19285  -2.19279  -2.19146  -2.19141  -1.13227
  Beta  occ. eigenvalues --   -1.13208  -1.13188  -1.13141  -1.13083  -1.13046
  Beta  occ. eigenvalues --   -1.13017  -1.13007  -1.12983  -1.12971  -1.12967
  Beta  occ. eigenvalues --   -1.12949  -1.12939  -1.12915  -1.12889  -1.12812
  Beta  occ. eigenvalues --   -1.12797  -1.12775  -1.12765  -1.12755  -1.12739
  Beta  occ. eigenvalues --   -0.18714  -0.12754  -0.12509
  Beta virt. eigenvalues --   -0.07252  -0.05197  -0.04898  -0.04445  -0.02470
  Beta virt. eigenvalues --   -0.02338  -0.01631  -0.01153  -0.00938   0.00000
  Beta virt. eigenvalues --    0.00070   0.00183   0.00389   0.00926   0.00954

 Mulliken charges and spin densities:
               1          2
     1  Na  -0.353634   0.494134
     2  Na   0.436934   0.037227
     3  Na   0.191742  -0.025456
     4  Na  -0.051056  -0.086876
     5  Na   0.029649  -0.083052
     6  Na  -0.520531   0.648466
     7  Na   0.266896   0.015556
 Sum of Mulliken charges =  -0.00000   1.00000

 Dipole moment (field-independent basis, Debye):
    X=              0.3492    Y=             -0.1030    Z=             -0.0938  Tot=              0.3759
 Quadrupole moment (field-independent basis, Debye-Ang):
   XX=            -58.9003   YY=            -63.7575   ZZ=            -71.8559
   XY=              0.4855   XZ=             -1.2734   YZ=             -0.3294

 Normal termination of Gaussian 16 at Fri Dec  8 02:36:08 2023.
