 Gaussian 16, Revision B.01,
 Gaussian 16:  ES64L-G16RevB.01 20-Dec-2017

 -------------------------
 #P B3LYP/6-311+g(d) force
 -------------------------

 -----
 DPGEN
 -----
 Symbolic Z-matrix:
 Charge =  0 Multiplicity = 2

                         Standard orientation:
 ---------------------------------------------------------------------
 Center     Atomic      Atomic             Coordinates (Angstroms)
 Number     Number       Type             X           Y           Z
 ---------------------------------------------------------------------
      1         11           0       -2.842386    0.825771   -0.765075
      2         11           0        2.869863   -1.945422    0.305695
      3         11           0       -2.110800   -2.398250   -0.212029
      4         11           0        0.140195   -0.637318   -1.212294
      5         11           0        2.876952    1.162012   -0.483820
      6         11           0       -0.839333    0.138070    2.301022
      7         11           0       -0.094491    2.855137    0.066501
 ---------------------------------------------------------------------

 SCF Done:  E(UB3LYP) =  -1136.13059527     A.U. after   20 cycles

 The electronic state is 2-A.
 Alpha  occ. eigenvalues --  -38.44290 -38.44273 -38.44034 -38.43788 -38.43782
 Alpha  occ. eigenvalues --  -38.43226 -38.42761  -2.20159  -2.20087  -2.19891
 Alpha  occ. eigenvalues --   -2.19653  -2.19633  -2.19224  -2.18605  -1.13847
 Alpha  occ. eigenvalues --   -1.13814  -1.13785  -1.13774  -1.13748  -1.13734
 Alpha  occ. eigenvalues --   -1.13576  -1.13547  -1.13507  -1.13390  -1.13295
 Alpha  occ. eigenvalues --   -1.13284  -1.13282  -1.13257  -1.13244  -1.12910
 Alpha  occ. eigenvalues --   -1.12876  -1.12849  -1.12276  -1.12269  -1.12256
 Alpha  occ. eigenvalues --   -0.18365  -0.13633  -0.12017  -0.10685
 Alpha virt. eigenvalues --   -0.05999  -0.05504  -0.04399  -0.03290  -0.02768
 Alpha virt. eigenvalues --   -0.02550  -0.01787  -0.01188  -0.00627  -0.00283
 Alpha virt. eigenvalues --   -0.00012   0.00310   0.00687   0.00760   0.00865

  Beta  occ. eigenvalues --  -38.44273 -38.44267 -38.44029 -38.43783 -38.43671
  Beta  occ. eigenvalues --  -38.43196 -38.42758  -2.20119  -2.20089  -2.19883
  Beta  occ. eigenvalues --   -2.19647  -2.19426  -2.19171  -2.18602  -1.13815
  Beta  occ. eigenvalues --   -1.13779  -1.13776  -1.13752  -1.13748  -1.13729
  Beta  occ. eigenvalues --   -1.13565  -1.13537  -1.13505  -1.13384  -1.13286
  Beta  occ. eigenvalues --   -1.13257  -1.13143  -1.13119  -1.13097  -1.12863
  Beta  occ. eigenvalues --   -1.12841  -1.12802  -1.12277  -1.12262  -1.12238
  Beta  occ. eigenvalues --   -0.17693  -0.13423  -0.11831
  Beta virt. eigenvalues --   -0.06724  -0.05897  -0.05418  -0.04341  -0.02715
  Beta virt. eigenvalues --   -0.01982  -0.01718  -0.01499  -0.01105  -0.00632
  Beta virt. eigenvalues --   -0.00244   0.00167   0.00377   0.00768   0.00799

 Mulliken charges and spin densities:
               1          2
     1  Na   0.311039   0.066608
     2  Na   0.069941   0.008349
     3  Na   0.128887   0.094083
     4  Na  -0.054826   0.134721
     5  Na   0.192678  -0.034293
     6  Na  -0.557124   0.705147
     7  Na  -0.090596   0.025385
 Sum of Mulliken charges =  -0.00000   1.00000

 Dipole moment (field-independent basis, Debye):
    X=              0.1145    Y=             -0.3954    Z=              0.1360  Tot=              0.4336
 Quadrupole moment (field-independent basis, Debye-Ang):
   XX=            -54.8847   YY=            -64.5620   ZZ=            -74.5359
   XY=             -0.2746   XZ=              1.8011   YZ=             -2.2610

 Normal termination of Gaussian 16 at Thu Dec  7 02:51:04 2023.
