 Gaussian 16, Revision B.01,
 Gaussian 16:  ES64L-G16RevB.01 20-Dec-2017

 -------------------------
 #P B3LYP/6-311+g(d) force
 -------------------------

 -----
 DPGEN
 -----
 Symbolic Z-matrix:
 Charge =  0 Multiplicity = 2

                         Standard orientation:
 ---------------------------------------------------------------------
 Center     Atomic      Atomic             Coordinates (Angstroms)
 Number     Number       Type             X           Y           Z
 ---------------------------------------------------------------------
      1         11           0       -1.984455   -2.215908    0.291060
      2         11           0       -0.140491   -0.001594   -1.691198
      3         11           0        1.882807   -2.522688    0.064791
      4         11           0       -0.195977    3.003176    0.301264
      5         11           0       -2.809483    0.593265   -0.448130
      6         11           0        0.257353    0.297351    1.981104
      7         11           0        2.990247    0.846398   -0.498891
 ---------------------------------------------------------------------

 SCF Done:  E(UB3LYP) =  -1136.13551576     A.U. after   20 cycles

 The electronic state is 2-A.
 Alpha  occ. eigenvalues --  -38.44136 -38.43749 -38.43631 -38.43585 -38.43565
 Alpha  occ. eigenvalues --  -38.43405 -38.43329  -2.19952  -2.19561  -2.19548
 Alpha  occ. eigenvalues --   -2.19489  -2.19433  -2.19382  -2.19177  -1.13637
 Alpha  occ. eigenvalues --   -1.13609  -1.13578  -1.13361  -1.13285  -1.13227
 Alpha  occ. eigenvalues --   -1.13213  -1.13188  -1.13183  -1.13163  -1.13128
 Alpha  occ. eigenvalues --   -1.13111  -1.13088  -1.13076  -1.13043  -1.13036
 Alpha  occ. eigenvalues --   -1.12994  -1.12989  -1.12855  -1.12826  -1.12808
 Alpha  occ. eigenvalues --   -0.18679  -0.13100  -0.12383  -0.10893
 Alpha virt. eigenvalues --   -0.05543  -0.05075  -0.04741  -0.03322  -0.02954
 Alpha virt. eigenvalues --   -0.02598  -0.01422  -0.01186  -0.00314  -0.00286
 Alpha virt. eigenvalues --    0.00016   0.00361   0.00813   0.00867   0.00913

  Beta  occ. eigenvalues --  -38.44122 -38.43749 -38.43618 -38.43560 -38.43498
  Beta  occ. eigenvalues --  -38.43338 -38.43321  -2.19930  -2.19551  -2.19541
  Beta  occ. eigenvalues --   -2.19427  -2.19329  -2.19261  -2.19167  -1.13609
  Beta  occ. eigenvalues --   -1.13591  -1.13564  -1.13340  -1.13260  -1.13219
  Beta  occ. eigenvalues --   -1.13213  -1.13184  -1.13150  -1.13078  -1.13067
  Beta  occ. eigenvalues --   -1.13064  -1.13028  -1.13007  -1.12999  -1.12963
  Beta  occ. eigenvalues --   -1.12910  -1.12907  -1.12830  -1.12805  -1.12802
  Beta  occ. eigenvalues --   -0.17960  -0.12839  -0.12135
  Beta virt. eigenvalues --   -0.07008  -0.05514  -0.05016  -0.04680  -0.02554
  Beta virt. eigenvalues --   -0.02211  -0.01575  -0.01313  -0.01106  -0.00326
  Beta virt. eigenvalues --   -0.00313   0.00130   0.00393   0.00841   0.00905

 Mulliken charges and spin densities:
               1          2
     1  Na  -0.090380  -0.011463
     2  Na  -0.088625   0.419776
     3  Na  -0.088257  -0.066316
     4  Na   0.125134  -0.056150
     5  Na   0.464475   0.065662
     6  Na  -0.358988   0.706056
     7  Na   0.036642  -0.057564
 Sum of Mulliken charges =  -0.00000   1.00000

 Dipole moment (field-independent basis, Debye):
    X=              0.3673    Y=             -0.0008    Z=              0.0820  Tot=              0.3764
 Quadrupole moment (field-independent basis, Debye-Ang):
   XX=            -58.8433   YY=            -61.5050   ZZ=            -73.6828
   XY=              0.1990   XZ=             -0.8499   YZ=             -1.2330

 Normal termination of Gaussian 16 at Fri Dec  8 01:36:34 2023.
