 Gaussian 16, Revision B.01,
 Gaussian 16:  ES64L-G16RevB.01 20-Dec-2017

 -------------------------
 #P B3LYP/6-311+g(d) force
 -------------------------

 -----
 DPGEN
 -----
 Symbolic Z-matrix:
 Charge =  0 Multiplicity = 2

                         Standard orientation:
 ---------------------------------------------------------------------
 Center     Atomic      Atomic             Coordinates (Angstroms)
 Number     Number       Type             X           Y           Z
 ---------------------------------------------------------------------
      1         11           0       -3.228754    0.300602   -1.155260
      2         11           0       -1.742869   -1.320844    2.332590
      3         11           0        2.595680   -1.980477   -0.507323
      4         11           0       -1.388528   -2.645586   -0.789267
      5         11           0        4.120958    0.572708   -0.633421
      6         11           0       -1.519398    3.028929   -0.854217
      7         11           0        1.162911    2.044669    1.606898
 ---------------------------------------------------------------------

 SCF Done:  E(UB3LYP) =  -1136.11254246     A.U. after   20 cycles

 The electronic state is 2-A.
 Alpha  occ. eigenvalues --  -38.45088 -38.44600 -38.44560 -38.44430 -38.44264
 Alpha  occ. eigenvalues --  -38.44110 -38.43663  -2.20871  -2.20369  -2.20349
 Alpha  occ. eigenvalues --   -2.20232  -2.20090  -2.19902  -2.19445  -1.14528
 Alpha  occ. eigenvalues --   -1.14510  -1.14490  -1.14148  -1.14021  -1.14013
 Alpha  occ. eigenvalues --   -1.14005  -1.13996  -1.13971  -1.13890  -1.13871
 Alpha  occ. eigenvalues --   -1.13826  -1.13763  -1.13750  -1.13715  -1.13575
 Alpha  occ. eigenvalues --   -1.13567  -1.13546  -1.13120  -1.13113  -1.13082
 Alpha  occ. eigenvalues --   -0.16370  -0.13678  -0.12231  -0.11005
 Alpha virt. eigenvalues --   -0.06515  -0.06130  -0.04514  -0.03494  -0.03248
 Alpha virt. eigenvalues --   -0.02574  -0.01896  -0.01373  -0.00941  -0.00698
 Alpha virt. eigenvalues --   -0.00554  -0.00094   0.00114   0.00422   0.00580

  Beta  occ. eigenvalues --  -38.45012 -38.44556 -38.44548 -38.44414 -38.44214
  Beta  occ. eigenvalues --  -38.44116 -38.43659  -2.20728  -2.20364  -2.20252
  Beta  occ. eigenvalues --   -2.20205  -2.19997  -2.19914  -2.19442  -1.14430
  Beta  occ. eigenvalues --   -1.14413  -1.14389  -1.14138  -1.14019  -1.13990
  Beta  occ. eigenvalues --   -1.13945  -1.13935  -1.13909  -1.13870  -1.13851
  Beta  occ. eigenvalues --   -1.13810  -1.13699  -1.13690  -1.13651  -1.13581
  Beta  occ. eigenvalues --   -1.13561  -1.13553  -1.13115  -1.13113  -1.13064
  Beta  occ. eigenvalues --   -0.15818  -0.13326  -0.11956
  Beta virt. eigenvalues --   -0.07541  -0.06353  -0.05580  -0.04134  -0.03307
  Beta virt. eigenvalues --   -0.02787  -0.02002  -0.01670  -0.01240  -0.00820
  Beta virt. eigenvalues --   -0.00674  -0.00200   0.00163   0.00278   0.00573

 Mulliken charges and spin densities:
               1          2
     1  Na  -0.034964   0.306822
     2  Na   0.072625   0.267011
     3  Na  -0.278282   0.087408
     4  Na   0.079775   0.083043
     5  Na   0.450016  -0.087210
     6  Na   0.056707  -0.122484
     7  Na  -0.345877   0.465409
 Sum of Mulliken charges =  -0.00000   1.00000

 Dipole moment (field-independent basis, Debye):
    X=              0.3802    Y=             -0.3469    Z=              0.0966  Tot=              0.5237
 Quadrupole moment (field-independent basis, Debye-Ang):
   XX=            -62.6625   YY=            -68.6662   ZZ=            -69.4478
   XY=              5.2606   XZ=             -1.6717   YZ=              0.1158

 Normal termination of Gaussian 16 at Mon Dec  4 02:56:09 2023.
