 Gaussian 16, Revision B.01,
 Gaussian 16:  ES64L-G16RevB.01 20-Dec-2017

 -------------------------
 #P B3LYP/6-311+g(d) force
 -------------------------

 -----
 DPGEN
 -----
 Symbolic Z-matrix:
 Charge =  0 Multiplicity = 2

                         Standard orientation:
 ---------------------------------------------------------------------
 Center     Atomic      Atomic             Coordinates (Angstroms)
 Number     Number       Type             X           Y           Z
 ---------------------------------------------------------------------
      1         11           0        1.278429   -1.511030    1.260252
      2         11           0       -2.143381   -2.017971    0.151418
      3         11           0        0.069466    0.157122   -1.347531
      4         11           0       -0.952117    0.514375    1.878922
      5         11           0        3.250432   -1.009389   -1.239817
      6         11           0        1.614665    2.836181    0.514257
      7         11           0       -3.117494    1.030712   -1.217500
 ---------------------------------------------------------------------

 SCF Done:  E(UB3LYP) =  -1136.12556927     A.U. after   23 cycles

 The electronic state is 2-A.
 Alpha  occ. eigenvalues --  -38.44417 -38.44298 -38.44002 -38.43549 -38.43378
 Alpha  occ. eigenvalues --  -38.43283 -38.43164  -2.20248  -2.20129  -2.19960
 Alpha  occ. eigenvalues --   -2.19423  -2.19362  -2.19098  -2.19056  -1.13929
 Alpha  occ. eigenvalues --   -1.13882  -1.13874  -1.13797  -1.13782  -1.13746
 Alpha  occ. eigenvalues --   -1.13696  -1.13597  -1.13547  -1.13123  -1.13101
 Alpha  occ. eigenvalues --   -1.13077  -1.13041  -1.12998  -1.12983  -1.12807
 Alpha  occ. eigenvalues --   -1.12753  -1.12726  -1.12704  -1.12703  -1.12698
 Alpha  occ. eigenvalues --   -0.18656  -0.13473  -0.11721  -0.11239
 Alpha virt. eigenvalues --   -0.05807  -0.05154  -0.04536  -0.03069  -0.02808
 Alpha virt. eigenvalues --   -0.02633  -0.01906  -0.01112  -0.00741   0.00102
 Alpha virt. eigenvalues --    0.00248   0.00296   0.00556   0.00679   0.00828

  Beta  occ. eigenvalues --  -38.44381 -38.44258 -38.43923 -38.43546 -38.43346
  Beta  occ. eigenvalues --  -38.43275 -38.43141  -2.20182  -2.20055  -2.19819
  Beta  occ. eigenvalues --   -2.19421  -2.19307  -2.19062  -2.19042  -1.13874
  Beta  occ. eigenvalues --   -1.13842  -1.13829  -1.13746  -1.13731  -1.13697
  Beta  occ. eigenvalues --   -1.13596  -1.13495  -1.13439  -1.13116  -1.13090
  Beta  occ. eigenvalues --   -1.13035  -1.13023  -1.12954  -1.12947  -1.12772
  Beta  occ. eigenvalues --   -1.12710  -1.12702  -1.12696  -1.12692  -1.12673
  Beta  occ. eigenvalues --   -0.17928  -0.13055  -0.10993
  Beta virt. eigenvalues --   -0.07899  -0.05555  -0.05064  -0.04033  -0.02858
  Beta virt. eigenvalues --   -0.02214  -0.01856  -0.01634  -0.01044  -0.00425
  Beta virt. eigenvalues --    0.00158   0.00277   0.00356   0.00622   0.00784

 Mulliken charges and spin densities:
               1          2
     1  Na  -0.140267   0.027604
     2  Na   0.147658   0.103328
     3  Na  -1.148049   0.202109
     4  Na   0.326014   0.413911
     5  Na   0.787683   0.052525
     6  Na  -0.301903   0.032745
     7  Na   0.328864   0.167778
 Sum of Mulliken charges =  -0.00000   1.00000

 Dipole moment (field-independent basis, Debye):
    X=             -0.3996    Y=             -0.0939    Z=             -0.2482  Tot=              0.4797
 Quadrupole moment (field-independent basis, Debye-Ang):
   XX=            -53.4385   YY=            -71.6945   ZZ=            -67.5614
   XY=             -0.4962   XZ=             -0.4834   YZ=              0.9309

 Normal termination of Gaussian 16 at Tue Nov 28 19:44:08 2023.
