 Gaussian 16, Revision B.01,
 Gaussian 16:  ES64L-G16RevB.01 20-Dec-2017

 -------------------------
 #P B3LYP/6-311+g(d) force
 -------------------------

 -----
 DPGEN
 -----
 Symbolic Z-matrix:
 Charge =  0 Multiplicity = 2

                         Standard orientation:
 ---------------------------------------------------------------------
 Center     Atomic      Atomic             Coordinates (Angstroms)
 Number     Number       Type             X           Y           Z
 ---------------------------------------------------------------------
      1         11           0        1.899543    1.534014   -1.069995
      2         11           0       -1.285402    2.795124    0.228669
      3         11           0       -3.704505    0.699828    0.571335
      4         11           0        4.517791   -0.504486   -1.102375
      5         11           0       -4.685550   -2.541539   -1.064584
      6         11           0       -0.100150   -0.087138    1.083979
      7         11           0        3.358273   -1.895803    1.352971
 ---------------------------------------------------------------------

 SCF Done:  E(UB3LYP) =  -1136.11013564     A.U. after   23 cycles

 The electronic state is 2-A.
 Alpha  occ. eigenvalues --  -38.45065 -38.44581 -38.44479 -38.44246 -38.44213
 Alpha  occ. eigenvalues --  -38.44193 -38.44131  -2.20918  -2.20447  -2.20328
 Alpha  occ. eigenvalues --   -2.20024  -2.20008  -2.20000  -2.19981  -1.14615
 Alpha  occ. eigenvalues --   -1.14579  -1.14536  -1.14122  -1.14108  -1.14073
 Alpha  occ. eigenvalues --   -1.14035  -1.13989  -1.13982  -1.13705  -1.13684
 Alpha  occ. eigenvalues --   -1.13678  -1.13673  -1.13658  -1.13656  -1.13655
 Alpha  occ. eigenvalues --   -1.13653  -1.13651  -1.13646  -1.13602  -1.13577
 Alpha  occ. eigenvalues --   -0.17217  -0.14564  -0.11749  -0.10808
 Alpha virt. eigenvalues --   -0.07472  -0.05774  -0.04237  -0.03870  -0.02928
 Alpha virt. eigenvalues --   -0.02844  -0.02020  -0.01441  -0.01306  -0.00798
 Alpha virt. eigenvalues --   -0.00174  -0.00127   0.00034   0.00338   0.00451

  Beta  occ. eigenvalues --  -38.45027 -38.44574 -38.44465 -38.44237 -38.44183
  Beta  occ. eigenvalues --  -38.44155 -38.44094  -2.20848  -2.20432  -2.20306
  Beta  occ. eigenvalues --   -2.20057  -2.19951  -2.19912  -2.19881  -1.14568
  Beta  occ. eigenvalues --   -1.14546  -1.14466  -1.14118  -1.14088  -1.14075
  Beta  occ. eigenvalues --   -1.14017  -1.13969  -1.13955  -1.13740  -1.13718
  Beta  occ. eigenvalues --   -1.13655  -1.13629  -1.13625  -1.13611  -1.13605
  Beta  occ. eigenvalues --   -1.13597  -1.13575  -1.13574  -1.13529  -1.13526
  Beta  occ. eigenvalues --   -0.16911  -0.14347  -0.11332
  Beta virt. eigenvalues --   -0.07445  -0.07005  -0.05196  -0.04012  -0.03728
  Beta virt. eigenvalues --   -0.02730  -0.02418  -0.01738  -0.01188  -0.00944
  Beta virt. eigenvalues --   -0.00544  -0.00008   0.00014   0.00190   0.00515

 Mulliken charges and spin densities:
               1          2
     1  Na   0.120700   0.258500
     2  Na   0.791729   0.081348
     3  Na   0.381500  -0.115568
     4  Na  -0.001688  -0.008209
     5  Na   0.133830   0.327578
     6  Na  -1.526918   0.382338
     7  Na   0.100848   0.074012
 Sum of Mulliken charges =  -0.00000   1.00000

 Dipole moment (field-independent basis, Debye):
    X=              0.7964    Y=              0.8029    Z=              0.0456  Tot=              1.1318
 Quadrupole moment (field-independent basis, Debye-Ang):
   XX=            -68.6904   YY=            -62.8900   ZZ=            -71.5584
   XY=             -7.5555   XZ=             -1.0687   YZ=              3.0686

 Normal termination of Gaussian 16 at Wed Nov 29 01:08:09 2023.
