 Gaussian 16, Revision B.01,
 Gaussian 16:  ES64L-G16RevB.01 20-Dec-2017

 -------------------------
 #P B3LYP/6-311+g(d) force
 -------------------------

 -----
 DPGEN
 -----
 Symbolic Z-matrix:
 Charge =  0 Multiplicity = 2

                         Standard orientation:
 ---------------------------------------------------------------------
 Center     Atomic      Atomic             Coordinates (Angstroms)
 Number     Number       Type             X           Y           Z
 ---------------------------------------------------------------------
      1         11           0        0.837326    0.107579    1.897123
      2         11           0       -0.083842   -0.125168   -1.685886
      3         11           0       -2.191092    1.770557    0.260891
      4         11           0        1.306139    2.718075   -0.308533
      5         11           0       -0.014299   -2.577681    0.110607
      6         11           0        3.136991   -0.892859   -0.256821
      7         11           0       -2.991222   -1.000503   -0.017381
 ---------------------------------------------------------------------

 SCF Done:  E(UB3LYP) =  -1136.13273974     A.U. after   20 cycles

 The electronic state is 2-A.
 Alpha  occ. eigenvalues --  -38.44604 -38.43918 -38.43729 -38.43416 -38.43375
 Alpha  occ. eigenvalues --  -38.43191 -38.43180  -2.20428  -2.19816  -2.19619
 Alpha  occ. eigenvalues --   -2.19304  -2.19247  -2.19179  -2.19111  -1.14110
 Alpha  occ. eigenvalues --   -1.14084  -1.14062  -1.13636  -1.13458  -1.13451
 Alpha  occ. eigenvalues --   -1.13270  -1.13261  -1.13216  -1.12999  -1.12963
 Alpha  occ. eigenvalues --   -1.12956  -1.12929  -1.12926  -1.12888  -1.12877
 Alpha  occ. eigenvalues --   -1.12825  -1.12784  -1.12771  -1.12725  -1.12705
 Alpha  occ. eigenvalues --   -0.18946  -0.13432  -0.12350  -0.10678
 Alpha virt. eigenvalues --   -0.06081  -0.05055  -0.04352  -0.03372  -0.02808
 Alpha virt. eigenvalues --   -0.02385  -0.01819  -0.01023  -0.00245  -0.00125
 Alpha virt. eigenvalues --   -0.00009   0.00349   0.00800   0.00875   0.00899

  Beta  occ. eigenvalues --  -38.44599 -38.43917 -38.43722 -38.43410 -38.43296
  Beta  occ. eigenvalues --  -38.43180 -38.43107  -2.20423  -2.19816  -2.19611
  Beta  occ. eigenvalues --   -2.19238  -2.19158  -2.19097  -2.19043  -1.14094
  Beta  occ. eigenvalues --   -1.14071  -1.14061  -1.13638  -1.13457  -1.13433
  Beta  occ. eigenvalues --   -1.13262  -1.13234  -1.13216  -1.12931  -1.12927
  Beta  occ. eigenvalues --   -1.12897  -1.12875  -1.12870  -1.12829  -1.12812
  Beta  occ. eigenvalues --   -1.12739  -1.12732  -1.12708  -1.12679  -1.12657
  Beta  occ. eigenvalues --   -0.18222  -0.13204  -0.12095
  Beta virt. eigenvalues --   -0.06781  -0.06011  -0.05036  -0.04331  -0.02602
  Beta virt. eigenvalues --   -0.02026  -0.01742  -0.01345  -0.00969  -0.00272
  Beta virt. eigenvalues --   -0.00162   0.00135   0.00376   0.00832   0.00883

 Mulliken charges and spin densities:
               1          2
     1  Na  -0.502427   0.647013
     2  Na  -0.438197   0.565569
     3  Na   0.191329  -0.002201
     4  Na   0.053610  -0.088549
     5  Na   0.378061  -0.007625
     6  Na   0.283531  -0.109042
     7  Na   0.034092  -0.005165
 Sum of Mulliken charges =  -0.00000   1.00000

 Dipole moment (field-independent basis, Debye):
    X=              0.5223    Y=             -0.0466    Z=              0.0078  Tot=              0.5244
 Quadrupole moment (field-independent basis, Debye-Ang):
   XX=            -53.7005   YY=            -65.2450   ZZ=            -74.4456
   XY=              0.1867   XZ=             -1.8394   YZ=             -0.2879

 Normal termination of Gaussian 16 at Thu Dec  7 11:03:37 2023.
