 Gaussian 16, Revision B.01,
 Gaussian 16:  ES64L-G16RevB.01 20-Dec-2017

 -------------------------
 #P B3LYP/6-311+g(d) force
 -------------------------

 -----
 DPGEN
 -----
 Symbolic Z-matrix:
 Charge =  0 Multiplicity = 2

                         Standard orientation:
 ---------------------------------------------------------------------
 Center     Atomic      Atomic             Coordinates (Angstroms)
 Number     Number       Type             X           Y           Z
 ---------------------------------------------------------------------
      1         11           0       -2.203764    2.153716   -0.253550
      2         11           0        1.370726    2.563709    0.223970
      3         11           0        0.126011   -0.019408   -1.726107
      4         11           0        3.125110   -0.527465   -0.069082
      5         11           0        0.287177   -2.745438   -0.050502
      6         11           0       -0.056474   -0.039895    1.754932
      7         11           0       -2.648786   -1.385218    0.120340
 ---------------------------------------------------------------------

 SCF Done:  E(UB3LYP) =  -1136.14043822     A.U. after   19 cycles

 The electronic state is 2-A.
 Alpha  occ. eigenvalues --  -38.43872 -38.43624 -38.43620 -38.43566 -38.43231
 Alpha  occ. eigenvalues --  -38.43088 -38.43066  -2.19705  -2.19503  -2.19450
 Alpha  occ. eigenvalues --   -2.19424  -2.19153  -2.19072  -2.19052  -1.13379
 Alpha  occ. eigenvalues --   -1.13364  -1.13351  -1.13196  -1.13169  -1.13155
 Alpha  occ. eigenvalues --   -1.13128  -1.13123  -1.13104  -1.13095  -1.13086
 Alpha  occ. eigenvalues --   -1.13036  -1.12890  -1.12839  -1.12767  -1.12758
 Alpha  occ. eigenvalues --   -1.12712  -1.12689  -1.12679  -1.12670  -1.12657
 Alpha  occ. eigenvalues --   -0.19026  -0.12994  -0.12707  -0.10606
 Alpha virt. eigenvalues --   -0.05439  -0.05187  -0.04766  -0.03035  -0.02892
 Alpha virt. eigenvalues --   -0.02298  -0.01499  -0.01162  -0.00323  -0.00216
 Alpha virt. eigenvalues --    0.00025   0.00361   0.00831   0.00897   0.00914

  Beta  occ. eigenvalues --  -38.43869 -38.43618 -38.43614 -38.43559 -38.43222
  Beta  occ. eigenvalues --  -38.43008 -38.42989  -2.19703  -2.19497  -2.19443
  Beta  occ. eigenvalues --   -2.19414  -2.19141  -2.18926  -2.18912  -1.13369
  Beta  occ. eigenvalues --   -1.13359  -1.13344  -1.13191  -1.13161  -1.13132
  Beta  occ. eigenvalues --   -1.13121  -1.13100  -1.13092  -1.13085  -1.13066
  Beta  occ. eigenvalues --   -1.13034  -1.12870  -1.12790  -1.12760  -1.12671
  Beta  occ. eigenvalues --   -1.12617  -1.12585  -1.12578  -1.12575  -1.12554
  Beta  occ. eigenvalues --   -0.18293  -0.12735  -0.12438
  Beta virt. eigenvalues --   -0.06692  -0.05424  -0.05178  -0.04750  -0.02235
  Beta virt. eigenvalues --   -0.02102  -0.01418  -0.01256  -0.01086  -0.00371
  Beta virt. eigenvalues --   -0.00275   0.00148   0.00381   0.00875   0.00890

 Mulliken charges and spin densities:
               1          2
     1  Na   0.025675  -0.080849
     2  Na   0.061643  -0.098697
     3  Na  -0.353349   0.738944
     4  Na   0.110806  -0.105987
     5  Na   0.261784  -0.086769
     6  Na  -0.299167   0.683148
     7  Na   0.192607  -0.049791
 Sum of Mulliken charges =  -0.00000   1.00000

 Dipole moment (field-independent basis, Debye):
    X=              0.0948    Y=              0.1243    Z=              0.0050  Tot=              0.1565
 Quadrupole moment (field-independent basis, Debye-Ang):
   XX=            -55.8497   YY=            -61.2925   ZZ=            -75.2322
   XY=             -0.2302   XZ=              0.3759   YZ=             -0.0189

 Normal termination of Gaussian 16 at Thu Dec  7 18:14:40 2023.
