 Gaussian 16, Revision B.01,
 Gaussian 16:  ES64L-G16RevB.01 20-Dec-2017

 -------------------------
 #P B3LYP/6-311+g(d) force
 -------------------------

 -----
 DPGEN
 -----
 Symbolic Z-matrix:
 Charge =  0 Multiplicity = 2

                         Standard orientation:
 ---------------------------------------------------------------------
 Center     Atomic      Atomic             Coordinates (Angstroms)
 Number     Number       Type             X           Y           Z
 ---------------------------------------------------------------------
      1         11           0        0.625269   -2.770153    0.047785
      2         11           0        1.050579    2.624450   -0.416573
      3         11           0       -0.058355   -0.168450    2.014718
      4         11           0       -1.955578    1.972811    0.436910
      5         11           0       -0.056307   -0.117149   -1.756374
      6         11           0       -2.725512   -1.304581   -0.393366
      7         11           0        3.119904   -0.236928    0.066901
 ---------------------------------------------------------------------

 SCF Done:  E(UB3LYP) =  -1136.13927906     A.U. after   19 cycles

 The electronic state is 2-A.
 Alpha  occ. eigenvalues --  -38.43817 -38.43718 -38.43627 -38.43446 -38.43342
 Alpha  occ. eigenvalues --  -38.43289 -38.43224  -2.19644  -2.19636  -2.19486
 Alpha  occ. eigenvalues --   -2.19335  -2.19320  -2.19195  -2.19108  -1.13321
 Alpha  occ. eigenvalues --   -1.13313  -1.13303  -1.13292  -1.13280  -1.13252
 Alpha  occ. eigenvalues --   -1.13202  -1.13135  -1.13123  -1.13050  -1.13018
 Alpha  occ. eigenvalues --   -1.12995  -1.12955  -1.12936  -1.12926  -1.12896
 Alpha  occ. eigenvalues --   -1.12863  -1.12830  -1.12776  -1.12747  -1.12717
 Alpha  occ. eigenvalues --   -0.18983  -0.12841  -0.12677  -0.11157
 Alpha virt. eigenvalues --   -0.05392  -0.04819  -0.04683  -0.03250  -0.03108
 Alpha virt. eigenvalues --   -0.02807  -0.01366  -0.01005  -0.00158  -0.00095
 Alpha virt. eigenvalues --    0.00059   0.00372   0.00880   0.00914   0.00956

  Beta  occ. eigenvalues --  -38.43816 -38.43627 -38.43618 -38.43440 -38.43277
  Beta  occ. eigenvalues --  -38.43269 -38.43216  -2.19639  -2.19476  -2.19470
  Beta  occ. eigenvalues --   -2.19313  -2.19202  -2.19177  -2.19096  -1.13304
  Beta  occ. eigenvalues --   -1.13300  -1.13279  -1.13211  -1.13176  -1.13173
  Beta  occ. eigenvalues --   -1.13139  -1.13116  -1.13108  -1.13020  -1.12968
  Beta  occ. eigenvalues --   -1.12940  -1.12924  -1.12887  -1.12870  -1.12851
  Beta  occ. eigenvalues --   -1.12835  -1.12803  -1.12748  -1.12730  -1.12709
  Beta  occ. eigenvalues --   -0.18233  -0.12595  -0.12402
  Beta virt. eigenvalues --   -0.07205  -0.05388  -0.04779  -0.04650  -0.02431
  Beta virt. eigenvalues --   -0.02326  -0.01734  -0.01290  -0.00928  -0.00159
  Beta virt. eigenvalues --   -0.00115   0.00126   0.00389   0.00893   0.00931

 Mulliken charges and spin densities:
               1          2
     1  Na   0.126591  -0.095703
     2  Na   0.087192  -0.042165
     3  Na  -0.350592   0.640567
     4  Na   0.205007   0.072745
     5  Na  -0.236102   0.553139
     6  Na   0.187191  -0.048154
     7  Na  -0.019287  -0.080428
 Sum of Mulliken charges =  -0.00000   1.00000

 Dipole moment (field-independent basis, Debye):
    X=              0.1103    Y=             -0.2428    Z=              0.1248  Tot=              0.2945
 Quadrupole moment (field-independent basis, Debye-Ang):
   XX=            -58.6435   YY=            -63.3216   ZZ=            -72.3277
   XY=              0.3236   XZ=              0.1232   YZ=              0.1105

 Normal termination of Gaussian 16 at Thu Dec  7 21:12:42 2023.
