 Gaussian 16, Revision B.01,
 Gaussian 16:  ES64L-G16RevB.01 20-Dec-2017

 -------------------------
 #P B3LYP/6-311+g(d) force
 -------------------------

 -----
 DPGEN
 -----
 Symbolic Z-matrix:
 Charge =  0 Multiplicity = 2

                         Standard orientation:
 ---------------------------------------------------------------------
 Center     Atomic      Atomic             Coordinates (Angstroms)
 Number     Number       Type             X           Y           Z
 ---------------------------------------------------------------------
      1         11           0        0.029604    0.059492   -1.832205
      2         11           0        2.901019   -0.216307    0.106725
      3         11           0        0.704170   -2.512849   -0.190917
      4         11           0       -2.191635   -1.615423    0.098652
      5         11           0       -0.125278   -0.004059    1.935368
      6         11           0       -2.403966    1.663038   -0.133374
      7         11           0        1.086086    2.626109    0.015752
 ---------------------------------------------------------------------

 SCF Done:  E(UB3LYP) =  -1136.13730654     A.U. after   18 cycles

 The electronic state is 2-A.
 Alpha  occ. eigenvalues --  -38.43541 -38.43539 -38.43507 -38.43391 -38.43374
 Alpha  occ. eigenvalues --  -38.43291 -38.43032  -2.19518  -2.19433  -2.19405
 Alpha  occ. eigenvalues --   -2.19383  -2.19251  -2.19247  -2.19010  -1.13223
 Alpha  occ. eigenvalues --   -1.13173  -1.13152  -1.13130  -1.13106  -1.13098
 Alpha  occ. eigenvalues --   -1.13094  -1.13083  -1.13050  -1.13042  -1.13022
 Alpha  occ. eigenvalues --   -1.12998  -1.12957  -1.12916  -1.12909  -1.12894
 Alpha  occ. eigenvalues --   -1.12874  -1.12866  -1.12675  -1.12647  -1.12623
 Alpha  occ. eigenvalues --   -0.19554  -0.13090  -0.12768  -0.11271
 Alpha virt. eigenvalues --   -0.05200  -0.04873  -0.04523  -0.03278  -0.03122
 Alpha virt. eigenvalues --   -0.02796  -0.01189  -0.00940  -0.00043   0.00029
 Alpha virt. eigenvalues --    0.00177   0.00379   0.00918   0.00975   0.00994

  Beta  occ. eigenvalues --  -38.43535 -38.43502 -38.43452 -38.43369 -38.43308
  Beta  occ. eigenvalues --  -38.43282 -38.43022  -2.19429  -2.19378  -2.19356
  Beta  occ. eigenvalues --   -2.19255  -2.19244  -2.19239  -2.18996  -1.13144
  Beta  occ. eigenvalues --   -1.13124  -1.13097  -1.13078  -1.13070  -1.13046
  Beta  occ. eigenvalues --   -1.13035  -1.13025  -1.13015  -1.12995  -1.12967
  Beta  occ. eigenvalues --   -1.12940  -1.12908  -1.12894  -1.12877  -1.12870
  Beta  occ. eigenvalues --   -1.12865  -1.12838  -1.12663  -1.12620  -1.12597
  Beta  occ. eigenvalues --   -0.18770  -0.12819  -0.12483
  Beta virt. eigenvalues --   -0.07277  -0.05201  -0.04856  -0.04528  -0.02423
  Beta virt. eigenvalues --   -0.02268  -0.01706  -0.01119  -0.00876  -0.00033
  Beta virt. eigenvalues --    0.00071   0.00135   0.00385   0.00945   0.00969

 Mulliken charges and spin densities:
               1          2
     1  Na  -0.552471   0.597450
     2  Na   0.127036  -0.061236
     3  Na   0.398528   0.016199
     4  Na   0.397878   0.007347
     5  Na  -0.631329   0.664797
     6  Na   0.154069  -0.106604
     7  Na   0.106289  -0.117954
 Sum of Mulliken charges =  -0.00000   1.00000

 Dipole moment (field-independent basis, Debye):
    X=              0.0224    Y=              0.3189    Z=              0.0897  Tot=              0.3320
 Quadrupole moment (field-independent basis, Debye-Ang):
   XX=            -59.6861   YY=            -63.5743   ZZ=            -71.6431
   XY=             -0.2508   XZ=              0.4063   YZ=              0.0735

 Normal termination of Gaussian 16 at Thu Dec  7 14:48:09 2023.
