 Gaussian 16, Revision B.01,
 Gaussian 16:  ES64L-G16RevB.01 20-Dec-2017

 -------------------------
 #P B3LYP/6-311+g(d) force
 -------------------------

 -----
 DPGEN
 -----
 Symbolic Z-matrix:
 Charge =  0 Multiplicity = 2

                         Standard orientation:
 ---------------------------------------------------------------------
 Center     Atomic      Atomic             Coordinates (Angstroms)
 Number     Number       Type             X           Y           Z
 ---------------------------------------------------------------------
      1         11           0       -0.199698    0.116135   -1.454163
      2         11           0       -3.828807   -0.201297   -0.603002
      3         11           0       -1.261218   -2.164197    0.502180
      4         11           0        0.995276    0.188268    1.984760
      5         11           0       -1.293595    2.384854    0.655000
      6         11           0        2.896419    1.426003   -0.850042
      7         11           0        2.691622   -1.749765   -0.234734
 ---------------------------------------------------------------------

 SCF Done:  E(UB3LYP) =  -1136.12828413     A.U. after   22 cycles

 The electronic state is 2-A.
 Alpha  occ. eigenvalues --  -38.44929 -38.44210 -38.44027 -38.43871 -38.43582
 Alpha  occ. eigenvalues --  -38.43031 -38.42949  -2.20721  -2.20065  -2.19973
 Alpha  occ. eigenvalues --   -2.19725  -2.19503  -2.18891  -2.18783  -1.14396
 Alpha  occ. eigenvalues --   -1.14367  -1.14348  -1.13750  -1.13732  -1.13698
 Alpha  occ. eigenvalues --   -1.13688  -1.13626  -1.13580  -1.13406  -1.13385
 Alpha  occ. eigenvalues --   -1.13355  -1.13181  -1.13137  -1.13105  -1.12604
 Alpha  occ. eigenvalues --   -1.12559  -1.12495  -1.12472  -1.12452  -1.12400
 Alpha  occ. eigenvalues --   -0.18530  -0.13857  -0.11284  -0.11036
 Alpha virt. eigenvalues --   -0.06622  -0.05231  -0.04133  -0.03124  -0.02580
 Alpha virt. eigenvalues --   -0.02539  -0.02440  -0.01094  -0.00643  -0.00154
 Alpha virt. eigenvalues --    0.00129   0.00209   0.00517   0.00726   0.00774

  Beta  occ. eigenvalues --  -38.44913 -38.44177 -38.44000 -38.43863 -38.43492
  Beta  occ. eigenvalues --  -38.43022 -38.42936  -2.20690  -2.20004  -2.19925
  Beta  occ. eigenvalues --   -2.19715  -2.19339  -2.18878  -2.18763  -1.14371
  Beta  occ. eigenvalues --   -1.14347  -1.14328  -1.13705  -1.13690  -1.13651
  Beta  occ. eigenvalues --   -1.13638  -1.13599  -1.13542  -1.13397  -1.13376
  Beta  occ. eigenvalues --   -1.13329  -1.13068  -1.13026  -1.12980  -1.12599
  Beta  occ. eigenvalues --   -1.12536  -1.12475  -1.12461  -1.12420  -1.12385
  Beta  occ. eigenvalues --   -0.17847  -0.13529  -0.11042
  Beta virt. eigenvalues --   -0.07240  -0.06369  -0.05200  -0.03760  -0.02856
  Beta virt. eigenvalues --   -0.02300  -0.01892  -0.01552  -0.01069  -0.00436
  Beta virt. eigenvalues --   -0.00011   0.00132   0.00273   0.00668   0.00777

 Mulliken charges and spin densities:
               1          2
     1  Na  -0.488075   0.224498
     2  Na   0.448299   0.098402
     3  Na  -0.222294  -0.054094
     4  Na   0.054572   0.564928
     5  Na  -0.222927  -0.039616
     6  Na   0.273278   0.144091
     7  Na   0.157146   0.061790
 Sum of Mulliken charges =  -0.00000   1.00000

 Dipole moment (field-independent basis, Debye):
    X=             -0.2037    Y=              0.0877    Z=             -0.0845  Tot=              0.2373
 Quadrupole moment (field-independent basis, Debye-Ang):
   XX=            -48.7130   YY=            -72.8323   ZZ=            -71.0850
   XY=             -0.6893   XZ=              0.2551   YZ=             -0.4374

 Normal termination of Gaussian 16 at Tue Dec  5 13:06:00 2023.
