 Gaussian 16, Revision B.01,
 Gaussian 16:  ES64L-G16RevB.01 20-Dec-2017

 -------------------------
 #P B3LYP/6-311+g(d) force
 -------------------------

 -----
 DPGEN
 -----
 Symbolic Z-matrix:
 Charge =  0 Multiplicity = 2

                         Standard orientation:
 ---------------------------------------------------------------------
 Center     Atomic      Atomic             Coordinates (Angstroms)
 Number     Number       Type             X           Y           Z
 ---------------------------------------------------------------------
      1         11           0       -1.434835   -1.852773   -1.139830
      2         11           0       -4.830122   -1.324494   -0.464874
      3         11           0       -5.013456    2.156930   -0.396270
      4         11           0       -2.080282    1.495037    0.928692
      5         11           0        0.829026   -1.194726    1.612496
      6         11           0        5.208628   -0.277880    0.623695
      7         11           0        7.321040    0.997906   -1.163907
 ---------------------------------------------------------------------

 SCF Done:  E(UB3LYP) =  -1136.11207392     A.U. after   20 cycles

 The electronic state is 2-A.
 Alpha  occ. eigenvalues --  -38.45099 -38.44793 -38.44782 -38.44091 -38.43998
 Alpha  occ. eigenvalues --  -38.43912 -38.43819  -2.20905  -2.20608  -2.20577
 Alpha  occ. eigenvalues --   -2.19909  -2.19760  -2.19706  -2.19605  -1.14596
 Alpha  occ. eigenvalues --   -1.14559  -1.14507  -1.14285  -1.14275  -1.14257
 Alpha  occ. eigenvalues --   -1.14228  -1.14218  -1.14181  -1.13577  -1.13567
 Alpha  occ. eigenvalues --   -1.13541  -1.13443  -1.13429  -1.13427  -1.13387
 Alpha  occ. eigenvalues --   -1.13357  -1.13357  -1.13264  -1.13260  -1.13195
 Alpha  occ. eigenvalues --   -0.16513  -0.13260  -0.12171  -0.11545
 Alpha virt. eigenvalues --   -0.06726  -0.05475  -0.04682  -0.03538  -0.03118
 Alpha virt. eigenvalues --   -0.02531  -0.02131  -0.01787  -0.01460  -0.01258
 Alpha virt. eigenvalues --   -0.00605  -0.00170   0.00200   0.00300   0.00354

  Beta  occ. eigenvalues --  -38.45037 -38.44739 -38.44729 -38.44073 -38.43985
  Beta  occ. eigenvalues --  -38.43908 -38.43820  -2.20791  -2.20501  -2.20491
  Beta  occ. eigenvalues --   -2.19878  -2.19735  -2.19698  -2.19608  -1.14520
  Beta  occ. eigenvalues --   -1.14483  -1.14413  -1.14210  -1.14207  -1.14196
  Beta  occ. eigenvalues --   -1.14168  -1.14134  -1.14103  -1.13551  -1.13537
  Beta  occ. eigenvalues --   -1.13522  -1.13440  -1.13413  -1.13405  -1.13374
  Beta  occ. eigenvalues --   -1.13352  -1.13352  -1.13267  -1.13262  -1.13193
  Beta  occ. eigenvalues --   -0.15694  -0.13169  -0.11995
  Beta virt. eigenvalues --   -0.07675  -0.06468  -0.05015  -0.04536  -0.03135
  Beta virt. eigenvalues --   -0.02457  -0.02432  -0.02020  -0.01624  -0.01294
  Beta virt. eigenvalues --   -0.00825  -0.00349  -0.00040   0.00356   0.00380

 Mulliken charges and spin densities:
               1          2
     1  Na  -0.016815   0.278650
     2  Na   0.035069   0.260426
     3  Na   0.398375  -0.074163
     4  Na  -0.191617   0.457557
     5  Na  -0.271941   0.075828
     6  Na  -0.505834  -0.013205
     7  Na   0.552763   0.014908
 Sum of Mulliken charges =  -0.00000   1.00000

 Dipole moment (field-independent basis, Debye):
    X=             -1.6442    Y=              0.1828    Z=             -0.3717  Tot=              1.6956
 Quadrupole moment (field-independent basis, Debye-Ang):
   XX=            -63.0135   YY=            -68.8416   ZZ=            -67.0348
   XY=              1.4809   XZ=             -2.5069   YZ=             -2.9352

 Normal termination of Gaussian 16 at Tue Nov 28 23:51:40 2023.
