 Gaussian 16, Revision B.01,
 Gaussian 16:  ES64L-G16RevB.01 20-Dec-2017

 -------------------------
 #P B3LYP/6-311+g(d) force
 -------------------------

 -----
 DPGEN
 -----
 Symbolic Z-matrix:
 Charge =  0 Multiplicity = 2

                         Standard orientation:
 ---------------------------------------------------------------------
 Center     Atomic      Atomic             Coordinates (Angstroms)
 Number     Number       Type             X           Y           Z
 ---------------------------------------------------------------------
      1         11           0       -0.191766    0.079276   -1.506818
      2         11           0        0.313170   -0.123757    1.727772
      3         11           0        0.133545   -2.850487   -0.201121
      4         11           0        3.420723   -0.559770    0.090817
      5         11           0        1.885094    2.380441   -0.318418
      6         11           0       -3.024305   -1.203251   -0.027464
      7         11           0       -2.536460    2.277548    0.235232
 ---------------------------------------------------------------------

 SCF Done:  E(UB3LYP) =  -1136.13205963     A.U. after   22 cycles

 The electronic state is 2-A.
 Alpha  occ. eigenvalues --  -38.44883 -38.44496 -38.43884 -38.43717 -38.43289
 Alpha  occ. eigenvalues --  -38.42926 -38.42912  -2.20688  -2.20318  -2.19669
 Alpha  occ. eigenvalues --   -2.19562  -2.19217  -2.18899  -2.18797  -1.14358
 Alpha  occ. eigenvalues --   -1.14346  -1.14329  -1.14000  -1.13979  -1.13950
 Alpha  occ. eigenvalues --   -1.13339  -1.13324  -1.13316  -1.13250  -1.13221
 Alpha  occ. eigenvalues --   -1.13193  -1.12939  -1.12850  -1.12818  -1.12615
 Alpha  occ. eigenvalues --   -1.12564  -1.12511  -1.12463  -1.12445  -1.12414
 Alpha  occ. eigenvalues --   -0.18475  -0.13470  -0.12048  -0.10022
 Alpha virt. eigenvalues --   -0.06333  -0.05581  -0.04460  -0.03142  -0.02447
 Alpha virt. eigenvalues --   -0.02167  -0.01893  -0.01375  -0.00685  -0.00458
 Alpha virt. eigenvalues --   -0.00014   0.00286   0.00677   0.00779   0.00833

  Beta  occ. eigenvalues --  -38.44880 -38.44492 -38.43881 -38.43704 -38.43215
  Beta  occ. eigenvalues --  -38.42917 -38.42846  -2.20684  -2.20315  -2.19664
  Beta  occ. eigenvalues --   -2.19542  -2.19082  -2.18787  -2.18778  -1.14350
  Beta  occ. eigenvalues --   -1.14330  -1.14328  -1.13988  -1.13972  -1.13946
  Beta  occ. eigenvalues --   -1.13328  -1.13317  -1.13314  -1.13234  -1.13185
  Beta  occ. eigenvalues --   -1.13183  -1.12845  -1.12756  -1.12718  -1.12546
  Beta  occ. eigenvalues --   -1.12491  -1.12439  -1.12427  -1.12410  -1.12385
  Beta  occ. eigenvalues --   -0.17793  -0.13241  -0.11784
  Beta virt. eigenvalues --   -0.06317  -0.06175  -0.05546  -0.04434  -0.02417
  Beta virt. eigenvalues --   -0.02065  -0.01740  -0.01318  -0.00928  -0.00720
  Beta virt. eigenvalues --   -0.00482   0.00147   0.00324   0.00727   0.00785

 Mulliken charges and spin densities:
               1          2
     1  Na  -0.105102   0.459776
     2  Na  -0.340040   0.798196
     3  Na   0.040645  -0.113921
     4  Na   0.236812  -0.021997
     5  Na   0.053437  -0.056361
     6  Na   0.178913  -0.025830
     7  Na  -0.064665  -0.039863
 Sum of Mulliken charges =  -0.00000   1.00000

 Dipole moment (field-independent basis, Debye):
    X=              0.2109    Y=             -0.0785    Z=              0.0631  Tot=              0.2338
 Quadrupole moment (field-independent basis, Debye-Ang):
   XX=            -49.2212   YY=            -63.0898   ZZ=            -78.1342
   XY=             -0.1921   XZ=             -0.9236   YZ=              0.5845

 Normal termination of Gaussian 16 at Fri Dec  8 06:21:21 2023.
