 Gaussian 16, Revision B.01,
 Gaussian 16:  ES64L-G16RevB.01 20-Dec-2017

 -------------------------
 #P B3LYP/6-311+g(d) force
 -------------------------

 -----
 DPGEN
 -----
 Symbolic Z-matrix:
 Charge =  0 Multiplicity = 2

                         Standard orientation:
 ---------------------------------------------------------------------
 Center     Atomic      Atomic             Coordinates (Angstroms)
 Number     Number       Type             X           Y           Z
 ---------------------------------------------------------------------
      1         11           0        0.831683   -2.731554    0.131856
      2         11           0       -2.956759   -1.465951   -0.110103
      3         11           0        1.530173    2.436000    0.015386
      4         11           0       -0.503154   -0.109116   -1.661072
      5         11           0        0.236504   -0.161621    2.181400
      6         11           0        2.846499   -0.366964   -0.603748
      7         11           0       -1.984947    2.399205    0.046282
 ---------------------------------------------------------------------

 SCF Done:  E(UB3LYP) =  -1136.13618854     A.U. after   19 cycles

 The electronic state is 2-A.
 Alpha  occ. eigenvalues --  -38.44146 -38.43936 -38.43896 -38.43489 -38.43487
 Alpha  occ. eigenvalues --  -38.43307 -38.43285  -2.19944  -2.19769  -2.19745
 Alpha  occ. eigenvalues --   -2.19389  -2.19365  -2.19245  -2.19175  -1.13643
 Alpha  occ. eigenvalues --   -1.13598  -1.13573  -1.13435  -1.13431  -1.13413
 Alpha  occ. eigenvalues --   -1.13396  -1.13388  -1.13375  -1.13124  -1.13090
 Alpha  occ. eigenvalues --   -1.13043  -1.13027  -1.13018  -1.12959  -1.12920
 Alpha  occ. eigenvalues --   -1.12880  -1.12872  -1.12835  -1.12831  -1.12807
 Alpha  occ. eigenvalues --   -0.18622  -0.12880  -0.12517  -0.11004
 Alpha virt. eigenvalues --   -0.05717  -0.05091  -0.04555  -0.03227  -0.03050
 Alpha virt. eigenvalues --   -0.02807  -0.01428  -0.01176  -0.00280  -0.00246
 Alpha virt. eigenvalues --   -0.00024   0.00357   0.00818   0.00858   0.00943

  Beta  occ. eigenvalues --  -38.44145 -38.43936 -38.43793 -38.43481 -38.43470
  Beta  occ. eigenvalues --  -38.43302 -38.43230  -2.19945  -2.19747  -2.19579
  Beta  occ. eigenvalues --   -2.19362  -2.19354  -2.19170  -2.19143  -1.13635
  Beta  occ. eigenvalues --   -1.13593  -1.13576  -1.13430  -1.13401  -1.13378
  Beta  occ. eigenvalues --   -1.13307  -1.13261  -1.13258  -1.13113  -1.13074
  Beta  occ. eigenvalues --   -1.13014  -1.13001  -1.12982  -1.12950  -1.12856
  Beta  occ. eigenvalues --   -1.12835  -1.12817  -1.12800  -1.12797  -1.12794
  Beta  occ. eigenvalues --   -0.17882  -0.12659  -0.12290
  Beta virt. eigenvalues --   -0.07049  -0.05717  -0.04988  -0.04531  -0.02484
  Beta virt. eigenvalues --   -0.02258  -0.01744  -0.01332  -0.01111  -0.00301
  Beta virt. eigenvalues --   -0.00280   0.00116   0.00390   0.00826   0.00915

 Mulliken charges and spin densities:
               1          2
     1  Na   0.269697   0.036031
     2  Na   0.077065  -0.108124
     3  Na   0.109500   0.024093
     4  Na  -0.116427   0.349760
     5  Na  -0.528829   0.694158
     6  Na   0.175225   0.082645
     7  Na   0.013768  -0.078563
 Sum of Mulliken charges =  -0.00000   1.00000

 Dipole moment (field-independent basis, Debye):
    X=             -0.5196    Y=             -0.0639    Z=              0.2045  Tot=              0.5620
 Quadrupole moment (field-independent basis, Debye-Ang):
   XX=            -58.9504   YY=            -62.5733   ZZ=            -72.9611
   XY=             -0.0027   XZ=             -1.8242   YZ=              0.1751

 Normal termination of Gaussian 16 at Tue Dec  5 16:47:17 2023.
