 Gaussian 16, Revision B.01,
 Gaussian 16:  ES64L-G16RevB.01 20-Dec-2017

 -------------------------
 #P B3LYP/6-311+g(d) force
 -------------------------

 -----
 DPGEN
 -----
 Symbolic Z-matrix:
 Charge =  0 Multiplicity = 2

                         Standard orientation:
 ---------------------------------------------------------------------
 Center     Atomic      Atomic             Coordinates (Angstroms)
 Number     Number       Type             X           Y           Z
 ---------------------------------------------------------------------
      1         11           0       -0.542830    2.938029   -0.104045
      2         11           0        2.265147   -2.223825    0.202001
      3         11           0       -0.167467   -0.137799   -1.427345
      4         11           0       -1.589504   -2.507665   -0.159435
      5         11           0        0.383420    0.480134    2.392595
      6         11           0        2.719236    1.190739   -0.811551
      7         11           0       -3.068003    0.260388   -0.092221
 ---------------------------------------------------------------------

 SCF Done:  E(UB3LYP) =  -1136.13403987     A.U. after   19 cycles

 The electronic state is 2-A.
 Alpha  occ. eigenvalues --  -38.44153 -38.43948 -38.43829 -38.43777 -38.43495
 Alpha  occ. eigenvalues --  -38.43360 -38.43088  -2.19977  -2.19785  -2.19700
 Alpha  occ. eigenvalues --   -2.19575  -2.19375  -2.19193  -2.19124  -1.13623
 Alpha  occ. eigenvalues --   -1.13607  -1.13593  -1.13490  -1.13432  -1.13415
 Alpha  occ. eigenvalues --   -1.13403  -1.13370  -1.13330  -1.13245  -1.13236
 Alpha  occ. eigenvalues --   -1.13220  -1.13124  -1.13023  -1.12982  -1.12890
 Alpha  occ. eigenvalues --   -1.12859  -1.12828  -1.12794  -1.12757  -1.12735
 Alpha  occ. eigenvalues --   -0.18407  -0.13029  -0.12330  -0.10992
 Alpha virt. eigenvalues --   -0.05379  -0.05291  -0.04705  -0.03259  -0.03023
 Alpha virt. eigenvalues --   -0.02773  -0.01407  -0.01152  -0.00379  -0.00331
 Alpha virt. eigenvalues --   -0.00042   0.00340   0.00772   0.00860   0.00887

  Beta  occ. eigenvalues --  -38.44043 -38.43925 -38.43827 -38.43775 -38.43493
  Beta  occ. eigenvalues --  -38.43358 -38.43044  -2.19773  -2.19745  -2.19699
  Beta  occ. eigenvalues --   -2.19573  -2.19375  -2.19192  -2.19045  -1.13485
  Beta  occ. eigenvalues --   -1.13469  -1.13452  -1.13446  -1.13413  -1.13397
  Beta  occ. eigenvalues --   -1.13379  -1.13362  -1.13324  -1.13236  -1.13228
  Beta  occ. eigenvalues --   -1.13219  -1.13114  -1.13016  -1.12979  -1.12884
  Beta  occ. eigenvalues --   -1.12840  -1.12825  -1.12736  -1.12699  -1.12684
  Beta  occ. eigenvalues --   -0.17738  -0.12789  -0.12145
  Beta virt. eigenvalues --   -0.06992  -0.05331  -0.05249  -0.04629  -0.02519
  Beta virt. eigenvalues --   -0.02248  -0.01748  -0.01314  -0.01059  -0.00406
  Beta virt. eigenvalues --   -0.00355   0.00137   0.00387   0.00855   0.00874

 Mulliken charges and spin densities:
               1          2
     1  Na   0.219035   0.038818
     2  Na   0.049304   0.070498
     3  Na  -0.301539  -0.007096
     4  Na   0.263743   0.063286
     5  Na  -0.713945   0.742034
     6  Na   0.271360   0.050784
     7  Na   0.212041   0.041677
 Sum of Mulliken charges =  -0.00000   1.00000

 Dipole moment (field-independent basis, Debye):
    X=              0.0977    Y=              0.0456    Z=              0.2697  Tot=              0.2905
 Quadrupole moment (field-independent basis, Debye-Ang):
   XX=            -58.4803   YY=            -62.4230   ZZ=            -73.3965
   XY=             -0.6571   XZ=             -1.0655   YZ=             -1.4904

 Normal termination of Gaussian 16 at Thu Dec  7 02:19:43 2023.
