 Gaussian 16, Revision B.01,
 Gaussian 16:  ES64L-G16RevB.01 20-Dec-2017

 -------------------------
 #P B3LYP/6-311+g(d) force
 -------------------------

 -----
 DPGEN
 -----
 Symbolic Z-matrix:
 Charge =  0 Multiplicity = 2

                         Standard orientation:
 ---------------------------------------------------------------------
 Center     Atomic      Atomic             Coordinates (Angstroms)
 Number     Number       Type             X           Y           Z
 ---------------------------------------------------------------------
      1         11           0       -1.660828   -2.476403   -0.315518
      2         11           0       -0.124697    0.307299    2.088137
      3         11           0        1.897585   -2.686370    0.073735
      4         11           0       -3.345218    0.524578   -0.074537
      5         11           0        0.252406    3.293297   -0.161042
      6         11           0        0.081025    0.376812   -1.439867
      7         11           0        2.899727    0.660787   -0.170907
 ---------------------------------------------------------------------

 SCF Done:  E(UB3LYP) =  -1136.13434537     A.U. after   19 cycles

 The electronic state is 2-A.
 Alpha  occ. eigenvalues --  -38.44233 -38.44103 -38.44030 -38.43746 -38.43621
 Alpha  occ. eigenvalues --  -38.43445 -38.43097  -2.20020  -2.19920  -2.19887
 Alpha  occ. eigenvalues --   -2.19570  -2.19422  -2.19306  -2.19081  -1.13691
 Alpha  occ. eigenvalues --   -1.13676  -1.13668  -1.13623  -1.13609  -1.13572
 Alpha  occ. eigenvalues --   -1.13555  -1.13545  -1.13492  -1.13256  -1.13237
 Alpha  occ. eigenvalues --   -1.13200  -1.13089  -1.13078  -1.13072  -1.12978
 Alpha  occ. eigenvalues --   -1.12924  -1.12921  -1.12770  -1.12717  -1.12708
 Alpha  occ. eigenvalues --   -0.18248  -0.12928  -0.12463  -0.10333
 Alpha virt. eigenvalues --   -0.05891  -0.05307  -0.05025  -0.02970  -0.02746
 Alpha virt. eigenvalues --   -0.02346  -0.01605  -0.01530  -0.00634  -0.00579
 Alpha virt. eigenvalues --   -0.00006   0.00321   0.00760   0.00783   0.00849

  Beta  occ. eigenvalues --  -38.44233 -38.44098 -38.44023 -38.43739 -38.43622
  Beta  occ. eigenvalues --  -38.43341 -38.43046  -2.20021  -2.19914  -2.19876
  Beta  occ. eigenvalues --   -2.19560  -2.19425  -2.19113  -2.18991  -1.13681
  Beta  occ. eigenvalues --   -1.13677  -1.13666  -1.13612  -1.13597  -1.13557
  Beta  occ. eigenvalues --   -1.13547  -1.13516  -1.13489  -1.13245  -1.13217
  Beta  occ. eigenvalues --   -1.13197  -1.13083  -1.13076  -1.13074  -1.12850
  Beta  occ. eigenvalues --   -1.12790  -1.12783  -1.12699  -1.12650  -1.12641
  Beta  occ. eigenvalues --   -0.17553  -0.12697  -0.12283
  Beta virt. eigenvalues --   -0.06417  -0.05899  -0.05232  -0.04987  -0.02221
  Beta virt. eigenvalues --   -0.02050  -0.01544  -0.01460  -0.01268  -0.00676
  Beta virt. eigenvalues --   -0.00606   0.00155   0.00366   0.00758   0.00811

 Mulliken charges and spin densities:
               1          2
     1  Na   0.087150   0.024361
     2  Na  -0.507556   0.806761
     3  Na  -0.036941  -0.005464
     4  Na   0.131871  -0.055791
     5  Na   0.243849  -0.061970
     6  Na  -0.260165   0.254187
     7  Na   0.341792   0.037916
 Sum of Mulliken charges =  -0.00000   1.00000

 Dipole moment (field-independent basis, Debye):
    X=             -0.1711    Y=              0.3924    Z=              0.0972  Tot=              0.4390
 Quadrupole moment (field-independent basis, Debye-Ang):
   XX=            -57.4237   YY=            -57.6949   ZZ=            -77.1147
   XY=             -0.9583   XZ=              0.4463   YZ=              0.0182

 Normal termination of Gaussian 16 at Thu Dec  7 03:25:28 2023.
