 Gaussian 16, Revision B.01,
 Gaussian 16:  ES64L-G16RevB.01 20-Dec-2017

 -------------------------
 #P B3LYP/6-311+g(d) force
 -------------------------

 -----
 DPGEN
 -----
 Symbolic Z-matrix:
 Charge =  0 Multiplicity = 2

                         Standard orientation:
 ---------------------------------------------------------------------
 Center     Atomic      Atomic             Coordinates (Angstroms)
 Number     Number       Type             X           Y           Z
 ---------------------------------------------------------------------
      1         11           0       -2.538512   -1.707396   -0.594272
      2         11           0       -1.891936    1.604000   -1.325630
      3         11           0        3.920582    0.135414    0.054043
      4         11           0        0.548508   -1.580596    1.795400
      5         11           0        1.173689    1.894148    0.427278
      6         11           0       -2.417051    0.764912    1.459195
      7         11           0        1.204719   -1.110482   -1.816014
 ---------------------------------------------------------------------

 SCF Done:  E(UB3LYP) =  -1136.12412716     A.U. after   23 cycles

 The electronic state is 2-A.
 Alpha  occ. eigenvalues --  -38.45284 -38.44262 -38.44216 -38.43868 -38.43791
 Alpha  occ. eigenvalues --  -38.43351 -38.43127  -2.21082  -2.20127  -2.20082
 Alpha  occ. eigenvalues --   -2.19679  -2.19627  -2.19252  -2.18977  -1.14755
 Alpha  occ. eigenvalues --   -1.14744  -1.14714  -1.13856  -1.13772  -1.13763
 Alpha  occ. eigenvalues --   -1.13753  -1.13730  -1.13696  -1.13364  -1.13323
 Alpha  occ. eigenvalues --   -1.13306  -1.13298  -1.13291  -1.13252  -1.12933
 Alpha  occ. eigenvalues --   -1.12904  -1.12864  -1.12672  -1.12660  -1.12592
 Alpha  occ. eigenvalues --   -0.18265  -0.14028  -0.11319  -0.10954
 Alpha virt. eigenvalues --   -0.06769  -0.05165  -0.04652  -0.03193  -0.02878
 Alpha virt. eigenvalues --   -0.02569  -0.02331  -0.00887  -0.00516  -0.00300
 Alpha virt. eigenvalues --    0.00137   0.00177   0.00305   0.00670   0.00767

  Beta  occ. eigenvalues --  -38.45286 -38.44209 -38.44190 -38.43811 -38.43787
  Beta  occ. eigenvalues --  -38.43327 -38.43116  -2.21086  -2.20078  -2.19984
  Beta  occ. eigenvalues --   -2.19623  -2.19575  -2.19208  -2.18960  -1.14754
  Beta  occ. eigenvalues --   -1.14741  -1.14719  -1.13822  -1.13733  -1.13715
  Beta  occ. eigenvalues --   -1.13698  -1.13658  -1.13625  -1.13306  -1.13292
  Beta  occ. eigenvalues --   -1.13272  -1.13251  -1.13239  -1.13217  -1.12905
  Beta  occ. eigenvalues --   -1.12871  -1.12823  -1.12663  -1.12623  -1.12585
  Beta  occ. eigenvalues --   -0.17530  -0.13892  -0.10781
  Beta virt. eigenvalues --   -0.07447  -0.06591  -0.04913  -0.04104  -0.02961
  Beta virt. eigenvalues --   -0.02357  -0.02203  -0.01738  -0.00747  -0.00225
  Beta virt. eigenvalues --   -0.00194   0.00166   0.00314   0.00335   0.00782

 Mulliken charges and spin densities:
               1          2
     1  Na   0.026953  -0.033944
     2  Na   0.070466   0.313259
     3  Na   0.491614  -0.041013
     4  Na  -0.301234   0.306649
     5  Na  -0.318913   0.054926
     6  Na   0.307207   0.169421
     7  Na  -0.276093   0.230702
 Sum of Mulliken charges =  -0.00000   1.00000

 Dipole moment (field-independent basis, Debye):
    X=              1.1200    Y=             -0.3599    Z=              0.0345  Tot=              1.1769
 Quadrupole moment (field-independent basis, Debye-Ang):
   XX=            -48.5810   YY=            -79.0448   ZZ=            -66.8905
   XY=             -0.1014   XZ=              0.3739   YZ=              0.5915

 Normal termination of Gaussian 16 at Fri Dec  8 07:53:54 2023.
