 Gaussian 16, Revision B.01,
 Gaussian 16:  ES64L-G16RevB.01 20-Dec-2017

 -------------------------
 #P B3LYP/6-311+g(d) force
 -------------------------

 -----
 DPGEN
 -----
 Symbolic Z-matrix:
 Charge =  0 Multiplicity = 2

                         Standard orientation:
 ---------------------------------------------------------------------
 Center     Atomic      Atomic             Coordinates (Angstroms)
 Number     Number       Type             X           Y           Z
 ---------------------------------------------------------------------
      1         11           0       -0.339131    2.531228    0.382384
      2         11           0        2.498985    2.945583    0.056485
      3         11           0        4.756449   -0.328442   -0.286667
      4         11           0        2.703250   -2.830839   -0.344629
      5         11           0       -0.450087   -1.934572    1.224383
      6         11           0       -3.015254   -0.164195   -1.120161
      7         11           0       -6.154212   -0.218763    0.088205
 ---------------------------------------------------------------------

 SCF Done:  E(UB3LYP) =  -1136.10791246     A.U. after   20 cycles

 The electronic state is 2-A.
 Alpha  occ. eigenvalues --  -38.45300 -38.45187 -38.44671 -38.44639 -38.43872
 Alpha  occ. eigenvalues --  -38.43837 -38.43644  -2.21067  -2.20974  -2.20463
 Alpha  occ. eigenvalues --   -2.20402  -2.19662  -2.19653  -2.19462  -1.14726
 Alpha  occ. eigenvalues --   -1.14713  -1.14673  -1.14614  -1.14614  -1.14594
 Alpha  occ. eigenvalues --   -1.14121  -1.14110  -1.14092  -1.14083  -1.14076
 Alpha  occ. eigenvalues --   -1.14053  -1.13468  -1.13328  -1.13324  -1.13318
 Alpha  occ. eigenvalues --   -1.13309  -1.13294  -1.13111  -1.13095  -1.13059
 Alpha  occ. eigenvalues --   -0.15785  -0.13892  -0.12318  -0.11613
 Alpha virt. eigenvalues --   -0.06479  -0.05936  -0.04685  -0.03309  -0.03069
 Alpha virt. eigenvalues --   -0.02520  -0.02073  -0.01528  -0.01364  -0.00705
 Alpha virt. eigenvalues --   -0.00632  -0.00437  -0.00095   0.00160   0.00604

  Beta  occ. eigenvalues --  -38.45220 -38.45100 -38.44654 -38.44611 -38.43883
  Beta  occ. eigenvalues --  -38.43829 -38.43649  -2.20918  -2.20812  -2.20435
  Beta  occ. eigenvalues --   -2.20352  -2.19678  -2.19646  -2.19472  -1.14624
  Beta  occ. eigenvalues --   -1.14611  -1.14576  -1.14503  -1.14502  -1.14489
  Beta  occ. eigenvalues --   -1.14110  -1.14103  -1.14046  -1.14039  -1.14036
  Beta  occ. eigenvalues --   -1.14014  -1.13468  -1.13349  -1.13342  -1.13306
  Beta  occ. eigenvalues --   -1.13299  -1.13280  -1.13119  -1.13101  -1.13058
  Beta  occ. eigenvalues --   -0.15210  -0.13141  -0.12204
  Beta virt. eigenvalues --   -0.08337  -0.05878  -0.05493  -0.04407  -0.03076
  Beta virt. eigenvalues --   -0.02830  -0.02250  -0.01794  -0.01303  -0.00966
  Beta virt. eigenvalues --   -0.00624  -0.00368  -0.00272   0.00124   0.00285

 Mulliken charges and spin densities:
               1          2
     1  Na  -0.403591  -0.043739
     2  Na   0.406057   0.098413
     3  Na   0.021222   0.275968
     4  Na  -0.064827  -0.014262
     5  Na  -0.076077   0.377565
     6  Na  -0.028581  -0.047175
     7  Na   0.145798   0.353229
 Sum of Mulliken charges =  -0.00000   1.00000

 Dipole moment (field-independent basis, Debye):
    X=             -1.0460    Y=             -0.5758    Z=              0.3210  Tot=              1.2364
 Quadrupole moment (field-independent basis, Debye-Ang):
   XX=            -54.2138   YY=            -73.5602   ZZ=            -69.6013
   XY=              1.9050   XZ=             -4.0910   YZ=             -0.5200

 Normal termination of Gaussian 16 at Mon Dec  4 03:17:35 2023.
