 Gaussian 16, Revision B.01,
 Gaussian 16:  ES64L-G16RevB.01 20-Dec-2017

 -------------------------
 #P B3LYP/6-311+g(d) force
 -------------------------

 -----
 DPGEN
 -----
 Symbolic Z-matrix:
 Charge =  0 Multiplicity = 2

                         Standard orientation:
 ---------------------------------------------------------------------
 Center     Atomic      Atomic             Coordinates (Angstroms)
 Number     Number       Type             X           Y           Z
 ---------------------------------------------------------------------
      1         11           0        1.193374   -0.000432    2.001781
      2         11           0        3.465458    0.399702   -0.385271
      3         11           0        1.270162   -2.240403   -1.113380
      4         11           0       -2.217086   -0.674423   -2.016733
      5         11           0       -2.146121    1.797828    0.793004
      6         11           0        0.083958    2.888739   -0.703780
      7         11           0       -1.649744   -2.171011    1.424378
 ---------------------------------------------------------------------

 SCF Done:  E(UB3LYP) =  -1136.12711010     A.U. after   18 cycles

 The electronic state is 2-A.
 Alpha  occ. eigenvalues --  -38.44525 -38.44263 -38.44229 -38.43863 -38.43792
 Alpha  occ. eigenvalues --  -38.43773 -38.43669  -2.20304  -2.20104  -2.20017
 Alpha  occ. eigenvalues --   -2.19662  -2.19603  -2.19599  -2.19524  -1.13973
 Alpha  occ. eigenvalues --   -1.13944  -1.13924  -1.13775  -1.13750  -1.13741
 Alpha  occ. eigenvalues --   -1.13703  -1.13679  -1.13636  -1.13459  -1.13333
 Alpha  occ. eigenvalues --   -1.13317  -1.13291  -1.13274  -1.13252  -1.13250
 Alpha  occ. eigenvalues --   -1.13240  -1.13224  -1.13163  -1.13151  -1.13099
 Alpha  occ. eigenvalues --   -0.17473  -0.12853  -0.12153  -0.11368
 Alpha virt. eigenvalues --   -0.05651  -0.05104  -0.04935  -0.03713  -0.03444
 Alpha virt. eigenvalues --   -0.02948  -0.01212  -0.00781  -0.00602  -0.00372
 Alpha virt. eigenvalues --   -0.00097   0.00271   0.00460   0.00593   0.00675

  Beta  occ. eigenvalues --  -38.44471 -38.44207 -38.44205 -38.43830 -38.43788
  Beta  occ. eigenvalues --  -38.43769 -38.43666  -2.20203  -2.20002  -2.19974
  Beta  occ. eigenvalues --   -2.19603  -2.19595  -2.19591  -2.19520  -1.13899
  Beta  occ. eigenvalues --   -1.13879  -1.13855  -1.13711  -1.13675  -1.13668
  Beta  occ. eigenvalues --   -1.13660  -1.13644  -1.13606  -1.13457  -1.13284
  Beta  occ. eigenvalues --   -1.13280  -1.13262  -1.13247  -1.13240  -1.13239
  Beta  occ. eigenvalues --   -1.13234  -1.13216  -1.13152  -1.13143  -1.13094
  Beta  occ. eigenvalues --   -0.16783  -0.12677  -0.11971
  Beta virt. eigenvalues --   -0.07599  -0.05501  -0.04866  -0.04505  -0.03408
  Beta virt. eigenvalues --   -0.02895  -0.02088  -0.01138  -0.00727  -0.00306
  Beta virt. eigenvalues --   -0.00194  -0.00065   0.00390   0.00524   0.00786

 Mulliken charges and spin densities:
               1          2
     1  Na  -0.223660   0.284429
     2  Na   0.289781   0.033463
     3  Na  -0.184763   0.206147
     4  Na  -0.120338   0.283147
     5  Na  -0.002806   0.084268
     6  Na  -0.004139  -0.012074
     7  Na   0.245925   0.120620
 Sum of Mulliken charges =  -0.00000   1.00000

 Dipole moment (field-independent basis, Debye):
    X=              0.1289    Y=             -0.2107    Z=             -0.3025  Tot=              0.3906
 Quadrupole moment (field-independent basis, Debye-Ang):
   XX=            -62.1259   YY=            -70.0256   ZZ=            -66.0053
   XY=              2.0369   XZ=             -2.0729   YZ=             -0.9768

 Normal termination of Gaussian 16 at Sun Dec  3 20:30:26 2023.
