 Gaussian 16, Revision B.01,
 Gaussian 16:  ES64L-G16RevB.01 20-Dec-2017

 -------------------------
 #P B3LYP/6-311+g(d) force
 -------------------------

 -----
 DPGEN
 -----
 Symbolic Z-matrix:
 Charge =  0 Multiplicity = 2

                         Standard orientation:
 ---------------------------------------------------------------------
 Center     Atomic      Atomic             Coordinates (Angstroms)
 Number     Number       Type             X           Y           Z
 ---------------------------------------------------------------------
      1         11           0        4.309211   -0.390615    0.914370
      2         11           0       -3.665036    2.304358   -0.113199
      3         11           0        6.655758    0.710701   -0.589997
      4         11           0       -0.138438    1.538288    0.171841
      5         11           0       -2.725152   -2.019512   -0.117177
      6         11           0        1.265032   -1.738525   -0.321455
      7         11           0       -5.701375   -0.404695    0.055618
 ---------------------------------------------------------------------

 SCF Done:  E(UB3LYP) =  -1136.11431101     A.U. after   21 cycles

 The electronic state is 2-A.
 Alpha  occ. eigenvalues --  -38.45335 -38.44904 -38.44779 -38.44081 -38.44004
 Alpha  occ. eigenvalues --  -38.43761 -38.43593  -2.21118  -2.20685  -2.20585
 Alpha  occ. eigenvalues --   -2.19893  -2.19793  -2.19558  -2.19425  -1.14803
 Alpha  occ. eigenvalues --   -1.14769  -1.14720  -1.14367  -1.14349  -1.14294
 Alpha  occ. eigenvalues --   -1.14256  -1.14234  -1.14202  -1.13555  -1.13554
 Alpha  occ. eigenvalues --   -1.13534  -1.13473  -1.13450  -1.13428  -1.13316
 Alpha  occ. eigenvalues --   -1.13210  -1.13208  -1.13091  -1.13073  -1.13011
 Alpha  occ. eigenvalues --   -0.16335  -0.14077  -0.12002  -0.11574
 Alpha virt. eigenvalues --   -0.06822  -0.05553  -0.04294  -0.03691  -0.03240
 Alpha virt. eigenvalues --   -0.02700  -0.02186  -0.01441  -0.01006  -0.00880
 Alpha virt. eigenvalues --   -0.00419  -0.00243   0.00042   0.00135   0.00613

  Beta  occ. eigenvalues --  -38.45266 -38.44852 -38.44719 -38.44068 -38.43995
  Beta  occ. eigenvalues --  -38.43769 -38.43590  -2.20991  -2.20590  -2.20475
  Beta  occ. eigenvalues --   -2.19870  -2.19777  -2.19573  -2.19421  -1.14719
  Beta  occ. eigenvalues --   -1.14684  -1.14618  -1.14306  -1.14286  -1.14207
  Beta  occ. eigenvalues --   -1.14183  -1.14160  -1.14114  -1.13540  -1.13526
  Beta  occ. eigenvalues --   -1.13519  -1.13463  -1.13437  -1.13416  -1.13323
  Beta  occ. eigenvalues --   -1.13220  -1.13218  -1.13086  -1.13070  -1.13015
  Beta  occ. eigenvalues --   -0.15551  -0.13966  -0.11603
  Beta virt. eigenvalues --   -0.07916  -0.06554  -0.04915  -0.04114  -0.03421
  Beta virt. eigenvalues --   -0.02595  -0.02495  -0.02020  -0.01414  -0.00826
  Beta virt. eigenvalues --   -0.00480  -0.00198  -0.00036   0.00183   0.00261

 Mulliken charges and spin densities:
               1          2
     1  Na  -0.262562   0.080140
     2  Na   0.428779  -0.019155
     3  Na   0.239585  -0.053919
     4  Na  -0.361670   0.488715
     5  Na   0.086318   0.338821
     6  Na  -0.221384   0.121642
     7  Na   0.090934   0.043755
 Sum of Mulliken charges =  -0.00000   1.00000

 Dipole moment (field-independent basis, Debye):
    X=             -1.4900    Y=              0.1740    Z=             -0.2752  Tot=              1.5252
 Quadrupole moment (field-independent basis, Debye-Ang):
   XX=            -63.8648   YY=            -65.4497   ZZ=            -71.6198
   XY=              1.5966   XZ=             -3.7702   YZ=             -0.6653

 Normal termination of Gaussian 16 at Sun Dec  3 13:46:56 2023.
