 Gaussian 16, Revision B.01,
 Gaussian 16:  ES64L-G16RevB.01 20-Dec-2017

 -------------------------
 #P B3LYP/6-311+g(d) force
 -------------------------

 -----
 DPGEN
 -----
 Symbolic Z-matrix:
 Charge =  0 Multiplicity = 2

                         Standard orientation:
 ---------------------------------------------------------------------
 Center     Atomic      Atomic             Coordinates (Angstroms)
 Number     Number       Type             X           Y           Z
 ---------------------------------------------------------------------
      1         11           0       -2.029754   -2.139652   -0.209616
      2         11           0        0.515930    2.716577   -0.215095
      3         11           0       -0.267835   -0.266797    1.856447
      4         11           0       -0.045170    0.161446   -1.846948
      5         11           0        3.152254    0.452434    0.346086
      6         11           0        1.484864   -2.289001   -0.185649
      7         11           0       -2.810289    1.364993    0.254774
 ---------------------------------------------------------------------

 SCF Done:  E(UB3LYP) =  -1136.13908960     A.U. after   18 cycles

 The electronic state is 2-A.
 Alpha  occ. eigenvalues --  -38.43930 -38.43926 -38.43494 -38.43489 -38.43359
 Alpha  occ. eigenvalues --  -38.43202 -38.43197  -2.19764  -2.19762  -2.19433
 Alpha  occ. eigenvalues --   -2.19365  -2.19330  -2.19106  -2.19071  -1.13447
 Alpha  occ. eigenvalues --   -1.13438  -1.13424  -1.13424  -1.13405  -1.13399
 Alpha  occ. eigenvalues --   -1.13138  -1.13084  -1.13061  -1.13055  -1.13034
 Alpha  occ. eigenvalues --   -1.13005  -1.12992  -1.12981  -1.12937  -1.12781
 Alpha  occ. eigenvalues --   -1.12770  -1.12747  -1.12727  -1.12726  -1.12680
 Alpha  occ. eigenvalues --   -0.18942  -0.13084  -0.12488  -0.10926
 Alpha virt. eigenvalues --   -0.05587  -0.05138  -0.04419  -0.03259  -0.02980
 Alpha virt. eigenvalues --   -0.02595  -0.01534  -0.01057  -0.00223  -0.00093
 Alpha virt. eigenvalues --    0.00001   0.00362   0.00818   0.00908   0.00933

  Beta  occ. eigenvalues --  -38.43924 -38.43921 -38.43487 -38.43414 -38.43274
  Beta  occ. eigenvalues --  -38.43194 -38.43189  -2.19756  -2.19754  -2.19356
  Beta  occ. eigenvalues --   -2.19295  -2.19176  -2.19096  -2.19061  -1.13437
  Beta  occ. eigenvalues --   -1.13430  -1.13412  -1.13409  -1.13394  -1.13392
  Beta  occ. eigenvalues --   -1.13082  -1.13016  -1.13006  -1.12989  -1.12964
  Beta  occ. eigenvalues --   -1.12943  -1.12933  -1.12888  -1.12836  -1.12768
  Beta  occ. eigenvalues --   -1.12737  -1.12722  -1.12713  -1.12693  -1.12679
  Beta  occ. eigenvalues --   -0.18199  -0.12837  -0.12219
  Beta virt. eigenvalues --   -0.07014  -0.05525  -0.05139  -0.04394  -0.02484
  Beta virt. eigenvalues --   -0.02170  -0.01546  -0.01431  -0.00997  -0.00248
  Beta virt. eigenvalues --   -0.00146   0.00117   0.00382   0.00877   0.00904

 Mulliken charges and spin densities:
               1          2
     1  Na   0.225693  -0.100480
     2  Na   0.166253  -0.069612
     3  Na  -0.424711   0.706884
     4  Na  -0.259935   0.599087
     5  Na  -0.042474  -0.018893
     6  Na   0.239723  -0.024870
     7  Na   0.095450  -0.092116
 Sum of Mulliken charges =  -0.00000   1.00000

 Dipole moment (field-independent basis, Debye):
    X=             -0.1768    Y=              0.0518    Z=              0.1144  Tot=              0.2169
 Quadrupole moment (field-independent basis, Debye-Ang):
   XX=            -55.8082   YY=            -64.5797   ZZ=            -73.2743
   XY=              0.2438   XZ=              0.7295   YZ=              1.2236

 Normal termination of Gaussian 16 at Thu Dec  7 06:17:14 2023.
