 Gaussian 16, Revision B.01,
 Gaussian 16:  ES64L-G16RevB.01 20-Dec-2017

 -------------------------
 #P B3LYP/6-311+g(d) force
 -------------------------

 -----
 DPGEN
 -----
 Symbolic Z-matrix:
 Charge =  0 Multiplicity = 2

                         Standard orientation:
 ---------------------------------------------------------------------
 Center     Atomic      Atomic             Coordinates (Angstroms)
 Number     Number       Type             X           Y           Z
 ---------------------------------------------------------------------
      1         11           0       -3.061362   -1.329614   -0.487070
      2         11           0       -0.670898    1.576054   -0.848402
      3         11           0       -5.565879    0.350433    0.538435
      4         11           0        1.116434   -1.327280   -1.300460
      5         11           0        4.266284   -1.227412    0.394814
      6         11           0        0.959995    0.065386    2.168998
      7         11           0        2.955425    1.892434   -0.466316
 ---------------------------------------------------------------------

 SCF Done:  E(UB3LYP) =  -1136.10759615     A.U. after   28 cycles

 The electronic state is 2-A.
 Alpha  occ. eigenvalues --  -38.47548 -38.45900 -38.43968 -38.43546 -38.43378
 Alpha  occ. eigenvalues --  -38.42957 -38.42711  -2.23302  -2.21711  -2.19848
 Alpha  occ. eigenvalues --   -2.19350  -2.19169  -2.18802  -2.18530  -1.16992
 Alpha  occ. eigenvalues --   -1.16934  -1.16918  -1.15404  -1.15359  -1.15320
 Alpha  occ. eigenvalues --   -1.13540  -1.13493  -1.13433  -1.13045  -1.13035
 Alpha  occ. eigenvalues --   -1.12991  -1.12822  -1.12820  -1.12790  -1.12483
 Alpha  occ. eigenvalues --   -1.12469  -1.12437  -1.12209  -1.12192  -1.12177
 Alpha  occ. eigenvalues --   -0.17800  -0.13549  -0.11041  -0.10718
 Alpha virt. eigenvalues --   -0.08283  -0.05075  -0.04571  -0.03126  -0.03107
 Alpha virt. eigenvalues --   -0.02517  -0.02207  -0.02005  -0.01493  -0.00836
 Alpha virt. eigenvalues --   -0.00313   0.00032   0.00109   0.00475   0.00537

  Beta  occ. eigenvalues --  -38.47514 -38.45875 -38.43875 -38.43546 -38.43355
  Beta  occ. eigenvalues --  -38.42955 -38.42711  -2.23242  -2.21665  -2.19678
  Beta  occ. eigenvalues --   -2.19353  -2.19126  -2.18800  -2.18532  -1.16930
  Beta  occ. eigenvalues --   -1.16894  -1.16878  -1.15359  -1.15328  -1.15292
  Beta  occ. eigenvalues --   -1.13425  -1.13381  -1.13301  -1.13048  -1.13036
  Beta  occ. eigenvalues --   -1.12978  -1.12792  -1.12790  -1.12764  -1.12478
  Beta  occ. eigenvalues --   -1.12469  -1.12422  -1.12214  -1.12184  -1.12172
  Beta  occ. eigenvalues --   -0.17132  -0.13332  -0.10594
  Beta virt. eigenvalues --   -0.08008  -0.07269  -0.04669  -0.04468  -0.02943
  Beta virt. eigenvalues --   -0.02747  -0.02092  -0.01580  -0.01529  -0.01269
  Beta virt. eigenvalues --   -0.00723  -0.00291   0.00112   0.00285   0.00555

 Mulliken charges and spin densities:
               1          2
     1  Na  -0.274234  -0.065023
     2  Na  -0.062725  -0.014490
     3  Na   0.153066   0.121313
     4  Na  -0.400797   0.537018
     5  Na   0.207501  -0.039272
     6  Na  -0.000036   0.213777
     7  Na   0.377225   0.246677
 Sum of Mulliken charges =  -0.00000   1.00000

 Dipole moment (field-independent basis, Debye):
    X=              1.4750    Y=              1.2461    Z=              0.8612  Tot=              2.1142
 Quadrupole moment (field-independent basis, Debye-Ang):
   XX=            -76.5936   YY=            -69.3071   ZZ=            -64.3309
   XY=              1.8734   XZ=             -3.7034   YZ=             -3.9388

 Normal termination of Gaussian 16 at Thu Dec  7 17:07:06 2023.
