 Gaussian 16, Revision B.01,
 Gaussian 16:  ES64L-G16RevB.01 20-Dec-2017

 -------------------------
 #P B3LYP/6-311+g(d) force
 -------------------------

 -----
 DPGEN
 -----
 Symbolic Z-matrix:
 Charge =  0 Multiplicity = 2

                         Standard orientation:
 ---------------------------------------------------------------------
 Center     Atomic      Atomic             Coordinates (Angstroms)
 Number     Number       Type             X           Y           Z
 ---------------------------------------------------------------------
      1         11           0       -1.845648    2.432706   -0.400707
      2         11           0        2.561775   -1.935999    0.649875
      3         11           0        2.545069    2.348210   -0.002255
      4         11           0        0.636062    0.359617   -0.117493
      5         11           0       -1.231143   -0.736932    2.553452
      6         11           0       -2.574202   -0.850161   -0.230895
      7         11           0       -0.091913   -1.617441   -2.451978
 ---------------------------------------------------------------------

 SCF Done:  E(UB3LYP) =  -1136.11280083     A.U. after   24 cycles

 The electronic state is 2-A.
 Alpha  occ. eigenvalues --  -38.45041 -38.44419 -38.44361 -38.43915 -38.43885
 Alpha  occ. eigenvalues --  -38.43424 -38.42115  -2.20895  -2.20267  -2.20150
 Alpha  occ. eigenvalues --   -2.19739  -2.19701  -2.19345  -2.18289  -1.14559
 Alpha  occ. eigenvalues --   -1.14537  -1.14484  -1.13960  -1.13896  -1.13859
 Alpha  occ. eigenvalues --   -1.13850  -1.13799  -1.13773  -1.13548  -1.13395
 Alpha  occ. eigenvalues --   -1.13378  -1.13357  -1.13327  -1.13322  -1.13043
 Alpha  occ. eigenvalues --   -1.13014  -1.12962  -1.12003  -1.11964  -1.11894
 Alpha  occ. eigenvalues --   -0.18358  -0.12763  -0.11974  -0.11560
 Alpha virt. eigenvalues --   -0.05814  -0.04981  -0.04393  -0.03430  -0.02917
 Alpha virt. eigenvalues --   -0.02766  -0.01474  -0.01041  -0.00599   0.00141
 Alpha virt. eigenvalues --    0.00189   0.00350   0.00479   0.00799   0.00810

  Beta  occ. eigenvalues --  -38.44941 -38.44357 -38.44339 -38.43927 -38.43875
  Beta  occ. eigenvalues --  -38.43414 -38.42098  -2.20709  -2.20144  -2.20120
  Beta  occ. eigenvalues --   -2.19761  -2.19683  -2.19333  -2.18264  -1.14438
  Beta  occ. eigenvalues --   -1.14406  -1.14354  -1.13857  -1.13845  -1.13797
  Beta  occ. eigenvalues --   -1.13787  -1.13772  -1.13754  -1.13562  -1.13390
  Beta  occ. eigenvalues --   -1.13381  -1.13340  -1.13337  -1.13315  -1.13026
  Beta  occ. eigenvalues --   -1.12976  -1.12951  -1.11967  -1.11921  -1.11884
  Beta  occ. eigenvalues --   -0.17571  -0.12586  -0.11341
  Beta virt. eigenvalues --   -0.07985  -0.05644  -0.04787  -0.03770  -0.02927
  Beta virt. eigenvalues --   -0.02419  -0.02120  -0.01393  -0.01027  -0.00267
  Beta virt. eigenvalues --    0.00200   0.00250   0.00394   0.00779   0.00810

 Mulliken charges and spin densities:
               1          2
     1  Na  -0.618948  -0.074998
     2  Na   1.295992   0.217600
     3  Na  -0.514161  -0.347655
     4  Na  -2.333781   0.020468
     5  Na  -0.219924   0.448924
     6  Na   2.439852   0.299867
     7  Na  -0.049030   0.435794
 Sum of Mulliken charges =  -0.00000   1.00000

 Dipole moment (field-independent basis, Debye):
    X=             -0.0563    Y=             -0.4385    Z=              0.2932  Tot=              0.5305
 Quadrupole moment (field-independent basis, Debye-Ang):
   XX=            -60.9115   YY=            -67.9579   ZZ=            -63.2485
   XY=             -2.2497   XZ=              1.5233   YZ=             -0.9766

 Normal termination of Gaussian 16 at Fri Dec  8 01:57:59 2023.
