 Gaussian 16, Revision B.01,
 Gaussian 16:  ES64L-G16RevB.01 20-Dec-2017

 -------------------------
 #P B3LYP/6-311+g(d) force
 -------------------------

 -----
 DPGEN
 -----
 Symbolic Z-matrix:
 Charge =  0 Multiplicity = 2

                         Standard orientation:
 ---------------------------------------------------------------------
 Center     Atomic      Atomic             Coordinates (Angstroms)
 Number     Number       Type             X           Y           Z
 ---------------------------------------------------------------------
      1         11           0       -4.226193    0.075559   -0.041366
      2         11           0       -1.065111    1.644386   -1.010114
      3         11           0        0.406320   -1.076239   -1.616898
      4         11           0        2.727162    1.840923    0.014750
      5         11           0       -1.859568   -1.767567    0.788881
      6         11           0        3.808470   -1.569507    0.123195
      7         11           0        0.208920    0.852444    1.741552
 ---------------------------------------------------------------------

 SCF Done:  E(UB3LYP) =  -1136.10925827     A.U. after   31 cycles

 The electronic state is 2-A.
 Alpha  occ. eigenvalues --  -38.46198 -38.44416 -38.44249 -38.44238 -38.43993
 Alpha  occ. eigenvalues --  -38.43568 -38.42911  -2.21990  -2.20242  -2.20147
 Alpha  occ. eigenvalues --   -2.20110  -2.19751  -2.19465  -2.18846  -1.15667
 Alpha  occ. eigenvalues --   -1.15641  -1.15626  -1.13962  -1.13903  -1.13863
 Alpha  occ. eigenvalues --   -1.13852  -1.13798  -1.13772  -1.13769  -1.13752
 Alpha  occ. eigenvalues --   -1.13737  -1.13428  -1.13414  -1.13388  -1.13160
 Alpha  occ. eigenvalues --   -1.13118  -1.13058  -1.12547  -1.12507  -1.12434
 Alpha  occ. eigenvalues --   -0.18442  -0.14016  -0.10892  -0.10830
 Alpha virt. eigenvalues --   -0.07989  -0.05442  -0.03691  -0.03671  -0.02985
 Alpha virt. eigenvalues --   -0.02373  -0.02170  -0.01747  -0.00644  -0.00536
 Alpha virt. eigenvalues --   -0.00183   0.00152   0.00337   0.00582   0.00683

  Beta  occ. eigenvalues --  -38.46188 -38.44406 -38.44220 -38.44217 -38.43992
  Beta  occ. eigenvalues --  -38.43481 -38.42866  -2.21973  -2.20225  -2.20087
  Beta  occ. eigenvalues --   -2.20081  -2.19749  -2.19308  -2.18768  -1.15651
  Beta  occ. eigenvalues --   -1.15621  -1.15616  -1.13941  -1.13885  -1.13848
  Beta  occ. eigenvalues --   -1.13817  -1.13769  -1.13735  -1.13734  -1.13716
  Beta  occ. eigenvalues --   -1.13702  -1.13428  -1.13406  -1.13388  -1.13056
  Beta  occ. eigenvalues --   -1.13001  -1.12942  -1.12495  -1.12423  -1.12386
  Beta  occ. eigenvalues --   -0.17730  -0.13707  -0.10705
  Beta virt. eigenvalues --   -0.07796  -0.07005  -0.05345  -0.03462  -0.03061
  Beta virt. eigenvalues --   -0.02840  -0.01890  -0.01686  -0.01293  -0.00446
  Beta virt. eigenvalues --   -0.00373  -0.00134   0.00149   0.00477   0.00624

 Mulliken charges and spin densities:
               1          2
     1  Na  -0.020476  -0.107788
     2  Na   0.007663   0.377384
     3  Na  -0.480431   0.066864
     4  Na   0.335144   0.134411
     5  Na   0.435766   0.370732
     6  Na  -0.118578  -0.032098
     7  Na  -0.159089   0.190495
 Sum of Mulliken charges =  -0.00000   1.00000

 Dipole moment (field-independent basis, Debye):
    X=             -1.2538    Y=              0.8057    Z=             -0.0892  Tot=              1.4931
 Quadrupole moment (field-independent basis, Debye-Ang):
   XX=            -47.9258   YY=            -75.3895   ZZ=            -71.8438
   XY=             -0.3814   XZ=              2.3386   YZ=             -4.1414

 Normal termination of Gaussian 16 at Mon Dec  4 01:12:40 2023.
