 Gaussian 16, Revision B.01,
 Gaussian 16:  ES64L-G16RevB.01 20-Dec-2017

 -------------------------
 #P B3LYP/6-311+g(d) force
 -------------------------

 -----
 DPGEN
 -----
 Symbolic Z-matrix:
 Charge =  0 Multiplicity = 2

                         Standard orientation:
 ---------------------------------------------------------------------
 Center     Atomic      Atomic             Coordinates (Angstroms)
 Number     Number       Type             X           Y           Z
 ---------------------------------------------------------------------
      1         11           0        0.456219    0.170669   -1.162217
      2         11           0       -2.587785    0.668761   -0.845735
      3         11           0       -0.278544    2.191903    0.562086
      4         11           0       -1.254759   -2.020555   -0.645952
      5         11           0       -1.270985   -0.366295    1.549928
      6         11           0        1.634333   -0.833859    1.278457
      7         11           0        3.301520    0.189376   -0.736568
 ---------------------------------------------------------------------

 SCF Done:  E(UB3LYP) =  -1136.08534933     A.U. after   25 cycles

 The electronic state is 2-A.
 Alpha  occ. eigenvalues --  -38.45009 -38.44159 -38.43972 -38.43916 -38.43756
 Alpha  occ. eigenvalues --  -38.43016 -38.42655  -2.20944  -2.20236  -2.20203
 Alpha  occ. eigenvalues --   -2.20100  -2.19997  -2.19091  -2.18706  -1.14743
 Alpha  occ. eigenvalues --   -1.14645  -1.14512  -1.14137  -1.14049  -1.13942
 Alpha  occ. eigenvalues --   -1.13910  -1.13854  -1.13824  -1.13798  -1.13747
 Alpha  occ. eigenvalues --   -1.13727  -1.13614  -1.13551  -1.13527  -1.12776
 Alpha  occ. eigenvalues --   -1.12724  -1.12650  -1.12430  -1.12350  -1.12262
 Alpha  occ. eigenvalues --   -0.20922  -0.14398  -0.12165  -0.11743
 Alpha virt. eigenvalues --   -0.06242  -0.04384  -0.03751  -0.03362  -0.02703
 Alpha virt. eigenvalues --   -0.02444  -0.01841  -0.00575  -0.00303   0.00269
 Alpha virt. eigenvalues --    0.00513   0.00636   0.00815   0.01003   0.01040

  Beta  occ. eigenvalues --  -38.44992 -38.44133 -38.43899 -38.43873 -38.43705
  Beta  occ. eigenvalues --  -38.42998 -38.42638  -2.20914  -2.20182  -2.20084
  Beta  occ. eigenvalues --   -2.20013  -2.19923  -2.19064  -2.18680  -1.14723
  Beta  occ. eigenvalues --   -1.14610  -1.14491  -1.14089  -1.13962  -1.13880
  Beta  occ. eigenvalues --   -1.13835  -1.13776  -1.13764  -1.13745  -1.13685
  Beta  occ. eigenvalues --   -1.13661  -1.13521  -1.13494  -1.13475  -1.12759
  Beta  occ. eigenvalues --   -1.12690  -1.12608  -1.12415  -1.12295  -1.12243
  Beta  occ. eigenvalues --   -0.20086  -0.14148  -0.11489
  Beta virt. eigenvalues --   -0.07849  -0.06105  -0.03957  -0.03484  -0.03203
  Beta virt. eigenvalues --   -0.01892  -0.01731  -0.01495  -0.00369  -0.00152
  Beta virt. eigenvalues --    0.00305   0.00585   0.00709   0.00873   0.01042

 Mulliken charges and spin densities:
               1          2
     1  Na  -0.449734   0.211502
     2  Na   0.847465  -0.072644
     3  Na  -0.548161   0.092733
     4  Na  -0.134503   0.339599
     5  Na   0.186413   0.253273
     6  Na  -0.526506   0.047390
     7  Na   0.625026   0.128147
 Sum of Mulliken charges =  -0.00000   1.00000

 Dipole moment (field-independent basis, Debye):
    X=              0.4883    Y=              0.1100    Z=             -0.0953  Tot=              0.5096
 Quadrupole moment (field-independent basis, Debye-Ang):
   XX=            -52.1406   YY=            -74.9560   ZZ=            -66.9688
   XY=              0.1392   XZ=              0.4268   YZ=             -0.0878

 Normal termination of Gaussian 16 at Sat Dec  9 07:01:52 2023.
