 Gaussian 16, Revision B.01,
 Gaussian 16:  ES64L-G16RevB.01 20-Dec-2017

 -------------------------
 #P B3LYP/6-311+g(d) force
 -------------------------

 -----
 DPGEN
 -----
 Symbolic Z-matrix:
 Charge =  0 Multiplicity = 2

                         Standard orientation:
 ---------------------------------------------------------------------
 Center     Atomic      Atomic             Coordinates (Angstroms)
 Number     Number       Type             X           Y           Z
 ---------------------------------------------------------------------
      1         11           0       -2.289445   -1.013907   -1.376326
      2         11           0        0.772941   -1.667371   -1.722439
      3         11           0       -3.073036    1.394801    1.179888
      4         11           0       -0.742895   -1.179680    1.453878
      5         11           0       -0.043773    1.938609   -0.805133
      6         11           0        2.373562   -1.396017    1.530419
      7         11           0        3.002645    1.923565   -0.260287
 ---------------------------------------------------------------------

 SCF Done:  E(UB3LYP) =  -1136.12811367     A.U. after   20 cycles

 The electronic state is 2-A.
 Alpha  occ. eigenvalues --  -38.44208 -38.44161 -38.44116 -38.44021 -38.43656
 Alpha  occ. eigenvalues --  -38.43411 -38.43101  -2.20116  -2.19983  -2.19960
 Alpha  occ. eigenvalues --   -2.19899  -2.19597  -2.19220  -2.18961  -1.13839
 Alpha  occ. eigenvalues --   -1.13787  -1.13730  -1.13680  -1.13655  -1.13628
 Alpha  occ. eigenvalues --   -1.13606  -1.13597  -1.13574  -1.13571  -1.13520
 Alpha  occ. eigenvalues --   -1.13515  -1.13272  -1.13261  -1.13194  -1.12940
 Alpha  occ. eigenvalues --   -1.12878  -1.12852  -1.12639  -1.12638  -1.12569
 Alpha  occ. eigenvalues --   -0.18399  -0.13361  -0.11929  -0.11719
 Alpha virt. eigenvalues --   -0.05583  -0.05255  -0.04754  -0.03539  -0.02986
 Alpha virt. eigenvalues --   -0.02690  -0.01656  -0.01020  -0.00654   0.00106
 Alpha virt. eigenvalues --    0.00219   0.00309   0.00451   0.00570   0.00730

  Beta  occ. eigenvalues --  -38.44168 -38.44132 -38.44071 -38.43971 -38.43612
  Beta  occ. eigenvalues --  -38.43413 -38.43088  -2.20048  -2.19928  -2.19877
  Beta  occ. eigenvalues --   -2.19811  -2.19519  -2.19224  -2.18939  -1.13786
  Beta  occ. eigenvalues --   -1.13726  -1.13676  -1.13614  -1.13608  -1.13590
  Beta  occ. eigenvalues --   -1.13573  -1.13546  -1.13515  -1.13509  -1.13462
  Beta  occ. eigenvalues --   -1.13438  -1.13221  -1.13194  -1.13135  -1.12939
  Beta  occ. eigenvalues --   -1.12878  -1.12857  -1.12628  -1.12606  -1.12556
  Beta  occ. eigenvalues --   -0.17679  -0.13096  -0.11489
  Beta virt. eigenvalues --   -0.07951  -0.05418  -0.05152  -0.04135  -0.03266
  Beta virt. eigenvalues --   -0.02372  -0.01973  -0.01562  -0.00838  -0.00317
  Beta virt. eigenvalues --    0.00185   0.00296   0.00366   0.00519   0.00652

 Mulliken charges and spin densities:
               1          2
     1  Na   0.548925   0.152227
     2  Na  -0.066383   0.216423
     3  Na   0.764371   0.002940
     4  Na  -0.639524   0.346887
     5  Na  -0.935348   0.201989
     6  Na   0.256596   0.194105
     7  Na   0.071363  -0.114572
 Sum of Mulliken charges =  -0.00000   1.00000

 Dipole moment (field-independent basis, Debye):
    X=             -0.4205    Y=             -0.4520    Z=              0.0842  Tot=              0.6230
 Quadrupole moment (field-independent basis, Debye-Ang):
   XX=            -54.5218   YY=            -74.7518   ZZ=            -66.4393
   XY=             -3.0158   XZ=              0.5830   YZ=              2.7784

 Normal termination of Gaussian 16 at Wed Nov 29 17:11:04 2023.
