 Gaussian 16, Revision B.01,
 Gaussian 16:  ES64L-G16RevB.01 20-Dec-2017

 -------------------------
 #P B3LYP/6-311+g(d) force
 -------------------------

 -----
 DPGEN
 -----
 Symbolic Z-matrix:
 Charge =  0 Multiplicity = 2

                         Standard orientation:
 ---------------------------------------------------------------------
 Center     Atomic      Atomic             Coordinates (Angstroms)
 Number     Number       Type             X           Y           Z
 ---------------------------------------------------------------------
      1         11           0       -0.852036    1.629893    1.049036
      2         11           0        2.331601    0.819313   -0.088112
      3         11           0        0.185745   -1.514126   -0.458651
      4         11           0       -2.898548   -1.070539    1.522748
      5         11           0       -3.626498   -1.397944   -1.511461
      6         11           0        4.279561   -2.514640    0.112141
      7         11           0        0.580173    4.048043   -0.625701
 ---------------------------------------------------------------------

 SCF Done:  E(UB3LYP) =  -1136.11929969     A.U. after   22 cycles

 The electronic state is 2-A.
 Alpha  occ. eigenvalues --  -38.45257 -38.45041 -38.44277 -38.44074 -38.43619
 Alpha  occ. eigenvalues --  -38.43551 -38.43309  -2.21066  -2.20762  -2.20120
 Alpha  occ. eigenvalues --   -2.19944  -2.19436  -2.19398  -2.19213  -1.14805
 Alpha  occ. eigenvalues --   -1.14761  -1.14634  -1.14443  -1.14442  -1.14376
 Alpha  occ. eigenvalues --   -1.13868  -1.13821  -1.13664  -1.13628  -1.13609
 Alpha  occ. eigenvalues --   -1.13586  -1.13112  -1.13088  -1.13059  -1.13050
 Alpha  occ. eigenvalues --   -1.13032  -1.13007  -1.12907  -1.12888  -1.12808
 Alpha  occ. eigenvalues --   -0.17368  -0.13817  -0.12424  -0.10036
 Alpha virt. eigenvalues --   -0.07078  -0.05224  -0.04862  -0.03619  -0.02799
 Alpha virt. eigenvalues --   -0.02209  -0.02050  -0.01699  -0.01090  -0.00746
 Alpha virt. eigenvalues --   -0.00182   0.00138   0.00286   0.00488   0.00615

  Beta  occ. eigenvalues --  -38.45248 -38.45049 -38.44274 -38.44050 -38.43586
  Beta  occ. eigenvalues --  -38.43467 -38.43269  -2.21054  -2.20778  -2.20116
  Beta  occ. eigenvalues --   -2.19907  -2.19375  -2.19239  -2.19144  -1.14800
  Beta  occ. eigenvalues --   -1.14727  -1.14633  -1.14454  -1.14452  -1.14386
  Beta  occ. eigenvalues --   -1.13862  -1.13811  -1.13664  -1.13604  -1.13573
  Beta  occ. eigenvalues --   -1.13527  -1.13070  -1.13046  -1.13019  -1.12942
  Beta  occ. eigenvalues --   -1.12921  -1.12904  -1.12861  -1.12846  -1.12728
  Beta  occ. eigenvalues --   -0.16826  -0.13368  -0.12297
  Beta virt. eigenvalues --   -0.06986  -0.06284  -0.05119  -0.04443  -0.03275
  Beta virt. eigenvalues --   -0.02659  -0.02058  -0.01843  -0.01074  -0.00952
  Beta virt. eigenvalues --   -0.00362  -0.00086   0.00244   0.00568   0.00639

 Mulliken charges and spin densities:
               1          2
     1  Na  -0.799081   0.144823
     2  Na  -0.809880   0.046267
     3  Na  -0.798731   0.136603
     4  Na   0.651262   0.040100
     5  Na   0.232441   0.519089
     6  Na   0.304795  -0.089470
     7  Na   1.219194   0.202588
 Sum of Mulliken charges =  -0.00000   1.00000

 Dipole moment (field-independent basis, Debye):
    X=              1.0686    Y=             -0.3260    Z=              0.5826  Tot=              1.2600
 Quadrupole moment (field-independent basis, Debye-Ang):
   XX=            -59.8887   YY=            -64.2799   ZZ=            -71.9705
   XY=             -6.3549   XZ=             -2.9922   YZ=             -3.9025

 Normal termination of Gaussian 16 at Wed Nov 29 02:42:51 2023.
