 Gaussian 16, Revision B.01,
 Gaussian 16:  ES64L-G16RevB.01 20-Dec-2017

 -------------------------
 #P B3LYP/6-311+g(d) force
 -------------------------

 -----
 DPGEN
 -----
 Symbolic Z-matrix:
 Charge =  0 Multiplicity = 2

                         Standard orientation:
 ---------------------------------------------------------------------
 Center     Atomic      Atomic             Coordinates (Angstroms)
 Number     Number       Type             X           Y           Z
 ---------------------------------------------------------------------
      1         11           0       -0.308882   -0.131867    2.123790
      2         11           0       -3.348928    1.021515   -0.075216
      3         11           0       -2.420967   -2.137309   -0.138487
      4         11           0        0.569658   -1.553298   -1.094148
      5         11           0       -0.586866    2.035530   -0.892212
      6         11           0        2.383465    1.923428    0.086264
      7         11           0        3.712521   -1.158000   -0.009990
 ---------------------------------------------------------------------

 SCF Done:  E(UB3LYP) =  -1136.11973825     A.U. after   24 cycles

 The electronic state is 2-A.
 Alpha  occ. eigenvalues --  -38.45099 -38.45031 -38.44201 -38.43938 -38.43853
 Alpha  occ. eigenvalues --  -38.43587 -38.43067  -2.20895  -2.20882  -2.20043
 Alpha  occ. eigenvalues --   -2.19790  -2.19719  -2.19450  -2.18967  -1.14578
 Alpha  occ. eigenvalues --   -1.14563  -1.14552  -1.14542  -1.14527  -1.14517
 Alpha  occ. eigenvalues --   -1.13750  -1.13696  -1.13676  -1.13516  -1.13442
 Alpha  occ. eigenvalues --   -1.13436  -1.13394  -1.13385  -1.13323  -1.13110
 Alpha  occ. eigenvalues --   -1.13078  -1.13055  -1.12653  -1.12626  -1.12602
 Alpha  occ. eigenvalues --   -0.18353  -0.14073  -0.11861  -0.10395
 Alpha virt. eigenvalues --   -0.07257  -0.06006  -0.03590  -0.03521  -0.02919
 Alpha virt. eigenvalues --   -0.02416  -0.02218  -0.01718  -0.00743  -0.00178
 Alpha virt. eigenvalues --   -0.00027   0.00098   0.00508   0.00583   0.00667

  Beta  occ. eigenvalues --  -38.45096 -38.45011 -38.44201 -38.43933 -38.43834
  Beta  occ. eigenvalues --  -38.43471 -38.43053  -2.20892  -2.20848  -2.20045
  Beta  occ. eigenvalues --   -2.19784  -2.19686  -2.19236  -2.18944  -1.14561
  Beta  occ. eigenvalues --   -1.14554  -1.14545  -1.14539  -1.14503  -1.14479
  Beta  occ. eigenvalues --   -1.13756  -1.13686  -1.13673  -1.13509  -1.13441
  Beta  occ. eigenvalues --   -1.13406  -1.13374  -1.13349  -1.13303  -1.12966
  Beta  occ. eigenvalues --   -1.12934  -1.12901  -1.12636  -1.12614  -1.12564
  Beta  occ. eigenvalues --   -0.17712  -0.13848  -0.11636
  Beta virt. eigenvalues --   -0.07138  -0.06553  -0.05907  -0.03498  -0.02928
  Beta virt. eigenvalues --   -0.02691  -0.01961  -0.01510  -0.01222  -0.00732
  Beta virt. eigenvalues --    0.00025   0.00094   0.00140   0.00575   0.00692

 Mulliken charges and spin densities:
               1          2
     1  Na  -0.358395   0.534224
     2  Na   0.047060   0.093002
     3  Na   0.496561   0.173490
     4  Na  -0.711820   0.100742
     5  Na   0.073778   0.030069
     6  Na   0.004017   0.106947
     7  Na   0.448799  -0.038474
 Sum of Mulliken charges =  -0.00000   1.00000

 Dipole moment (field-independent basis, Debye):
    X=              0.3846    Y=             -0.2572    Z=              0.4651  Tot=              0.6560
 Quadrupole moment (field-independent basis, Debye-Ang):
   XX=            -46.5657   YY=            -73.1015   ZZ=            -75.1969
   XY=              1.0534   XZ=              0.4788   YZ=              0.2018

 Normal termination of Gaussian 16 at Thu Dec  7 18:27:04 2023.
