 Gaussian 16, Revision B.01,
 Gaussian 16:  ES64L-G16RevB.01 20-Dec-2017

 -------------------------
 #P B3LYP/6-311+g(d) force
 -------------------------

 -----
 DPGEN
 -----
 Symbolic Z-matrix:
 Charge =  0 Multiplicity = 2

                         Standard orientation:
 ---------------------------------------------------------------------
 Center     Atomic      Atomic             Coordinates (Angstroms)
 Number     Number       Type             X           Y           Z
 ---------------------------------------------------------------------
      1         11           0       -2.650505    2.704632   -0.627477
      2         11           0        4.471774   -1.231136   -0.822853
      3         11           0        1.783888   -3.598296    0.233059
      4         11           0       -2.581832   -2.965417    0.755361
      5         11           0        0.596745    3.742103    0.812531
      6         11           0        3.055631    2.005741    0.184530
      7         11           0       -4.675701   -0.657627   -0.535152
 ---------------------------------------------------------------------

 SCF Done:  E(UB3LYP) =  -1136.10022149     A.U. after   29 cycles

 The electronic state is 2-A.
 Alpha  occ. eigenvalues --  -38.46028 -38.45129 -38.45067 -38.44311 -38.44295
 Alpha  occ. eigenvalues --  -38.44235 -38.44131  -2.21741  -2.20874  -2.20815
 Alpha  occ. eigenvalues --   -2.20128  -2.20071  -2.20012  -2.19934  -1.15422
 Alpha  occ. eigenvalues --   -1.15410  -1.15358  -1.14560  -1.14544  -1.14524
 Alpha  occ. eigenvalues --   -1.14491  -1.14481  -1.14446  -1.13843  -1.13784
 Alpha  occ. eigenvalues --   -1.13765  -1.13728  -1.13715  -1.13684  -1.13669
 Alpha  occ. eigenvalues --   -1.13660  -1.13640  -1.13598  -1.13586  -1.13564
 Alpha  occ. eigenvalues --   -0.15186  -0.13767  -0.13311  -0.10647
 Alpha virt. eigenvalues --   -0.08213  -0.05187  -0.04684  -0.03521  -0.03361
 Alpha virt. eigenvalues --   -0.02279  -0.02228  -0.01953  -0.01424  -0.01226
 Alpha virt. eigenvalues --   -0.01145  -0.00107  -0.00007   0.00161   0.00558

  Beta  occ. eigenvalues --  -38.46007 -38.45140 -38.45061 -38.44265 -38.44205
  Beta  occ. eigenvalues --  -38.44178 -38.44132  -2.21704  -2.20899  -2.20805
  Beta  occ. eigenvalues --   -2.20044  -2.19942  -2.19905  -2.19903  -1.15398
  Beta  occ. eigenvalues --   -1.15385  -1.15320  -1.14581  -1.14565  -1.14507
  Beta  occ. eigenvalues --   -1.14485  -1.14474  -1.14430  -1.13791  -1.13727
  Beta  occ. eigenvalues --   -1.13706  -1.13615  -1.13608  -1.13605  -1.13595
  Beta  occ. eigenvalues --   -1.13594  -1.13587  -1.13571  -1.13569  -1.13525
  Beta  occ. eigenvalues --   -0.14693  -0.13186  -0.12635
  Beta virt. eigenvalues --   -0.08321  -0.07462  -0.04662  -0.04245  -0.03379
  Beta virt. eigenvalues --   -0.03075  -0.02131  -0.02045  -0.01776  -0.01326
  Beta virt. eigenvalues --   -0.00918  -0.00770  -0.00090   0.00153   0.00351

 Mulliken charges and spin densities:
               1          2
     1  Na  -0.263472   0.434064
     2  Na   0.324164   0.099589
     3  Na  -0.067820   0.122534
     4  Na  -0.269405   0.275449
     5  Na  -0.014783  -0.154650
     6  Na  -0.073549   0.247758
     7  Na   0.364865  -0.024744
 Sum of Mulliken charges =  -0.00000   1.00000

 Dipole moment (field-independent basis, Debye):
    X=              0.6089    Y=             -0.9551    Z=             -0.1209  Tot=              1.1392
 Quadrupole moment (field-independent basis, Debye-Ang):
   XX=            -59.5144   YY=            -68.0758   ZZ=            -72.5112
   XY=             -1.5490   XZ=             -0.6464   YZ=             -0.6643

 Normal termination of Gaussian 16 at Mon Dec  4 04:29:57 2023.
