 Gaussian 16, Revision B.01,
 Gaussian 16:  ES64L-G16RevB.01 20-Dec-2017

 -------------------------
 #P B3LYP/6-311+g(d) force
 -------------------------

 -----
 DPGEN
 -----
 Symbolic Z-matrix:
 Charge =  0 Multiplicity = 2

                         Standard orientation:
 ---------------------------------------------------------------------
 Center     Atomic      Atomic             Coordinates (Angstroms)
 Number     Number       Type             X           Y           Z
 ---------------------------------------------------------------------
      1         11           0       -4.015183   -1.305762   -0.981217
      2         11           0        3.630785   -1.834682   -0.501171
      3         11           0       -1.330926    2.608473   -0.168565
      4         11           0        2.555539    1.846135   -0.607173
      5         11           0       -2.021572   -0.329194    1.790717
      6         11           0        1.383946   -0.436646    1.841710
      7         11           0       -0.202589   -0.548325   -1.374300
 ---------------------------------------------------------------------

 SCF Done:  E(UB3LYP) =  -1136.12126037     A.U. after   27 cycles

 The electronic state is 2-A.
 Alpha  occ. eigenvalues --  -38.45049 -38.44489 -38.44140 -38.44116 -38.44020
 Alpha  occ. eigenvalues --  -38.43925 -38.43405  -2.20873  -2.20282  -2.19995
 Alpha  occ. eigenvalues --   -2.19917  -2.19799  -2.19789  -2.19194  -1.14595
 Alpha  occ. eigenvalues --   -1.14524  -1.14479  -1.13985  -1.13948  -1.13880
 Alpha  occ. eigenvalues --   -1.13695  -1.13638  -1.13606  -1.13582  -1.13576
 Alpha  occ. eigenvalues --   -1.13541  -1.13475  -1.13470  -1.13466  -1.13440
 Alpha  occ. eigenvalues --   -1.13427  -1.13397  -1.12877  -1.12861  -1.12818
 Alpha  occ. eigenvalues --   -0.17866  -0.13725  -0.11299  -0.10873
 Alpha virt. eigenvalues --   -0.06553  -0.05886  -0.04783  -0.03170  -0.02623
 Alpha virt. eigenvalues --   -0.02467  -0.02229  -0.01524  -0.00917  -0.00496
 Alpha virt. eigenvalues --    0.00070   0.00097   0.00254   0.00378   0.00482

  Beta  occ. eigenvalues --  -38.45022 -38.44480 -38.44108 -38.44045 -38.44019
  Beta  occ. eigenvalues --  -38.43874 -38.43403  -2.20825  -2.20265  -2.19868
  Beta  occ. eigenvalues --   -2.19856  -2.19798  -2.19702  -2.19191  -1.14550
  Beta  occ. eigenvalues --   -1.14490  -1.14443  -1.13967  -1.13937  -1.13869
  Beta  occ. eigenvalues --   -1.13610  -1.13552  -1.13539  -1.13534  -1.13505
  Beta  occ. eigenvalues --   -1.13501  -1.13469  -1.13457  -1.13425  -1.13408
  Beta  occ. eigenvalues --   -1.13385  -1.13309  -1.12866  -1.12856  -1.12819
  Beta  occ. eigenvalues --   -0.17173  -0.13515  -0.10713
  Beta virt. eigenvalues --   -0.07360  -0.06337  -0.05791  -0.04240  -0.02876
  Beta virt. eigenvalues --   -0.02415  -0.01848  -0.01784  -0.01340  -0.00505
  Beta virt. eigenvalues --   -0.00447   0.00115   0.00227   0.00342   0.00471

 Mulliken charges and spin densities:
               1          2
     1  Na   0.156302   0.152914
     2  Na   0.379253   0.035482
     3  Na  -0.196300  -0.008893
     4  Na   0.335210   0.057047
     5  Na   0.280412   0.148904
     6  Na  -0.189175   0.240405
     7  Na  -0.765702   0.374141
 Sum of Mulliken charges =  -0.00000   1.00000

 Dipole moment (field-independent basis, Debye):
    X=              0.4284    Y=              0.3233    Z=             -0.3138  Tot=              0.6218
 Quadrupole moment (field-independent basis, Debye-Ang):
   XX=            -53.6156   YY=            -73.4853   ZZ=            -69.2743
   XY=             -0.9675   XZ=             -1.4868   YZ=              2.5820

 Normal termination of Gaussian 16 at Thu Dec  7 19:00:33 2023.
