 Gaussian 16, Revision B.01,
 Gaussian 16:  ES64L-G16RevB.01 20-Dec-2017

 -------------------------
 #P B3LYP/6-311+g(d) force
 -------------------------

 -----
 DPGEN
 -----
 Symbolic Z-matrix:
 Charge =  0 Multiplicity = 2

                         Standard orientation:
 ---------------------------------------------------------------------
 Center     Atomic      Atomic             Coordinates (Angstroms)
 Number     Number       Type             X           Y           Z
 ---------------------------------------------------------------------
      1         11           0       -2.946842    1.725066   -0.774635
      2         11           0        2.969676   -1.929282   -0.226976
      3         11           0        3.082888    1.386896    0.463449
      4         11           0        0.247505   -0.122070    0.131958
      5         11           0       -0.487254   -2.877188   -0.778061
      6         11           0       -2.928631   -1.688790    1.177893
      7         11           0        0.062659    3.505368    0.006372
 ---------------------------------------------------------------------

 SCF Done:  E(UB3LYP) =  -1136.12551172     A.U. after   22 cycles

 The electronic state is 2-A.
 Alpha  occ. eigenvalues --  -38.44259 -38.44204 -38.44195 -38.43902 -38.43569
 Alpha  occ. eigenvalues --  -38.43495 -38.43342  -2.20136  -2.19992  -2.19988
 Alpha  occ. eigenvalues --   -2.19754  -2.19558  -2.19336  -2.19208  -1.13899
 Alpha  occ. eigenvalues --   -1.13798  -1.13736  -1.13679  -1.13667  -1.13660
 Alpha  occ. eigenvalues --   -1.13639  -1.13625  -1.13597  -1.13435  -1.13420
 Alpha  occ. eigenvalues --   -1.13388  -1.13282  -1.13221  -1.13170  -1.12990
 Alpha  occ. eigenvalues --   -1.12983  -1.12951  -1.12868  -1.12859  -1.12824
 Alpha  occ. eigenvalues --   -0.17523  -0.13601  -0.13320  -0.09587
 Alpha virt. eigenvalues --   -0.06541  -0.05424  -0.04757  -0.03291  -0.02619
 Alpha virt. eigenvalues --   -0.02153  -0.01731  -0.01313  -0.01297  -0.00578
 Alpha virt. eigenvalues --   -0.00063   0.00272   0.00418   0.00634   0.00690

  Beta  occ. eigenvalues --  -38.44245 -38.44203 -38.44149 -38.43882 -38.43574
  Beta  occ. eigenvalues --  -38.43429 -38.43299  -2.20115  -2.19994  -2.19905
  Beta  occ. eigenvalues --   -2.19719  -2.19566  -2.19213  -2.19127  -1.13892
  Beta  occ. eigenvalues --   -1.13786  -1.13686  -1.13678  -1.13671  -1.13603
  Beta  occ. eigenvalues --   -1.13597  -1.13570  -1.13537  -1.13418  -1.13399
  Beta  occ. eigenvalues --   -1.13342  -1.13269  -1.13233  -1.13181  -1.12905
  Beta  occ. eigenvalues --   -1.12898  -1.12871  -1.12816  -1.12803  -1.12772
  Beta  occ. eigenvalues --   -0.17208  -0.13095  -0.12632
  Beta virt. eigenvalues --   -0.06520  -0.06375  -0.05162  -0.04496  -0.02772
  Beta virt. eigenvalues --   -0.02133  -0.01957  -0.01573  -0.01103  -0.01061
  Beta virt. eigenvalues --   -0.00329   0.00207   0.00416   0.00523   0.00725

 Mulliken charges and spin densities:
               1          2
     1  Na   1.084701   0.219288
     2  Na   0.051379   0.131454
     3  Na  -0.647110   0.172974
     4  Na  -3.934377  -0.002418
     5  Na   2.223439   0.099202
     6  Na   1.269560   0.326914
     7  Na  -0.047592   0.052585
 Sum of Mulliken charges =  -0.00000   1.00000

 Dipole moment (field-independent basis, Debye):
    X=              0.1857    Y=             -0.1990    Z=             -0.2284  Tot=              0.3553
 Quadrupole moment (field-independent basis, Debye-Ang):
   XX=            -59.5265   YY=            -63.8943   ZZ=            -72.1590
   XY=             -0.8842   XZ=              0.8371   YZ=              2.1377

 Normal termination of Gaussian 16 at Wed Dec  6 01:16:09 2023.
