 Gaussian 16, Revision B.01,
 Gaussian 16:  ES64L-G16RevB.01 20-Dec-2017

 -------------------------
 #P B3LYP/6-311+g(d) force
 -------------------------

 -----
 DPGEN
 -----
 Symbolic Z-matrix:
 Charge =  0 Multiplicity = 2

                         Standard orientation:
 ---------------------------------------------------------------------
 Center     Atomic      Atomic             Coordinates (Angstroms)
 Number     Number       Type             X           Y           Z
 ---------------------------------------------------------------------
      1         11           0       -1.694571    2.067665    0.375836
      2         11           0       -4.101197   -0.676008   -0.451956
      3         11           0       -0.063492   -0.346983   -1.417889
      4         11           0        2.088303    1.692898   -0.956655
      5         11           0        3.254082   -1.462072   -0.230847
      6         11           0        1.031522    0.824826    1.825355
      7         11           0       -0.514646   -2.100326    0.856156
 ---------------------------------------------------------------------

 SCF Done:  E(UB3LYP) =  -1136.11975140     A.U. after   23 cycles

 The electronic state is 2-A.
 Alpha  occ. eigenvalues --  -38.45148 -38.44445 -38.44229 -38.43503 -38.43494
 Alpha  occ. eigenvalues --  -38.43311 -38.43266  -2.20892  -2.20248  -2.20226
 Alpha  occ. eigenvalues --   -2.19444  -2.19369  -2.19229  -2.19150  -1.14567
 Alpha  occ. eigenvalues --   -1.14554  -1.14507  -1.14014  -1.13924  -1.13922
 Alpha  occ. eigenvalues --   -1.13908  -1.13877  -1.13801  -1.13153  -1.13145
 Alpha  occ. eigenvalues --   -1.13102  -1.13028  -1.13018  -1.12928  -1.12916
 Alpha  occ. eigenvalues --   -1.12860  -1.12847  -1.12835  -1.12799  -1.12746
 Alpha  occ. eigenvalues --   -0.18764  -0.13463  -0.11437  -0.10965
 Alpha virt. eigenvalues --   -0.07030  -0.05140  -0.03709  -0.03123  -0.02675
 Alpha virt. eigenvalues --   -0.02548  -0.02344  -0.01409  -0.00520  -0.00144
 Alpha virt. eigenvalues --    0.00065   0.00206   0.00490   0.00693   0.00801

  Beta  occ. eigenvalues --  -38.45132 -38.44440 -38.44196 -38.43469 -38.43464
  Beta  occ. eigenvalues --  -38.43304 -38.43192  -2.20863  -2.20242  -2.20168
  Beta  occ. eigenvalues --   -2.19385  -2.19316  -2.19141  -2.19094  -1.14545
  Beta  occ. eigenvalues --   -1.14533  -1.14489  -1.13948  -1.13922  -1.13898
  Beta  occ. eigenvalues --   -1.13877  -1.13868  -1.13761  -1.13117  -1.13087
  Beta  occ. eigenvalues --   -1.13066  -1.12970  -1.12965  -1.12892  -1.12858
  Beta  occ. eigenvalues --   -1.12819  -1.12787  -1.12769  -1.12752  -1.12698
  Beta  occ. eigenvalues --   -0.18041  -0.13170  -0.11239
  Beta virt. eigenvalues --   -0.07158  -0.06687  -0.05126  -0.03435  -0.02768
  Beta virt. eigenvalues --   -0.02483  -0.01950  -0.01464  -0.01253  -0.00220
  Beta virt. eigenvalues --   -0.00085   0.00093   0.00237   0.00643   0.00738

 Mulliken charges and spin densities:
               1          2
     1  Na  -0.085291  -0.092503
     2  Na   0.125678   0.094057
     3  Na  -0.439937   0.361519
     4  Na   0.277909   0.126442
     5  Na   0.111144  -0.023815
     6  Na   0.085352   0.554577
     7  Na  -0.074855  -0.020278
 Sum of Mulliken charges =  -0.00000   1.00000

 Dipole moment (field-independent basis, Debye):
    X=             -0.2737    Y=             -0.1691    Z=              0.1544  Tot=              0.3568
 Quadrupole moment (field-independent basis, Debye-Ang):
   XX=            -46.6709   YY=            -72.7950   ZZ=            -71.6562
   XY=             -0.7316   XZ=              0.6135   YZ=             -0.7601

 Normal termination of Gaussian 16 at Thu Dec  7 04:13:31 2023.
