 Gaussian 16, Revision B.01,
 Gaussian 16:  ES64L-G16RevB.01 20-Dec-2017

 -------------------------
 #P B3LYP/6-311+g(d) force
 -------------------------

 -----
 DPGEN
 -----
 Symbolic Z-matrix:
 Charge =  0 Multiplicity = 2

                         Standard orientation:
 ---------------------------------------------------------------------
 Center     Atomic      Atomic             Coordinates (Angstroms)
 Number     Number       Type             X           Y           Z
 ---------------------------------------------------------------------
      1         11           0       -0.526129    0.066110    1.259558
      2         11           0        1.140764   -2.643250   -0.374192
      3         11           0       -3.542522    0.762775   -0.284536
      4         11           0        2.236923    1.599247    0.783955
      5         11           0       -0.712020    3.207849   -0.766726
      6         11           0       -2.490346   -2.523717   -0.029499
      7         11           0        3.893330   -0.469011   -0.588559
 ---------------------------------------------------------------------

 SCF Done:  E(UB3LYP) =  -1136.12288210     A.U. after   21 cycles

 The electronic state is 2-A.
 Alpha  occ. eigenvalues --  -38.44812 -38.44574 -38.44238 -38.44131 -38.43687
 Alpha  occ. eigenvalues --  -38.43576 -38.43325  -2.20570  -2.20366  -2.20050
 Alpha  occ. eigenvalues --   -2.20021  -2.19616  -2.19415  -2.19199  -1.14259
 Alpha  occ. eigenvalues --   -1.14223  -1.14213  -1.14058  -1.14041  -1.13989
 Alpha  occ. eigenvalues --   -1.13742  -1.13731  -1.13716  -1.13703  -1.13687
 Alpha  occ. eigenvalues --   -1.13654  -1.13305  -1.13291  -1.13209  -1.13079
 Alpha  occ. eigenvalues --   -1.13060  -1.13031  -1.12868  -1.12825  -1.12806
 Alpha  occ. eigenvalues --   -0.17530  -0.14008  -0.12795  -0.09916
 Alpha virt. eigenvalues --   -0.06905  -0.05945  -0.04035  -0.03656  -0.02933
 Alpha virt. eigenvalues --   -0.02209  -0.01887  -0.01333  -0.01050  -0.00847
 Alpha virt. eigenvalues --   -0.00076   0.00371   0.00419   0.00617   0.00720

  Beta  occ. eigenvalues --  -38.44820 -38.44565 -38.44235 -38.44112 -38.43638
  Beta  occ. eigenvalues --  -38.43514 -38.43255  -2.20587  -2.20353  -2.20049
  Beta  occ. eigenvalues --   -2.19994  -2.19528  -2.19299  -2.19069  -1.14273
  Beta  occ. eigenvalues --   -1.14236  -1.14208  -1.14053  -1.14030  -1.13958
  Beta  occ. eigenvalues --   -1.13734  -1.13719  -1.13692  -1.13679  -1.13657
  Beta  occ. eigenvalues --   -1.13628  -1.13248  -1.13224  -1.13141  -1.12999
  Beta  occ. eigenvalues --   -1.12985  -1.12952  -1.12782  -1.12737  -1.12720
  Beta  occ. eigenvalues --   -0.16997  -0.13335  -0.12514
  Beta virt. eigenvalues --   -0.06765  -0.06511  -0.05815  -0.03913  -0.02957
  Beta virt. eigenvalues --   -0.02558  -0.01946  -0.01532  -0.01142  -0.00872
  Beta virt. eigenvalues --   -0.00672   0.00206   0.00463   0.00553   0.00733

 Mulliken charges and spin densities:
               1          2
     1  Na  -0.146518   0.133137
     2  Na  -0.256616  -0.018052
     3  Na  -0.047137   0.442495
     4  Na   0.152154   0.016180
     5  Na  -0.031313  -0.057015
     6  Na   0.378341   0.048059
     7  Na  -0.048912   0.435196
 Sum of Mulliken charges =  -0.00000   1.00000

 Dipole moment (field-independent basis, Debye):
    X=             -0.4925    Y=              0.0067    Z=             -0.2660  Tot=              0.5598
 Quadrupole moment (field-independent basis, Debye-Ang):
   XX=            -73.0060   YY=            -58.6353   ZZ=            -69.8956
   XY=              4.0017   XZ=              0.5677   YZ=             -0.5572

 Normal termination of Gaussian 16 at Tue Nov 28 18:58:57 2023.
