 Gaussian 16, Revision B.01,
 Gaussian 16:  ES64L-G16RevB.01 20-Dec-2017

 -------------------------
 #P B3LYP/6-311+g(d) force
 -------------------------

 -----
 DPGEN
 -----
 Symbolic Z-matrix:
 Charge =  0 Multiplicity = 2

                         Standard orientation:
 ---------------------------------------------------------------------
 Center     Atomic      Atomic             Coordinates (Angstroms)
 Number     Number       Type             X           Y           Z
 ---------------------------------------------------------------------
      1         11           0       -0.633769   -1.667631   -0.044601
      2         11           0       -2.707470    0.993797   -0.385929
      3         11           0        1.025693    0.948478    0.947605
      4         11           0        3.145898   -2.336059    0.335488
      5         11           0        3.697281    0.480305   -0.906433
      6         11           0       -0.498407    3.569928    0.132511
      7         11           0       -4.029226   -1.988818   -0.078641
 ---------------------------------------------------------------------

 SCF Done:  E(UB3LYP) =  -1136.12411679     A.U. after   22 cycles

 The electronic state is 2-A.
 Alpha  occ. eigenvalues --  -38.44940 -38.44121 -38.43899 -38.43828 -38.43626
 Alpha  occ. eigenvalues --  -38.43509 -38.43231  -2.20748  -2.19987  -2.19825
 Alpha  occ. eigenvalues --   -2.19700  -2.19457  -2.19348  -2.19129  -1.14439
 Alpha  occ. eigenvalues --   -1.14419  -1.14375  -1.13690  -1.13675  -1.13598
 Alpha  occ. eigenvalues --   -1.13545  -1.13528  -1.13454  -1.13339  -1.13331
 Alpha  occ. eigenvalues --   -1.13319  -1.13121  -1.13105  -1.13094  -1.13006
 Alpha  occ. eigenvalues --   -1.12998  -1.12979  -1.12833  -1.12804  -1.12702
 Alpha  occ. eigenvalues --   -0.17542  -0.14302  -0.12548  -0.09977
 Alpha virt. eigenvalues --   -0.06493  -0.05395  -0.04847  -0.03412  -0.02501
 Alpha virt. eigenvalues --   -0.02406  -0.01709  -0.01578  -0.01095  -0.00606
 Alpha virt. eigenvalues --    0.00114   0.00148   0.00461   0.00549   0.00608

  Beta  occ. eigenvalues --  -38.44935 -38.44109 -38.43874 -38.43755 -38.43630
  Beta  occ. eigenvalues --  -38.43475 -38.43179  -2.20745  -2.19967  -2.19784
  Beta  occ. eigenvalues --   -2.19563  -2.19464  -2.19285  -2.19037  -1.14434
  Beta  occ. eigenvalues --   -1.14416  -1.14344  -1.13676  -1.13660  -1.13568
  Beta  occ. eigenvalues --   -1.13505  -1.13472  -1.13431  -1.13247  -1.13237
  Beta  occ. eigenvalues --   -1.13231  -1.13124  -1.13110  -1.13096  -1.12958
  Beta  occ. eigenvalues --   -1.12952  -1.12942  -1.12767  -1.12742  -1.12625
  Beta  occ. eigenvalues --   -0.16945  -0.13783  -0.12372
  Beta virt. eigenvalues --   -0.06401  -0.06310  -0.05189  -0.04602  -0.02849
  Beta virt. eigenvalues --   -0.02331  -0.02081  -0.01649  -0.01208  -0.00911
  Beta virt. eigenvalues --   -0.00231   0.00326   0.00389   0.00516   0.00695

 Mulliken charges and spin densities:
               1          2
     1  Na  -1.516492  -0.075973
     2  Na  -0.333757   0.131887
     3  Na  -0.932734   0.278630
     4  Na   0.559579   0.087753
     5  Na   0.246516   0.346683
     6  Na   0.626510  -0.097888
     7  Na   1.350379   0.328909
 Sum of Mulliken charges =  -0.00000   1.00000

 Dipole moment (field-independent basis, Debye):
    X=              0.0638    Y=             -0.5275    Z=              0.2057  Tot=              0.5698
 Quadrupole moment (field-independent basis, Debye-Ang):
   XX=            -69.4078   YY=            -58.1204   ZZ=            -70.6024
   XY=             -4.7729   XZ=              1.4352   YZ=             -2.0110

 Normal termination of Gaussian 16 at Wed Nov 29 00:29:14 2023.
