 Gaussian 16, Revision B.01,
 Gaussian 16:  ES64L-G16RevB.01 20-Dec-2017

 -------------------------
 #P B3LYP/6-311+g(d) force
 -------------------------

 -----
 DPGEN
 -----
 Symbolic Z-matrix:
 Charge =  0 Multiplicity = 2

                         Standard orientation:
 ---------------------------------------------------------------------
 Center     Atomic      Atomic             Coordinates (Angstroms)
 Number     Number       Type             X           Y           Z
 ---------------------------------------------------------------------
      1         11           0       -3.107381    0.608826   -0.435713
      2         11           0        3.441275    1.036841   -0.305133
      3         11           0       -0.139033   -0.189069    2.155200
      4         11           0       -2.134187   -2.406312   -0.122321
      5         11           0        2.520060   -1.962377    0.026579
      6         11           0       -0.665064    2.853336    0.295007
      7         11           0        0.084330    0.058755   -1.613620
 ---------------------------------------------------------------------

 SCF Done:  E(UB3LYP) =  -1136.12974832     A.U. after   21 cycles

 The electronic state is 2-A.
 Alpha  occ. eigenvalues --  -38.44910 -38.44274 -38.44191 -38.43982 -38.43779
 Alpha  occ. eigenvalues --  -38.43231 -38.42651  -2.20709  -2.20148  -2.20018
 Alpha  occ. eigenvalues --   -2.19879  -2.19631  -2.19063  -2.18490  -1.14387
 Alpha  occ. eigenvalues --   -1.14370  -1.14343  -1.13829  -1.13813  -1.13783
 Alpha  occ. eigenvalues --   -1.13689  -1.13682  -1.13657  -1.13578  -1.13522
 Alpha  occ. eigenvalues --   -1.13500  -1.13290  -1.13258  -1.13244  -1.12741
 Alpha  occ. eigenvalues --   -1.12722  -1.12706  -1.12162  -1.12150  -1.12138
 Alpha  occ. eigenvalues --   -0.18165  -0.13723  -0.11588  -0.10758
 Alpha virt. eigenvalues --   -0.06341  -0.05506  -0.04143  -0.03485  -0.02721
 Alpha virt. eigenvalues --   -0.02540  -0.02153  -0.01233  -0.00542  -0.00390
 Alpha virt. eigenvalues --   -0.00077   0.00287   0.00628   0.00766   0.00786

  Beta  occ. eigenvalues --  -38.44904 -38.44261 -38.44189 -38.43939 -38.43669
  Beta  occ. eigenvalues --  -38.43230 -38.42646  -2.20699  -2.20126  -2.20015
  Beta  occ. eigenvalues --   -2.19801  -2.19430  -2.19064  -2.18483  -1.14384
  Beta  occ. eigenvalues --   -1.14352  -1.14337  -1.13810  -1.13791  -1.13764
  Beta  occ. eigenvalues --   -1.13685  -1.13679  -1.13641  -1.13519  -1.13469
  Beta  occ. eigenvalues --   -1.13438  -1.13155  -1.13121  -1.13096  -1.12745
  Beta  occ. eigenvalues --   -1.12717  -1.12690  -1.12161  -1.12138  -1.12122
  Beta  occ. eigenvalues --   -0.17468  -0.13496  -0.11389
  Beta virt. eigenvalues --   -0.06867  -0.06200  -0.05483  -0.04104  -0.02794
  Beta virt. eigenvalues --   -0.02029  -0.01882  -0.01613  -0.01169  -0.00577
  Beta virt. eigenvalues --   -0.00380   0.00086   0.00345   0.00723   0.00790

 Mulliken charges and spin densities:
               1          2
     1  Na   0.345117   0.092152
     2  Na   0.085631   0.003216
     3  Na  -0.348582   0.711237
     4  Na  -0.024123  -0.021660
     5  Na   0.079470   0.001477
     6  Na  -0.108040  -0.002092
     7  Na  -0.029474   0.215669
 Sum of Mulliken charges =  -0.00000   1.00000

 Dipole moment (field-independent basis, Debye):
    X=              0.7530    Y=              0.0084    Z=             -0.0486  Tot=              0.7546
 Quadrupole moment (field-independent basis, Debye-Ang):
   XX=            -53.3160   YY=            -67.0261   ZZ=            -74.3276
   XY=              0.6471   XZ=              0.3607   YZ=              0.0685

 Normal termination of Gaussian 16 at Wed Nov 29 17:26:55 2023.
