 Gaussian 16, Revision B.01,
 Gaussian 16:  ES64L-G16RevB.01 20-Dec-2017

 -------------------------
 #P B3LYP/6-311+g(d) force
 -------------------------

 -----
 DPGEN
 -----
 Symbolic Z-matrix:
 Charge =  0 Multiplicity = 2

                         Standard orientation:
 ---------------------------------------------------------------------
 Center     Atomic      Atomic             Coordinates (Angstroms)
 Number     Number       Type             X           Y           Z
 ---------------------------------------------------------------------
      1         11           0        3.913937   -1.752750   -0.290812
      2         11           0        2.561638    1.841947    0.883527
      3         11           0       -3.314571    1.140074    0.146164
      4         11           0       -0.366374   -0.906349    1.482701
      5         11           0       -3.136612   -2.198936   -0.142619
      6         11           0       -0.306367    2.644743   -0.841281
      7         11           0        0.648348   -0.768728   -1.237680
 ---------------------------------------------------------------------

 SCF Done:  E(UB3LYP) =  -1136.11414894     A.U. after   26 cycles

 The electronic state is 2-A.
 Alpha  occ. eigenvalues --  -38.45175 -38.45018 -38.44735 -38.44217 -38.44015
 Alpha  occ. eigenvalues --  -38.43775 -38.42763  -2.21043  -2.20807  -2.20538
 Alpha  occ. eigenvalues --   -2.20039  -2.19916  -2.19565  -2.18596  -1.14843
 Alpha  occ. eigenvalues --   -1.14675  -1.14635  -1.14481  -1.14454  -1.14434
 Alpha  occ. eigenvalues --   -1.14211  -1.14204  -1.14177  -1.13716  -1.13687
 Alpha  occ. eigenvalues --   -1.13670  -1.13651  -1.13531  -1.13480  -1.13223
 Alpha  occ. eigenvalues --   -1.13218  -1.13180  -1.12294  -1.12258  -1.12233
 Alpha  occ. eigenvalues --   -0.17868  -0.13850  -0.11901  -0.09777
 Alpha virt. eigenvalues --   -0.07259  -0.06303  -0.04149  -0.03239  -0.02907
 Alpha virt. eigenvalues --   -0.02443  -0.02208  -0.01516  -0.01023  -0.00371
 Alpha virt. eigenvalues --   -0.00169  -0.00014   0.00374   0.00491   0.00527

  Beta  occ. eigenvalues --  -38.45172 -38.44994 -38.44735 -38.44184 -38.43951
  Beta  occ. eigenvalues --  -38.43715 -38.42762  -2.21041  -2.20763  -2.20540
  Beta  occ. eigenvalues --   -2.19980  -2.19798  -2.19453  -2.18596  -1.14813
  Beta  occ. eigenvalues --   -1.14679  -1.14636  -1.14447  -1.14418  -1.14408
  Beta  occ. eigenvalues --   -1.14215  -1.14198  -1.14169  -1.13669  -1.13648
  Beta  occ. eigenvalues --   -1.13626  -1.13575  -1.13456  -1.13391  -1.13145
  Beta  occ. eigenvalues --   -1.13138  -1.13108  -1.12297  -1.12260  -1.12211
  Beta  occ. eigenvalues --   -0.17450  -0.13472  -0.11445
  Beta virt. eigenvalues --   -0.07037  -0.06513  -0.06048  -0.03822  -0.02965
  Beta virt. eigenvalues --   -0.02584  -0.02251  -0.01758  -0.01089  -0.00847
  Beta virt. eigenvalues --   -0.00156   0.00011   0.00107   0.00452   0.00611

 Mulliken charges and spin densities:
               1          2
     1  Na   0.110124   0.288069
     2  Na   0.130289   0.062980
     3  Na  -0.226460   0.304332
     4  Na  -0.013029   0.215356
     5  Na   0.513093  -0.006062
     6  Na  -0.002062  -0.083810
     7  Na  -0.511956   0.219135
 Sum of Mulliken charges =  -0.00000   1.00000

 Dipole moment (field-independent basis, Debye):
    X=             -0.3637    Y=             -0.3000    Z=              0.7965  Tot=              0.9256
 Quadrupole moment (field-independent basis, Debye-Ang):
   XX=            -57.5735   YY=            -71.5906   ZZ=            -70.3722
   XY=             10.0628   XZ=              3.8290   YZ=              2.9655

 Normal termination of Gaussian 16 at Tue Dec  5 22:03:30 2023.
