 Gaussian 16, Revision B.01,
 Gaussian 16:  ES64L-G16RevB.01 20-Dec-2017

 -------------------------
 #P B3LYP/6-311+g(d) force
 -------------------------

 -----
 DPGEN
 -----
 Symbolic Z-matrix:
 Charge =  0 Multiplicity = 2

                         Standard orientation:
 ---------------------------------------------------------------------
 Center     Atomic      Atomic             Coordinates (Angstroms)
 Number     Number       Type             X           Y           Z
 ---------------------------------------------------------------------
      1         11           0        1.508829   -2.587660   -0.724262
      2         11           0        0.203408   -0.219296   -1.595885
      3         11           0        0.031086   -0.188444    2.080616
      4         11           0       -2.701186   -2.004334    0.276185
      5         11           0       -2.400776    1.627068   -0.270233
      6         11           0        2.854113    0.317228    0.566966
      7         11           0        0.504526    3.055437   -0.333386
 ---------------------------------------------------------------------

 SCF Done:  E(UB3LYP) =  -1136.13314970     A.U. after   19 cycles

 The electronic state is 2-A.
 Alpha  occ. eigenvalues --  -38.44025 -38.43908 -38.43822 -38.43638 -38.43621
 Alpha  occ. eigenvalues --  -38.43464 -38.43322  -2.19907  -2.19794  -2.19599
 Alpha  occ. eigenvalues --   -2.19517  -2.19473  -2.19466  -2.19165  -1.13644
 Alpha  occ. eigenvalues --   -1.13584  -1.13540  -1.13526  -1.13413  -1.13395
 Alpha  occ. eigenvalues --   -1.13274  -1.13252  -1.13246  -1.13201  -1.13181
 Alpha  occ. eigenvalues --   -1.13177  -1.13149  -1.13135  -1.13113  -1.13098
 Alpha  occ. eigenvalues --   -1.13075  -1.13057  -1.12833  -1.12821  -1.12802
 Alpha  occ. eigenvalues --   -0.18565  -0.12982  -0.12369  -0.11143
 Alpha virt. eigenvalues --   -0.05381  -0.05029  -0.04832  -0.03278  -0.03033
 Alpha virt. eigenvalues --   -0.02756  -0.01391  -0.01249  -0.00382  -0.00165
 Alpha virt. eigenvalues --    0.00006   0.00332   0.00844   0.00855   0.00884

  Beta  occ. eigenvalues --  -38.43933 -38.43881 -38.43820 -38.43620 -38.43616
  Beta  occ. eigenvalues --  -38.43403 -38.43319  -2.19750  -2.19736  -2.19598
  Beta  occ. eigenvalues --   -2.19488  -2.19466  -2.19356  -2.19161  -1.13591
  Beta  occ. eigenvalues --   -1.13474  -1.13423  -1.13400  -1.13373  -1.13365
  Beta  occ. eigenvalues --   -1.13264  -1.13249  -1.13246  -1.13175  -1.13163
  Beta  occ. eigenvalues --   -1.13140  -1.13139  -1.13114  -1.13089  -1.13041
  Beta  occ. eigenvalues --   -1.12995  -1.12987  -1.12825  -1.12819  -1.12790
  Beta  occ. eigenvalues --   -0.17862  -0.12694  -0.12120
  Beta virt. eigenvalues --   -0.07222  -0.05320  -0.04937  -0.04791  -0.02538
  Beta virt. eigenvalues --   -0.02321  -0.01758  -0.01274  -0.01137  -0.00362
  Beta virt. eigenvalues --   -0.00183   0.00114   0.00373   0.00858   0.00879

 Mulliken charges and spin densities:
               1          2
     1  Na   0.188288   0.014804
     2  Na  -0.086548   0.326498
     3  Na  -0.328448   0.592760
     4  Na  -0.067672  -0.029674
     5  Na   0.018375  -0.030820
     6  Na   0.268807   0.154939
     7  Na   0.007198  -0.028508
 Sum of Mulliken charges =  -0.00000   1.00000

 Dipole moment (field-independent basis, Debye):
    X=              0.0128    Y=             -0.2052    Z=              0.2587  Tot=              0.3305
 Quadrupole moment (field-independent basis, Debye-Ang):
   XX=            -60.2929   YY=            -61.1711   ZZ=            -73.0077
   XY=              0.7491   XZ=              0.4160   YZ=              0.0195

 Normal termination of Gaussian 16 at Thu Dec  7 05:10:15 2023.
