 Gaussian 16, Revision B.01,
 Gaussian 16:  ES64L-G16RevB.01 20-Dec-2017

 -------------------------
 #P B3LYP/6-311+g(d) force
 -------------------------

 -----
 DPGEN
 -----
 Symbolic Z-matrix:
 Charge =  0 Multiplicity = 2

                         Standard orientation:
 ---------------------------------------------------------------------
 Center     Atomic      Atomic             Coordinates (Angstroms)
 Number     Number       Type             X           Y           Z
 ---------------------------------------------------------------------
      1         11           0        4.548238   -0.252246   -0.514482
      2         11           0       -0.945376    3.140400   -0.340442
      3         11           0       -3.787813    1.317613    0.798854
      4         11           0       -4.021026   -1.892880   -0.613308
      5         11           0       -0.664725   -2.296666   -0.306092
      6         11           0        2.436936    2.686514    0.122335
      7         11           0        2.433766   -2.702735    0.853135
 ---------------------------------------------------------------------

 SCF Done:  E(UB3LYP) =  -1136.11087529     A.U. after   28 cycles

 The electronic state is 2-A.
 Alpha  occ. eigenvalues --  -38.45925 -38.44834 -38.44672 -38.44496 -38.44024
 Alpha  occ. eigenvalues --  -38.43971 -38.43397  -2.21681  -2.20586  -2.20468
 Alpha  occ. eigenvalues --   -2.20283  -2.19830  -2.19788  -2.19191  -1.15367
 Alpha  occ. eigenvalues --   -1.15343  -1.15311  -1.14278  -1.14267  -1.14215
 Alpha  occ. eigenvalues --   -1.14150  -1.14141  -1.14095  -1.13948  -1.13925
 Alpha  occ. eigenvalues --   -1.13916  -1.13496  -1.13488  -1.13465  -1.13444
 Alpha  occ. eigenvalues --   -1.13439  -1.13417  -1.12853  -1.12850  -1.12828
 Alpha  occ. eigenvalues --   -0.15850  -0.14067  -0.13024  -0.10513
 Alpha virt. eigenvalues --   -0.07773  -0.04859  -0.04616  -0.03438  -0.03314
 Alpha virt. eigenvalues --   -0.02594  -0.02269  -0.01776  -0.01045  -0.00710
 Alpha virt. eigenvalues --   -0.00407  -0.00290   0.00218   0.00390   0.00640

  Beta  occ. eigenvalues --  -38.45908 -38.44836 -38.44634 -38.44446 -38.43996
  Beta  occ. eigenvalues --  -38.43924 -38.43365  -2.21653  -2.20593  -2.20405
  Beta  occ. eigenvalues --   -2.20191  -2.19782  -2.19701  -2.19132  -1.15352
  Beta  occ. eigenvalues --   -1.15327  -1.15260  -1.14286  -1.14275  -1.14195
  Beta  occ. eigenvalues --   -1.14108  -1.14101  -1.14023  -1.13886  -1.13866
  Beta  occ. eigenvalues --   -1.13845  -1.13465  -1.13453  -1.13417  -1.13384
  Beta  occ. eigenvalues --   -1.13379  -1.13358  -1.12812  -1.12811  -1.12791
  Beta  occ. eigenvalues --   -0.15321  -0.13411  -0.12473
  Beta virt. eigenvalues --   -0.07903  -0.07225  -0.04471  -0.04197  -0.03110
  Beta virt. eigenvalues --   -0.02998  -0.02329  -0.02067  -0.01595  -0.00858
  Beta virt. eigenvalues --   -0.00387  -0.00275  -0.00067   0.00339   0.00448

 Mulliken charges and spin densities:
               1          2
     1  Na   0.191671   0.242816
     2  Na  -0.324011   0.121355
     3  Na   0.188951   0.098361
     4  Na   0.515011   0.354361
     5  Na  -1.016003   0.295844
     6  Na  -0.023554   0.039250
     7  Na   0.467933  -0.151987
 Sum of Mulliken charges =  -0.00000   1.00000

 Dipole moment (field-independent basis, Debye):
    X=             -0.6299    Y=             -0.1903    Z=              0.2512  Tot=              0.7043
 Quadrupole moment (field-independent basis, Debye-Ang):
   XX=            -57.7261   YY=            -71.2663   ZZ=            -70.0904
   XY=             -4.1516   XZ=             -1.3224   YZ=              1.6627

 Normal termination of Gaussian 16 at Sun Dec  3 13:56:22 2023.
