 Gaussian 16, Revision B.01,
 Gaussian 16:  ES64L-G16RevB.01 20-Dec-2017

 -------------------------
 #P B3LYP/6-311+g(d) force
 -------------------------

 -----
 DPGEN
 -----
 Symbolic Z-matrix:
 Charge =  0 Multiplicity = 2

                         Standard orientation:
 ---------------------------------------------------------------------
 Center     Atomic      Atomic             Coordinates (Angstroms)
 Number     Number       Type             X           Y           Z
 ---------------------------------------------------------------------
      1         11           0        1.783897    2.863783   -0.268545
      2         11           0        3.006635   -0.500669    0.422966
      3         11           0        0.434556    0.098106   -1.592285
      4         11           0       -2.794271    1.805103   -0.031181
      5         11           0       -2.823983   -1.169709   -0.199755
      6         11           0        0.641088   -3.006723   -0.380439
      7         11           0       -0.247921   -0.089892    2.049238
 ---------------------------------------------------------------------

 SCF Done:  E(UB3LYP) =  -1136.13255235     A.U. after   19 cycles

 The electronic state is 2-A.
 Alpha  occ. eigenvalues --  -38.44380 -38.44309 -38.44050 -38.43800 -38.43561
 Alpha  occ. eigenvalues --  -38.43244 -38.43105  -2.20224  -2.20138  -2.19916
 Alpha  occ. eigenvalues --   -2.19660  -2.19357  -2.19187  -2.18939  -1.13910
 Alpha  occ. eigenvalues --   -1.13901  -1.13897  -1.13839  -1.13788  -1.13771
 Alpha  occ. eigenvalues --   -1.13573  -1.13564  -1.13530  -1.13329  -1.13290
 Alpha  occ. eigenvalues --   -1.13272  -1.13045  -1.13010  -1.13002  -1.12877
 Alpha  occ. eigenvalues --   -1.12831  -1.12808  -1.12611  -1.12587  -1.12584
 Alpha  occ. eigenvalues --   -0.18273  -0.13456  -0.11976  -0.10570
 Alpha virt. eigenvalues --   -0.05937  -0.05339  -0.04736  -0.03447  -0.02589
 Alpha virt. eigenvalues --   -0.02478  -0.01686  -0.01252  -0.00688  -0.00447
 Alpha virt. eigenvalues --   -0.00022   0.00352   0.00766   0.00797   0.00833

  Beta  occ. eigenvalues --  -38.44371 -38.44309 -38.44044 -38.43706 -38.43559
  Beta  occ. eigenvalues --  -38.43186 -38.43097  -2.20209  -2.20140  -2.19908
  Beta  occ. eigenvalues --   -2.19486  -2.19355  -2.19082  -2.18928  -1.13905
  Beta  occ. eigenvalues --   -1.13899  -1.13862  -1.13835  -1.13776  -1.13770
  Beta  occ. eigenvalues --   -1.13561  -1.13550  -1.13523  -1.13212  -1.13171
  Beta  occ. eigenvalues --   -1.13145  -1.13033  -1.13006  -1.13000  -1.12804
  Beta  occ. eigenvalues --   -1.12759  -1.12731  -1.12592  -1.12581  -1.12566
  Beta  occ. eigenvalues --   -0.17561  -0.13269  -0.11754
  Beta virt. eigenvalues --   -0.06695  -0.05832  -0.05298  -0.04703  -0.02673
  Beta virt. eigenvalues --   -0.01941  -0.01578  -0.01457  -0.01145  -0.00723
  Beta virt. eigenvalues --   -0.00464   0.00132   0.00387   0.00795   0.00849

 Mulliken charges and spin densities:
               1          2
     1  Na  -0.054418  -0.105621
     2  Na   0.212122   0.085872
     3  Na  -0.093408   0.471531
     4  Na   0.007406  -0.084778
     5  Na   0.164325   0.026964
     6  Na   0.062511  -0.016073
     7  Na  -0.298538   0.622106
 Sum of Mulliken charges =  -0.00000   1.00000

 Dipole moment (field-independent basis, Debye):
    X=             -0.0959    Y=              0.1576    Z=              0.2062  Tot=              0.2766
 Quadrupole moment (field-independent basis, Debye-Ang):
   XX=            -56.4063   YY=            -61.8956   ZZ=            -75.5951
   XY=             -1.0583   XZ=              1.7495   YZ=              0.4684

 Normal termination of Gaussian 16 at Thu Dec  7 12:53:30 2023.
