 Gaussian 16, Revision B.01,
 Gaussian 16:  ES64L-G16RevB.01 20-Dec-2017

 -------------------------
 #P B3LYP/6-311+g(d) force
 -------------------------

 -----
 DPGEN
 -----
 Symbolic Z-matrix:
 Charge =  0 Multiplicity = 2

                         Standard orientation:
 ---------------------------------------------------------------------
 Center     Atomic      Atomic             Coordinates (Angstroms)
 Number     Number       Type             X           Y           Z
 ---------------------------------------------------------------------
      1         11           0       -2.798196   -2.446275    0.516523
      2         11           0       -0.596532    2.618328   -0.196936
      3         11           0        4.125827   -1.669308   -0.183690
      4         11           0        2.513955    1.777390    0.375820
      5         11           0       -1.321096    0.397413    1.953863
      6         11           0        0.619743   -1.284265   -0.805933
      7         11           0       -2.543700    0.606717   -1.659647
 ---------------------------------------------------------------------

 SCF Done:  E(UB3LYP) =  -1136.12547306     A.U. after   21 cycles

 The electronic state is 2-A.
 Alpha  occ. eigenvalues --  -38.44601 -38.44306 -38.44279 -38.44178 -38.44086
 Alpha  occ. eigenvalues --  -38.44027 -38.42761  -2.20395  -2.20083  -2.20064
 Alpha  occ. eigenvalues --   -2.20054  -2.19903  -2.19881  -2.18682  -1.14092
 Alpha  occ. eigenvalues --   -1.14068  -1.14006  -1.13799  -1.13774  -1.13737
 Alpha  occ. eigenvalues --   -1.13734  -1.13727  -1.13723  -1.13702  -1.13663
 Alpha  occ. eigenvalues --   -1.13656  -1.13576  -1.13554  -1.13548  -1.13540
 Alpha  occ. eigenvalues --   -1.13517  -1.13491  -1.12367  -1.12337  -1.12333
 Alpha  occ. eigenvalues --   -0.17955  -0.13413  -0.12079  -0.10781
 Alpha virt. eigenvalues --   -0.06417  -0.06060  -0.04183  -0.03182  -0.02756
 Alpha virt. eigenvalues --   -0.02578  -0.02146  -0.01604  -0.00883  -0.00395
 Alpha virt. eigenvalues --   -0.00120   0.00179   0.00424   0.00606   0.00706

  Beta  occ. eigenvalues --  -38.44597 -38.44309 -38.44269 -38.44108 -38.44072
  Beta  occ. eigenvalues --  -38.43942 -38.42749  -2.20388  -2.20070  -2.20063
  Beta  occ. eigenvalues --   -2.19925  -2.19858  -2.19748  -2.18666  -1.14089
  Beta  occ. eigenvalues --   -1.14060  -1.13999  -1.13774  -1.13757  -1.13740
  Beta  occ. eigenvalues --   -1.13736  -1.13704  -1.13656  -1.13636  -1.13636
  Beta  occ. eigenvalues --   -1.13568  -1.13533  -1.13503  -1.13495  -1.13470
  Beta  occ. eigenvalues --   -1.13444  -1.13388  -1.12363  -1.12331  -1.12273
  Beta  occ. eigenvalues --   -0.17296  -0.13220  -0.11819
  Beta virt. eigenvalues --   -0.06963  -0.06186  -0.05895  -0.04055  -0.02729
  Beta virt. eigenvalues --   -0.02234  -0.02121  -0.01712  -0.01273  -0.00820
  Beta virt. eigenvalues --   -0.00070  -0.00063   0.00259   0.00555   0.00657

 Mulliken charges and spin densities:
               1          2
     1  Na   0.282722   0.012460
     2  Na   0.254146   0.180383
     3  Na   0.308397  -0.031762
     4  Na   0.004562  -0.014628
     5  Na  -0.099695   0.373174
     6  Na  -0.916928   0.233191
     7  Na   0.166798   0.247182
 Sum of Mulliken charges =  -0.00000   1.00000

 Dipole moment (field-independent basis, Debye):
    X=              0.4030    Y=             -0.4282    Z=              0.3126  Tot=              0.6660
 Quadrupole moment (field-independent basis, Debye-Ang):
   XX=            -53.7098   YY=            -66.9681   ZZ=            -73.4838
   XY=              2.5221   XZ=              1.3558   YZ=             -0.0315

 Normal termination of Gaussian 16 at Thu Dec  7 21:52:26 2023.
