 Gaussian 16, Revision B.01,
 Gaussian 16:  ES64L-G16RevB.01 20-Dec-2017

 -------------------------
 #P B3LYP/6-311+g(d) force
 -------------------------

 -----
 DPGEN
 -----
 Symbolic Z-matrix:
 Charge =  0 Multiplicity = 2

                         Standard orientation:
 ---------------------------------------------------------------------
 Center     Atomic      Atomic             Coordinates (Angstroms)
 Number     Number       Type             X           Y           Z
 ---------------------------------------------------------------------
      1         11           0       -0.462061    0.127165   -1.590226
      2         11           0        0.276519   -2.839984   -0.308942
      3         11           0        3.510896   -0.785517    0.266567
      4         11           0       -3.161093   -1.073606   -0.215975
      5         11           0        1.974149    2.389958   -0.618215
      6         11           0       -2.020764    2.234894    0.397926
      7         11           0       -0.117646   -0.052910    2.068865
 ---------------------------------------------------------------------

 SCF Done:  E(UB3LYP) =  -1136.13166242     A.U. after   20 cycles

 The electronic state is 2-A.
 Alpha  occ. eigenvalues --  -38.44765 -38.44530 -38.43871 -38.43619 -38.43588
 Alpha  occ. eigenvalues --  -38.43274 -38.43234  -2.20515  -2.20354  -2.19732
 Alpha  occ. eigenvalues --   -2.19441  -2.19413  -2.19243  -2.19053  -1.14196
 Alpha  occ. eigenvalues --   -1.14168  -1.14156  -1.14045  -1.14006  -1.13983
 Alpha  occ. eigenvalues --   -1.13406  -1.13363  -1.13348  -1.13133  -1.13109
 Alpha  occ. eigenvalues --   -1.13103  -1.13070  -1.13064  -1.13041  -1.12929
 Alpha  occ. eigenvalues --   -1.12889  -1.12865  -1.12740  -1.12723  -1.12665
 Alpha  occ. eigenvalues --   -0.18202  -0.13056  -0.11989  -0.10698
 Alpha virt. eigenvalues --   -0.06314  -0.05354  -0.04383  -0.03212  -0.02756
 Alpha virt. eigenvalues --   -0.02540  -0.01980  -0.01252  -0.00590  -0.00368
 Alpha virt. eigenvalues --   -0.00061   0.00292   0.00693   0.00736   0.00821

  Beta  occ. eigenvalues --  -38.44768 -38.44522 -38.43776 -38.43605 -38.43577
  Beta  occ. eigenvalues --  -38.43231 -38.43216  -2.20521  -2.20343  -2.19558
  Beta  occ. eigenvalues --   -2.19424  -2.19389  -2.19136  -2.19049  -1.14193
  Beta  occ. eigenvalues --   -1.14172  -1.14161  -1.14028  -1.13991  -1.13975
  Beta  occ. eigenvalues --   -1.13292  -1.13243  -1.13221  -1.13120  -1.13077
  Beta  occ. eigenvalues --   -1.13071  -1.13053  -1.13048  -1.13028  -1.12857
  Beta  occ. eigenvalues --   -1.12823  -1.12785  -1.12722  -1.12709  -1.12659
  Beta  occ. eigenvalues --   -0.17488  -0.12878  -0.11710
  Beta virt. eigenvalues --   -0.06835  -0.06230  -0.05296  -0.04307  -0.02555
  Beta virt. eigenvalues --   -0.02040  -0.01904  -0.01498  -0.01162  -0.00586
  Beta virt. eigenvalues --   -0.00391   0.00085   0.00334   0.00770   0.00823

 Mulliken charges and spin densities:
               1          2
     1  Na   0.203027   0.427867
     2  Na  -0.160945  -0.087069
     3  Na  -0.065537  -0.033568
     4  Na   0.230788  -0.043068
     5  Na  -0.050510  -0.012703
     6  Na   0.136874   0.061147
     7  Na  -0.293696   0.687393
 Sum of Mulliken charges =  -0.00000   1.00000

 Dipole moment (field-independent basis, Debye):
    X=             -0.1026    Y=             -0.1622    Z=              0.2364  Tot=              0.3045
 Quadrupole moment (field-independent basis, Debye-Ang):
   XX=            -51.4669   YY=            -66.1468   ZZ=            -74.9682
   XY=             -0.3124   XZ=              0.0525   YZ=              0.0575

 Normal termination of Gaussian 16 at Fri Dec  8 01:01:18 2023.
