 Gaussian 16, Revision B.01,
 Gaussian 16:  ES64L-G16RevB.01 20-Dec-2017

 -------------------------
 #P B3LYP/6-311+g(d) force
 -------------------------

 -----
 DPGEN
 -----
 Symbolic Z-matrix:
 Charge =  0 Multiplicity = 2

                         Standard orientation:
 ---------------------------------------------------------------------
 Center     Atomic      Atomic             Coordinates (Angstroms)
 Number     Number       Type             X           Y           Z
 ---------------------------------------------------------------------
      1         11           0       -2.585219    1.226185   -0.377407
      2         11           0       -6.000883   -0.632416   -0.660993
      3         11           0       -0.577541    0.212877    1.454784
      4         11           0        8.392673    1.360341   -0.311369
      5         11           0        6.872629   -1.229774   -0.376709
      6         11           0       -8.917063    0.070627   -0.028574
      7         11           0        2.815404   -1.007841    0.300268
 ---------------------------------------------------------------------

 SCF Done:  E(UB3LYP) =  -1136.10289199     A.U. after   18 cycles

 The electronic state is 2-A.
 Alpha  occ. eigenvalues --  -38.45176 -38.44801 -38.44585 -38.44346 -38.44328
 Alpha  occ. eigenvalues --  -38.44280 -38.43931  -2.20949  -2.20612  -2.20428
 Alpha  occ. eigenvalues --   -2.20164  -2.20125  -2.20080  -2.19724  -1.14598
 Alpha  occ. eigenvalues --   -1.14595  -1.14543  -1.14308  -1.14249  -1.14246
 Alpha  occ. eigenvalues --   -1.14208  -1.14060  -1.14047  -1.13818  -1.13805
 Alpha  occ. eigenvalues --   -1.13787  -1.13787  -1.13786  -1.13769  -1.13767
 Alpha  occ. eigenvalues --   -1.13724  -1.13723  -1.13391  -1.13386  -1.13360
 Alpha  occ. eigenvalues --   -0.15172  -0.14202  -0.13017  -0.11382
 Alpha virt. eigenvalues --   -0.06853  -0.05292  -0.04332  -0.03354  -0.02951
 Alpha virt. eigenvalues --   -0.02892  -0.02471  -0.01953  -0.01833  -0.01172
 Alpha virt. eigenvalues --   -0.00541  -0.00529  -0.00337   0.00401   0.00459

  Beta  occ. eigenvalues --  -38.45060 -38.44756 -38.44533 -38.44357 -38.44337
  Beta  occ. eigenvalues --  -38.44249 -38.43938  -2.20735  -2.20529  -2.20331
  Beta  occ. eigenvalues --   -2.20190  -2.20145  -2.20023  -2.19740  -1.14452
  Beta  occ. eigenvalues --   -1.14449  -1.14401  -1.14257  -1.14192  -1.14189
  Beta  occ. eigenvalues --   -1.14160  -1.13994  -1.13982  -1.13840  -1.13823
  Beta  occ. eigenvalues --   -1.13804  -1.13797  -1.13756  -1.13756  -1.13733
  Beta  occ. eigenvalues --   -1.13685  -1.13684  -1.13405  -1.13399  -1.13348
  Beta  occ. eigenvalues --   -0.14533  -0.13652  -0.12591
  Beta virt. eigenvalues --   -0.08128  -0.06347  -0.04921  -0.04124  -0.03131
  Beta virt. eigenvalues --   -0.02746  -0.02613  -0.02354  -0.01823  -0.01497
  Beta virt. eigenvalues --   -0.00787  -0.00322  -0.00227  -0.00117   0.00439

 Mulliken charges and spin densities:
               1          2
     1  Na  -0.004378   0.191892
     2  Na  -0.582389   0.041518
     3  Na  -0.045948  -0.136276
     4  Na   0.118376   0.187663
     5  Na   0.013178  -0.007110
     6  Na   0.592183   0.090199
     7  Na  -0.091022   0.632114
 Sum of Mulliken charges =  -0.00000   1.00000

 Dipole moment (field-independent basis, Debye):
    X=              0.7781    Y=              0.6272    Z=              0.0222  Tot=              0.9997
 Quadrupole moment (field-independent basis, Debye-Ang):
   XX=            -53.8378   YY=            -66.3180   ZZ=            -72.1324
   XY=              2.0143   XZ=             -2.1328   YZ=             -0.1806

 Normal termination of Gaussian 16 at Mon Dec  4 00:00:01 2023.
