 Gaussian 16, Revision B.01,
 Gaussian 16:  ES64L-G16RevB.01 20-Dec-2017

 -------------------------
 #P B3LYP/6-311+g(d) force
 -------------------------

 -----
 DPGEN
 -----
 Symbolic Z-matrix:
 Charge =  0 Multiplicity = 2

                         Standard orientation:
 ---------------------------------------------------------------------
 Center     Atomic      Atomic             Coordinates (Angstroms)
 Number     Number       Type             X           Y           Z
 ---------------------------------------------------------------------
      1         11           0       -0.642237   -1.131669    2.337328
      2         11           0       -0.871954    1.906754   -1.276148
      3         11           0       -2.278985   -2.250475   -0.581525
      4         11           0        3.830976   -0.943127    0.561855
      5         11           0        0.432254   -1.143313   -2.132368
      6         11           0        2.740307    1.907191    0.224246
      7         11           0       -3.210361    1.654639    0.866613
 ---------------------------------------------------------------------

 SCF Done:  E(UB3LYP) =  -1136.11345582     A.U. after   23 cycles

 The electronic state is 2-A.
 Alpha  occ. eigenvalues --  -38.45340 -38.44743 -38.44482 -38.44452 -38.44025
 Alpha  occ. eigenvalues --  -38.43796 -38.43088  -2.21106  -2.20536  -2.20319
 Alpha  occ. eigenvalues --   -2.20248  -2.19818  -2.19595  -2.18930  -1.14758
 Alpha  occ. eigenvalues --   -1.14737  -1.14735  -1.14247  -1.14189  -1.14172
 Alpha  occ. eigenvalues --   -1.13994  -1.13947  -1.13939  -1.13915  -1.13896
 Alpha  occ. eigenvalues --   -1.13882  -1.13494  -1.13480  -1.13453  -1.13272
 Alpha  occ. eigenvalues --   -1.13253  -1.13246  -1.12600  -1.12588  -1.12575
 Alpha  occ. eigenvalues --   -0.17144  -0.13434  -0.11768  -0.11281
 Alpha virt. eigenvalues --   -0.06534  -0.05668  -0.04235  -0.03499  -0.03337
 Alpha virt. eigenvalues --   -0.03124  -0.01925  -0.01303  -0.00668  -0.00388
 Alpha virt. eigenvalues --   -0.00074   0.00036   0.00305   0.00401   0.00563

  Beta  occ. eigenvalues --  -38.45268 -38.44734 -38.44450 -38.44398 -38.44011
  Beta  occ. eigenvalues --  -38.43802 -38.43063  -2.20971  -2.20519  -2.20247
  Beta  occ. eigenvalues --   -2.20166  -2.19793  -2.19610  -2.18886  -1.14666
  Beta  occ. eigenvalues --   -1.14648  -1.14638  -1.14236  -1.14174  -1.14161
  Beta  occ. eigenvalues --   -1.13912  -1.13895  -1.13885  -1.13875  -1.13841
  Beta  occ. eigenvalues --   -1.13831  -1.13480  -1.13463  -1.13430  -1.13274
  Beta  occ. eigenvalues --   -1.13264  -1.13241  -1.12570  -1.12550  -1.12538
  Beta  occ. eigenvalues --   -0.16376  -0.13209  -0.11146
  Beta virt. eigenvalues --   -0.07992  -0.06167  -0.05510  -0.03686  -0.03089
  Beta virt. eigenvalues --   -0.02943  -0.02464  -0.01746  -0.01238  -0.00491
  Beta virt. eigenvalues --   -0.00283  -0.00016   0.00306   0.00365   0.00490

 Mulliken charges and spin densities:
               1          2
     1  Na  -0.241762   0.473109
     2  Na  -0.129926   0.084922
     3  Na   0.175453  -0.053430
     4  Na   0.018113   0.107008
     5  Na   0.009744   0.338072
     6  Na   0.053842  -0.024162
     7  Na   0.114535   0.074480
 Sum of Mulliken charges =  -0.00000   1.00000

 Dipole moment (field-independent basis, Debye):
    X=              0.6237    Y=             -0.6640    Z=              0.6835  Tot=              1.1389
 Quadrupole moment (field-independent basis, Debye-Ang):
   XX=            -58.2632   YY=            -74.3834   ZZ=            -67.0669
   XY=              0.0363   XZ=             -0.8345   YZ=              0.8557

 Normal termination of Gaussian 16 at Sun Dec  3 15:40:40 2023.
