 Gaussian 16, Revision B.01,
 Gaussian 16:  ES64L-G16RevB.01 20-Dec-2017

 -------------------------
 #P B3LYP/6-311+g(d) force
 -------------------------

 -----
 DPGEN
 -----
 Symbolic Z-matrix:
 Charge =  0 Multiplicity = 2

                         Standard orientation:
 ---------------------------------------------------------------------
 Center     Atomic      Atomic             Coordinates (Angstroms)
 Number     Number       Type             X           Y           Z
 ---------------------------------------------------------------------
      1         11           0       -0.092691   -1.093922   -1.632399
      2         11           0        0.224506   -0.559582    2.089781
      3         11           0       -2.804189    0.522661   -1.563749
      4         11           0        3.352218   -1.534465   -0.519299
      5         11           0       -0.618928    2.242742    0.328065
      6         11           0       -2.780157   -1.249732    1.198343
      7         11           0        2.719241    1.672297    0.099259
 ---------------------------------------------------------------------

 SCF Done:  E(UB3LYP) =  -1136.12383184     A.U. after   26 cycles

 The electronic state is 2-A.
 Alpha  occ. eigenvalues --  -38.45020 -38.44631 -38.44358 -38.44173 -38.43749
 Alpha  occ. eigenvalues --  -38.43521 -38.42493  -2.20882  -2.20507  -2.20262
 Alpha  occ. eigenvalues --   -2.19998  -2.19594  -2.19322  -2.18376  -1.14585
 Alpha  occ. eigenvalues --   -1.14522  -1.14501  -1.14191  -1.14131  -1.14119
 Alpha  occ. eigenvalues --   -1.13952  -1.13893  -1.13885  -1.13686  -1.13652
 Alpha  occ. eigenvalues --   -1.13629  -1.13286  -1.13279  -1.13200  -1.12998
 Alpha  occ. eigenvalues --   -1.12983  -1.12962  -1.12062  -1.12036  -1.12007
 Alpha  occ. eigenvalues --   -0.18494  -0.13836  -0.12236  -0.10947
 Alpha virt. eigenvalues --   -0.06476  -0.05290  -0.04508  -0.03584  -0.02873
 Alpha virt. eigenvalues --   -0.02551  -0.02182  -0.01157  -0.00566  -0.00074
 Alpha virt. eigenvalues --    0.00178   0.00249   0.00364   0.00512   0.00709

  Beta  occ. eigenvalues --  -38.44966 -38.44556 -38.44311 -38.44166 -38.43728
  Beta  occ. eigenvalues --  -38.43528 -38.42471  -2.20787  -2.20372  -2.20177
  Beta  occ. eigenvalues --   -2.19986  -2.19557  -2.19336  -2.18337  -1.14494
  Beta  occ. eigenvalues --   -1.14462  -1.14432  -1.14105  -1.14039  -1.14003
  Beta  occ. eigenvalues --   -1.13883  -1.13842  -1.13820  -1.13672  -1.13645
  Beta  occ. eigenvalues --   -1.13626  -1.13260  -1.13236  -1.13176  -1.13005
  Beta  occ. eigenvalues --   -1.12992  -1.12970  -1.12038  -1.11995  -1.11979
  Beta  occ. eigenvalues --   -0.17714  -0.13697  -0.10810
  Beta virt. eigenvalues --   -0.08009  -0.06354  -0.04990  -0.04069  -0.03047
  Beta virt. eigenvalues --   -0.02312  -0.02103  -0.01920  -0.00816  -0.00415
  Beta virt. eigenvalues --    0.00007   0.00214   0.00338   0.00475   0.00651

 Mulliken charges and spin densities:
               1          2
     1  Na  -1.166630   0.239986
     2  Na  -0.009136   0.452409
     3  Na   1.395293   0.190685
     4  Na   0.270598  -0.080404
     5  Na  -0.741183   0.291258
     6  Na   0.017700   0.005930
     7  Na   0.233356  -0.099864
 Sum of Mulliken charges =  -0.00000   1.00000

 Dipole moment (field-independent basis, Debye):
    X=             -0.5695    Y=             -0.0927    Z=              0.3756  Tot=              0.6885
 Quadrupole moment (field-independent basis, Debye-Ang):
   XX=            -51.7566   YY=            -73.9235   ZZ=            -70.9073
   XY=              1.2816   XZ=              0.8423   YZ=             -7.1914

 Normal termination of Gaussian 16 at Tue Dec  5 19:12:59 2023.
