 Gaussian 16, Revision B.01,
 Gaussian 16:  ES64L-G16RevB.01 20-Dec-2017

 -------------------------
 #P B3LYP/6-311+g(d) force
 -------------------------

 -----
 DPGEN
 -----
 Symbolic Z-matrix:
 Charge =  0 Multiplicity = 2

                         Standard orientation:
 ---------------------------------------------------------------------
 Center     Atomic      Atomic             Coordinates (Angstroms)
 Number     Number       Type             X           Y           Z
 ---------------------------------------------------------------------
      1         11           0       -0.002316   -1.895634    0.000729
      2         11           0        0.001305    0.170606    1.608529
      3         11           0        1.632019    1.663190    0.000229
      4         11           0        2.484794   -0.888719   -0.001171
      5         11           0       -0.000095    0.170206   -1.607971
      6         11           0       -2.487826   -0.883370    0.000129
      7         11           0       -1.627881    1.663722   -0.000471
 ---------------------------------------------------------------------

 SCF Done:  E(UB3LYP) =  -1136.04909417     A.U. after   20 cycles

 The electronic state is 2-A.
 Alpha  occ. eigenvalues --  -38.44405 -38.44400 -38.44366 -38.44366 -38.43994
 Alpha  occ. eigenvalues --  -38.43907 -38.43903  -2.20774  -2.20743  -2.20551
 Alpha  occ. eigenvalues --   -2.20544  -2.20299  -2.20089  -2.20084  -1.14911
 Alpha  occ. eigenvalues --   -1.14683  -1.14643  -1.14638  -1.14517  -1.14443
 Alpha  occ. eigenvalues --   -1.14436  -1.14383  -1.14249  -1.14247  -1.14108
 Alpha  occ. eigenvalues --   -1.14083  -1.13776  -1.13751  -1.13694  -1.13666
 Alpha  occ. eigenvalues --   -1.13663  -1.13661  -1.13644  -1.13590  -1.13537
 Alpha  occ. eigenvalues --   -0.22168  -0.14611  -0.12726  -0.12157
 Alpha virt. eigenvalues --   -0.05643  -0.04447  -0.03911  -0.03784  -0.02813
 Alpha virt. eigenvalues --   -0.02387  -0.01432  -0.00479  -0.00021   0.00307
 Alpha virt. eigenvalues --    0.00693   0.00801   0.00995   0.01135   0.01178

  Beta  occ. eigenvalues --  -38.44395 -38.44390 -38.44273 -38.44273 -38.43970
  Beta  occ. eigenvalues --  -38.43892 -38.43888  -2.20618  -2.20575  -2.20534
  Beta  occ. eigenvalues --   -2.20528  -2.20264  -2.20068  -2.20062  -1.14845
  Beta  occ. eigenvalues --   -1.14647  -1.14554  -1.14516  -1.14498  -1.14373
  Beta  occ. eigenvalues --   -1.14336  -1.14316  -1.14228  -1.14187  -1.14046
  Beta  occ. eigenvalues --   -1.14018  -1.13715  -1.13680  -1.13672  -1.13645
  Beta  occ. eigenvalues --   -1.13638  -1.13585  -1.13582  -1.13557  -1.13532
  Beta  occ. eigenvalues --   -0.21352  -0.14190  -0.12360
  Beta virt. eigenvalues --   -0.07900  -0.05685  -0.04424  -0.03719  -0.02872
  Beta virt. eigenvalues --   -0.01913  -0.01352  -0.01340  -0.00452   0.00118
  Beta virt. eigenvalues --    0.00340   0.00686   0.00787   0.01006   0.01157

 Mulliken charges and spin densities:
               1          2
     1  Na   0.465523   0.137792
     2  Na  -0.401360   0.443815
     3  Na   0.249151   0.030544
     4  Na  -0.079682  -0.043200
     5  Na  -0.402002   0.443499
     6  Na  -0.081504  -0.043431
     7  Na   0.249874   0.030982
 Sum of Mulliken charges =  -0.00000   1.00000

 Dipole moment (field-independent basis, Debye):
    X=              0.0008    Y=              0.1676    Z=              0.0004  Tot=              0.1676
 Quadrupole moment (field-independent basis, Debye-Ang):
   XX=            -55.8451   YY=            -71.1670   ZZ=            -70.5036
   XY=              0.0053   XZ=             -0.0037   YZ=              0.0004

 Normal termination of Gaussian 16 at Sat Dec  9 06:15:40 2023.
