 Gaussian 16, Revision B.01,
 Gaussian 16:  ES64L-G16RevB.01 20-Dec-2017

 -------------------------
 #P B3LYP/6-311+g(d) force
 -------------------------

 -----
 DPGEN
 -----
 Symbolic Z-matrix:
 Charge =  0 Multiplicity = 2

                         Standard orientation:
 ---------------------------------------------------------------------
 Center     Atomic      Atomic             Coordinates (Angstroms)
 Number     Number       Type             X           Y           Z
 ---------------------------------------------------------------------
      1         11           0        3.696931    1.982926    1.190903
      2         11           0       -4.037641   -0.075528    0.578608
      3         11           0       -2.534431   -2.513154    0.577536
      4         11           0        0.756513   -3.337183   -0.487374
      5         11           0        1.066993    3.079132   -0.333701
      6         11           0       -2.428101    3.008161   -0.919455
      7         11           0        3.479737   -2.144354   -0.606517
 ---------------------------------------------------------------------

 SCF Done:  E(UB3LYP) =  -1136.10548393     A.U. after   20 cycles

 The electronic state is 2-A.
 Alpha  occ. eigenvalues --  -38.44990 -38.44857 -38.44420 -38.44413 -38.44379
 Alpha  occ. eigenvalues --  -38.44314 -38.44199  -2.20794  -2.20681  -2.20265
 Alpha  occ. eigenvalues --   -2.20224  -2.20174  -2.20093  -2.20022  -1.14507
 Alpha  occ. eigenvalues --   -1.14482  -1.14441  -1.14416  -1.14330  -1.14306
 Alpha  occ. eigenvalues --   -1.13902  -1.13899  -1.13894  -1.13887  -1.13865
 Alpha  occ. eigenvalues --   -1.13850  -1.13823  -1.13817  -1.13798  -1.13774
 Alpha  occ. eigenvalues --   -1.13766  -1.13714  -1.13690  -1.13673  -1.13663
 Alpha  occ. eigenvalues --   -0.15696  -0.13870  -0.13723  -0.11205
 Alpha virt. eigenvalues --   -0.07358  -0.04863  -0.04012  -0.03739  -0.03710
 Alpha virt. eigenvalues --   -0.02218  -0.02077  -0.01743  -0.01460  -0.01109
 Alpha virt. eigenvalues --   -0.00799  -0.00137   0.00032   0.00491   0.00785

  Beta  occ. eigenvalues --  -38.44962 -38.44852 -38.44375 -38.44346 -38.44314
  Beta  occ. eigenvalues --  -38.44294 -38.44188  -2.20746  -2.20678  -2.20195
  Beta  occ. eigenvalues --   -2.20101  -2.20087  -2.20016  -2.20006  -1.14466
  Beta  occ. eigenvalues --   -1.14453  -1.14410  -1.14380  -1.14333  -1.14295
  Beta  occ. eigenvalues --   -1.13855  -1.13848  -1.13839  -1.13823  -1.13789
  Beta  occ. eigenvalues --   -1.13781  -1.13768  -1.13755  -1.13715  -1.13712
  Beta  occ. eigenvalues --   -1.13694  -1.13671  -1.13665  -1.13653  -1.13642
  Beta  occ. eigenvalues --   -0.15227  -0.13106  -0.12923
  Beta virt. eigenvalues --   -0.08061  -0.07447  -0.04280  -0.03618  -0.03541
  Beta virt. eigenvalues --   -0.03452  -0.02042  -0.01869  -0.01497  -0.01188
  Beta virt. eigenvalues --   -0.00851  -0.00433   0.00032   0.00224   0.00516

 Mulliken charges and spin densities:
               1          2
     1  Na   0.458439   0.270069
     2  Na   0.108867   0.022064
     3  Na   0.283781   0.164397
     4  Na  -0.007746   0.004773
     5  Na  -0.703579   0.047885
     6  Na   0.145588   0.397970
     7  Na  -0.285350   0.092841
 Sum of Mulliken charges =  -0.00000   1.00000

 Dipole moment (field-independent basis, Debye):
    X=              0.2628    Y=             -0.3329    Z=              0.1204  Tot=              0.4409
 Quadrupole moment (field-independent basis, Debye-Ang):
   XX=            -56.6657   YY=            -72.0460   ZZ=            -71.8309
   XY=             -2.6883   XZ=              0.8836   YZ=             -0.5705

 Normal termination of Gaussian 16 at Sun Dec  3 14:36:34 2023.
