 Gaussian 16, Revision B.01,
 Gaussian 16:  ES64L-G16RevB.01 20-Dec-2017

 -------------------------
 #P B3LYP/6-311+g(d) force
 -------------------------

 -----
 DPGEN
 -----
 Symbolic Z-matrix:
 Charge =  0 Multiplicity = 2

                         Standard orientation:
 ---------------------------------------------------------------------
 Center     Atomic      Atomic             Coordinates (Angstroms)
 Number     Number       Type             X           Y           Z
 ---------------------------------------------------------------------
      1         11           0        0.881017   -1.354669    1.832624
      2         11           0        0.918474    2.587092   -1.257559
      3         11           0        2.544907   -0.079799   -0.532570
      4         11           0        0.934278   -2.645686   -1.093703
      5         11           0        0.578270    1.722622    1.576239
      6         11           0       -1.543211   -0.178381   -0.454324
      7         11           0       -4.313734   -0.051180   -0.070708
 ---------------------------------------------------------------------

 SCF Done:  E(UB3LYP) =  -1136.11700626     A.U. after   20 cycles

 The electronic state is 2-A.
 Alpha  occ. eigenvalues --  -38.44212 -38.44142 -38.43970 -38.43790 -38.43763
 Alpha  occ. eigenvalues --  -38.43717 -38.42783  -2.20129  -2.20030  -2.19954
 Alpha  occ. eigenvalues --   -2.19771  -2.19665  -2.19621  -2.18738  -1.13856
 Alpha  occ. eigenvalues --   -1.13823  -1.13800  -1.13774  -1.13674  -1.13658
 Alpha  occ. eigenvalues --   -1.13654  -1.13591  -1.13567  -1.13501  -1.13422
 Alpha  occ. eigenvalues --   -1.13386  -1.13325  -1.13301  -1.13281  -1.13267
 Alpha  occ. eigenvalues --   -1.13240  -1.13205  -1.12415  -1.12407  -1.12358
 Alpha  occ. eigenvalues --   -0.19205  -0.12780  -0.12635  -0.11775
 Alpha virt. eigenvalues --   -0.06341  -0.04718  -0.04138  -0.03324  -0.03002
 Alpha virt. eigenvalues --   -0.02757  -0.01779  -0.00846  -0.00472  -0.00106
 Alpha virt. eigenvalues --    0.00140   0.00231   0.00500   0.00750   0.00954

  Beta  occ. eigenvalues --  -38.44221 -38.44111 -38.43898 -38.43739 -38.43737
  Beta  occ. eigenvalues --  -38.43688 -38.42772  -2.20078  -2.20046  -2.19826
  Beta  occ. eigenvalues --   -2.19682  -2.19618  -2.19565  -2.18720  -1.13814
  Beta  occ. eigenvalues --   -1.13810  -1.13754  -1.13740  -1.13668  -1.13665
  Beta  occ. eigenvalues --   -1.13572  -1.13503  -1.13481  -1.13444  -1.13345
  Beta  occ. eigenvalues --   -1.13328  -1.13284  -1.13266  -1.13244  -1.13219
  Beta  occ. eigenvalues --   -1.13201  -1.13155  -1.12412  -1.12369  -1.12348
  Beta  occ. eigenvalues --   -0.18376  -0.12633  -0.12545
  Beta virt. eigenvalues --   -0.07534  -0.06163  -0.04575  -0.03518  -0.03216
  Beta virt. eigenvalues --   -0.02341  -0.02055  -0.01513  -0.00820  -0.00123
  Beta virt. eigenvalues --   -0.00077   0.00223   0.00419   0.00521   0.00784

 Mulliken charges and spin densities:
               1          2
     1  Na   0.068300   0.142618
     2  Na   0.586660  -0.041704
     3  Na   0.206815   0.709880
     4  Na   1.033931  -0.115128
     5  Na   0.019418   0.094141
     6  Na  -1.548438   0.407780
     7  Na  -0.366686  -0.197587
 Sum of Mulliken charges =  -0.00000   1.00000

 Dipole moment (field-independent basis, Debye):
    X=              0.3932    Y=             -0.0508    Z=              0.0199  Tot=              0.3969
 Quadrupole moment (field-independent basis, Debye-Ang):
   XX=            -62.1192   YY=            -65.6439   ZZ=            -67.1256
   XY=             -0.7966   XZ=             -1.7743   YZ=             -0.0859

 Normal termination of Gaussian 16 at Fri Dec  8 19:17:44 2023.
