 Gaussian 16, Revision B.01,
 Gaussian 16:  ES64L-G16RevB.01 20-Dec-2017

 -------------------------
 #P B3LYP/6-311+g(d) force
 -------------------------

 -----
 DPGEN
 -----
 Symbolic Z-matrix:
 Charge =  0 Multiplicity = 2

                         Standard orientation:
 ---------------------------------------------------------------------
 Center     Atomic      Atomic             Coordinates (Angstroms)
 Number     Number       Type             X           Y           Z
 ---------------------------------------------------------------------
      1         11           0        2.973655   -0.613351   -1.146642
      2         11           0       -0.935828   -2.215036   -1.300212
      3         11           0        0.140554    1.368332   -0.075054
      4         11           0       -2.695743   -0.710909    1.014189
      5         11           0        3.176207    2.227113    0.598092
      6         11           0        0.898731   -2.161269    1.407867
      7         11           0       -3.557576    2.105120   -0.498240
 ---------------------------------------------------------------------

 SCF Done:  E(UB3LYP) =  -1136.12379671     A.U. after   23 cycles

 The electronic state is 2-A.
 Alpha  occ. eigenvalues --  -38.44145 -38.44103 -38.44069 -38.44057 -38.44046
 Alpha  occ. eigenvalues --  -38.43925 -38.43842  -2.19987  -2.19944  -2.19938
 Alpha  occ. eigenvalues --   -2.19901  -2.19890  -2.19720  -2.19681  -1.13705
 Alpha  occ. eigenvalues --   -1.13652  -1.13641  -1.13631  -1.13627  -1.13620
 Alpha  occ. eigenvalues --   -1.13617  -1.13598  -1.13588  -1.13588  -1.13563
 Alpha  occ. eigenvalues --   -1.13548  -1.13532  -1.13502  -1.13462  -1.13383
 Alpha  occ. eigenvalues --   -1.13375  -1.13345  -1.13344  -1.13329  -1.13316
 Alpha  occ. eigenvalues --   -0.17776  -0.13903  -0.12215  -0.09652
 Alpha virt. eigenvalues --   -0.06504  -0.06057  -0.04820  -0.03240  -0.02703
 Alpha virt. eigenvalues --   -0.02292  -0.01726  -0.01457  -0.01142  -0.00457
 Alpha virt. eigenvalues --   -0.00153   0.00208   0.00269   0.00392   0.00697

  Beta  occ. eigenvalues --  -38.44129 -38.44061 -38.44051 -38.44041 -38.44033
  Beta  occ. eigenvalues --  -38.43913 -38.43812  -2.19960  -2.19906  -2.19882
  Beta  occ. eigenvalues --   -2.19865  -2.19861  -2.19697  -2.19628  -1.13684
  Beta  occ. eigenvalues --   -1.13630  -1.13616  -1.13609  -1.13589  -1.13585
  Beta  occ. eigenvalues --   -1.13570  -1.13563  -1.13560  -1.13546  -1.13534
  Beta  occ. eigenvalues --   -1.13512  -1.13508  -1.13463  -1.13445  -1.13366
  Beta  occ. eigenvalues --   -1.13357  -1.13328  -1.13311  -1.13286  -1.13261
  Beta  occ. eigenvalues --   -0.17229  -0.13692  -0.11939
  Beta virt. eigenvalues --   -0.06364  -0.06085  -0.05946  -0.04446  -0.02870
  Beta virt. eigenvalues --   -0.02231  -0.02168  -0.01569  -0.00979  -0.00844
  Beta virt. eigenvalues --   -0.00262   0.00094   0.00285   0.00396   0.00478

 Mulliken charges and spin densities:
               1          2
     1  Na   0.340121   0.226302
     2  Na  -0.013674   0.262733
     3  Na  -2.386734   0.152177
     4  Na   0.331402   0.113655
     5  Na   1.330589  -0.086973
     6  Na   0.093774   0.223147
     7  Na   0.304522   0.108958
 Sum of Mulliken charges =  -0.00000   1.00000

 Dipole moment (field-independent basis, Debye):
    X=              0.1866    Y=             -0.0089    Z=              0.1893  Tot=              0.2659
 Quadrupole moment (field-independent basis, Debye-Ang):
   XX=            -53.7191   YY=            -67.2462   ZZ=            -73.4540
   XY=              1.1833   XZ=              2.9238   YZ=             -0.5994

 Normal termination of Gaussian 16 at Tue Dec  5 10:01:44 2023.
