 Gaussian 16, Revision B.01,
 Gaussian 16:  ES64L-G16RevB.01 20-Dec-2017

 -------------------------
 #P B3LYP/6-311+g(d) force
 -------------------------

 -----
 DPGEN
 -----
 Symbolic Z-matrix:
 Charge =  0 Multiplicity = 2

                         Standard orientation:
 ---------------------------------------------------------------------
 Center     Atomic      Atomic             Coordinates (Angstroms)
 Number     Number       Type             X           Y           Z
 ---------------------------------------------------------------------
      1         11           0       -2.016046   -2.231174   -0.192306
      2         11           0        3.052258    0.482531   -0.707396
      3         11           0       -0.179415   -0.000536    1.834094
      4         11           0       -2.699207    1.648310   -0.177088
      5         11           0        0.743846    2.692328    0.315391
      6         11           0       -0.461291   -0.256139   -1.514571
      7         11           0        1.559855   -2.335319    0.441877
 ---------------------------------------------------------------------

 SCF Done:  E(UB3LYP) =  -1136.13388975     A.U. after   19 cycles

 The electronic state is 2-A.
 Alpha  occ. eigenvalues --  -38.43977 -38.43889 -38.43609 -38.43498 -38.43410
 Alpha  occ. eigenvalues --  -38.43234 -38.43186  -2.19813  -2.19785  -2.19452
 Alpha  occ. eigenvalues --   -2.19380  -2.19280  -2.19233  -2.19217  -1.13606
 Alpha  occ. eigenvalues --   -1.13511  -1.13473  -1.13440  -1.13426  -1.13376
 Alpha  occ. eigenvalues --   -1.13129  -1.13123  -1.13110  -1.13090  -1.13038
 Alpha  occ. eigenvalues --   -1.13012  -1.12991  -1.12946  -1.12920  -1.12896
 Alpha  occ. eigenvalues --   -1.12861  -1.12851  -1.12828  -1.12825  -1.12814
 Alpha  occ. eigenvalues --   -0.19016  -0.13020  -0.12713  -0.10746
 Alpha virt. eigenvalues --   -0.05527  -0.05153  -0.04592  -0.03150  -0.02997
 Alpha virt. eigenvalues --   -0.02319  -0.01468  -0.01209  -0.00295  -0.00086
 Alpha virt. eigenvalues --    0.00073   0.00349   0.00854   0.00886   0.00927

  Beta  occ. eigenvalues --  -38.43973 -38.43881 -38.43592 -38.43486 -38.43402
  Beta  occ. eigenvalues --  -38.43145 -38.43129  -2.19810  -2.19774  -2.19421
  Beta  occ. eigenvalues --   -2.19362  -2.19270  -2.19129  -2.19054  -1.13586
  Beta  occ. eigenvalues --   -1.13501  -1.13465  -1.13432  -1.13404  -1.13366
  Beta  occ. eigenvalues --   -1.13112  -1.13102  -1.13076  -1.13060  -1.13009
  Beta  occ. eigenvalues --   -1.12983  -1.12979  -1.12919  -1.12890  -1.12847
  Beta  occ. eigenvalues --   -1.12789  -1.12759  -1.12749  -1.12718  -1.12698
  Beta  occ. eigenvalues --   -0.18318  -0.12720  -0.12445
  Beta virt. eigenvalues --   -0.06881  -0.05516  -0.05043  -0.04557  -0.02423
  Beta virt. eigenvalues --   -0.02201  -0.01409  -0.01292  -0.01149  -0.00259
  Beta virt. eigenvalues --   -0.00115   0.00161   0.00382   0.00851   0.00907

 Mulliken charges and spin densities:
               1          2
     1  Na   0.191431  -0.077895
     2  Na  -0.099619   0.045136
     3  Na  -0.058803   0.460125
     4  Na  -0.018787  -0.098226
     5  Na   0.088561   0.061448
     6  Na  -0.307136   0.498486
     7  Na   0.204353   0.110925
 Sum of Mulliken charges =  -0.00000   1.00000

 Dipole moment (field-independent basis, Debye):
    X=             -0.3431    Y=             -0.0025    Z=              0.0936  Tot=              0.3556
 Quadrupole moment (field-independent basis, Debye-Ang):
   XX=            -57.1462   YY=            -61.3416   ZZ=            -74.3742
   XY=             -0.5781   XZ=             -0.8717   YZ=             -0.7283

 Normal termination of Gaussian 16 at Tue Dec  5 11:59:33 2023.
