 Gaussian 16, Revision B.01,
 Gaussian 16:  ES64L-G16RevB.01 20-Dec-2017

 -------------------------
 #P B3LYP/6-311+g(d) force
 -------------------------

 -----
 DPGEN
 -----
 Symbolic Z-matrix:
 Charge =  0 Multiplicity = 2

                         Standard orientation:
 ---------------------------------------------------------------------
 Center     Atomic      Atomic             Coordinates (Angstroms)
 Number     Number       Type             X           Y           Z
 ---------------------------------------------------------------------
      1         11           0        0.772463   -0.014335    2.229416
      2         11           0        0.068043   -0.225322   -1.483681
      3         11           0       -1.551196    2.278939    0.298233
      4         11           0        2.168632    2.098804   -0.501797
      5         11           0       -3.561208   -0.131171   -0.367559
      6         11           0        3.297041   -1.389621   -0.353557
      7         11           0       -1.193775   -2.617295    0.178945
 ---------------------------------------------------------------------

 SCF Done:  E(UB3LYP) =  -1136.12950289     A.U. after   22 cycles

 The electronic state is 2-A.
 Alpha  occ. eigenvalues --  -38.44910 -38.44590 -38.43816 -38.43734 -38.43620
 Alpha  occ. eigenvalues --  -38.43360 -38.43051  -2.20683  -2.20412  -2.19652
 Alpha  occ. eigenvalues --   -2.19584  -2.19569  -2.19191  -2.18900  -1.14358
 Alpha  occ. eigenvalues --   -1.14331  -1.14323  -1.14089  -1.14076  -1.14044
 Alpha  occ. eigenvalues --   -1.13374  -1.13316  -1.13283  -1.13270  -1.13238
 Alpha  occ. eigenvalues --   -1.13225  -1.13208  -1.13194  -1.13176  -1.12882
 Alpha  occ. eigenvalues --   -1.12849  -1.12808  -1.12583  -1.12562  -1.12539
 Alpha  occ. eigenvalues --   -0.18207  -0.13515  -0.11663  -0.10737
 Alpha virt. eigenvalues --   -0.06591  -0.05397  -0.04064  -0.03301  -0.02698
 Alpha virt. eigenvalues --   -0.02590  -0.02225  -0.01273  -0.00618  -0.00152
 Alpha virt. eigenvalues --   -0.00088   0.00237   0.00606   0.00705   0.00795

  Beta  occ. eigenvalues --  -38.44902 -38.44587 -38.43804 -38.43625 -38.43581
  Beta  occ. eigenvalues --  -38.43357 -38.43047  -2.20670  -2.20408  -2.19632
  Beta  occ. eigenvalues --   -2.19499  -2.19381  -2.19187  -2.18895  -1.14339
  Beta  occ. eigenvalues --   -1.14319  -1.14315  -1.14087  -1.14066  -1.14042
  Beta  occ. eigenvalues --   -1.13351  -1.13290  -1.13250  -1.13224  -1.13183
  Beta  occ. eigenvalues --   -1.13125  -1.13102  -1.13072  -1.13048  -1.12877
  Beta  occ. eigenvalues --   -1.12835  -1.12802  -1.12581  -1.12547  -1.12529
  Beta  occ. eigenvalues --   -0.17533  -0.13283  -0.11480
  Beta virt. eigenvalues --   -0.06809  -0.06489  -0.05358  -0.03951  -0.02720
  Beta virt. eigenvalues --   -0.02196  -0.01850  -0.01564  -0.01233  -0.00586
  Beta virt. eigenvalues --   -0.00127   0.00062   0.00293   0.00750   0.00765

 Mulliken charges and spin densities:
               1          2
     1  Na  -0.433145   0.682973
     2  Na  -0.150499   0.107615
     3  Na   0.042455   0.064734
     4  Na   0.176963   0.096511
     5  Na   0.125211   0.003341
     6  Na   0.122099   0.017291
     7  Na   0.116916   0.027536
 Sum of Mulliken charges =  -0.00000   1.00000

 Dipole moment (field-independent basis, Debye):
    X=              0.3744    Y=             -0.2508    Z=             -0.0016  Tot=              0.4507
 Quadrupole moment (field-independent basis, Debye-Ang):
   XX=            -49.6994   YY=            -68.8070   ZZ=            -74.2892
   XY=             -0.5875   XZ=             -0.3710   YZ=             -0.4602

 Normal termination of Gaussian 16 at Thu Dec  7 02:20:44 2023.
