 Gaussian 16, Revision B.01,
 Gaussian 16:  ES64L-G16RevB.01 20-Dec-2017

 -------------------------
 #P B3LYP/6-311+g(d) force
 -------------------------

 -----
 DPGEN
 -----
 Symbolic Z-matrix:
 Charge =  0 Multiplicity = 2

                         Standard orientation:
 ---------------------------------------------------------------------
 Center     Atomic      Atomic             Coordinates (Angstroms)
 Number     Number       Type             X           Y           Z
 ---------------------------------------------------------------------
      1         11           0        2.886710   -1.437260    0.254051
      2         11           0       -1.659505    2.394154    0.141122
      3         11           0        1.825216    2.248742   -0.763068
      4         11           0       -0.353791   -2.632012   -0.452414
      5         11           0        0.722362    0.426854    1.987901
      6         11           0       -0.431431   -0.083221   -1.639107
      7         11           0       -2.989561   -0.917256    0.471515
 ---------------------------------------------------------------------

 SCF Done:  E(UB3LYP) =  -1136.13357725     A.U. after   19 cycles

 The electronic state is 2-A.
 Alpha  occ. eigenvalues --  -38.43822 -38.43822 -38.43806 -38.43709 -38.43545
 Alpha  occ. eigenvalues --  -38.43377 -38.43354  -2.19669  -2.19668  -2.19622
 Alpha  occ. eigenvalues --   -2.19593  -2.19407  -2.19400  -2.19275  -1.13372
 Alpha  occ. eigenvalues --   -1.13354  -1.13338  -1.13334  -1.13323  -1.13314
 Alpha  occ. eigenvalues --   -1.13302  -1.13289  -1.13272  -1.13269  -1.13249
 Alpha  occ. eigenvalues --   -1.13220  -1.13200  -1.13117  -1.13067  -1.13029
 Alpha  occ. eigenvalues --   -1.13018  -1.12992  -1.12904  -1.12862  -1.12845
 Alpha  occ. eigenvalues --   -0.18694  -0.12940  -0.12621  -0.10918
 Alpha virt. eigenvalues --   -0.05383  -0.05300  -0.04509  -0.03416  -0.03045
 Alpha virt. eigenvalues --   -0.02562  -0.01408  -0.01160  -0.00249  -0.00117
 Alpha virt. eigenvalues --    0.00030   0.00360   0.00795   0.00874   0.00904

  Beta  occ. eigenvalues --  -38.43814 -38.43802 -38.43800 -38.43635 -38.43539
  Beta  occ. eigenvalues --  -38.43342 -38.43311  -2.19656  -2.19629  -2.19618
  Beta  occ. eigenvalues --   -2.19457  -2.19393  -2.19296  -2.19248  -1.13348
  Beta  occ. eigenvalues --   -1.13328  -1.13322  -1.13303  -1.13293  -1.13291
  Beta  occ. eigenvalues --   -1.13275  -1.13267  -1.13257  -1.13240  -1.13165
  Beta  occ. eigenvalues --   -1.13130  -1.13112  -1.13094  -1.13043  -1.13009
  Beta  occ. eigenvalues --   -1.12959  -1.12917  -1.12874  -1.12845  -1.12797
  Beta  occ. eigenvalues --   -0.17996  -0.12702  -0.12353
  Beta virt. eigenvalues --   -0.07068  -0.05364  -0.05136  -0.04464  -0.02702
  Beta virt. eigenvalues --   -0.02313  -0.01578  -0.01285  -0.01068  -0.00240
  Beta virt. eigenvalues --   -0.00117   0.00137   0.00399   0.00845   0.00886

 Mulliken charges and spin densities:
               1          2
     1  Na   0.036361  -0.049479
     2  Na   0.108299   0.045805
     3  Na   0.168057  -0.019543
     4  Na   0.344799  -0.005059
     5  Na  -0.483050   0.653418
     6  Na  -0.042696   0.292105
     7  Na  -0.131771   0.082754
 Sum of Mulliken charges =  -0.00000   1.00000

 Dipole moment (field-independent basis, Debye):
    X=              0.1082    Y=              0.2349    Z=              0.2774  Tot=              0.3793
 Quadrupole moment (field-independent basis, Debye-Ang):
   XX=            -57.5361   YY=            -63.6639   ZZ=            -72.8238
   XY=             -0.0616   XZ=             -2.7890   YZ=             -1.0751

 Normal termination of Gaussian 16 at Wed Dec  6 00:12:52 2023.
