 Gaussian 16, Revision B.01,
 Gaussian 16:  ES64L-G16RevB.01 20-Dec-2017

 -------------------------
 #P B3LYP/6-311+g(d) force
 -------------------------

 -----
 DPGEN
 -----
 Symbolic Z-matrix:
 Charge =  0 Multiplicity = 2

                         Standard orientation:
 ---------------------------------------------------------------------
 Center     Atomic      Atomic             Coordinates (Angstroms)
 Number     Number       Type             X           Y           Z
 ---------------------------------------------------------------------
      1         11           0        2.108781    3.874357   -0.111529
      2         11           0       -5.296825    0.582116    0.271719
      3         11           0        0.615418   -2.189313   -2.110532
      4         11           0       -2.120193   -0.138182   -0.542192
      5         11           0        0.206526   -1.612830    2.177889
      6         11           0        3.255898   -1.512849    0.487197
      7         11           0        1.230395    0.996702   -0.172552
 ---------------------------------------------------------------------

 SCF Done:  E(UB3LYP) =  -1136.10735600     A.U. after   26 cycles

 The electronic state is 2-A.
 Alpha  occ. eigenvalues --  -38.45925 -38.45564 -38.45284 -38.44726 -38.43804
 Alpha  occ. eigenvalues --  -38.42675 -38.42465  -2.21727  -2.21370  -2.21033
 Alpha  occ. eigenvalues --   -2.20548  -2.19616  -2.18477  -2.18406  -1.15411
 Alpha  occ. eigenvalues --   -1.15388  -1.15352  -1.15036  -1.15009  -1.14974
 Alpha  occ. eigenvalues --   -1.14694  -1.14693  -1.14668  -1.14196  -1.14189
 Alpha  occ. eigenvalues --   -1.14150  -1.13306  -1.13288  -1.13250  -1.12243
 Alpha  occ. eigenvalues --   -1.12131  -1.12128  -1.12095  -1.12072  -1.11963
 Alpha  occ. eigenvalues --   -0.17811  -0.12984  -0.11538  -0.11385
 Alpha virt. eigenvalues --   -0.07985  -0.05478  -0.03999  -0.03215  -0.02928
 Alpha virt. eigenvalues --   -0.02829  -0.02369  -0.01304  -0.01179  -0.00659
 Alpha virt. eigenvalues --   -0.00600  -0.00260   0.00029   0.00374   0.00751

  Beta  occ. eigenvalues --  -38.45919 -38.45490 -38.45276 -38.44625 -38.43795
  Beta  occ. eigenvalues --  -38.42686 -38.42455  -2.21720  -2.21235  -2.21018
  Beta  occ. eigenvalues --   -2.20361  -2.19603  -2.18497  -2.18390  -1.15409
  Beta  occ. eigenvalues --   -1.15356  -1.15349  -1.14943  -1.14910  -1.14882
  Beta  occ. eigenvalues --   -1.14684  -1.14682  -1.14659  -1.14067  -1.14055
  Beta  occ. eigenvalues --   -1.14029  -1.13299  -1.13281  -1.13216  -1.12253
  Beta  occ. eigenvalues --   -1.12142  -1.12139  -1.12091  -1.12034  -1.11966
  Beta  occ. eigenvalues --   -0.17049  -0.12813  -0.11327
  Beta virt. eigenvalues --   -0.07838  -0.07439  -0.05100  -0.03804  -0.02778
  Beta virt. eigenvalues --   -0.02639  -0.02265  -0.01860  -0.01136  -0.00971
  Beta virt. eigenvalues --   -0.00504  -0.00437  -0.00049   0.00083   0.00439

 Mulliken charges and spin densities:
               1          2
     1  Na  -0.349494  -0.303845
     2  Na   0.194205   0.105780
     3  Na   0.620150   0.210003
     4  Na   0.095425   0.183033
     5  Na   0.238517   0.231671
     6  Na   1.202363   0.076821
     7  Na  -2.001165   0.496536
 Sum of Mulliken charges =  -0.00000   1.00000

 Dipole moment (field-independent basis, Debye):
    X=             -0.3170    Y=             -2.0101    Z=              0.6393  Tot=              2.1330
 Quadrupole moment (field-independent basis, Debye-Ang):
   XX=            -48.6868   YY=            -71.0851   ZZ=            -70.6466
   XY=             -7.8580   XZ=             -2.6977   YZ=              1.0466

 Normal termination of Gaussian 16 at Fri Dec  8 17:46:47 2023.
