 Gaussian 16, Revision B.01,
 Gaussian 16:  ES64L-G16RevB.01 20-Dec-2017

 -------------------------
 #P B3LYP/6-311+g(d) force
 -------------------------

 -----
 DPGEN
 -----
 Symbolic Z-matrix:
 Charge =  0 Multiplicity = 2

                         Standard orientation:
 ---------------------------------------------------------------------
 Center     Atomic      Atomic             Coordinates (Angstroms)
 Number     Number       Type             X           Y           Z
 ---------------------------------------------------------------------
      1         11           0        1.543524   -2.160375   -0.795151
      2         11           0       -1.053463   -1.057202    2.845007
      3         11           0        3.800149    0.028952   -0.209073
      4         11           0        1.766178    2.396352   -0.214820
      5         11           0       -0.371538   -0.093680    0.222262
      6         11           0       -2.717793    1.894886   -0.011419
      7         11           0       -2.967057   -1.008934   -1.836806
 ---------------------------------------------------------------------

 SCF Done:  E(UB3LYP) =  -1136.10688847     A.U. after   24 cycles

 The electronic state is 2-A.
 Alpha  occ. eigenvalues --  -38.45099 -38.45065 -38.44528 -38.44163 -38.43530
 Alpha  occ. eigenvalues --  -38.43232 -38.42975  -2.20911  -2.20908  -2.20374
 Alpha  occ. eigenvalues --   -2.19985  -2.19387  -2.19088  -2.19062  -1.14633
 Alpha  occ. eigenvalues --   -1.14564  -1.14541  -1.14529  -1.14511  -1.14484
 Alpha  occ. eigenvalues --   -1.14044  -1.14038  -1.14024  -1.13699  -1.13640
 Alpha  occ. eigenvalues --   -1.13615  -1.13153  -1.13025  -1.13006  -1.12841
 Alpha  occ. eigenvalues --   -1.12780  -1.12721  -1.12703  -1.12693  -1.12667
 Alpha  occ. eigenvalues --   -0.17841  -0.13904  -0.11757  -0.11014
 Alpha virt. eigenvalues --   -0.06276  -0.05891  -0.03699  -0.03444  -0.02825
 Alpha virt. eigenvalues --   -0.02518  -0.02080  -0.01131  -0.00704  -0.00555
 Alpha virt. eigenvalues --   -0.00016   0.00236   0.00425   0.00793   0.00852

  Beta  occ. eigenvalues --  -38.45022 -38.44954 -38.44530 -38.44165 -38.43524
  Beta  occ. eigenvalues --  -38.43231 -38.42954  -2.20767  -2.20705  -2.20378
  Beta  occ. eigenvalues --   -2.19994  -2.19375  -2.19060  -2.19059  -1.14491
  Beta  occ. eigenvalues --   -1.14464  -1.14449  -1.14429  -1.14373  -1.14344
  Beta  occ. eigenvalues --   -1.14047  -1.14038  -1.14029  -1.13709  -1.13636
  Beta  occ. eigenvalues --   -1.13607  -1.13147  -1.13014  -1.12995  -1.12788
  Beta  occ. eigenvalues --   -1.12740  -1.12717  -1.12701  -1.12692  -1.12649
  Beta  occ. eigenvalues --   -0.17241  -0.13578  -0.10902
  Beta virt. eigenvalues --   -0.07801  -0.05948  -0.05532  -0.03435  -0.03074
  Beta virt. eigenvalues --   -0.02448  -0.01934  -0.01857  -0.00924  -0.00431
  Beta virt. eigenvalues --   -0.00308   0.00017   0.00288   0.00645   0.00824

 Mulliken charges and spin densities:
               1          2
     1  Na   0.877598   0.068251
     2  Na   0.257070   0.372073
     3  Na   0.386719   0.012773
     4  Na   0.387856  -0.108281
     5  Na  -3.312591   0.305201
     6  Na   1.002918  -0.048879
     7  Na   0.400429   0.398862
 Sum of Mulliken charges =  -0.00000   1.00000

 Dipole moment (field-independent basis, Debye):
    X=             -0.5677    Y=             -0.5009    Z=              0.1796  Tot=              0.7781
 Quadrupole moment (field-independent basis, Debye-Ang):
   XX=            -53.0288   YY=            -72.9401   ZZ=            -66.0814
   XY=             -1.6187   XZ=              0.7197   YZ=              2.2221

 Normal termination of Gaussian 16 at Tue Dec  5 11:22:07 2023.
