 Gaussian 16, Revision B.01,
 Gaussian 16:  ES64L-G16RevB.01 20-Dec-2017

 -------------------------
 #P B3LYP/6-311+g(d) force
 -------------------------

 -----
 DPGEN
 -----
 Symbolic Z-matrix:
 Charge =  0 Multiplicity = 2

                         Standard orientation:
 ---------------------------------------------------------------------
 Center     Atomic      Atomic             Coordinates (Angstroms)
 Number     Number       Type             X           Y           Z
 ---------------------------------------------------------------------
      1         11           0        1.912224    0.585361    1.238083
      2         11           0       -3.733361   -1.671683   -0.593908
      3         11           0        4.226209   -1.491161   -0.492562
      4         11           0        0.456272   -0.780767   -1.254412
      5         11           0        0.504361    2.785619   -0.665079
      6         11           0       -2.297957    1.215788   -0.237644
      7         11           0       -1.067749   -0.643156    2.005522
 ---------------------------------------------------------------------

 SCF Done:  E(UB3LYP) =  -1136.12081177     A.U. after   24 cycles

 The electronic state is 2-A.
 Alpha  occ. eigenvalues --  -38.45061 -38.44209 -38.44177 -38.44009 -38.43812
 Alpha  occ. eigenvalues --  -38.43749 -38.42784  -2.20916  -2.20118  -2.19981
 Alpha  occ. eigenvalues --   -2.19773  -2.19759  -2.19685  -2.18665  -1.14650
 Alpha  occ. eigenvalues --   -1.14573  -1.14512  -1.13804  -1.13785  -1.13708
 Alpha  occ. eigenvalues --   -1.13672  -1.13637  -1.13608  -1.13451  -1.13448
 Alpha  occ. eigenvalues --   -1.13439  -1.13437  -1.13400  -1.13395  -1.13361
 Alpha  occ. eigenvalues --   -1.13350  -1.13267  -1.12341  -1.12314  -1.12301
 Alpha  occ. eigenvalues --   -0.18590  -0.13665  -0.11543  -0.11115
 Alpha virt. eigenvalues --   -0.06702  -0.05617  -0.04102  -0.03271  -0.02640
 Alpha virt. eigenvalues --   -0.02405  -0.02239  -0.01607  -0.00663  -0.00329
 Alpha virt. eigenvalues --    0.00036   0.00219   0.00396   0.00501   0.00707

  Beta  occ. eigenvalues --  -38.45038 -38.44166 -38.44110 -38.44002 -38.43797
  Beta  occ. eigenvalues --  -38.43718 -38.42772  -2.20875  -2.19960  -2.19938
  Beta  occ. eigenvalues --   -2.19758  -2.19735  -2.19635  -2.18644  -1.14610
  Beta  occ. eigenvalues --   -1.14539  -1.14482  -1.13693  -1.13663  -1.13655
  Beta  occ. eigenvalues --   -1.13618  -1.13601  -1.13561  -1.13439  -1.13428
  Beta  occ. eigenvalues --   -1.13423  -1.13399  -1.13388  -1.13365  -1.13335
  Beta  occ. eigenvalues --   -1.13306  -1.13221  -1.12324  -1.12297  -1.12284
  Beta  occ. eigenvalues --   -0.17848  -0.13480  -0.11285
  Beta virt. eigenvalues --   -0.07227  -0.06490  -0.05471  -0.03663  -0.02866
  Beta virt. eigenvalues --   -0.02426  -0.02015  -0.01608  -0.01344  -0.00410
  Beta virt. eigenvalues --   -0.00230   0.00092   0.00312   0.00564   0.00633

 Mulliken charges and spin densities:
               1          2
     1  Na   0.602474   0.198575
     2  Na   0.373400   0.050742
     3  Na  -0.033502  -0.005532
     4  Na  -0.688636   0.289255
     5  Na  -0.198820  -0.117588
     6  Na   0.307333   0.452923
     7  Na  -0.362249   0.131624
 Sum of Mulliken charges =  -0.00000   1.00000

 Dipole moment (field-independent basis, Debye):
    X=             -0.3650    Y=             -0.2199    Z=             -0.1398  Tot=              0.4484
 Quadrupole moment (field-independent basis, Debye-Ang):
   XX=            -55.8903   YY=            -69.0893   ZZ=            -70.5302
   XY=              2.9298   XZ=              0.8587   YZ=              2.1761

 Normal termination of Gaussian 16 at Thu Dec  7 03:12:05 2023.
