 Gaussian 16, Revision B.01,
 Gaussian 16:  ES64L-G16RevB.01 20-Dec-2017

 -------------------------
 #P B3LYP/6-311+g(d) force
 -------------------------

 -----
 DPGEN
 -----
 Symbolic Z-matrix:
 Charge =  0 Multiplicity = 2

                         Standard orientation:
 ---------------------------------------------------------------------
 Center     Atomic      Atomic             Coordinates (Angstroms)
 Number     Number       Type             X           Y           Z
 ---------------------------------------------------------------------
      1         11           0       -1.531054   -2.348360   -0.271150
      2         11           0       -3.121144    0.615694   -0.137111
      3         11           0       -0.274005    2.778557    0.740651
      4         11           0        0.097957   -0.880585    1.661147
      5         11           0        1.953418   -2.155420   -0.183059
      6         11           0        2.912768    1.172513   -0.174184
      7         11           0       -0.037940    0.817601   -1.636294
 ---------------------------------------------------------------------

 SCF Done:  E(UB3LYP) =  -1136.13228095     A.U. after   18 cycles

 The electronic state is 2-A.
 Alpha  occ. eigenvalues --  -38.44001 -38.43957 -38.43713 -38.43619 -38.43590
 Alpha  occ. eigenvalues --  -38.43280 -38.43126  -2.19834  -2.19795  -2.19616
 Alpha  occ. eigenvalues --   -2.19505  -2.19481  -2.19285  -2.19091  -1.13511
 Alpha  occ. eigenvalues --   -1.13494  -1.13481  -1.13480  -1.13454  -1.13439
 Alpha  occ. eigenvalues --   -1.13420  -1.13311  -1.13258  -1.13223  -1.13202
 Alpha  occ. eigenvalues --   -1.13149  -1.13136  -1.13108  -1.13094  -1.12921
 Alpha  occ. eigenvalues --   -1.12883  -1.12867  -1.12769  -1.12729  -1.12703
 Alpha  occ. eigenvalues --   -0.18896  -0.13086  -0.12921  -0.10396
 Alpha virt. eigenvalues --   -0.05641  -0.05261  -0.04775  -0.03230  -0.02997
 Alpha virt. eigenvalues --   -0.02045  -0.01547  -0.01074  -0.00362  -0.00267
 Alpha virt. eigenvalues --    0.00025   0.00365   0.00830   0.00879   0.00895

  Beta  occ. eigenvalues --  -38.43996 -38.43951 -38.43707 -38.43594 -38.43582
  Beta  occ. eigenvalues --  -38.43214 -38.43070  -2.19829  -2.19787  -2.19608
  Beta  occ. eigenvalues --   -2.19492  -2.19439  -2.19165  -2.18988  -1.13502
  Beta  occ. eigenvalues --   -1.13489  -1.13469  -1.13467  -1.13444  -1.13425
  Beta  occ. eigenvalues --   -1.13400  -1.13287  -1.13238  -1.13214  -1.13172
  Beta  occ. eigenvalues --   -1.13124  -1.13099  -1.13088  -1.13068  -1.12845
  Beta  occ. eigenvalues --   -1.12806  -1.12782  -1.12697  -1.12654  -1.12625
  Beta  occ. eigenvalues --   -0.18206  -0.12824  -0.12697
  Beta virt. eigenvalues --   -0.06581  -0.05596  -0.05246  -0.04630  -0.02474
  Beta virt. eigenvalues --   -0.02272  -0.01463  -0.01105  -0.01030  -0.00339
  Beta virt. eigenvalues --   -0.00290   0.00168   0.00407   0.00861   0.00893

 Mulliken charges and spin densities:
               1          2
     1  Na   0.141020  -0.058779
     2  Na   0.128768  -0.010001
     3  Na  -0.079477   0.070716
     4  Na  -0.229090   0.565221
     5  Na   0.189622  -0.067830
     6  Na   0.160973  -0.018001
     7  Na  -0.311817   0.518674
 Sum of Mulliken charges =  -0.00000   1.00000

 Dipole moment (field-independent basis, Debye):
    X=              0.0087    Y=              0.1592    Z=             -0.0492  Tot=              0.1669
 Quadrupole moment (field-independent basis, Debye-Ang):
   XX=            -55.6711   YY=            -62.6355   ZZ=            -75.0111
   XY=             -0.1027   XZ=             -0.2597   YZ=              3.0235

 Normal termination of Gaussian 16 at Thu Dec  7 07:18:36 2023.
