 Gaussian 16, Revision B.01,
 Gaussian 16:  ES64L-G16RevB.01 20-Dec-2017

 -------------------------
 #P B3LYP/6-311+g(d) force
 -------------------------

 -----
 DPGEN
 -----
 Symbolic Z-matrix:
 Charge =  0 Multiplicity = 2

                         Standard orientation:
 ---------------------------------------------------------------------
 Center     Atomic      Atomic             Coordinates (Angstroms)
 Number     Number       Type             X           Y           Z
 ---------------------------------------------------------------------
      1         11           0        0.005410   -0.088109   -1.506003
      2         11           0       -3.313451   -0.777340   -0.855240
      3         11           0       -1.091268   -1.986440    1.575270
      4         11           0        1.111665    1.004186    1.932576
      5         11           0        2.075492   -2.000813   -0.562014
      6         11           0        3.597350    1.249114   -0.582175
      7         11           0       -2.385198    2.599401   -0.002414
 ---------------------------------------------------------------------

 SCF Done:  E(UB3LYP) =  -1136.12193360     A.U. after   23 cycles

 The electronic state is 2-A.
 Alpha  occ. eigenvalues --  -38.44660 -38.44643 -38.44153 -38.44055 -38.43972
 Alpha  occ. eigenvalues --  -38.43751 -38.43311  -2.20471  -2.20427  -2.20068
 Alpha  occ. eigenvalues --   -2.19883  -2.19836  -2.19504  -2.19139  -1.14160
 Alpha  occ. eigenvalues --   -1.14129  -1.14102  -1.14087  -1.14086  -1.14064
 Alpha  occ. eigenvalues --   -1.13837  -1.13746  -1.13680  -1.13551  -1.13512
 Alpha  occ. eigenvalues --   -1.13507  -1.13506  -1.13470  -1.13426  -1.13185
 Alpha  occ. eigenvalues --   -1.13166  -1.13149  -1.12808  -1.12793  -1.12765
 Alpha  occ. eigenvalues --   -0.17890  -0.13593  -0.11212  -0.11133
 Alpha virt. eigenvalues --   -0.06589  -0.05470  -0.04402  -0.03189  -0.02992
 Alpha virt. eigenvalues --   -0.02700  -0.02209  -0.01165  -0.00732  -0.00414
 Alpha virt. eigenvalues --    0.00147   0.00198   0.00269   0.00594   0.00683

  Beta  occ. eigenvalues --  -38.44648 -38.44639 -38.44113 -38.43974 -38.43949
  Beta  occ. eigenvalues --  -38.43761 -38.43269  -2.20448  -2.20421  -2.19997
  Beta  occ. eigenvalues --   -2.19799  -2.19732  -2.19523  -2.19064  -1.14134
  Beta  occ. eigenvalues --   -1.14116  -1.14098  -1.14074  -1.14073  -1.14057
  Beta  occ. eigenvalues --   -1.13790  -1.13681  -1.13633  -1.13468  -1.13451
  Beta  occ. eigenvalues --   -1.13440  -1.13410  -1.13394  -1.13390  -1.13197
  Beta  occ. eigenvalues --   -1.13177  -1.13158  -1.12753  -1.12738  -1.12709
  Beta  occ. eigenvalues --   -0.17176  -0.13360  -0.10974
  Beta virt. eigenvalues --   -0.07303  -0.06508  -0.05340  -0.03900  -0.02967
  Beta virt. eigenvalues --   -0.02364  -0.02068  -0.01803  -0.01063  -0.00536
  Beta virt. eigenvalues --   -0.00273   0.00151   0.00235   0.00378   0.00698

 Mulliken charges and spin densities:
               1          2
     1  Na  -0.495605   0.043962
     2  Na   0.647568   0.082867
     3  Na  -0.240904   0.190610
     4  Na  -0.276477   0.474407
     5  Na   0.434849   0.176683
     6  Na   0.126228   0.049143
     7  Na  -0.195660  -0.017671
 Sum of Mulliken charges =  -0.00000   1.00000

 Dipole moment (field-independent basis, Debye):
    X=              0.3406    Y=             -0.1986    Z=             -0.2376  Tot=              0.4603
 Quadrupole moment (field-independent basis, Debye-Ang):
   XX=            -52.4370   YY=            -70.9747   ZZ=            -70.9341
   XY=              2.7295   XZ=             -1.2729   YZ=              0.0122

 Normal termination of Gaussian 16 at Thu Dec  7 03:50:10 2023.
