 Gaussian 16, Revision B.01,
 Gaussian 16:  ES64L-G16RevB.01 20-Dec-2017

 -------------------------
 #P B3LYP/6-311+g(d) force
 -------------------------

 -----
 DPGEN
 -----
 Symbolic Z-matrix:
 Charge =  0 Multiplicity = 2

                         Standard orientation:
 ---------------------------------------------------------------------
 Center     Atomic      Atomic             Coordinates (Angstroms)
 Number     Number       Type             X           Y           Z
 ---------------------------------------------------------------------
      1         11           0        3.402065   -0.540500    0.218617
      2         11           0       -2.540409   -1.884968   -0.254718
      3         11           0        1.784070    1.939880   -0.710522
      4         11           0       -2.334051    1.502009   -1.271872
      5         11           0        0.650780   -1.311554   -1.946740
      6         11           0       -1.093966    1.705598    1.914688
      7         11           0        0.131511   -1.410465    2.050547
 ---------------------------------------------------------------------

 SCF Done:  E(UB3LYP) =  -1136.12717080     A.U. after   22 cycles

 The electronic state is 2-A.
 Alpha  occ. eigenvalues --  -38.44469 -38.44372 -38.44236 -38.44049 -38.43718
 Alpha  occ. eigenvalues --  -38.43666 -38.43531  -2.20281  -2.20216  -2.20067
 Alpha  occ. eigenvalues --   -2.19856  -2.19549  -2.19498  -2.19337  -1.13967
 Alpha  occ. eigenvalues --   -1.13939  -1.13895  -1.13894  -1.13846  -1.13831
 Alpha  occ. eigenvalues --   -1.13764  -1.13722  -1.13702  -1.13528  -1.13515
 Alpha  occ. eigenvalues --   -1.13487  -1.13231  -1.13187  -1.13182  -1.13174
 Alpha  occ. eigenvalues --   -1.13166  -1.13110  -1.13009  -1.12995  -1.12985
 Alpha  occ. eigenvalues --   -0.17904  -0.13201  -0.12141  -0.11292
 Alpha virt. eigenvalues --   -0.05865  -0.05154  -0.04509  -0.03658  -0.03482
 Alpha virt. eigenvalues --   -0.03153  -0.01534  -0.00787  -0.00489  -0.00091
 Alpha virt. eigenvalues --    0.00057   0.00338   0.00441   0.00609   0.00813

  Beta  occ. eigenvalues --  -38.44430 -38.44287 -38.44238 -38.44024 -38.43677
  Beta  occ. eigenvalues --  -38.43658 -38.43530  -2.20210  -2.20073  -2.20059
  Beta  occ. eigenvalues --   -2.19809  -2.19484  -2.19472  -2.19337  -1.13917
  Beta  occ. eigenvalues --   -1.13886  -1.13843  -1.13782  -1.13769  -1.13742
  Beta  occ. eigenvalues --   -1.13718  -1.13711  -1.13704  -1.13495  -1.13482
  Beta  occ. eigenvalues --   -1.13451  -1.13172  -1.13161  -1.13160  -1.13140
  Beta  occ. eigenvalues --   -1.13112  -1.13098  -1.13000  -1.12989  -1.12987
  Beta  occ. eigenvalues --   -0.17105  -0.13010  -0.11181
  Beta virt. eigenvalues --   -0.08156  -0.05551  -0.05093  -0.03920  -0.03137
  Beta virt. eigenvalues --   -0.03022  -0.02434  -0.01429  -0.00719  -0.00218
  Beta virt. eigenvalues --    0.00035   0.00084   0.00438   0.00549   0.00684

 Mulliken charges and spin densities:
               1          2
     1  Na   0.448650  -0.124650
     2  Na   0.168588  -0.035109
     3  Na  -0.152627   0.179667
     4  Na   0.022117   0.223356
     5  Na  -0.360271   0.215772
     6  Na   0.027441  -0.099700
     7  Na  -0.153898   0.640664
 Sum of Mulliken charges =  -0.00000   1.00000

 Dipole moment (field-independent basis, Debye):
    X=              0.4125    Y=             -0.2720    Z=             -0.2059  Tot=              0.5352
 Quadrupole moment (field-independent basis, Debye-Ang):
   XX=            -59.2015   YY=            -74.7284   ZZ=            -63.9946
   XY=             -0.8895   XZ=              2.3438   YZ=             -1.5944

 Normal termination of Gaussian 16 at Sun Dec  3 23:55:40 2023.
