 Gaussian 16, Revision B.01,
 Gaussian 16:  ES64L-G16RevB.01 20-Dec-2017

 -------------------------
 #P B3LYP/6-311+g(d) force
 -------------------------

 -----
 DPGEN
 -----
 Symbolic Z-matrix:
 Charge =  0 Multiplicity = 2

                         Standard orientation:
 ---------------------------------------------------------------------
 Center     Atomic      Atomic             Coordinates (Angstroms)
 Number     Number       Type             X           Y           Z
 ---------------------------------------------------------------------
      1         11           0        3.222844   -0.135908   -0.256090
      2         11           0        2.763502   -3.342297   -0.115553
      3         11           0       -4.188075   -1.196734   -0.122336
      4         11           0        3.557696    3.452762    0.266740
      5         11           0       -5.888029    1.521774    0.013199
      6         11           0       -0.110986   -2.031033    0.499431
      7         11           0        0.643048    1.731438   -0.285391
 ---------------------------------------------------------------------

 SCF Done:  E(UB3LYP) =  -1136.11717699     A.U. after   21 cycles

 The electronic state is 2-A.
 Alpha  occ. eigenvalues --  -38.44969 -38.44864 -38.44378 -38.43878 -38.43773
 Alpha  occ. eigenvalues --  -38.43736 -38.43651  -2.20801  -2.20650  -2.20262
 Alpha  occ. eigenvalues --   -2.19707  -2.19569  -2.19510  -2.19500  -1.14517
 Alpha  occ. eigenvalues --   -1.14474  -1.14391  -1.14318  -1.14316  -1.14259
 Alpha  occ. eigenvalues --   -1.13971  -1.13950  -1.13850  -1.13389  -1.13373
 Alpha  occ. eigenvalues --   -1.13347  -1.13259  -1.13216  -1.13215  -1.13179
 Alpha  occ. eigenvalues --   -1.13167  -1.13160  -1.13153  -1.13127  -1.13110
 Alpha  occ. eigenvalues --   -0.16874  -0.13383  -0.12883  -0.10513
 Alpha virt. eigenvalues --   -0.06678  -0.05497  -0.04544  -0.03774  -0.02924
 Alpha virt. eigenvalues --   -0.02415  -0.02006  -0.01741  -0.01242  -0.00926
 Alpha virt. eigenvalues --   -0.00249  -0.00069   0.00315   0.00419   0.00517

  Beta  occ. eigenvalues --  -38.44933 -38.44858 -38.44347 -38.43837 -38.43749
  Beta  occ. eigenvalues --  -38.43719 -38.43618  -2.20734  -2.20639  -2.20207
  Beta  occ. eigenvalues --   -2.19631  -2.19530  -2.19468  -2.19449  -1.14475
  Beta  occ. eigenvalues --   -1.14430  -1.14339  -1.14310  -1.14302  -1.14246
  Beta  occ. eigenvalues --   -1.13924  -1.13905  -1.13806  -1.13339  -1.13314
  Beta  occ. eigenvalues --   -1.13295  -1.13231  -1.13207  -1.13172  -1.13144
  Beta  occ. eigenvalues --   -1.13142  -1.13114  -1.13110  -1.13089  -1.13077
  Beta  occ. eigenvalues --   -0.16291  -0.13136  -0.12429
  Beta virt. eigenvalues --   -0.07139  -0.06329  -0.05177  -0.04207  -0.03394
  Beta virt. eigenvalues --   -0.02548  -0.02259  -0.01868  -0.01658  -0.00961
  Beta virt. eigenvalues --   -0.00558   0.00024   0.00218   0.00396   0.00526

 Mulliken charges and spin densities:
               1          2
     1  Na  -0.796230   0.406466
     2  Na   1.286804   0.182558
     3  Na  -0.375342  -0.074955
     4  Na   1.113942   0.066664
     5  Na   0.158390   0.257510
     6  Na  -0.763394   0.091949
     7  Na  -0.624171   0.069807
 Sum of Mulliken charges =  -0.00000   1.00000

 Dipole moment (field-independent basis, Debye):
    X=              1.9533    Y=              1.3769    Z=              0.1263  Tot=              2.3932
 Quadrupole moment (field-independent basis, Debye-Ang):
   XX=            -71.6007   YY=            -53.0601   ZZ=            -73.6233
   XY=              3.3864   XZ=              0.7718   YZ=              0.9677

 Normal termination of Gaussian 16 at Tue Nov 28 20:36:12 2023.
