 Gaussian 16, Revision B.01,
 Gaussian 16:  ES64L-G16RevB.01 20-Dec-2017

 -------------------------
 #P B3LYP/6-311+g(d) force
 -------------------------

 -----
 DPGEN
 -----
 Symbolic Z-matrix:
 Charge =  0 Multiplicity = 2

                         Standard orientation:
 ---------------------------------------------------------------------
 Center     Atomic      Atomic             Coordinates (Angstroms)
 Number     Number       Type             X           Y           Z
 ---------------------------------------------------------------------
      1         11           0        0.131349   -0.198448    1.923964
      2         11           0       -2.202757    2.002427    0.201768
      3         11           0        3.018237   -0.539851    0.323645
      4         11           0       -0.077096    0.036229   -1.860781
      5         11           0        0.233827   -2.697207   -0.416063
      6         11           0       -2.655717   -1.076949    0.133910
      7         11           0        1.552158    2.473799   -0.306443
 ---------------------------------------------------------------------

 SCF Done:  E(UB3LYP) =  -1136.13846375     A.U. after   19 cycles

 The electronic state is 2-A.
 Alpha  occ. eigenvalues --  -38.43917 -38.43668 -38.43557 -38.43493 -38.43480
 Alpha  occ. eigenvalues --  -38.43391 -38.42973  -2.19770  -2.19607  -2.19475
 Alpha  occ. eigenvalues --   -2.19457  -2.19356  -2.19237  -2.18887  -1.13467
 Alpha  occ. eigenvalues --   -1.13424  -1.13407  -1.13288  -1.13240  -1.13232
 Alpha  occ. eigenvalues --   -1.13199  -1.13160  -1.13130  -1.13119  -1.13115
 Alpha  occ. eigenvalues --   -1.13066  -1.13014  -1.12997  -1.12974  -1.12914
 Alpha  occ. eigenvalues --   -1.12893  -1.12865  -1.12579  -1.12539  -1.12503
 Alpha  occ. eigenvalues --   -0.19072  -0.13216  -0.12388  -0.11188
 Alpha virt. eigenvalues --   -0.05443  -0.05008  -0.04424  -0.03411  -0.02995
 Alpha virt. eigenvalues --   -0.02799  -0.01398  -0.00943  -0.00184  -0.00043
 Alpha virt. eigenvalues --    0.00037   0.00379   0.00846   0.00938   0.00952

  Beta  occ. eigenvalues --  -38.43910 -38.43588 -38.43551 -38.43490 -38.43396
  Beta  occ. eigenvalues --  -38.43385 -38.42960  -2.19759  -2.19467  -2.19459
  Beta  occ. eigenvalues --   -2.19352  -2.19303  -2.19229  -2.18868  -1.13446
  Beta  occ. eigenvalues --   -1.13406  -1.13403  -1.13219  -1.13183  -1.13147
  Beta  occ. eigenvalues --   -1.13125  -1.13117  -1.13085  -1.13037  -1.13021
  Beta  occ. eigenvalues --   -1.12997  -1.12993  -1.12971  -1.12956  -1.12889
  Beta  occ. eigenvalues --   -1.12875  -1.12861  -1.12559  -1.12509  -1.12485
  Beta  occ. eigenvalues --   -0.18317  -0.12952  -0.12115
  Beta virt. eigenvalues --   -0.07246  -0.05383  -0.05013  -0.04399  -0.02592
  Beta virt. eigenvalues --   -0.02205  -0.01734  -0.01296  -0.00876  -0.00198
  Beta virt. eigenvalues --   -0.00066   0.00111   0.00396   0.00900   0.00933

 Mulliken charges and spin densities:
               1          2
     1  Na  -0.383985   0.630169
     2  Na  -0.024021  -0.081247
     3  Na   0.127891  -0.028774
     4  Na  -0.304922   0.598006
     5  Na   0.316995  -0.011401
     6  Na   0.253057  -0.013280
     7  Na   0.014985  -0.093473
 Sum of Mulliken charges =  -0.00000   1.00000

 Dipole moment (field-independent basis, Debye):
    X=              0.1753    Y=              0.0725    Z=              0.1388  Tot=              0.2351
 Quadrupole moment (field-independent basis, Debye-Ang):
   XX=            -58.0784   YY=            -64.5222   ZZ=            -72.1102
   XY=             -0.3496   XZ=             -0.2699   YZ=              0.3347

 Normal termination of Gaussian 16 at Thu Dec  7 09:18:19 2023.
