 Gaussian 16, Revision B.01,
 Gaussian 16:  ES64L-G16RevB.01 20-Dec-2017

 -------------------------
 #P B3LYP/6-311+g(d) force
 -------------------------

 -----
 DPGEN
 -----
 Symbolic Z-matrix:
 Charge =  0 Multiplicity = 2

                         Standard orientation:
 ---------------------------------------------------------------------
 Center     Atomic      Atomic             Coordinates (Angstroms)
 Number     Number       Type             X           Y           Z
 ---------------------------------------------------------------------
      1         11           0        1.495753   -2.302469   -0.391465
      2         11           0       -2.905663    1.667071   -0.033734
      3         11           0       -3.119418   -1.447172   -0.100110
      4         11           0       -0.579245   -0.037077    0.013294
      5         11           0        1.868883    0.402554   -2.035484
      6         11           0        1.700230    2.216472    0.405794
      7         11           0        1.539460   -0.499380    2.141704
 ---------------------------------------------------------------------

 SCF Done:  E(UB3LYP) =  -1136.10964793     A.U. after   28 cycles

 The electronic state is 2-A.
 Alpha  occ. eigenvalues --  -38.44660 -38.44528 -38.44148 -38.44130 -38.42867
 Alpha  occ. eigenvalues --  -38.42819 -38.42817  -2.20534  -2.20405  -2.20110
 Alpha  occ. eigenvalues --   -2.20081  -2.19066  -2.18794  -2.18758  -1.14303
 Alpha  occ. eigenvalues --   -1.14188  -1.14171  -1.14129  -1.14039  -1.13978
 Alpha  occ. eigenvalues --   -1.13818  -1.13757  -1.13732  -1.13722  -1.13711
 Alpha  occ. eigenvalues --   -1.13697  -1.12773  -1.12766  -1.12703  -1.12465
 Alpha  occ. eigenvalues --   -1.12459  -1.12428  -1.12415  -1.12413  -1.12376
 Alpha  occ. eigenvalues --   -0.19075  -0.14133  -0.11644  -0.11422
 Alpha virt. eigenvalues --   -0.05629  -0.05446  -0.03441  -0.03324  -0.03150
 Alpha virt. eigenvalues --   -0.02774  -0.01644  -0.00976  -0.00434   0.00124
 Alpha virt. eigenvalues --    0.00262   0.00356   0.00742   0.00827   0.00952

  Beta  occ. eigenvalues --  -38.44663 -38.44531 -38.44056 -38.44043 -38.42852
  Beta  occ. eigenvalues --  -38.42803 -38.42799  -2.20540  -2.20412  -2.19940
  Beta  occ. eigenvalues --   -2.19920  -2.19040  -2.18771  -2.18733  -1.14307
  Beta  occ. eigenvalues --   -1.14195  -1.14171  -1.14134  -1.14040  -1.13985
  Beta  occ. eigenvalues --   -1.13705  -1.13653  -1.13619  -1.13608  -1.13584
  Beta  occ. eigenvalues --   -1.13580  -1.12766  -1.12704  -1.12674  -1.12456
  Beta  occ. eigenvalues --   -1.12417  -1.12409  -1.12393  -1.12371  -1.12347
  Beta  occ. eigenvalues --   -0.18326  -0.13933  -0.11231
  Beta virt. eigenvalues --   -0.07444  -0.05541  -0.05254  -0.03354  -0.02904
  Beta virt. eigenvalues --   -0.02313  -0.01848  -0.01519  -0.00972  -0.00067
  Beta virt. eigenvalues --    0.00151   0.00275   0.00408   0.00810   0.00941

 Mulliken charges and spin densities:
               1          2
     1  Na   1.821270   0.474201
     2  Na  -0.143509  -0.378799
     3  Na  -0.465592  -0.480872
     4  Na  -2.887685   0.978057
     5  Na  -0.136275  -0.040842
     6  Na   2.317731   0.538940
     7  Na  -0.505941  -0.090685
 Sum of Mulliken charges =  -0.00000   1.00000

 Dipole moment (field-independent basis, Debye):
    X=             -1.0129    Y=             -0.0397    Z=              0.0120  Tot=              1.0138
 Quadrupole moment (field-independent basis, Debye-Ang):
   XX=            -55.9746   YY=            -68.4074   ZZ=            -67.9658
   XY=              0.0967   XZ=              0.2665   YZ=              1.1696

 Normal termination of Gaussian 16 at Sat Dec  9 05:28:55 2023.
