 Gaussian 16, Revision B.01,
 Gaussian 16:  ES64L-G16RevB.01 20-Dec-2017

 -------------------------
 #P B3LYP/6-311+g(d) force
 -------------------------

 -----
 DPGEN
 -----
 Symbolic Z-matrix:
 Charge =  0 Multiplicity = 2

                         Standard orientation:
 ---------------------------------------------------------------------
 Center     Atomic      Atomic             Coordinates (Angstroms)
 Number     Number       Type             X           Y           Z
 ---------------------------------------------------------------------
      1         11           0       -3.927066   -0.706722   -0.896132
      2         11           0        0.738465    2.746157   -1.001382
      3         11           0       -2.335171    1.659760    0.736354
      4         11           0        4.246900   -0.946552   -0.364398
      5         11           0       -1.164376   -2.544057    0.831473
      6         11           0        1.013837   -1.034764   -1.123851
      7         11           0        1.427410    0.826178    1.817936
 ---------------------------------------------------------------------

 SCF Done:  E(UB3LYP) =  -1136.11778415     A.U. after   23 cycles

 The electronic state is 2-A.
 Alpha  occ. eigenvalues --  -38.44783 -38.44244 -38.44226 -38.44174 -38.44065
 Alpha  occ. eigenvalues --  -38.43888 -38.43514  -2.20605  -2.20088  -2.20030
 Alpha  occ. eigenvalues --   -2.19975  -2.19865  -2.19695  -2.19325  -1.14281
 Alpha  occ. eigenvalues --   -1.14262  -1.14220  -1.13782  -1.13760  -1.13744
 Alpha  occ. eigenvalues --   -1.13720  -1.13679  -1.13660  -1.13630  -1.13615
 Alpha  occ. eigenvalues --   -1.13584  -1.13567  -1.13537  -1.13499  -1.13353
 Alpha  occ. eigenvalues --   -1.13342  -1.13311  -1.13011  -1.12976  -1.12936
 Alpha  occ. eigenvalues --   -0.17362  -0.13516  -0.11880  -0.10236
 Alpha virt. eigenvalues --   -0.07197  -0.05289  -0.04671  -0.03209  -0.02804
 Alpha virt. eigenvalues --   -0.02735  -0.01933  -0.01435  -0.00828  -0.00556
 Alpha virt. eigenvalues --   -0.00239  -0.00137   0.00241   0.00615   0.00688

  Beta  occ. eigenvalues --  -38.44742 -38.44249 -38.44221 -38.44117 -38.44056
  Beta  occ. eigenvalues --  -38.43843 -38.43475  -2.20530  -2.20084  -2.20039
  Beta  occ. eigenvalues --   -2.19869  -2.19852  -2.19612  -2.19255  -1.14229
  Beta  occ. eigenvalues --   -1.14198  -1.14171  -1.13767  -1.13758  -1.13726
  Beta  occ. eigenvalues --   -1.13718  -1.13684  -1.13664  -1.13555  -1.13549
  Beta  occ. eigenvalues --   -1.13542  -1.13527  -1.13521  -1.13473  -1.13297
  Beta  occ. eigenvalues --   -1.13285  -1.13254  -1.12965  -1.12922  -1.12886
  Beta  occ. eigenvalues --   -0.16877  -0.12927  -0.11649
  Beta virt. eigenvalues --   -0.06902  -0.06849  -0.05166  -0.04286  -0.02978
  Beta virt. eigenvalues --   -0.02459  -0.02388  -0.01551  -0.01147  -0.00676
  Beta virt. eigenvalues --   -0.00206  -0.00072   0.00053   0.00357   0.00692

 Mulliken charges and spin densities:
               1          2
     1  Na   0.155850   0.287440
     2  Na  -0.095163  -0.084833
     3  Na  -0.108883   0.113867
     4  Na   0.036684   0.267020
     5  Na  -0.162072   0.077502
     6  Na   0.028276   0.072254
     7  Na   0.145308   0.266750
 Sum of Mulliken charges =  -0.00000   1.00000

 Dipole moment (field-independent basis, Debye):
    X=              0.6045    Y=              0.4238    Z=              0.5160  Tot=              0.9008
 Quadrupole moment (field-independent basis, Debye-Ang):
   XX=            -65.0548   YY=            -72.2399   ZZ=            -63.7760
   XY=              3.7693   XZ=              3.2987   YZ=             -0.8297

 Normal termination of Gaussian 16 at Sun Dec  3 18:39:53 2023.
