 Gaussian 16, Revision B.01,
 Gaussian 16:  ES64L-G16RevB.01 20-Dec-2017

 -------------------------
 #P B3LYP/6-311+g(d) force
 -------------------------

 -----
 DPGEN
 -----
 Symbolic Z-matrix:
 Charge =  0 Multiplicity = 2

                         Standard orientation:
 ---------------------------------------------------------------------
 Center     Atomic      Atomic             Coordinates (Angstroms)
 Number     Number       Type             X           Y           Z
 ---------------------------------------------------------------------
      1         11           0       -0.921558    0.151261    2.462705
      2         11           0        3.775557    0.892848    0.098715
      3         11           0       -0.163330   -0.645698   -1.702088
      4         11           0       -2.056218   -1.748853   -0.299188
      5         11           0        0.427904    2.545616   -0.537075
      6         11           0        2.160652   -2.205641    0.215298
      7         11           0       -3.223007    1.010467   -0.238367
 ---------------------------------------------------------------------

 SCF Done:  E(UB3LYP) =  -1136.11127648     A.U. after   23 cycles

 The electronic state is 2-A.
 Alpha  occ. eigenvalues --  -38.45045 -38.44922 -38.44724 -38.44225 -38.44028
 Alpha  occ. eigenvalues --  -38.43686 -38.43217  -2.20793  -2.20768  -2.20546
 Alpha  occ. eigenvalues --   -2.20231  -2.20011  -2.19483  -2.19011  -1.14500
 Alpha  occ. eigenvalues --   -1.14474  -1.14451  -1.14432  -1.14418  -1.14398
 Alpha  occ. eigenvalues --   -1.14347  -1.14189  -1.14176  -1.14159  -1.13850
 Alpha  occ. eigenvalues --   -1.13793  -1.13603  -1.13588  -1.13497  -1.13162
 Alpha  occ. eigenvalues --   -1.13151  -1.13111  -1.12716  -1.12679  -1.12617
 Alpha  occ. eigenvalues --   -0.18323  -0.13532  -0.11448  -0.11302
 Alpha virt. eigenvalues --   -0.06901  -0.05420  -0.03669  -0.03579  -0.03344
 Alpha virt. eigenvalues --   -0.02567  -0.02211  -0.01304  -0.00336  -0.00242
 Alpha virt. eigenvalues --   -0.00097   0.00221   0.00323   0.00657   0.00809

  Beta  occ. eigenvalues --  -38.45053 -38.44921 -38.44614 -38.44169 -38.44010
  Beta  occ. eigenvalues --  -38.43685 -38.43198  -2.20809  -2.20771  -2.20342
  Beta  occ. eigenvalues --   -2.20136  -2.19978  -2.19480  -2.18980  -1.14505
  Beta  occ. eigenvalues --   -1.14482  -1.14462  -1.14442  -1.14400  -1.14386
  Beta  occ. eigenvalues --   -1.14292  -1.14052  -1.14032  -1.14017  -1.13779
  Beta  occ. eigenvalues --   -1.13722  -1.13580  -1.13549  -1.13444  -1.13156
  Beta  occ. eigenvalues --   -1.13145  -1.13112  -1.12689  -1.12649  -1.12599
  Beta  occ. eigenvalues --   -0.17552  -0.13407  -0.11221
  Beta virt. eigenvalues --   -0.07320  -0.06694  -0.05380  -0.03560  -0.02977
  Beta virt. eigenvalues --   -0.02377  -0.02118  -0.01802  -0.01235  -0.00352
  Beta virt. eigenvalues --   -0.00085   0.00001   0.00289   0.00557   0.00738

 Mulliken charges and spin densities:
               1          2
     1  Na  -0.459299   0.607012
     2  Na  -0.034050  -0.077410
     3  Na   0.621551   0.163082
     4  Na   0.363483   0.194188
     5  Na  -0.362543   0.026860
     6  Na  -0.200296   0.032881
     7  Na   0.071153   0.053387
 Sum of Mulliken charges =  -0.00000   1.00000

 Dipole moment (field-independent basis, Debye):
    X=              0.0877    Y=              0.2488    Z=              0.5056  Tot=              0.5702
 Quadrupole moment (field-independent basis, Debye-Ang):
   XX=            -50.1059   YY=            -73.8936   ZZ=            -71.6144
   XY=             -1.2466   XZ=              2.0328   YZ=             -1.7686

 Normal termination of Gaussian 16 at Fri Dec  8 03:25:18 2023.
