 Gaussian 16, Revision B.01,
 Gaussian 16:  ES64L-G16RevB.01 20-Dec-2017

 -------------------------
 #P B3LYP/6-311+g(d) force
 -------------------------

 -----
 DPGEN
 -----
 Symbolic Z-matrix:
 Charge =  0 Multiplicity = 2

                         Standard orientation:
 ---------------------------------------------------------------------
 Center     Atomic      Atomic             Coordinates (Angstroms)
 Number     Number       Type             X           Y           Z
 ---------------------------------------------------------------------
      1         11           0       -1.551664   -2.321377   -0.050785
      2         11           0       -3.084919    0.727804   -0.184249
      3         11           0        2.870117    1.018252    0.052353
      4         11           0       -0.002698    2.812879   -0.194345
      5         11           0       -0.165160    0.057629   -1.443257
      6         11           0        1.999167   -2.137102   -0.444919
      7         11           0       -0.064843   -0.158086    2.265202
 ---------------------------------------------------------------------

 SCF Done:  E(UB3LYP) =  -1136.13610519     A.U. after   19 cycles

 The electronic state is 2-A.
 Alpha  occ. eigenvalues --  -38.44028 -38.43914 -38.43784 -38.43373 -38.43359
 Alpha  occ. eigenvalues --  -38.43222 -38.42985  -2.19871  -2.19778  -2.19639
 Alpha  occ. eigenvalues --   -2.19259  -2.19242  -2.19102  -2.19066  -1.13562
 Alpha  occ. eigenvalues --   -1.13525  -1.13507  -1.13433  -1.13402  -1.13395
 Alpha  occ. eigenvalues --   -1.13315  -1.13299  -1.13293  -1.13020  -1.12947
 Alpha  occ. eigenvalues --   -1.12920  -1.12899  -1.12890  -1.12889  -1.12851
 Alpha  occ. eigenvalues --   -1.12754  -1.12717  -1.12713  -1.12667  -1.12649
 Alpha  occ. eigenvalues --   -0.18930  -0.13123  -0.12453  -0.10987
 Alpha virt. eigenvalues --   -0.05596  -0.05034  -0.04490  -0.03191  -0.02878
 Alpha virt. eigenvalues --   -0.02777  -0.01541  -0.00993  -0.00214  -0.00177
 Alpha virt. eigenvalues --   -0.00017   0.00348   0.00817   0.00910   0.00929

  Beta  occ. eigenvalues --  -38.44024 -38.43803 -38.43782 -38.43364 -38.43352
  Beta  occ. eigenvalues --  -38.43218 -38.42932  -2.19867  -2.19638  -2.19573
  Beta  occ. eigenvalues --   -2.19250  -2.19228  -2.19095  -2.18974  -1.13553
  Beta  occ. eigenvalues --   -1.13510  -1.13507  -1.13317  -1.13299  -1.13296
  Beta  occ. eigenvalues --   -1.13279  -1.13256  -1.13248  -1.13003  -1.12929
  Beta  occ. eigenvalues --   -1.12889  -1.12886  -1.12871  -1.12867  -1.12846
  Beta  occ. eigenvalues --   -1.12729  -1.12712  -1.12656  -1.12604  -1.12594
  Beta  occ. eigenvalues --   -0.18204  -0.12905  -0.12205
  Beta virt. eigenvalues --   -0.06971  -0.05568  -0.05027  -0.04462  -0.02401
  Beta virt. eigenvalues --   -0.02064  -0.01658  -0.01465  -0.00930  -0.00255
  Beta virt. eigenvalues --   -0.00219   0.00137   0.00379   0.00883   0.00908

 Mulliken charges and spin densities:
               1          2
     1  Na   0.411331   0.077071
     2  Na   0.271060   0.008344
     3  Na   0.182468   0.048931
     4  Na   0.279211   0.022768
     5  Na  -0.696091   0.058518
     6  Na   0.280073   0.046626
     7  Na  -0.728053   0.737742
 Sum of Mulliken charges =  -0.00000   1.00000

 Dipole moment (field-independent basis, Debye):
    X=             -0.1534    Y=              0.0519    Z=              0.3433  Tot=              0.3796
 Quadrupole moment (field-independent basis, Debye-Ang):
   XX=            -56.0027   YY=            -64.1265   ZZ=            -73.5222
   XY=             -0.3089   XZ=             -0.0405   YZ=              0.6063

 Normal termination of Gaussian 16 at Fri Dec  8 01:51:08 2023.
