 Gaussian 16, Revision B.01,
 Gaussian 16:  ES64L-G16RevB.01 20-Dec-2017

 -------------------------
 #P B3LYP/6-311+g(d) force
 -------------------------

 -----
 DPGEN
 -----
 Symbolic Z-matrix:
 Charge =  0 Multiplicity = 2

                         Standard orientation:
 ---------------------------------------------------------------------
 Center     Atomic      Atomic             Coordinates (Angstroms)
 Number     Number       Type             X           Y           Z
 ---------------------------------------------------------------------
      1         11           0       -2.928023   -0.697604   -0.528078
      2         11           0        0.346553   -0.254637   -1.411932
      3         11           0        0.218597   -2.939902   -0.159939
      4         11           0       -0.572327   -0.344241    1.861691
      5         11           0        3.191487   -0.520457    0.343387
      6         11           0       -1.905726    2.164122    0.247236
      7         11           0        1.649440    2.592718   -0.352366
 ---------------------------------------------------------------------

 SCF Done:  E(UB3LYP) =  -1136.13351407     A.U. after   20 cycles

 The electronic state is 2-A.
 Alpha  occ. eigenvalues --  -38.44487 -38.44035 -38.43501 -38.43500 -38.43450
 Alpha  occ. eigenvalues --  -38.43208 -38.42843  -2.20295  -2.19922  -2.19383
 Alpha  occ. eigenvalues --   -2.19340  -2.19329  -2.19158  -2.18893  -1.13973
 Alpha  occ. eigenvalues --   -1.13958  -1.13925  -1.13617  -1.13581  -1.13557
 Alpha  occ. eigenvalues --   -1.13149  -1.13047  -1.13039  -1.13023  -1.13002
 Alpha  occ. eigenvalues --   -1.12988  -1.12984  -1.12977  -1.12947  -1.12837
 Alpha  occ. eigenvalues --   -1.12780  -1.12763  -1.12572  -1.12528  -1.12503
 Alpha  occ. eigenvalues --   -0.18865  -0.13274  -0.12516  -0.10412
 Alpha virt. eigenvalues --   -0.05898  -0.05044  -0.04797  -0.03206  -0.02689
 Alpha virt. eigenvalues --   -0.02138  -0.01693  -0.01109  -0.00388  -0.00369
 Alpha virt. eigenvalues --    0.00034   0.00349   0.00800   0.00859   0.00899

  Beta  occ. eigenvalues --  -38.44484 -38.44019 -38.43497 -38.43492 -38.43442
  Beta  occ. eigenvalues --  -38.43124 -38.42788  -2.20290  -2.19896  -2.19373
  Beta  occ. eigenvalues --   -2.19329  -2.19323  -2.19003  -2.18794  -1.13964
  Beta  occ. eigenvalues --   -1.13950  -1.13921  -1.13603  -1.13547  -1.13528
  Beta  occ. eigenvalues --   -1.13135  -1.13026  -1.13019  -1.13011  -1.12989
  Beta  occ. eigenvalues --   -1.12973  -1.12972  -1.12964  -1.12940  -1.12736
  Beta  occ. eigenvalues --   -1.12672  -1.12651  -1.12498  -1.12460  -1.12424
  Beta  occ. eigenvalues --   -0.18160  -0.13051  -0.12256
  Beta virt. eigenvalues --   -0.06530  -0.05835  -0.05013  -0.04752  -0.02460
  Beta virt. eigenvalues --   -0.01973  -0.01596  -0.01145  -0.01026  -0.00411
  Beta virt. eigenvalues --   -0.00383   0.00175   0.00390   0.00822   0.00879

 Mulliken charges and spin densities:
               1          2
     1  Na   0.244603   0.031798
     2  Na  -0.246279   0.333418
     3  Na   0.170261  -0.031841
     4  Na  -0.331017   0.637809
     5  Na   0.013538   0.021190
     6  Na   0.139177   0.056536
     7  Na   0.009715  -0.048909
 Sum of Mulliken charges =  -0.00000   1.00000

 Dipole moment (field-independent basis, Debye):
    X=              0.2734    Y=             -0.2005    Z=              0.1757  Tot=              0.3819
 Quadrupole moment (field-independent basis, Debye-Ang):
   XX=            -54.7134   YY=            -61.5090   ZZ=            -75.8736
   XY=             -0.3529   XZ=              2.3785   YZ=              0.0561

 Normal termination of Gaussian 16 at Tue Dec  5 21:29:06 2023.
