 Gaussian 16, Revision B.01,
 Gaussian 16:  ES64L-G16RevB.01 20-Dec-2017

 -------------------------
 #P B3LYP/6-311+g(d) force
 -------------------------

 -----
 DPGEN
 -----
 Symbolic Z-matrix:
 Charge =  0 Multiplicity = 2

                         Standard orientation:
 ---------------------------------------------------------------------
 Center     Atomic      Atomic             Coordinates (Angstroms)
 Number     Number       Type             X           Y           Z
 ---------------------------------------------------------------------
      1         11           0       -2.092289    2.050890   -0.284823
      2         11           0        0.150230   -2.180643    0.614613
      3         11           0        3.446103   -0.663535   -0.085426
      4         11           0        1.057171    2.130622   -0.911614
      5         11           0       -3.093682   -1.202778    0.433689
      6         11           0       -0.187438   -1.133735   -1.921443
      7         11           0        0.719905    0.999180    2.155005
 ---------------------------------------------------------------------

 SCF Done:  E(UB3LYP) =  -1136.12820069     A.U. after   19 cycles

 The electronic state is 2-A.
 Alpha  occ. eigenvalues --  -38.44673 -38.44193 -38.44157 -38.44096 -38.43357
 Alpha  occ. eigenvalues --  -38.43299 -38.43145  -2.20441  -2.20110  -2.20007
 Alpha  occ. eigenvalues --   -2.19908  -2.19236  -2.19192  -2.19034  -1.14118
 Alpha  occ. eigenvalues --   -1.14097  -1.14081  -1.13939  -1.13734  -1.13676
 Alpha  occ. eigenvalues --   -1.13675  -1.13657  -1.13609  -1.13581  -1.13566
 Alpha  occ. eigenvalues --   -1.13547  -1.12948  -1.12898  -1.12885  -1.12852
 Alpha  occ. eigenvalues --   -1.12836  -1.12799  -1.12706  -1.12698  -1.12643
 Alpha  occ. eigenvalues --   -0.18378  -0.12890  -0.12155  -0.11243
 Alpha virt. eigenvalues --   -0.06188  -0.04862  -0.04026  -0.03656  -0.03196
 Alpha virt. eigenvalues --   -0.02837  -0.01960  -0.00846  -0.00238   0.00007
 Alpha virt. eigenvalues --    0.00102   0.00337   0.00493   0.00764   0.00909

  Beta  occ. eigenvalues --  -38.44676 -38.44131 -38.44090 -38.44081 -38.43354
  Beta  occ. eigenvalues --  -38.43282 -38.43123  -2.20448  -2.19995  -2.19899
  Beta  occ. eigenvalues --   -2.19866  -2.19210  -2.19189  -2.18995  -1.14116
  Beta  occ. eigenvalues --   -1.14095  -1.14087  -1.13865  -1.13650  -1.13596
  Beta  occ. eigenvalues --   -1.13583  -1.13567  -1.13560  -1.13554  -1.13538
  Beta  occ. eigenvalues --   -1.13509  -1.12917  -1.12888  -1.12844  -1.12843
  Beta  occ. eigenvalues --   -1.12831  -1.12785  -1.12685  -1.12643  -1.12621
  Beta  occ. eigenvalues --   -0.17609  -0.12734  -0.11966
  Beta virt. eigenvalues --   -0.07323  -0.06075  -0.04834  -0.03728  -0.03078
  Beta virt. eigenvalues --   -0.02530  -0.01938  -0.01756  -0.00808  -0.00034
  Beta virt. eigenvalues --    0.00002   0.00098   0.00361   0.00685   0.00845

 Mulliken charges and spin densities:
               1          2
     1  Na   0.032497  -0.032962
     2  Na   0.429906   0.191519
     3  Na   0.332938  -0.065995
     4  Na   0.086568   0.164901
     5  Na   0.154284  -0.053781
     6  Na  -0.519014   0.369221
     7  Na  -0.517179   0.427098
 Sum of Mulliken charges =  -0.00000   1.00000

 Dipole moment (field-independent basis, Debye):
    X=              0.3370    Y=             -0.1324    Z=              0.1288  Tot=              0.3843
 Quadrupole moment (field-independent basis, Debye-Ang):
   XX=            -53.5252   YY=            -72.5915   ZZ=            -68.5928
   XY=             -0.2043   XZ=             -1.3547   YZ=             -0.9581

 Normal termination of Gaussian 16 at Tue Dec  5 15:41:21 2023.
