 Gaussian 16, Revision B.01,
 Gaussian 16:  ES64L-G16RevB.01 20-Dec-2017

 -------------------------
 #P B3LYP/6-311+g(d) force
 -------------------------

 -----
 DPGEN
 -----
 Symbolic Z-matrix:
 Charge =  0 Multiplicity = 2

                         Standard orientation:
 ---------------------------------------------------------------------
 Center     Atomic      Atomic             Coordinates (Angstroms)
 Number     Number       Type             X           Y           Z
 ---------------------------------------------------------------------
      1         11           0        0.150000   -2.958196   -0.705101
      2         11           0       -3.133470   -3.055729    0.073332
      3         11           0        1.613176    2.941426    0.264630
      4         11           0       -2.005438    3.384797    0.069228
      5         11           0       -4.211665    0.838693    0.078049
      6         11           0        4.050511    1.002428   -0.781554
      7         11           0        3.536886   -2.153419    1.001416
 ---------------------------------------------------------------------

 SCF Done:  E(UB3LYP) =  -1136.10794513     A.U. after   23 cycles

 The electronic state is 2-A.
 Alpha  occ. eigenvalues --  -38.45206 -38.45152 -38.45054 -38.44305 -38.44205
 Alpha  occ. eigenvalues --  -38.44195 -38.43931  -2.20968  -2.20898  -2.20831
 Alpha  occ. eigenvalues --   -2.20092  -2.20003  -2.19970  -2.19718  -1.14640
 Alpha  occ. eigenvalues --   -1.14626  -1.14594  -1.14587  -1.14580  -1.14522
 Alpha  occ. eigenvalues --   -1.14510  -1.14508  -1.14468  -1.13744  -1.13728
 Alpha  occ. eigenvalues --   -1.13716  -1.13666  -1.13659  -1.13647  -1.13645
 Alpha  occ. eigenvalues --   -1.13633  -1.13600  -1.13376  -1.13363  -1.13357
 Alpha  occ. eigenvalues --   -0.15441  -0.13825  -0.13321  -0.10749
 Alpha virt. eigenvalues --   -0.07612  -0.05249  -0.04337  -0.03360  -0.03213
 Alpha virt. eigenvalues --   -0.02728  -0.02348  -0.02110  -0.01319  -0.00652
 Alpha virt. eigenvalues --   -0.00333  -0.00221   0.00119   0.00234   0.00488

  Beta  occ. eigenvalues --  -38.45169 -38.45143 -38.45047 -38.44226 -38.44192
  Beta  occ. eigenvalues --  -38.44159 -38.43889  -2.20902  -2.20886  -2.20825
  Beta  occ. eigenvalues --   -2.19968  -2.19945  -2.19919  -2.19641  -1.14598
  Beta  occ. eigenvalues --   -1.14584  -1.14583  -1.14577  -1.14533  -1.14509
  Beta  occ. eigenvalues --   -1.14500  -1.14479  -1.14435  -1.13647  -1.13644
  Beta  occ. eigenvalues --   -1.13643  -1.13626  -1.13621  -1.13609  -1.13603
  Beta  occ. eigenvalues --   -1.13598  -1.13560  -1.13324  -1.13310  -1.13304
  Beta  occ. eigenvalues --   -0.14916  -0.13068  -0.12642
  Beta virt. eigenvalues --   -0.07818  -0.07572  -0.04777  -0.04052  -0.02985
  Beta virt. eigenvalues --   -0.02916  -0.02480  -0.02112  -0.01899  -0.01194
  Beta virt. eigenvalues --   -0.00329  -0.00074  -0.00016   0.00156   0.00316

 Mulliken charges and spin densities:
               1          2
     1  Na  -0.558185   0.067345
     2  Na   0.310256   0.181497
     3  Na  -0.364408   0.157137
     4  Na   0.408275   0.020491
     5  Na  -0.181366   0.183140
     6  Na   0.226276  -0.012586
     7  Na   0.159152   0.402976
 Sum of Mulliken charges =  -0.00000   1.00000

 Dipole moment (field-independent basis, Debye):
    X=              0.0674    Y=             -0.0418    Z=             -0.0954  Tot=              0.1241
 Quadrupole moment (field-independent basis, Debye-Ang):
   XX=            -57.0921   YY=            -72.1720   ZZ=            -70.9311
   XY=              1.8202   XZ=             -2.4436   YZ=             -0.4383

 Normal termination of Gaussian 16 at Sun Dec  3 15:11:10 2023.
