 Gaussian 16, Revision B.01,
 Gaussian 16:  ES64L-G16RevB.01 20-Dec-2017

 -------------------------
 #P B3LYP/6-311+g(d) force
 -------------------------

 -----
 DPGEN
 -----
 Symbolic Z-matrix:
 Charge =  0 Multiplicity = 2

                         Standard orientation:
 ---------------------------------------------------------------------
 Center     Atomic      Atomic             Coordinates (Angstroms)
 Number     Number       Type             X           Y           Z
 ---------------------------------------------------------------------
      1         11           0        2.250898    1.675089   -0.407668
      2         11           0        0.480752   -0.598076   -1.907425
      3         11           0        3.194648   -1.484634    0.426083
      4         11           0       -3.252434    0.473186    0.108325
      5         11           0       -0.929725    2.625267   -0.038172
      6         11           0       -2.006602   -2.620455   -0.137890
      7         11           0        0.262463   -0.070377    1.956747
 ---------------------------------------------------------------------

 SCF Done:  E(UB3LYP) =  -1136.13079880     A.U. after   21 cycles

 The electronic state is 2-A.
 Alpha  occ. eigenvalues --  -38.44549 -38.44501 -38.44151 -38.43867 -38.43763
 Alpha  occ. eigenvalues --  -38.43531 -38.42659  -2.20357  -2.20330  -2.20012
 Alpha  occ. eigenvalues --   -2.19738  -2.19667  -2.19329  -2.18534  -1.14022
 Alpha  occ. eigenvalues --   -1.14017  -1.14012  -1.14001  -1.13992  -1.13971
 Alpha  occ. eigenvalues --   -1.13690  -1.13651  -1.13625  -1.13449  -1.13387
 Alpha  occ. eigenvalues --   -1.13364  -1.13327  -1.13314  -1.13284  -1.12995
 Alpha  occ. eigenvalues --   -1.12988  -1.12983  -1.12213  -1.12197  -1.12182
 Alpha  occ. eigenvalues --   -0.18322  -0.13554  -0.11858  -0.10900
 Alpha virt. eigenvalues --   -0.06362  -0.05455  -0.04213  -0.03472  -0.02764
 Alpha virt. eigenvalues --   -0.02681  -0.01974  -0.01146  -0.00616  -0.00129
 Alpha virt. eigenvalues --   -0.00088   0.00304   0.00617   0.00696   0.00784

  Beta  occ. eigenvalues --  -38.44538 -38.44502 -38.44072 -38.43790 -38.43746
  Beta  occ. eigenvalues --  -38.43532 -38.42657  -2.20339  -2.20333  -2.19867
  Beta  occ. eigenvalues --   -2.19640  -2.19596  -2.19333  -2.18534  -1.14018
  Beta  occ. eigenvalues --   -1.14013  -1.13993  -1.13984  -1.13978  -1.13974
  Beta  occ. eigenvalues --   -1.13594  -1.13551  -1.13516  -1.13381  -1.13300
  Beta  occ. eigenvalues --   -1.13292  -1.13274  -1.13260  -1.13230  -1.12993
  Beta  occ. eigenvalues --   -1.12986  -1.12982  -1.12216  -1.12199  -1.12159
  Beta  occ. eigenvalues --   -0.17589  -0.13371  -0.11641
  Beta virt. eigenvalues --   -0.07008  -0.06255  -0.05374  -0.04112  -0.02816
  Beta virt. eigenvalues --   -0.02060  -0.01826  -0.01712  -0.01042  -0.00647
  Beta virt. eigenvalues --   -0.00142   0.00073   0.00341   0.00748   0.00794

 Mulliken charges and spin densities:
               1          2
     1  Na   0.360194   0.238983
     2  Na  -0.135560   0.355517
     3  Na   0.065421   0.005175
     4  Na  -0.040700  -0.013217
     5  Na  -0.158783  -0.040419
     6  Na   0.019518  -0.059855
     7  Na  -0.110090   0.513816
 Sum of Mulliken charges =  -0.00000   1.00000

 Dipole moment (field-independent basis, Debye):
    X=              0.4090    Y=             -0.4117    Z=              0.1206  Tot=              0.5927
 Quadrupole moment (field-independent basis, Debye-Ang):
   XX=            -53.8586   YY=            -67.7883   ZZ=            -73.4989
   XY=             -1.6449   XZ=             -0.0147   YZ=             -1.2526

 Normal termination of Gaussian 16 at Tue Dec  5 17:36:34 2023.
