 Gaussian 16, Revision B.01,
 Gaussian 16:  ES64L-G16RevB.01 20-Dec-2017

 -------------------------
 #P B3LYP/6-311+g(d) force
 -------------------------

 -----
 DPGEN
 -----
 Symbolic Z-matrix:
 Charge =  0 Multiplicity = 2

                         Standard orientation:
 ---------------------------------------------------------------------
 Center     Atomic      Atomic             Coordinates (Angstroms)
 Number     Number       Type             X           Y           Z
 ---------------------------------------------------------------------
      1         11           0       -0.678975   -1.460324    1.151951
      2         11           0       -0.367818   -0.350812   -1.657758
      3         11           0       -3.095278   -0.366718   -0.325104
      4         11           0       -1.011129    1.928030    0.556360
      5         11           0        1.371966    0.433789    1.717123
      6         11           0        1.721454    1.544012   -1.017375
      7         11           0        2.059781   -1.727977   -0.425197
 ---------------------------------------------------------------------

 SCF Done:  E(UB3LYP) =  -1136.11130869     A.U. after   20 cycles

 The electronic state is 2-A.
 Alpha  occ. eigenvalues --  -38.44082 -38.43971 -38.43875 -38.43412 -38.43255
 Alpha  occ. eigenvalues --  -38.43103 -38.42664  -2.20195  -2.20043  -2.19911
 Alpha  occ. eigenvalues --   -2.19450  -2.19361  -2.19094  -2.18691  -1.13977
 Alpha  occ. eigenvalues --   -1.13870  -1.13828  -1.13797  -1.13765  -1.13676
 Alpha  occ. eigenvalues --   -1.13592  -1.13534  -1.13527  -1.13129  -1.13094
 Alpha  occ. eigenvalues --   -1.13054  -1.13033  -1.13002  -1.12947  -1.12775
 Alpha  occ. eigenvalues --   -1.12745  -1.12694  -1.12406  -1.12353  -1.12286
 Alpha  occ. eigenvalues --   -0.20710  -0.13782  -0.12531  -0.11991
 Alpha virt. eigenvalues --   -0.05429  -0.04146  -0.04017  -0.03649  -0.03102
 Alpha virt. eigenvalues --   -0.03041  -0.01299  -0.00471  -0.00331   0.00323
 Alpha virt. eigenvalues --    0.00646   0.00829   0.00906   0.01029   0.01067

  Beta  occ. eigenvalues --  -38.44008 -38.43968 -38.43799 -38.43381 -38.43212
  Beta  occ. eigenvalues --  -38.43091 -38.42648  -2.20064  -2.19916  -2.19899
  Beta  occ. eigenvalues --   -2.19398  -2.19289  -2.19077  -2.18665  -1.13876
  Beta  occ. eigenvalues --   -1.13779  -1.13743  -1.13702  -1.13690  -1.13589
  Beta  occ. eigenvalues --   -1.13575  -1.13530  -1.13479  -1.13086  -1.13043
  Beta  occ. eigenvalues --   -1.13009  -1.12989  -1.12915  -1.12903  -1.12757
  Beta  occ. eigenvalues --   -1.12718  -1.12671  -1.12388  -1.12299  -1.12274
  Beta  occ. eigenvalues --   -0.19874  -0.13543  -0.11752
  Beta virt. eigenvalues --   -0.08181  -0.05346  -0.04152  -0.03464  -0.03200
  Beta virt. eigenvalues --   -0.02314  -0.02032  -0.01233  -0.00450  -0.00076
  Beta virt. eigenvalues --    0.00354   0.00698   0.00817   0.01024   0.01063

 Mulliken charges and spin densities:
               1          2
     1  Na  -0.512554   0.235990
     2  Na  -0.096144   0.461795
     3  Na   0.685970  -0.038984
     4  Na  -0.714973   0.085737
     5  Na   0.700162   0.317709
     6  Na   0.084317   0.012393
     7  Na  -0.146777  -0.074640
 Sum of Mulliken charges =  -0.00000   1.00000

 Dipole moment (field-independent basis, Debye):
    X=             -0.2079    Y=              0.0089    Z=             -0.1004  Tot=              0.2310
 Quadrupole moment (field-independent basis, Debye-Ang):
   XX=            -56.6953   YY=            -73.2986   ZZ=            -65.6945
   XY=             -0.4006   XZ=             -0.5417   YZ=              0.2241

 Normal termination of Gaussian 16 at Tue Dec  5 22:57:16 2023.
