 Gaussian 16, Revision B.01,
 Gaussian 16:  ES64L-G16RevB.01 20-Dec-2017

 -------------------------
 #P B3LYP/6-311+g(d) force
 -------------------------

 -----
 DPGEN
 -----
 Symbolic Z-matrix:
 Charge =  0 Multiplicity = 2

                         Standard orientation:
 ---------------------------------------------------------------------
 Center     Atomic      Atomic             Coordinates (Angstroms)
 Number     Number       Type             X           Y           Z
 ---------------------------------------------------------------------
      1         11           0        0.416513    3.571088    0.424097
      2         11           0        4.287410   -1.202737   -0.455599
      3         11           0        3.489393    2.057973   -0.030943
      4         11           0       -2.886459    2.067496   -0.097957
      5         11           0       -4.626497   -0.403976   -0.610600
      6         11           0        1.189704   -3.530172    0.071510
      7         11           0       -1.870065   -2.559672    0.699493
 ---------------------------------------------------------------------

 SCF Done:  E(UB3LYP) =  -1136.11165538     A.U. after   20 cycles

 The electronic state is 2-A.
 Alpha  occ. eigenvalues --  -38.45079 -38.44945 -38.44719 -38.44661 -38.44342
 Alpha  occ. eigenvalues --  -38.44130 -38.43722  -2.20878  -2.20729  -2.20492
 Alpha  occ. eigenvalues --   -2.20447  -2.20180  -2.19910  -2.19519  -1.14563
 Alpha  occ. eigenvalues --   -1.14546  -1.14539  -1.14405  -1.14403  -1.14348
 Alpha  occ. eigenvalues --   -1.14178  -1.14176  -1.14154  -1.14105  -1.14083
 Alpha  occ. eigenvalues --   -1.14060  -1.13841  -1.13818  -1.13800  -1.13580
 Alpha  occ. eigenvalues --   -1.13579  -1.13545  -1.13174  -1.13168  -1.13151
 Alpha  occ. eigenvalues --   -0.15731  -0.14160  -0.13361  -0.11126
 Alpha virt. eigenvalues --   -0.07470  -0.04945  -0.04233  -0.03691  -0.03469
 Alpha virt. eigenvalues --   -0.02480  -0.02111  -0.01897  -0.01360  -0.00864
 Alpha virt. eigenvalues --   -0.00423  -0.00187  -0.00022   0.00496   0.00699

  Beta  occ. eigenvalues --  -38.45062 -38.44907 -38.44720 -38.44602 -38.44294
  Beta  occ. eigenvalues --  -38.44112 -38.43666  -2.20855  -2.20664  -2.20499
  Beta  occ. eigenvalues --   -2.20339  -2.20093  -2.19882  -2.19414  -1.14545
  Beta  occ. eigenvalues --   -1.14533  -1.14489  -1.14364  -1.14360  -1.14281
  Beta  occ. eigenvalues --   -1.14185  -1.14178  -1.14120  -1.14033  -1.14017
  Beta  occ. eigenvalues --   -1.13987  -1.13778  -1.13758  -1.13745  -1.13563
  Beta  occ. eigenvalues --   -1.13558  -1.13509  -1.13102  -1.13098  -1.13083
  Beta  occ. eigenvalues --   -0.15159  -0.13476  -0.12552
  Beta virt. eigenvalues --   -0.07972  -0.07602  -0.04488  -0.03709  -0.03505
  Beta virt. eigenvalues --   -0.03108  -0.02278  -0.01989  -0.01686  -0.01156
  Beta virt. eigenvalues --   -0.00510  -0.00200   0.00103   0.00179   0.00478

 Mulliken charges and spin densities:
               1          2
     1  Na   0.413328   0.242731
     2  Na   0.006677   0.251257
     3  Na  -0.154317  -0.008226
     4  Na  -0.291886   0.171916
     5  Na   0.537888   0.186242
     6  Na   0.012348   0.008124
     7  Na  -0.524038   0.147956
 Sum of Mulliken charges =  -0.00000   1.00000

 Dipole moment (field-independent basis, Debye):
    X=             -0.5921    Y=             -0.4336    Z=             -0.1498  Tot=              0.7490
 Quadrupole moment (field-independent basis, Debye-Ang):
   XX=            -57.9706   YY=            -67.6163   ZZ=            -73.1762
   XY=              0.0431   XZ=             -0.1062   YZ=              1.0091

 Normal termination of Gaussian 16 at Sun Dec  3 12:05:34 2023.
