 Gaussian 16, Revision B.01,
 Gaussian 16:  ES64L-G16RevB.01 20-Dec-2017

 -------------------------
 #P B3LYP/6-311+g(d) force
 -------------------------

 -----
 DPGEN
 -----
 Symbolic Z-matrix:
 Charge =  0 Multiplicity = 2

                         Standard orientation:
 ---------------------------------------------------------------------
 Center     Atomic      Atomic             Coordinates (Angstroms)
 Number     Number       Type             X           Y           Z
 ---------------------------------------------------------------------
      1         11           0        1.216684    0.774834    1.544977
      2         11           0       -3.385117   -1.075613   -0.843256
      3         11           0       -1.088141   -1.385763    1.361527
      4         11           0        2.145332   -1.927645   -0.444373
      5         11           0       -2.968838    2.149546   -0.017648
      6         11           0       -0.153922    0.404725   -1.009088
      7         11           0        4.234001    1.059915   -0.592140
 ---------------------------------------------------------------------

 SCF Done:  E(UB3LYP) =  -1136.11240187     A.U. after   29 cycles

 The electronic state is 2-A.
 Alpha  occ. eigenvalues --  -38.44765 -38.44421 -38.44335 -38.44016 -38.43999
 Alpha  occ. eigenvalues --  -38.43676 -38.42720  -2.20764  -2.20295  -2.20189
 Alpha  occ. eigenvalues --   -2.19974  -2.19785  -2.19489  -2.18692  -1.14570
 Alpha  occ. eigenvalues --   -1.14404  -1.14378  -1.13976  -1.13944  -1.13901
 Alpha  occ. eigenvalues --   -1.13899  -1.13852  -1.13772  -1.13692  -1.13580
 Alpha  occ. eigenvalues --   -1.13562  -1.13464  -1.13454  -1.13415  -1.13162
 Alpha  occ. eigenvalues --   -1.13142  -1.13134  -1.12393  -1.12368  -1.12284
 Alpha  occ. eigenvalues --   -0.18736  -0.14326  -0.10947  -0.10824
 Alpha virt. eigenvalues --   -0.06955  -0.05740  -0.04317  -0.02931  -0.02822
 Alpha virt. eigenvalues --   -0.02390  -0.01974  -0.01380  -0.00865  -0.00558
 Alpha virt. eigenvalues --   -0.00045   0.00199   0.00376   0.00502   0.00679

  Beta  occ. eigenvalues --  -38.44745 -38.44371 -38.44313 -38.44021 -38.43924
  Beta  occ. eigenvalues --  -38.43670 -38.42687  -2.20736  -2.20202  -2.20147
  Beta  occ. eigenvalues --   -2.19840  -2.19795  -2.19480  -2.18638  -1.14506
  Beta  occ. eigenvalues --   -1.14382  -1.14359  -1.13912  -1.13882  -1.13872
  Beta  occ. eigenvalues --   -1.13833  -1.13822  -1.13739  -1.13603  -1.13486
  Beta  occ. eigenvalues --   -1.13475  -1.13459  -1.13447  -1.13419  -1.13155
  Beta  occ. eigenvalues --   -1.13135  -1.13115  -1.12357  -1.12288  -1.12252
  Beta  occ. eigenvalues --   -0.18005  -0.14019  -0.10640
  Beta virt. eigenvalues --   -0.07252  -0.06612  -0.05474  -0.03918  -0.02752
  Beta virt. eigenvalues --   -0.02586  -0.01778  -0.01535  -0.01067  -0.00505
  Beta virt. eigenvalues --   -0.00454   0.00029   0.00239   0.00452   0.00577

 Mulliken charges and spin densities:
               1          2
     1  Na   0.014955   0.083124
     2  Na   0.317364   0.085197
     3  Na   0.369296   0.140335
     4  Na   0.075956   0.202952
     5  Na   0.006805   0.055717
     6  Na  -0.837906   0.432734
     7  Na   0.053531  -0.000058
 Sum of Mulliken charges =  -0.00000   1.00000

 Dipole moment (field-independent basis, Debye):
    X=             -0.0424    Y=             -0.5637    Z=              0.2840  Tot=              0.6326
 Quadrupole moment (field-independent basis, Debye-Ang):
   XX=            -58.5355   YY=            -70.8205   ZZ=            -68.4559
   XY=              0.3358   XZ=             -0.6724   YZ=              3.2136

 Normal termination of Gaussian 16 at Tue Dec  5 12:02:19 2023.
