 Gaussian 16, Revision B.01,
 Gaussian 16:  ES64L-G16RevB.01 20-Dec-2017

 -------------------------
 #P B3LYP/6-311+g(d) force
 -------------------------

 -----
 DPGEN
 -----
 Symbolic Z-matrix:
 Charge =  0 Multiplicity = 2

                         Standard orientation:
 ---------------------------------------------------------------------
 Center     Atomic      Atomic             Coordinates (Angstroms)
 Number     Number       Type             X           Y           Z
 ---------------------------------------------------------------------
      1         11           0        3.145268    1.106786   -0.329859
      2         11           0       -3.212785   -1.878442    0.020437
      3         11           0       -0.044393   -0.580263   -1.809733
      4         11           0       -3.027615    1.445801   -0.520738
      5         11           0        0.316187    2.321103    0.607650
      6         11           0       -0.566522   -0.578297    1.929776
      7         11           0        3.389861   -1.836689    0.102467
 ---------------------------------------------------------------------

 SCF Done:  E(UB3LYP) =  -1136.11714572     A.U. after   24 cycles

 The electronic state is 2-A.
 Alpha  occ. eigenvalues --  -38.45374 -38.45075 -38.44667 -38.44314 -38.44077
 Alpha  occ. eigenvalues --  -38.43938 -38.41973  -2.21164  -2.20888  -2.20539
 Alpha  occ. eigenvalues --   -2.20116  -2.19889  -2.19808  -2.17860  -1.14864
 Alpha  occ. eigenvalues --   -1.14819  -1.14769  -1.14559  -1.14533  -1.14524
 Alpha  occ. eigenvalues --   -1.14261  -1.14194  -1.14189  -1.13791  -1.13764
 Alpha  occ. eigenvalues --   -1.13746  -1.13564  -1.13557  -1.13534  -1.13475
 Alpha  occ. eigenvalues --   -1.13439  -1.13414  -1.11546  -1.11530  -1.11502
 Alpha  occ. eigenvalues --   -0.18073  -0.14127  -0.11187  -0.10764
 Alpha virt. eigenvalues --   -0.07106  -0.06141  -0.03831  -0.03353  -0.02781
 Alpha virt. eigenvalues --   -0.02692  -0.02445  -0.01577  -0.00830  -0.00350
 Alpha virt. eigenvalues --    0.00030   0.00146   0.00371   0.00506   0.00594

  Beta  occ. eigenvalues --  -38.45324 -38.45046 -38.44669 -38.44329 -38.44074
  Beta  occ. eigenvalues --  -38.43835 -38.41966  -2.21074  -2.20835  -2.20541
  Beta  occ. eigenvalues --   -2.20145  -2.19886  -2.19619  -2.17851  -1.14797
  Beta  occ. eigenvalues --   -1.14753  -1.14701  -1.14511  -1.14500  -1.14485
  Beta  occ. eigenvalues --   -1.14274  -1.14194  -1.14183  -1.13812  -1.13776
  Beta  occ. eigenvalues --   -1.13765  -1.13565  -1.13540  -1.13518  -1.13349
  Beta  occ. eigenvalues --   -1.13304  -1.13281  -1.11539  -1.11521  -1.11475
  Beta  occ. eigenvalues --   -0.17368  -0.14003  -0.11007
  Beta virt. eigenvalues --   -0.06904  -0.06849  -0.06103  -0.03433  -0.03133
  Beta virt. eigenvalues --   -0.02559  -0.01913  -0.01753  -0.01234  -0.00890
  Beta virt. eigenvalues --   -0.00150   0.00053   0.00196   0.00571   0.00600

 Mulliken charges and spin densities:
               1          2
     1  Na   0.077842   0.025168
     2  Na   0.301316  -0.010913
     3  Na  -0.342950   0.332322
     4  Na   0.146921   0.195780
     5  Na   0.047245  -0.018821
     6  Na  -0.407985   0.587389
     7  Na   0.177611  -0.110925
 Sum of Mulliken charges =  -0.00000   1.00000

 Dipole moment (field-independent basis, Debye):
    X=             -0.3997    Y=             -0.1663    Z=             -0.3876  Tot=              0.5811
 Quadrupole moment (field-independent basis, Debye-Ang):
   XX=            -52.3247   YY=            -70.7088   ZZ=            -73.9382
   XY=             -0.5720   XZ=              1.0022   YZ=             -1.4195

 Normal termination of Gaussian 16 at Thu Dec  7 04:52:49 2023.
