 Gaussian 16, Revision B.01,
 Gaussian 16:  ES64L-G16RevB.01 20-Dec-2017

 -------------------------
 #P B3LYP/6-311+g(d) force
 -------------------------

 -----
 DPGEN
 -----
 Symbolic Z-matrix:
 Charge =  0 Multiplicity = 2

                         Standard orientation:
 ---------------------------------------------------------------------
 Center     Atomic      Atomic             Coordinates (Angstroms)
 Number     Number       Type             X           Y           Z
 ---------------------------------------------------------------------
      1         11           0        2.625272   -1.347933   -1.642582
      2         11           0       -0.956117    2.855952   -0.767303
      3         11           0       -1.182452   -2.141269   -0.283425
      4         11           0       -3.951757   -0.641836   -0.717030
      5         11           0       -1.421283    0.641284    1.959345
      6         11           0        2.255547   -1.186006    1.659065
      7         11           0        2.630789    1.819807   -0.208071
 ---------------------------------------------------------------------

 SCF Done:  E(UB3LYP) =  -1136.12160871     A.U. after   21 cycles

 The electronic state is 2-A.
 Alpha  occ. eigenvalues --  -38.44623 -38.44355 -38.44312 -38.44303 -38.44250
 Alpha  occ. eigenvalues --  -38.43800 -38.43520  -2.20425  -2.20173  -2.20141
 Alpha  occ. eigenvalues --   -2.20112  -2.20041  -2.19612  -2.19280  -1.14100
 Alpha  occ. eigenvalues --   -1.14077  -1.14049  -1.13857  -1.13839  -1.13819
 Alpha  occ. eigenvalues --   -1.13807  -1.13795  -1.13785  -1.13752  -1.13746
 Alpha  occ. eigenvalues --   -1.13738  -1.13728  -1.13703  -1.13654  -1.13297
 Alpha  occ. eigenvalues --   -1.13290  -1.13241  -1.12958  -1.12944  -1.12916
 Alpha  occ. eigenvalues --   -0.17174  -0.13828  -0.11543  -0.10685
 Alpha virt. eigenvalues --   -0.06436  -0.05502  -0.05224  -0.03411  -0.02809
 Alpha virt. eigenvalues --   -0.02541  -0.02024  -0.01013  -0.00814  -0.00547
 Alpha virt. eigenvalues --   -0.00182   0.00005   0.00346   0.00385   0.00460

  Beta  occ. eigenvalues --  -38.44594 -38.44323 -38.44270 -38.44251 -38.44238
  Beta  occ. eigenvalues --  -38.43796 -38.43518  -2.20370  -2.20113  -2.20065
  Beta  occ. eigenvalues --   -2.20022  -2.20017  -2.19610  -2.19277  -1.14061
  Beta  occ. eigenvalues --   -1.14040  -1.14012  -1.13816  -1.13796  -1.13774
  Beta  occ. eigenvalues --   -1.13759  -1.13734  -1.13728  -1.13702  -1.13691
  Beta  occ. eigenvalues --   -1.13684  -1.13680  -1.13663  -1.13640  -1.13297
  Beta  occ. eigenvalues --   -1.13272  -1.13232  -1.12953  -1.12939  -1.12914
  Beta  occ. eigenvalues --   -0.16571  -0.13540  -0.11406
  Beta virt. eigenvalues --   -0.07102  -0.06222  -0.05367  -0.04575  -0.03282
  Beta virt. eigenvalues --   -0.02350  -0.01916  -0.01681  -0.00929  -0.00717
  Beta virt. eigenvalues --   -0.00166  -0.00080   0.00163   0.00410   0.00540

 Mulliken charges and spin densities:
               1          2
     1  Na   0.167006   0.133438
     2  Na   0.048661   0.024298
     3  Na  -0.484159   0.102591
     4  Na   0.394445   0.061300
     5  Na  -0.152076   0.265034
     6  Na   0.247070   0.304862
     7  Na  -0.220947   0.108476
 Sum of Mulliken charges =  -0.00000   1.00000

 Dipole moment (field-independent basis, Debye):
    X=             -0.1602    Y=             -0.2529    Z=             -0.1759  Tot=              0.3473
 Quadrupole moment (field-independent basis, Debye-Ang):
   XX=            -55.3772   YY=            -74.6736   ZZ=            -67.5630
   XY=             -2.5797   XZ=              1.6932   YZ=              0.3306

 Normal termination of Gaussian 16 at Sun Dec  3 22:02:53 2023.
