 Gaussian 16, Revision B.01,
 Gaussian 16:  ES64L-G16RevB.01 20-Dec-2017

 -------------------------
 #P B3LYP/6-311+g(d) force
 -------------------------

 -----
 DPGEN
 -----
 Symbolic Z-matrix:
 Charge =  0 Multiplicity = 2

                         Standard orientation:
 ---------------------------------------------------------------------
 Center     Atomic      Atomic             Coordinates (Angstroms)
 Number     Number       Type             X           Y           Z
 ---------------------------------------------------------------------
      1         11           0        4.228090   -0.345130   -1.071127
      2         11           0       -2.574626    1.735406   -0.971973
      3         11           0       -3.679727   -1.612030   -0.189077
      4         11           0        1.063694    1.976706   -0.223992
      5         11           0       -1.179564    0.445021    1.748037
      6         11           0        0.197295   -1.542932   -1.289569
      7         11           0        1.944838   -0.657041    1.997703
 ---------------------------------------------------------------------

 SCF Done:  E(UB3LYP) =  -1136.12012927     A.U. after   29 cycles

 The electronic state is 2-A.
 Alpha  occ. eigenvalues --  -38.45228 -38.44677 -38.44465 -38.44277 -38.43725
 Alpha  occ. eigenvalues --  -38.43414 -38.43156  -2.20961  -2.20439  -2.20298
 Alpha  occ. eigenvalues --   -2.20135  -2.19512  -2.19276  -2.19077  -1.14682
 Alpha  occ. eigenvalues --   -1.14666  -1.14550  -1.14108  -1.14099  -1.14051
 Alpha  occ. eigenvalues --   -1.13980  -1.13958  -1.13901  -1.13819  -1.13777
 Alpha  occ. eigenvalues --   -1.13744  -1.13186  -1.13168  -1.13141  -1.12985
 Alpha  occ. eigenvalues --   -1.12941  -1.12882  -1.12772  -1.12740  -1.12689
 Alpha  occ. eigenvalues --   -0.17957  -0.13825  -0.11286  -0.10893
 Alpha virt. eigenvalues --   -0.07032  -0.05332  -0.04879  -0.03122  -0.02752
 Alpha virt. eigenvalues --   -0.02479  -0.02284  -0.01357  -0.01220  -0.00300
 Alpha virt. eigenvalues --   -0.00019   0.00154   0.00286   0.00449   0.00524

  Beta  occ. eigenvalues --  -38.45246 -38.44639 -38.44425 -38.44217 -38.43707
  Beta  occ. eigenvalues --  -38.43387 -38.43130  -2.20998  -2.20368  -2.20224
  Beta  occ. eigenvalues --   -2.20027  -2.19479  -2.19228  -2.19034  -1.14698
  Beta  occ. eigenvalues --   -1.14684  -1.14579  -1.14055  -1.14051  -1.14006
  Beta  occ. eigenvalues --   -1.13934  -1.13909  -1.13838  -1.13735  -1.13711
  Beta  occ. eigenvalues --   -1.13657  -1.13159  -1.13146  -1.13121  -1.12955
  Beta  occ. eigenvalues --   -1.12896  -1.12843  -1.12742  -1.12676  -1.12661
  Beta  occ. eigenvalues --   -0.17347  -0.13478  -0.10684
  Beta virt. eigenvalues --   -0.07520  -0.06883  -0.04885  -0.04523  -0.02882
  Beta virt. eigenvalues --   -0.02670  -0.01963  -0.01705  -0.01176  -0.00768
  Beta virt. eigenvalues --   -0.00141   0.00033   0.00260   0.00377   0.00566

 Mulliken charges and spin densities:
               1          2
     1  Na   0.328298   0.209478
     2  Na   0.256257   0.159826
     3  Na   0.249728  -0.013382
     4  Na  -0.335620   0.283940
     5  Na  -0.089332   0.402042
     6  Na  -0.658114  -0.056568
     7  Na   0.248783   0.014665
 Sum of Mulliken charges =  -0.00000   1.00000

 Dipole moment (field-independent basis, Debye):
    X=              0.4120    Y=              0.2626    Z=              0.0549  Tot=              0.4916
 Quadrupole moment (field-independent basis, Debye-Ang):
   XX=            -52.8932   YY=            -74.1274   ZZ=            -69.9460
   XY=             -1.3486   XZ=              0.9457   YZ=             -5.0164

 Normal termination of Gaussian 16 at Tue Dec  5 12:42:08 2023.
