 Gaussian 16, Revision B.01,
 Gaussian 16:  ES64L-G16RevB.01 20-Dec-2017

 -------------------------
 #P B3LYP/6-311+g(d) force
 -------------------------

 -----
 DPGEN
 -----
 Symbolic Z-matrix:
 Charge =  0 Multiplicity = 2

                         Standard orientation:
 ---------------------------------------------------------------------
 Center     Atomic      Atomic             Coordinates (Angstroms)
 Number     Number       Type             X           Y           Z
 ---------------------------------------------------------------------
      1         11           0       -0.003595   -0.061089    1.971928
      2         11           0        0.485680   -2.912882    0.269402
      3         11           0       -0.260722   -0.403538   -1.729377
      4         11           0       -1.779644    2.307353    0.167405
      5         11           0       -2.934177   -1.021453   -0.243895
      6         11           0        1.476825    2.527338   -0.208502
      7         11           0        3.015633   -0.435729   -0.226961
 ---------------------------------------------------------------------

 SCF Done:  E(UB3LYP) =  -1136.13981257     A.U. after   18 cycles

 The electronic state is 2-A.
 Alpha  occ. eigenvalues --  -38.43863 -38.43729 -38.43629 -38.43515 -38.43468
 Alpha  occ. eigenvalues --  -38.43307 -38.43305  -2.19712  -2.19570  -2.19487
 Alpha  occ. eigenvalues --   -2.19431  -2.19333  -2.19271  -2.19168  -1.13432
 Alpha  occ. eigenvalues --   -1.13362  -1.13338  -1.13248  -1.13238  -1.13222
 Alpha  occ. eigenvalues --   -1.13185  -1.13171  -1.13104  -1.13102  -1.13059
 Alpha  occ. eigenvalues --   -1.13050  -1.13017  -1.12992  -1.12973  -1.12937
 Alpha  occ. eigenvalues --   -1.12899  -1.12889  -1.12828  -1.12825  -1.12806
 Alpha  occ. eigenvalues --   -0.18783  -0.12891  -0.12711  -0.10851
 Alpha virt. eigenvalues --   -0.05498  -0.05001  -0.04853  -0.03130  -0.03063
 Alpha virt. eigenvalues --   -0.02590  -0.01383  -0.01139  -0.00331  -0.00226
 Alpha virt. eigenvalues --   -0.00006   0.00365   0.00855   0.00884   0.00918

  Beta  occ. eigenvalues --  -38.43856 -38.43724 -38.43619 -38.43463 -38.43424
  Beta  occ. eigenvalues --  -38.43303 -38.43238  -2.19701  -2.19564  -2.19474
  Beta  occ. eigenvalues --   -2.19327  -2.19264  -2.19164  -2.19148  -1.13413
  Beta  occ. eigenvalues --   -1.13342  -1.13334  -1.13243  -1.13225  -1.13208
  Beta  occ. eigenvalues --   -1.13170  -1.13130  -1.13098  -1.13033  -1.12995
  Beta  occ. eigenvalues --   -1.12975  -1.12964  -1.12935  -1.12917  -1.12857
  Beta  occ. eigenvalues --   -1.12830  -1.12818  -1.12805  -1.12801  -1.12791
  Beta  occ. eigenvalues --   -0.18055  -0.12635  -0.12463
  Beta virt. eigenvalues --   -0.06946  -0.05480  -0.04976  -0.04795  -0.02341
  Beta virt. eigenvalues --   -0.02280  -0.01540  -0.01294  -0.01060  -0.00383
  Beta virt. eigenvalues --   -0.00270   0.00124   0.00393   0.00868   0.00903

 Mulliken charges and spin densities:
               1          2
     1  Na  -0.348512   0.695959
     2  Na   0.203482  -0.085107
     3  Na  -0.290604   0.601890
     4  Na   0.132278  -0.024434
     5  Na   0.274827  -0.087369
     6  Na  -0.046148  -0.052729
     7  Na   0.074678  -0.048210
 Sum of Mulliken charges =  -0.00000   1.00000

 Dipole moment (field-independent basis, Debye):
    X=             -0.1077    Y=             -0.2561    Z=              0.0844  Tot=              0.2903
 Quadrupole moment (field-independent basis, Debye-Ang):
   XX=            -58.5508   YY=            -61.6399   ZZ=            -73.8307
   XY=             -0.1704   XZ=             -0.6845   YZ=             -0.6548

 Normal termination of Gaussian 16 at Thu Dec  7 11:04:36 2023.
