 Gaussian 16, Revision B.01,
 Gaussian 16:  ES64L-G16RevB.01 20-Dec-2017

 -------------------------
 #P B3LYP/6-311+g(d) force
 -------------------------

 -----
 DPGEN
 -----
 Symbolic Z-matrix:
 Charge =  0 Multiplicity = 2

                         Standard orientation:
 ---------------------------------------------------------------------
 Center     Atomic      Atomic             Coordinates (Angstroms)
 Number     Number       Type             X           Y           Z
 ---------------------------------------------------------------------
      1         11           0        3.851621    1.304243   -0.661349
      2         11           0       -1.650828   -1.153226    1.735773
      3         11           0       -2.987405    2.097516    0.192886
      4         11           0       -2.415005   -0.781692   -1.474285
      5         11           0        0.253854    1.224928   -0.235461
      6         11           0        2.155094   -0.532992    1.568980
      7         11           0        0.792668   -2.158777   -1.126544
 ---------------------------------------------------------------------

 SCF Done:  E(UB3LYP) =  -1136.12784788     A.U. after   24 cycles

 The electronic state is 2-A.
 Alpha  occ. eigenvalues --  -38.44348 -38.44097 -38.44050 -38.44010 -38.43720
 Alpha  occ. eigenvalues --  -38.43277 -38.43089  -2.20144  -2.19955  -2.19947
 Alpha  occ. eigenvalues --   -2.19907  -2.19649  -2.19111  -2.18943  -1.13819
 Alpha  occ. eigenvalues --   -1.13799  -1.13782  -1.13685  -1.13655  -1.13631
 Alpha  occ. eigenvalues --   -1.13606  -1.13589  -1.13554  -1.13544  -1.13529
 Alpha  occ. eigenvalues --   -1.13504  -1.13371  -1.13324  -1.13248  -1.12779
 Alpha  occ. eigenvalues --   -1.12770  -1.12752  -1.12631  -1.12597  -1.12560
 Alpha  occ. eigenvalues --   -0.18431  -0.14003  -0.11266  -0.10937
 Alpha virt. eigenvalues --   -0.06395  -0.05331  -0.04707  -0.03162  -0.02541
 Alpha virt. eigenvalues --   -0.02344  -0.02144  -0.01193  -0.00768  -0.00200
 Alpha virt. eigenvalues --    0.00145   0.00208   0.00323   0.00559   0.00703

  Beta  occ. eigenvalues --  -38.44339 -38.44043 -38.44018 -38.43968 -38.43706
  Beta  occ. eigenvalues --  -38.43276 -38.43063  -2.20128  -2.19892  -2.19854
  Beta  occ. eigenvalues --   -2.19831  -2.19629  -2.19111  -2.18896  -1.13806
  Beta  occ. eigenvalues --   -1.13787  -1.13770  -1.13646  -1.13592  -1.13568
  Beta  occ. eigenvalues --   -1.13555  -1.13529  -1.13488  -1.13485  -1.13474
  Beta  occ. eigenvalues --   -1.13444  -1.13322  -1.13308  -1.13238  -1.12780
  Beta  occ. eigenvalues --   -1.12761  -1.12750  -1.12598  -1.12547  -1.12531
  Beta  occ. eigenvalues --   -0.17742  -0.13843  -0.11019
  Beta virt. eigenvalues --   -0.07077  -0.06219  -0.05243  -0.04146  -0.02894
  Beta virt. eigenvalues --   -0.02275  -0.01944  -0.01501  -0.00968  -0.00380
  Beta virt. eigenvalues --   -0.00108   0.00214   0.00273   0.00415   0.00624

 Mulliken charges and spin densities:
               1          2
     1  Na   0.598808   0.083532
     2  Na  -0.092159   0.327353
     3  Na   1.231969  -0.117298
     4  Na   0.509301   0.127954
     5  Na  -2.591888   0.366251
     6  Na   0.645667   0.041303
     7  Na  -0.301698   0.170904
 Sum of Mulliken charges =  -0.00000   1.00000

 Dipole moment (field-independent basis, Debye):
    X=              0.3689    Y=             -0.3693    Z=              0.0704  Tot=              0.5267
 Quadrupole moment (field-independent basis, Debye-Ang):
   XX=            -51.5205   YY=            -73.1297   ZZ=            -68.7197
   XY=              0.4001   XZ=             -1.7379   YZ=             -0.8541

 Normal termination of Gaussian 16 at Tue Dec  5 13:39:50 2023.
