 Gaussian 16, Revision B.01,
 Gaussian 16:  ES64L-G16RevB.01 20-Dec-2017

 -------------------------
 #P B3LYP/6-311+g(d) force
 -------------------------

 -----
 DPGEN
 -----
 Symbolic Z-matrix:
 Charge =  0 Multiplicity = 2

                         Standard orientation:
 ---------------------------------------------------------------------
 Center     Atomic      Atomic             Coordinates (Angstroms)
 Number     Number       Type             X           Y           Z
 ---------------------------------------------------------------------
      1         11           0       -1.689532   -2.489711   -0.276468
      2         11           0        1.026892    2.472678    0.119976
      3         11           0        0.383595   -1.164171   -1.735251
      4         11           0       -2.170621    1.664547   -1.149825
      5         11           0        3.537759    0.013653   -0.365107
      6         11           0        1.587209   -0.953397    1.873319
      7         11           0       -2.675302    0.456401    1.533356
 ---------------------------------------------------------------------

 SCF Done:  E(UB3LYP) =  -1136.12282997     A.U. after   20 cycles

 The electronic state is 2-A.
 Alpha  occ. eigenvalues --  -38.44680 -38.44579 -38.44461 -38.43919 -38.43760
 Alpha  occ. eigenvalues --  -38.43414 -38.43279  -2.20520  -2.20415  -2.20305
 Alpha  occ. eigenvalues --   -2.19712  -2.19616  -2.19331  -2.19139  -1.14251
 Alpha  occ. eigenvalues --   -1.14176  -1.14157  -1.14073  -1.14043  -1.14024
 Alpha  occ. eigenvalues --   -1.14016  -1.13943  -1.13922  -1.13399  -1.13396
 Alpha  occ. eigenvalues --   -1.13334  -1.13300  -1.13264  -1.13228  -1.13173
 Alpha  occ. eigenvalues --   -1.12962  -1.12946  -1.12770  -1.12757  -1.12748
 Alpha  occ. eigenvalues --   -0.18012  -0.13768  -0.11757  -0.11023
 Alpha virt. eigenvalues --   -0.06176  -0.05387  -0.04656  -0.03564  -0.02996
 Alpha virt. eigenvalues --   -0.02830  -0.01791  -0.00746  -0.00610  -0.00142
 Alpha virt. eigenvalues --   -0.00049   0.00260   0.00376   0.00634   0.00731

  Beta  occ. eigenvalues --  -38.44681 -38.44523 -38.44422 -38.43912 -38.43749
  Beta  occ. eigenvalues --  -38.43353 -38.43276  -2.20524  -2.20310  -2.20230
  Beta  occ. eigenvalues --   -2.19701  -2.19598  -2.19221  -2.19135  -1.14234
  Beta  occ. eigenvalues --   -1.14167  -1.14162  -1.14001  -1.13975  -1.13974
  Beta  occ. eigenvalues --   -1.13949  -1.13890  -1.13870  -1.13392  -1.13372
  Beta  occ. eigenvalues --   -1.13330  -1.13278  -1.13243  -1.13217  -1.13117
  Beta  occ. eigenvalues --   -1.12886  -1.12865  -1.12758  -1.12754  -1.12712
  Beta  occ. eigenvalues --   -0.17348  -0.13540  -0.11556
  Beta virt. eigenvalues --   -0.07371  -0.05982  -0.05133  -0.04082  -0.03420
  Beta virt. eigenvalues --   -0.02370  -0.01967  -0.01696  -0.00697  -0.00311
  Beta virt. eigenvalues --    0.00004   0.00031   0.00370   0.00464   0.00755

 Mulliken charges and spin densities:
               1          2
     1  Na   0.247490  -0.062135
     2  Na  -0.319255   0.032445
     3  Na  -0.469159   0.465304
     4  Na   0.136817  -0.059192
     5  Na   0.784673   0.027668
     6  Na  -0.365385   0.256817
     7  Na  -0.015182   0.339092
 Sum of Mulliken charges =  -0.00000   1.00000

 Dipole moment (field-independent basis, Debye):
    X=              0.7988    Y=              0.1764    Z=              0.3260  Tot=              0.8806
 Quadrupole moment (field-independent basis, Debye-Ang):
   XX=            -55.6010   YY=            -73.7348   ZZ=            -68.0336
   XY=              0.9082   XZ=             -2.1227   YZ=             -2.1109

 Normal termination of Gaussian 16 at Sun Dec  3 22:50:40 2023.
