 Gaussian 16, Revision B.01,
 Gaussian 16:  ES64L-G16RevB.01 20-Dec-2017

 -------------------------
 #P B3LYP/6-311+g(d) force
 -------------------------

 -----
 DPGEN
 -----
 Symbolic Z-matrix:
 Charge =  0 Multiplicity = 2

                         Standard orientation:
 ---------------------------------------------------------------------
 Center     Atomic      Atomic             Coordinates (Angstroms)
 Number     Number       Type             X           Y           Z
 ---------------------------------------------------------------------
      1         11           0        0.431488    0.216692   -1.165114
      2         11           0       -1.022170   -2.289475   -0.036114
      3         11           0        0.050845    2.723890    0.251486
      4         11           0       -1.353107    0.450232    1.369986
      5         11           0       -2.289315    0.093154   -1.163214
      6         11           0        0.981461   -0.934321    1.231986
      7         11           0        3.200797   -0.260172   -0.489014
 ---------------------------------------------------------------------

 SCF Done:  E(UB3LYP) =  -1136.07725364     A.U. after   20 cycles

 The electronic state is 2-A.
 Alpha  occ. eigenvalues --  -38.44473 -38.44310 -38.43969 -38.43881 -38.43500
 Alpha  occ. eigenvalues --  -38.43315 -38.43310  -2.20590  -2.20251  -2.20220
 Alpha  occ. eigenvalues --   -2.20140  -2.19890  -2.19409  -2.19268  -1.14532
 Alpha  occ. eigenvalues --   -1.14377  -1.14323  -1.14180  -1.14143  -1.13957
 Alpha  occ. eigenvalues --   -1.13940  -1.13818  -1.13806  -1.13741  -1.13692
 Alpha  occ. eigenvalues --   -1.13577  -1.13507  -1.13470  -1.13416  -1.13078
 Alpha  occ. eigenvalues --   -1.13035  -1.12978  -1.12940  -1.12916  -1.12838
 Alpha  occ. eigenvalues --   -0.21031  -0.13597  -0.12690  -0.11960
 Alpha virt. eigenvalues --   -0.05522  -0.04301  -0.03711  -0.03438  -0.02937
 Alpha virt. eigenvalues --   -0.02640  -0.01335  -0.00773  -0.00206   0.00326
 Alpha virt. eigenvalues --    0.00662   0.00776   0.00882   0.01019   0.01172

  Beta  occ. eigenvalues --  -38.44425 -38.44300 -38.43914 -38.43814 -38.43444
  Beta  occ. eigenvalues --  -38.43309 -38.43296  -2.20506  -2.20218  -2.20140
  Beta  occ. eigenvalues --   -2.20028  -2.19794  -2.19391  -2.19260  -1.14478
  Beta  occ. eigenvalues --   -1.14285  -1.14249  -1.14121  -1.14089  -1.13909
  Beta  occ. eigenvalues --   -1.13890  -1.13796  -1.13764  -1.13672  -1.13613
  Beta  occ. eigenvalues --   -1.13480  -1.13434  -1.13408  -1.13334  -1.13070
  Beta  occ. eigenvalues --   -1.12995  -1.12943  -1.12925  -1.12887  -1.12834
  Beta  occ. eigenvalues --   -0.20229  -0.13374  -0.12388
  Beta virt. eigenvalues --   -0.07619  -0.05420  -0.04317  -0.03586  -0.02869
  Beta virt. eigenvalues --   -0.02103  -0.01551  -0.01141  -0.00746   0.00030
  Beta virt. eigenvalues --    0.00368   0.00667   0.00798   0.00903   0.01113

 Mulliken charges and spin densities:
               1          2
     1  Na  -0.921348   0.064847
     2  Na   0.099005   0.263702
     3  Na  -0.333974  -0.005181
     4  Na   0.065598   0.267341
     5  Na   0.589729   0.189743
     6  Na   0.255131   0.162636
     7  Na   0.245859   0.056913
 Sum of Mulliken charges =  -0.00000   1.00000

 Dipole moment (field-independent basis, Debye):
    X=              0.2508    Y=              0.2544    Z=             -0.1657  Tot=              0.3938
 Quadrupole moment (field-independent basis, Debye-Ang):
   XX=            -57.9193   YY=            -66.2882   ZZ=            -69.5382
   XY=              1.0889   XZ=              0.3210   YZ=              0.4908

 Normal termination of Gaussian 16 at Thu Dec  7 20:56:42 2023.
