 Gaussian 16, Revision B.01,
 Gaussian 16:  ES64L-G16RevB.01 20-Dec-2017

 -------------------------
 #P B3LYP/6-311+g(d) force
 -------------------------

 -----
 DPGEN
 -----
 Symbolic Z-matrix:
 Charge =  0 Multiplicity = 2

                         Standard orientation:
 ---------------------------------------------------------------------
 Center     Atomic      Atomic             Coordinates (Angstroms)
 Number     Number       Type             X           Y           Z
 ---------------------------------------------------------------------
      1         11           0       -1.731344   -2.480310    0.093129
      2         11           0       -0.528153    2.688661    0.711120
      3         11           0        2.575103   -1.663796   -0.481773
      4         11           0        0.027042   -0.344878   -1.237121
      5         11           0        2.264533    1.650154   -0.783580
      6         11           0        0.574682   -0.489676    2.392851
      7         11           0       -3.181863    0.639844   -0.694625
 ---------------------------------------------------------------------

 SCF Done:  E(UB3LYP) =  -1136.12968130     A.U. after   19 cycles

 The electronic state is 2-A.
 Alpha  occ. eigenvalues --  -38.44318 -38.44047 -38.43855 -38.43730 -38.43656
 Alpha  occ. eigenvalues --  -38.43014 -38.43000  -2.20161  -2.19861  -2.19736
 Alpha  occ. eigenvalues --   -2.19569  -2.19558  -2.19099  -2.18856  -1.13810
 Alpha  occ. eigenvalues --   -1.13789  -1.13770  -1.13545  -1.13516  -1.13492
 Alpha  occ. eigenvalues --   -1.13490  -1.13384  -1.13359  -1.13315  -1.13282
 Alpha  occ. eigenvalues --   -1.13228  -1.13196  -1.13178  -1.13168  -1.12763
 Alpha  occ. eigenvalues --   -1.12739  -1.12720  -1.12528  -1.12516  -1.12496
 Alpha  occ. eigenvalues --   -0.18593  -0.13126  -0.12141  -0.11335
 Alpha virt. eigenvalues --   -0.05585  -0.04989  -0.04388  -0.03202  -0.03173
 Alpha virt. eigenvalues --   -0.02959  -0.01507  -0.01031  -0.00327  -0.00070
 Alpha virt. eigenvalues --    0.00134   0.00343   0.00752   0.00810   0.00890

  Beta  occ. eigenvalues --  -38.44204 -38.44037 -38.43845 -38.43728 -38.43639
  Beta  occ. eigenvalues --  -38.43004 -38.42964  -2.19950  -2.19843  -2.19722
  Beta  occ. eigenvalues --   -2.19569  -2.19530  -2.19035  -2.18838  -1.13668
  Beta  occ. eigenvalues --   -1.13648  -1.13617  -1.13526  -1.13505  -1.13480
  Beta  occ. eigenvalues --   -1.13475  -1.13374  -1.13331  -1.13304  -1.13268
  Beta  occ. eigenvalues --   -1.13218  -1.13172  -1.13169  -1.13144  -1.12708
  Beta  occ. eigenvalues --   -1.12697  -1.12671  -1.12516  -1.12499  -1.12476
  Beta  occ. eigenvalues --   -0.17892  -0.12826  -0.11971
  Beta virt. eigenvalues --   -0.07314  -0.05540  -0.04913  -0.04244  -0.02590
  Beta virt. eigenvalues --   -0.02369  -0.01908  -0.01422  -0.00995  -0.00201
  Beta virt. eigenvalues --   -0.00006   0.00169   0.00400   0.00813   0.00932

 Mulliken charges and spin densities:
               1          2
     1  Na  -0.023939   0.172523
     2  Na  -0.090269   0.177015
     3  Na   0.216522   0.156896
     4  Na  -0.153313  -0.281767
     5  Na   0.241499   0.111097
     6  Na  -0.388574   0.621131
     7  Na   0.198074   0.043105
 Sum of Mulliken charges =  -0.00000   1.00000

 Dipole moment (field-independent basis, Debye):
    X=             -0.0229    Y=             -0.2959    Z=              0.3110  Tot=              0.4299
 Quadrupole moment (field-independent basis, Debye-Ang):
   XX=            -57.4168   YY=            -65.3373   ZZ=            -71.0913
   XY=             -0.7670   XZ=             -0.3199   YZ=             -0.7064

 Normal termination of Gaussian 16 at Thu Dec  7 01:57:01 2023.
