 Gaussian 16, Revision B.01,
 Gaussian 16:  ES64L-G16RevB.01 20-Dec-2017

 -------------------------
 #P B3LYP/6-311+g(d) force
 -------------------------

 -----
 DPGEN
 -----
 Symbolic Z-matrix:
 Charge =  0 Multiplicity = 2

                         Standard orientation:
 ---------------------------------------------------------------------
 Center     Atomic      Atomic             Coordinates (Angstroms)
 Number     Number       Type             X           Y           Z
 ---------------------------------------------------------------------
      1         11           0        0.192881    1.463254   -0.302226
      2         11           0        2.505874    3.448245    0.556632
      3         11           0        3.119571    0.182627   -0.558304
      4         11           0        2.763914   -3.174455   -0.035785
      5         11           0       -0.369330   -1.744724    0.186662
      6         11           0       -3.063605   -1.085552    0.652492
      7         11           0       -5.149304    0.910605   -0.499472
 ---------------------------------------------------------------------

 SCF Done:  E(UB3LYP) =  -1136.11708407     A.U. after   20 cycles

 The electronic state is 2-A.
 Alpha  occ. eigenvalues --  -38.44688 -38.44506 -38.44311 -38.44094 -38.43795
 Alpha  occ. eigenvalues --  -38.43481 -38.43431  -2.20580  -2.20329  -2.20178
 Alpha  occ. eigenvalues --   -2.19929  -2.19705  -2.19435  -2.19248  -1.14298
 Alpha  occ. eigenvalues --   -1.14261  -1.14204  -1.13994  -1.13986  -1.13947
 Alpha  occ. eigenvalues --   -1.13887  -1.13861  -1.13751  -1.13652  -1.13552
 Alpha  occ. eigenvalues --   -1.13548  -1.13515  -1.13338  -1.13320  -1.13098
 Alpha  occ. eigenvalues --   -1.13068  -1.12997  -1.12907  -1.12903  -1.12874
 Alpha  occ. eigenvalues --   -0.17390  -0.14361  -0.12668  -0.10726
 Alpha virt. eigenvalues --   -0.06379  -0.05458  -0.04262  -0.03844  -0.02909
 Alpha virt. eigenvalues --   -0.02261  -0.02087  -0.01287  -0.01144  -0.00698
 Alpha virt. eigenvalues --   -0.00188   0.00018   0.00460   0.00540   0.00652

  Beta  occ. eigenvalues --  -38.44666 -38.44506 -38.44287 -38.43986 -38.43786
  Beta  occ. eigenvalues --  -38.43435 -38.43408  -2.20541  -2.20330  -2.20134
  Beta  occ. eigenvalues --   -2.19727  -2.19700  -2.19353  -2.19204  -1.14276
  Beta  occ. eigenvalues --   -1.14236  -1.14170  -1.13989  -1.13986  -1.13944
  Beta  occ. eigenvalues --   -1.13854  -1.13832  -1.13713  -1.13547  -1.13431
  Beta  occ. eigenvalues --   -1.13414  -1.13409  -1.13337  -1.13308  -1.13040
  Beta  occ. eigenvalues --   -1.13014  -1.12937  -1.12877  -1.12862  -1.12847
  Beta  occ. eigenvalues --   -0.16934  -0.13715  -0.12264
  Beta virt. eigenvalues --   -0.07190  -0.06201  -0.05201  -0.04099  -0.03264
  Beta virt. eigenvalues --   -0.02693  -0.01975  -0.01860  -0.01068  -0.00855
  Beta virt. eigenvalues --   -0.00319   0.00003   0.00323   0.00565   0.00650

 Mulliken charges and spin densities:
               1          2
     1  Na  -1.427877  -0.042803
     2  Na   0.988537  -0.008647
     3  Na   0.165609   0.296822
     4  Na   0.721325   0.243726
     5  Na  -0.591663   0.042505
     6  Na   0.167007  -0.083677
     7  Na  -0.022938   0.552074
 Sum of Mulliken charges =  -0.00000   1.00000

 Dipole moment (field-independent basis, Debye):
    X=              1.3962    Y=              1.2637    Z=              0.2337  Tot=              1.8976
 Quadrupole moment (field-independent basis, Debye-Ang):
   XX=            -70.5905   YY=            -58.8834   ZZ=            -70.6396
   XY=              4.0943   XZ=              1.8107   YZ=             -0.2696

 Normal termination of Gaussian 16 at Tue Nov 28 23:28:35 2023.
