 Gaussian 16, Revision B.01,
 Gaussian 16:  ES64L-G16RevB.01 20-Dec-2017

 -------------------------
 #P B3LYP/6-311+g(d) force
 -------------------------

 -----
 DPGEN
 -----
 Symbolic Z-matrix:
 Charge =  0 Multiplicity = 2

                         Standard orientation:
 ---------------------------------------------------------------------
 Center     Atomic      Atomic             Coordinates (Angstroms)
 Number     Number       Type             X           Y           Z
 ---------------------------------------------------------------------
      1         11           0        2.889582    0.960972   -0.127464
      2         11           0        2.650798   -2.577003    0.001878
      3         11           0       -2.675036    1.541074   -0.290537
      4         11           0        0.197542   -0.263483    1.909787
      5         11           0       -3.442481   -1.898769    0.274985
      6         11           0       -0.105153   -1.030392   -1.716997
      7         11           0        0.484748    3.267602   -0.051653
 ---------------------------------------------------------------------

 SCF Done:  E(UB3LYP) =  -1136.12697240     A.U. after   21 cycles

 The electronic state is 2-A.
 Alpha  occ. eigenvalues --  -38.44791 -38.44480 -38.44449 -38.44239 -38.43969
 Alpha  occ. eigenvalues --  -38.43818 -38.43040  -2.20542  -2.20277  -2.20266
 Alpha  occ. eigenvalues --   -2.20028  -2.19787  -2.19651  -2.18846  -1.14214
 Alpha  occ. eigenvalues --   -1.14207  -1.14177  -1.13957  -1.13956  -1.13951
 Alpha  occ. eigenvalues --   -1.13940  -1.13906  -1.13886  -1.13699  -1.13689
 Alpha  occ. eigenvalues --   -1.13667  -1.13477  -1.13443  -1.13386  -1.13328
 Alpha  occ. eigenvalues --   -1.13278  -1.13266  -1.12521  -1.12503  -1.12498
 Alpha  occ. eigenvalues --   -0.17567  -0.13280  -0.12087  -0.10042
 Alpha virt. eigenvalues --   -0.06473  -0.06034  -0.04752  -0.03275  -0.02587
 Alpha virt. eigenvalues --   -0.02241  -0.02133  -0.01627  -0.01094  -0.00547
 Alpha virt. eigenvalues --   -0.00089   0.00270   0.00591   0.00622   0.00690

  Beta  occ. eigenvalues --  -38.44791 -38.44473 -38.44444 -38.44240 -38.43907
  Beta  occ. eigenvalues --  -38.43730 -38.43039  -2.20544  -2.20271  -2.20255
  Beta  occ. eigenvalues --   -2.20033  -2.19672  -2.19488  -2.18847  -1.14216
  Beta  occ. eigenvalues --   -1.14198  -1.14179  -1.13956  -1.13934  -1.13927
  Beta  occ. eigenvalues --   -1.13927  -1.13907  -1.13881  -1.13705  -1.13673
  Beta  occ. eigenvalues --   -1.13670  -1.13396  -1.13360  -1.13303  -1.13215
  Beta  occ. eigenvalues --   -1.13165  -1.13150  -1.12523  -1.12500  -1.12491
  Beta  occ. eigenvalues --   -0.16898  -0.13140  -0.11908
  Beta virt. eigenvalues --   -0.06492  -0.06188  -0.05863  -0.04704  -0.02607
  Beta virt. eigenvalues --   -0.02065  -0.01909  -0.01619  -0.01241  -0.01122
  Beta virt. eigenvalues --   -0.00522   0.00113   0.00315   0.00636   0.00685

 Mulliken charges and spin densities:
               1          2
     1  Na   0.148154   0.093560
     2  Na   0.307701  -0.008114
     3  Na   0.063645   0.065585
     4  Na  -0.201076   0.583934
     5  Na   0.148633  -0.047479
     6  Na  -0.220251   0.388846
     7  Na  -0.246807  -0.076331
 Sum of Mulliken charges =  -0.00000   1.00000

 Dipole moment (field-independent basis, Debye):
    X=             -0.2246    Y=             -0.7968    Z=              0.0037  Tot=              0.8279
 Quadrupole moment (field-independent basis, Debye-Ang):
   XX=            -52.6454   YY=            -62.3484   ZZ=            -78.0887
   XY=             -0.2458   XZ=             -0.5089   YZ=             -1.4076

 Normal termination of Gaussian 16 at Thu Dec  7 21:06:06 2023.
