 Gaussian 16, Revision B.01,
 Gaussian 16:  ES64L-G16RevB.01 20-Dec-2017

 -------------------------
 #P B3LYP/6-311+g(d) force
 -------------------------

 -----
 DPGEN
 -----
 Symbolic Z-matrix:
 Charge =  0 Multiplicity = 2

                         Standard orientation:
 ---------------------------------------------------------------------
 Center     Atomic      Atomic             Coordinates (Angstroms)
 Number     Number       Type             X           Y           Z
 ---------------------------------------------------------------------
      1         11           0       -1.742101   -3.075322   -0.672082
      2         11           0        4.361832   -0.541131    0.805224
      3         11           0       -3.152904   -0.896697    1.488803
      4         11           0        1.236228   -2.826421   -0.634925
      5         11           0       -0.727360    3.405760   -0.106026
      6         11           0        3.353745    1.981735   -0.331348
      7         11           0       -3.329440    1.952076   -0.549646
 ---------------------------------------------------------------------

 SCF Done:  E(UB3LYP) =  -1136.10733035     A.U. after   19 cycles

 The electronic state is 2-A.
 Alpha  occ. eigenvalues --  -38.45035 -38.44635 -38.44426 -38.44260 -38.44236
 Alpha  occ. eigenvalues --  -38.43879 -38.43873  -2.20838  -2.20458  -2.20244
 Alpha  occ. eigenvalues --   -2.20083  -2.20061  -2.19713  -2.19699  -1.14580
 Alpha  occ. eigenvalues --   -1.14490  -1.14477  -1.14100  -1.14097  -1.14085
 Alpha  occ. eigenvalues --   -1.13965  -1.13909  -1.13894  -1.13782  -1.13731
 Alpha  occ. eigenvalues --   -1.13718  -1.13706  -1.13704  -1.13683  -1.13372
 Alpha  occ. eigenvalues --   -1.13367  -1.13350  -1.13347  -1.13335  -1.13327
 Alpha  occ. eigenvalues --   -0.15833  -0.14122  -0.13319  -0.10571
 Alpha virt. eigenvalues --   -0.07074  -0.05044  -0.04454  -0.03550  -0.03136
 Alpha virt. eigenvalues --   -0.02373  -0.02301  -0.01743  -0.01162  -0.01110
 Alpha virt. eigenvalues --   -0.00163   0.00012   0.00185   0.00400   0.00636

  Beta  occ. eigenvalues --  -38.45025 -38.44615 -38.44430 -38.44175 -38.44174
  Beta  occ. eigenvalues --  -38.43870 -38.43827  -2.20822  -2.20423  -2.20258
  Beta  occ. eigenvalues --   -2.19949  -2.19926  -2.19716  -2.19602  -1.14556
  Beta  occ. eigenvalues --   -1.14482  -1.14461  -1.14076  -1.14070  -1.14057
  Beta  occ. eigenvalues --   -1.13962  -1.13922  -1.13878  -1.13709  -1.13629
  Beta  occ. eigenvalues --   -1.13627  -1.13611  -1.13605  -1.13603  -1.13376
  Beta  occ. eigenvalues --   -1.13371  -1.13302  -1.13286  -1.13269  -1.13260
  Beta  occ. eigenvalues --   -0.15290  -0.13596  -0.12630
  Beta virt. eigenvalues --   -0.07324  -0.07056  -0.04728  -0.04102  -0.03215
  Beta virt. eigenvalues --   -0.02723  -0.02242  -0.01998  -0.01663  -0.00984
  Beta virt. eigenvalues --   -0.00710   0.00035   0.00227   0.00310   0.00466

 Mulliken charges and spin densities:
               1          2
     1  Na   0.150107  -0.006499
     2  Na   0.265239   0.073769
     3  Na  -0.098910   0.428733
     4  Na  -0.154714   0.228325
     5  Na  -0.088245   0.220881
     6  Na  -0.166366   0.048250
     7  Na   0.092890   0.006541
 Sum of Mulliken charges =  -0.00000   1.00000

 Dipole moment (field-independent basis, Debye):
    X=              0.7718    Y=              0.0762    Z=              0.1920  Tot=              0.7990
 Quadrupole moment (field-independent basis, Debye-Ang):
   XX=            -62.3646   YY=            -71.0164   ZZ=            -69.3589
   XY=             -0.3615   XZ=              3.3163   YZ=             -2.1133

 Normal termination of Gaussian 16 at Mon Dec  4 04:32:42 2023.
