 Gaussian 16, Revision B.01,
 Gaussian 16:  ES64L-G16RevB.01 20-Dec-2017

 -------------------------
 #P B3LYP/6-311+g(d) force
 -------------------------

 -----
 DPGEN
 -----
 Symbolic Z-matrix:
 Charge =  0 Multiplicity = 2

                         Standard orientation:
 ---------------------------------------------------------------------
 Center     Atomic      Atomic             Coordinates (Angstroms)
 Number     Number       Type             X           Y           Z
 ---------------------------------------------------------------------
      1         11           0       -0.648604   -3.224924   -0.144375
      2         11           0        0.617962    3.371674   -0.014147
      3         11           0       -2.782367    2.163071    0.553569
      4         11           0       -3.142829   -1.123848   -0.394107
      5         11           0        3.441119    1.135501   -0.449094
      6         11           0        2.506641   -2.232287    0.703799
      7         11           0        0.008079   -0.089187   -0.255646
 ---------------------------------------------------------------------

 SCF Done:  E(UB3LYP) =  -1136.12892790     A.U. after   23 cycles

 The electronic state is 2-A.
 Alpha  occ. eigenvalues --  -38.44566 -38.44065 -38.44045 -38.43763 -38.43681
 Alpha  occ. eigenvalues --  -38.43375 -38.43247  -2.20360  -2.19947  -2.19855
 Alpha  occ. eigenvalues --   -2.19709  -2.19563  -2.19212  -2.19107  -1.14049
 Alpha  occ. eigenvalues --   -1.14041  -1.13981  -1.13663  -1.13616  -1.13586
 Alpha  occ. eigenvalues --   -1.13528  -1.13501  -1.13488  -1.13439  -1.13362
 Alpha  occ. eigenvalues --   -1.13349  -1.13221  -1.13209  -1.13196  -1.12871
 Alpha  occ. eigenvalues --   -1.12854  -1.12843  -1.12762  -1.12748  -1.12737
 Alpha  occ. eigenvalues --   -0.17534  -0.13726  -0.13581  -0.09566
 Alpha virt. eigenvalues --   -0.06662  -0.05632  -0.04312  -0.03311  -0.02708
 Alpha virt. eigenvalues --   -0.02146  -0.01872  -0.01501  -0.01427  -0.00311
 Alpha virt. eigenvalues --    0.00033   0.00311   0.00531   0.00676   0.00722

  Beta  occ. eigenvalues --  -38.44558 -38.44048 -38.44009 -38.43775 -38.43646
  Beta  occ. eigenvalues --  -38.43324 -38.43189  -2.20351  -2.19924  -2.19791
  Beta  occ. eigenvalues --   -2.19728  -2.19503  -2.19116  -2.18998  -1.14049
  Beta  occ. eigenvalues --   -1.14042  -1.13930  -1.13657  -1.13609  -1.13509
  Beta  occ. eigenvalues --   -1.13486  -1.13463  -1.13443  -1.13427  -1.13374
  Beta  occ. eigenvalues --   -1.13371  -1.13183  -1.13177  -1.13130  -1.12805
  Beta  occ. eigenvalues --   -1.12789  -1.12780  -1.12687  -1.12676  -1.12662
  Beta  occ. eigenvalues --   -0.17245  -0.13097  -0.12868
  Beta virt. eigenvalues --   -0.06752  -0.06344  -0.05328  -0.04178  -0.02687
  Beta virt. eigenvalues --   -0.02082  -0.02011  -0.01792  -0.01285  -0.01153
  Beta virt. eigenvalues --   -0.00124   0.00308   0.00509   0.00535   0.00754

 Mulliken charges and spin densities:
               1          2
     1  Na   1.148434   0.093057
     2  Na   0.961829   0.095495
     3  Na   0.412184   0.286519
     4  Na   1.239102   0.182724
     5  Na   0.928373   0.236030
     6  Na   0.607895   0.296393
     7  Na  -5.297817  -0.190218
 Sum of Mulliken charges =  -0.00000   1.00000

 Dipole moment (field-independent basis, Debye):
    X=              0.0860    Y=              0.0292    Z=              0.0148  Tot=              0.0920
 Quadrupole moment (field-independent basis, Debye-Ang):
   XX=            -60.3787   YY=            -63.2290   ZZ=            -72.7488
   XY=              1.4110   XZ=             -0.2038   YZ=              0.3527

 Normal termination of Gaussian 16 at Wed Nov 29 15:56:07 2023.
