 Gaussian 16, Revision B.01,
 Gaussian 16:  ES64L-G16RevB.01 20-Dec-2017

 -------------------------
 #P B3LYP/6-311+g(d) force
 -------------------------

 -----
 DPGEN
 -----
 Symbolic Z-matrix:
 Charge =  0 Multiplicity = 2

                         Standard orientation:
 ---------------------------------------------------------------------
 Center     Atomic      Atomic             Coordinates (Angstroms)
 Number     Number       Type             X           Y           Z
 ---------------------------------------------------------------------
      1         11           0       -2.390780   -2.229665   -1.188336
      2         11           0        1.282735   -2.022366   -1.125671
      3         11           0       -3.036102    0.516929    1.410337
      4         11           0        1.808124    1.928741   -1.057236
      5         11           0       -2.109257    2.355271   -0.818122
      6         11           0        3.825964    0.203761    0.420907
      7         11           0        0.619317   -0.752670    2.358122
 ---------------------------------------------------------------------

 SCF Done:  E(UB3LYP) =  -1136.11536762     A.U. after   23 cycles

 The electronic state is 2-A.
 Alpha  occ. eigenvalues --  -38.45048 -38.44751 -38.44535 -38.44250 -38.44125
 Alpha  occ. eigenvalues --  -38.44074 -38.43804  -2.20878  -2.20538  -2.20355
 Alpha  occ. eigenvalues --   -2.20010  -2.19939  -2.19860  -2.19603  -1.14585
 Alpha  occ. eigenvalues --   -1.14535  -1.14503  -1.14194  -1.14171  -1.14156
 Alpha  occ. eigenvalues --   -1.14061  -1.14008  -1.13985  -1.13683  -1.13651
 Alpha  occ. eigenvalues --   -1.13646  -1.13613  -1.13595  -1.13575  -1.13551
 Alpha  occ. eigenvalues --   -1.13533  -1.13472  -1.13281  -1.13256  -1.13242
 Alpha  occ. eigenvalues --   -0.17130  -0.13862  -0.11582  -0.11134
 Alpha virt. eigenvalues --   -0.06535  -0.05847  -0.05212  -0.03481  -0.02949
 Alpha virt. eigenvalues --   -0.02474  -0.02201  -0.01179  -0.00908  -0.00488
 Alpha virt. eigenvalues --   -0.00152   0.00065   0.00175   0.00288   0.00604

  Beta  occ. eigenvalues --  -38.45049 -38.44655 -38.44520 -38.44216 -38.44108
  Beta  occ. eigenvalues --  -38.44058 -38.43803  -2.20880  -2.20360  -2.20327
  Beta  occ. eigenvalues --   -2.19948  -2.19908  -2.19831  -2.19602  -1.14586
  Beta  occ. eigenvalues --   -1.14528  -1.14500  -1.14074  -1.14052  -1.14045
  Beta  occ. eigenvalues --   -1.14028  -1.13976  -1.13969  -1.13636  -1.13612
  Beta  occ. eigenvalues --   -1.13601  -1.13587  -1.13576  -1.13554  -1.13529
  Beta  occ. eigenvalues --   -1.13508  -1.13446  -1.13277  -1.13252  -1.13242
  Beta  occ. eigenvalues --   -0.16566  -0.13748  -0.11212
  Beta virt. eigenvalues --   -0.07516  -0.06356  -0.05682  -0.04486  -0.03194
  Beta virt. eigenvalues --   -0.02481  -0.02073  -0.01801  -0.01083  -0.00662
  Beta virt. eigenvalues --   -0.00362  -0.00010   0.00191   0.00319   0.00354

 Mulliken charges and spin densities:
               1          2
     1  Na   0.131004   0.013207
     2  Na  -0.398349   0.287450
     3  Na  -0.165965   0.179943
     4  Na  -0.209090  -0.068455
     5  Na  -0.037797   0.050393
     6  Na   0.765061   0.143034
     7  Na  -0.084864   0.394428
 Sum of Mulliken charges =  -0.00000   1.00000

 Dipole moment (field-independent basis, Debye):
    X=              0.7296    Y=             -0.2205    Z=              0.2967  Tot=              0.8179
 Quadrupole moment (field-independent basis, Debye-Ang):
   XX=            -52.2254   YY=            -77.0567   ZZ=            -70.0688
   XY=              0.0128   XZ=              0.7353   YZ=             -0.5108

 Normal termination of Gaussian 16 at Mon Dec  4 02:48:56 2023.
