 Gaussian 16, Revision B.01,
 Gaussian 16:  ES64L-G16RevB.01 20-Dec-2017

 -------------------------
 #P B3LYP/6-311+g(d) force
 -------------------------

 -----
 DPGEN
 -----
 Symbolic Z-matrix:
 Charge =  0 Multiplicity = 2

                         Standard orientation:
 ---------------------------------------------------------------------
 Center     Atomic      Atomic             Coordinates (Angstroms)
 Number     Number       Type             X           Y           Z
 ---------------------------------------------------------------------
      1         11           0        0.150463    2.944188    0.284433
      2         11           0        0.777976   -2.662119    0.058623
      3         11           0        1.772253    0.597732    1.832453
      4         11           0       -0.312709   -1.027125   -1.560968
      5         11           0       -2.868954    1.297780   -0.975824
      6         11           0        2.975106    0.201387   -1.046326
      7         11           0       -2.494134   -1.351843    1.407609
 ---------------------------------------------------------------------

 SCF Done:  E(UB3LYP) =  -1136.11920550     A.U. after   19 cycles

 The electronic state is 2-A.
 Alpha  occ. eigenvalues --  -38.44571 -38.44473 -38.44075 -38.43910 -38.43794
 Alpha  occ. eigenvalues --  -38.43788 -38.43695  -2.20409  -2.20267  -2.20035
 Alpha  occ. eigenvalues --   -2.19872  -2.19672  -2.19582  -2.19504  -1.14289
 Alpha  occ. eigenvalues --   -1.14104  -1.14077  -1.14020  -1.13930  -1.13907
 Alpha  occ. eigenvalues --   -1.13903  -1.13642  -1.13583  -1.13476  -1.13423
 Alpha  occ. eigenvalues --   -1.13370  -1.13326  -1.13302  -1.13298  -1.13253
 Alpha  occ. eigenvalues --   -1.13240  -1.13201  -1.13178  -1.13149  -1.13138
 Alpha  occ. eigenvalues --   -0.18099  -0.13185  -0.12370  -0.10884
 Alpha virt. eigenvalues --   -0.05945  -0.05109  -0.04576  -0.03930  -0.03115
 Alpha virt. eigenvalues --   -0.02573  -0.01521  -0.00775  -0.00580  -0.00010
 Alpha virt. eigenvalues --    0.00035   0.00361   0.00411   0.00668   0.00738

  Beta  occ. eigenvalues --  -38.44553 -38.44430 -38.44070 -38.43866 -38.43786
  Beta  occ. eigenvalues --  -38.43747 -38.43678  -2.20379  -2.20186  -2.20021
  Beta  occ. eigenvalues --   -2.19804  -2.19584  -2.19580  -2.19473  -1.14260
  Beta  occ. eigenvalues --   -1.14078  -1.14050  -1.13996  -1.13871  -1.13854
  Beta  occ. eigenvalues --   -1.13843  -1.13624  -1.13555  -1.13433  -1.13362
  Beta  occ. eigenvalues --   -1.13329  -1.13266  -1.13263  -1.13242  -1.13237
  Beta  occ. eigenvalues --   -1.13231  -1.13181  -1.13147  -1.13131  -1.13118
  Beta  occ. eigenvalues --   -0.17446  -0.12940  -0.12101
  Beta virt. eigenvalues --   -0.07259  -0.05876  -0.04726  -0.04301  -0.03546
  Beta virt. eigenvalues --   -0.02474  -0.01738  -0.01417  -0.00694  -0.00392
  Beta virt. eigenvalues --    0.00042   0.00084   0.00436   0.00510   0.00786

 Mulliken charges and spin densities:
               1          2
     1  Na  -0.238607  -0.051187
     2  Na   0.420560   0.348104
     3  Na  -0.237251   0.465763
     4  Na  -0.272475   0.249095
     5  Na   0.233813  -0.048845
     6  Na   0.310003  -0.130246
     7  Na  -0.216043   0.167316
 Sum of Mulliken charges =  -0.00000   1.00000

 Dipole moment (field-independent basis, Debye):
    X=              0.2306    Y=              0.0506    Z=              0.2079  Tot=              0.3145
 Quadrupole moment (field-independent basis, Debye-Ang):
   XX=            -58.6099   YY=            -68.6718   ZZ=            -69.0747
   XY=             -0.5201   XZ=             -2.8697   YZ=             -3.4721

 Normal termination of Gaussian 16 at Fri Dec  8 03:57:58 2023.
