 Gaussian 16, Revision B.01,
 Gaussian 16:  ES64L-G16RevB.01 20-Dec-2017

 -------------------------
 #P B3LYP/6-311+g(d) force
 -------------------------

 -----
 DPGEN
 -----
 Symbolic Z-matrix:
 Charge =  0 Multiplicity = 2

                         Standard orientation:
 ---------------------------------------------------------------------
 Center     Atomic      Atomic             Coordinates (Angstroms)
 Number     Number       Type             X           Y           Z
 ---------------------------------------------------------------------
      1         11           0        4.239526   -0.452896   -0.654787
      2         11           0       -1.411061    1.460632    0.072471
      3         11           0       -2.578684   -1.883693   -0.062245
      4         11           0       -4.808382    0.601471   -0.012198
      5         11           0        1.662007   -1.138871    1.988225
      6         11           0        2.114228    2.104431    0.297575
      7         11           0        0.782365   -0.691074   -1.629041
 ---------------------------------------------------------------------

 SCF Done:  E(UB3LYP) =  -1136.10875876     A.U. after   32 cycles

 The electronic state is 2-A.
 Alpha  occ. eigenvalues --  -38.46562 -38.45634 -38.44488 -38.44219 -38.43851
 Alpha  occ. eigenvalues --  -38.42615 -38.42540  -2.22306  -2.21472  -2.20325
 Alpha  occ. eigenvalues --   -2.20054  -2.19659  -2.18471  -2.18404  -1.15977
 Alpha  occ. eigenvalues --   -1.15963  -1.15946  -1.15151  -1.15124  -1.15092
 Alpha  occ. eigenvalues --   -1.13996  -1.13963  -1.13932  -1.13696  -1.13695
 Alpha  occ. eigenvalues --   -1.13678  -1.13349  -1.13333  -1.13290  -1.12173
 Alpha  occ. eigenvalues --   -1.12136  -1.12115  -1.12108  -1.12094  -1.11992
 Alpha  occ. eigenvalues --   -0.17822  -0.14682  -0.10912  -0.10305
 Alpha virt. eigenvalues --   -0.08029  -0.05536  -0.04539  -0.03554  -0.02902
 Alpha virt. eigenvalues --   -0.02178  -0.01896  -0.01695  -0.01424  -0.01019
 Alpha virt. eigenvalues --   -0.00471   0.00138   0.00172   0.00541   0.00624

  Beta  occ. eigenvalues --  -38.46562 -38.45595 -38.44420 -38.44140 -38.43848
  Beta  occ. eigenvalues --  -38.42612 -38.42529  -2.22309  -2.21405  -2.20197
  Beta  occ. eigenvalues --   -2.19905  -2.19658  -2.18468  -2.18389  -1.15983
  Beta  occ. eigenvalues --   -1.15956  -1.15940  -1.15090  -1.15076  -1.15042
  Beta  occ. eigenvalues --   -1.13909  -1.13872  -1.13850  -1.13594  -1.13592
  Beta  occ. eigenvalues --   -1.13584  -1.13354  -1.13334  -1.13252  -1.12174
  Beta  occ. eigenvalues --   -1.12139  -1.12108  -1.12075  -1.12070  -1.11975
  Beta  occ. eigenvalues --   -0.17204  -0.13969  -0.10133
  Beta virt. eigenvalues --   -0.07854  -0.07429  -0.05302  -0.03802  -0.03293
  Beta virt. eigenvalues --   -0.02816  -0.02025  -0.01675  -0.01300  -0.00878
  Beta virt. eigenvalues --   -0.00539  -0.00340   0.00185   0.00229   0.00617

 Mulliken charges and spin densities:
               1          2
     1  Na   0.423752   0.363414
     2  Na  -1.018421  -0.023850
     3  Na  -0.084472   0.090161
     4  Na   0.946194   0.323837
     5  Na   0.021129   0.046688
     6  Na  -0.292344   0.096208
     7  Na   0.004162   0.103543
 Sum of Mulliken charges =  -0.00000   1.00000

 Dipole moment (field-independent basis, Debye):
    X=              0.4994    Y=             -0.6623    Z=              0.1829  Tot=              0.8494
 Quadrupole moment (field-independent basis, Debye-Ang):
   XX=            -62.4256   YY=            -82.6842   ZZ=            -58.1543
   XY=              0.4143   XZ=             -0.4490   YZ=              1.1566

 Normal termination of Gaussian 16 at Thu Dec  7 12:10:27 2023.
