 Gaussian 16, Revision B.01,
 Gaussian 16:  ES64L-G16RevB.01 20-Dec-2017

 -------------------------
 #P B3LYP/6-311+g(d) force
 -------------------------

 -----
 DPGEN
 -----
 Symbolic Z-matrix:
 Charge =  0 Multiplicity = 2

                         Standard orientation:
 ---------------------------------------------------------------------
 Center     Atomic      Atomic             Coordinates (Angstroms)
 Number     Number       Type             X           Y           Z
 ---------------------------------------------------------------------
      1         11           0        0.096299   -0.394296   -1.677261
      2         11           0       -2.939058    0.489855   -0.506078
      3         11           0        3.333626   -1.268924   -0.208708
      4         11           0       -0.170609   -0.480734    1.980848
      5         11           0       -0.864955    2.935959    0.206775
      6         11           0        2.159259    1.615236    0.057432
      7         11           0       -1.614562   -2.897097    0.146993
 ---------------------------------------------------------------------

 SCF Done:  E(UB3LYP) =  -1136.13390518     A.U. after   19 cycles

 The electronic state is 2-A.
 Alpha  occ. eigenvalues --  -38.44353 -38.44194 -38.43682 -38.43647 -38.43619
 Alpha  occ. eigenvalues --  -38.43508 -38.42991  -2.20166  -2.20047  -2.19538
 Alpha  occ. eigenvalues --   -2.19524  -2.19502  -2.19418  -2.18843  -1.13855
 Alpha  occ. eigenvalues --   -1.13820  -1.13803  -1.13735  -1.13712  -1.13666
 Alpha  occ. eigenvalues --   -1.13247  -1.13216  -1.13195  -1.13181  -1.13162
 Alpha  occ. eigenvalues --   -1.13155  -1.13149  -1.13137  -1.13114  -1.13086
 Alpha  occ. eigenvalues --   -1.13074  -1.13055  -1.12518  -1.12498  -1.12492
 Alpha  occ. eigenvalues --   -0.18443  -0.13313  -0.12253  -0.10688
 Alpha virt. eigenvalues --   -0.06041  -0.05234  -0.04525  -0.03293  -0.02806
 Alpha virt. eigenvalues --   -0.02503  -0.01852  -0.01242  -0.00537  -0.00181
 Alpha virt. eigenvalues --   -0.00012   0.00317   0.00772   0.00798   0.00855

  Beta  occ. eigenvalues --  -38.44351 -38.44176 -38.43679 -38.43559 -38.43556
  Beta  occ. eigenvalues --  -38.43501 -38.42989  -2.20165  -2.20017  -2.19499
  Beta  occ. eigenvalues --   -2.19428  -2.19408  -2.19356  -2.18842  -1.13857
  Beta  occ. eigenvalues --   -1.13805  -1.13802  -1.13709  -1.13677  -1.13650
  Beta  occ. eigenvalues --   -1.13187  -1.13171  -1.13158  -1.13141  -1.13107
  Beta  occ. eigenvalues --   -1.13086  -1.13074  -1.13065  -1.13057  -1.13036
  Beta  occ. eigenvalues --   -1.13026  -1.13005  -1.12520  -1.12499  -1.12470
  Beta  occ. eigenvalues --   -0.17733  -0.13073  -0.12029
  Beta virt. eigenvalues --   -0.06838  -0.05963  -0.05135  -0.04484  -0.02563
  Beta virt. eigenvalues --   -0.02109  -0.01742  -0.01508  -0.01139  -0.00567
  Beta virt. eigenvalues --   -0.00171   0.00125   0.00358   0.00775   0.00862

 Mulliken charges and spin densities:
               1          2
     1  Na  -0.016938   0.270813
     2  Na   0.249394   0.123078
     3  Na   0.265704  -0.027719
     4  Na  -0.260310   0.563621
     5  Na  -0.175297   0.006191
     6  Na  -0.035221   0.113382
     7  Na  -0.027332  -0.049367
 Sum of Mulliken charges =  -0.00000   1.00000

 Dipole moment (field-independent basis, Debye):
    X=              0.1195    Y=             -0.6289    Z=              0.0064  Tot=              0.6402
 Quadrupole moment (field-independent basis, Debye-Ang):
   XX=            -56.4676   YY=            -62.7670   ZZ=            -74.6202
   XY=             -1.2780   XZ=              0.7472   YZ=              0.6044

 Normal termination of Gaussian 16 at Thu Dec  7 06:54:58 2023.
