 Gaussian 16, Revision B.01,
 Gaussian 16:  ES64L-G16RevB.01 20-Dec-2017

 -------------------------
 #P B3LYP/6-311+g(d) force
 -------------------------

 -----
 DPGEN
 -----
 Symbolic Z-matrix:
 Charge =  0 Multiplicity = 2

                         Standard orientation:
 ---------------------------------------------------------------------
 Center     Atomic      Atomic             Coordinates (Angstroms)
 Number     Number       Type             X           Y           Z
 ---------------------------------------------------------------------
      1         11           0       -2.472634   -2.869965   -0.065771
      2         11           0       -0.371930    3.199250   -0.701904
      3         11           0        2.850950    1.363318    0.063688
      4         11           0       -3.646309    0.434809    0.126410
      5         11           0       -0.647455    1.115453    1.109484
      6         11           0        0.571004   -1.451698   -0.810962
      7         11           0        3.716374   -1.791167    0.279055
 ---------------------------------------------------------------------

 SCF Done:  E(UB3LYP) =  -1136.11931324     A.U. after   21 cycles

 The electronic state is 2-A.
 Alpha  occ. eigenvalues --  -38.44585 -38.44460 -38.44389 -38.44004 -38.43641
 Alpha  occ. eigenvalues --  -38.43358 -38.43321  -2.20430  -2.20425  -2.20248
 Alpha  occ. eigenvalues --   -2.19803  -2.19513  -2.19212  -2.19174  -1.14339
 Alpha  occ. eigenvalues --   -1.14133  -1.14104  -1.14085  -1.14058  -1.14033
 Alpha  occ. eigenvalues --   -1.13884  -1.13844  -1.13811  -1.13475  -1.13464
 Alpha  occ. eigenvalues --   -1.13440  -1.13220  -1.13194  -1.13103  -1.12865
 Alpha  occ. eigenvalues --   -1.12855  -1.12843  -1.12836  -1.12818  -1.12780
 Alpha  occ. eigenvalues --   -0.17720  -0.13936  -0.12871  -0.09601
 Alpha virt. eigenvalues --   -0.06279  -0.05868  -0.04997  -0.02869  -0.02490
 Alpha virt. eigenvalues --   -0.02453  -0.02025  -0.01633  -0.00851  -0.00515
 Alpha virt. eigenvalues --    0.00101   0.00119   0.00434   0.00590   0.00729

  Beta  occ. eigenvalues --  -38.44572 -38.44451 -38.44387 -38.43986 -38.43612
  Beta  occ. eigenvalues --  -38.43308 -38.43246  -2.20417  -2.20407  -2.20247
  Beta  occ. eigenvalues --   -2.19774  -2.19461  -2.19119  -2.19036  -1.14341
  Beta  occ. eigenvalues --   -1.14124  -1.14093  -1.14080  -1.14016  -1.13980
  Beta  occ. eigenvalues --   -1.13885  -1.13830  -1.13803  -1.13458  -1.13427
  Beta  occ. eigenvalues --   -1.13418  -1.13186  -1.13158  -1.13058  -1.12795
  Beta  occ. eigenvalues --   -1.12790  -1.12781  -1.12747  -1.12724  -1.12685
  Beta  occ. eigenvalues --   -0.17323  -0.13265  -0.12459
  Beta virt. eigenvalues --   -0.06248  -0.06123  -0.05776  -0.04710  -0.02378
  Beta virt. eigenvalues --   -0.02215  -0.02141  -0.01743  -0.01316  -0.00666
  Beta virt. eigenvalues --   -0.00401   0.00266   0.00344   0.00566   0.00754

 Mulliken charges and spin densities:
               1          2
     1  Na   0.236490   0.020171
     2  Na  -0.214895   0.038254
     3  Na   0.227438   0.176062
     4  Na   0.048053   0.379326
     5  Na   0.207333  -0.042839
     6  Na  -0.812696   0.097554
     7  Na   0.308278   0.331471
 Sum of Mulliken charges =  -0.00000   1.00000

 Dipole moment (field-independent basis, Debye):
    X=              0.3497    Y=              0.5572    Z=             -0.4567  Tot=              0.8009
 Quadrupole moment (field-independent basis, Debye-Ang):
   XX=            -70.7443   YY=            -62.0879   ZZ=            -68.4989
   XY=              6.2689   XZ=              2.3372   YZ=             -4.3004

 Normal termination of Gaussian 16 at Wed Dec  6 00:34:47 2023.
