 Gaussian 16, Revision B.01,
 Gaussian 16:  ES64L-G16RevB.01 20-Dec-2017

 -------------------------
 #P B3LYP/6-311+g(d) force
 -------------------------

 -----
 DPGEN
 -----
 Symbolic Z-matrix:
 Charge =  0 Multiplicity = 2

                         Standard orientation:
 ---------------------------------------------------------------------
 Center     Atomic      Atomic             Coordinates (Angstroms)
 Number     Number       Type             X           Y           Z
 ---------------------------------------------------------------------
      1         11           0       -1.916301    2.246910    0.387970
      2         11           0        0.178016   -2.744593   -0.138507
      3         11           0        3.113563   -0.483033   -0.024540
      4         11           0        0.047021   -0.631696    1.990700
      5         11           0        0.008698   -0.075118   -1.721578
      6         11           0        1.634792    2.446986   -0.159287
      7         11           0       -3.065788   -0.759456   -0.334759
 ---------------------------------------------------------------------

 SCF Done:  E(UB3LYP) =  -1136.13606319     A.U. after   20 cycles

 The electronic state is 2-A.
 Alpha  occ. eigenvalues --  -38.44185 -38.44149 -38.43635 -38.43470 -38.43320
 Alpha  occ. eigenvalues --  -38.43299 -38.43239  -2.20026  -2.19984  -2.19553
 Alpha  occ. eigenvalues --   -2.19307  -2.19298  -2.19158  -2.19148  -1.13701
 Alpha  occ. eigenvalues --   -1.13695  -1.13663  -1.13661  -1.13649  -1.13619
 Alpha  occ. eigenvalues --   -1.13281  -1.13189  -1.13154  -1.13028  -1.12985
 Alpha  occ. eigenvalues --   -1.12972  -1.12959  -1.12949  -1.12912  -1.12826
 Alpha  occ. eigenvalues --   -1.12821  -1.12807  -1.12795  -1.12784  -1.12746
 Alpha  occ. eigenvalues --   -0.18780  -0.13155  -0.12444  -0.10851
 Alpha virt. eigenvalues --   -0.05822  -0.05026  -0.04550  -0.03251  -0.02975
 Alpha virt. eigenvalues --   -0.02589  -0.01679  -0.00937  -0.00289  -0.00240
 Alpha virt. eigenvalues --   -0.00015   0.00361   0.00831   0.00876   0.00927

  Beta  occ. eigenvalues --  -38.44182 -38.44143 -38.43547 -38.43464 -38.43297
  Beta  occ. eigenvalues --  -38.43248 -38.43228  -2.20023  -2.19975  -2.19391
  Beta  occ. eigenvalues --   -2.19297  -2.19169  -2.19147  -2.19143  -1.13700
  Beta  occ. eigenvalues --   -1.13676  -1.13658  -1.13655  -1.13624  -1.13617
  Beta  occ. eigenvalues --   -1.13181  -1.13076  -1.13039  -1.12970  -1.12957
  Beta  occ. eigenvalues --   -1.12952  -1.12945  -1.12879  -1.12828  -1.12802
  Beta  occ. eigenvalues --   -1.12797  -1.12787  -1.12778  -1.12751  -1.12732
  Beta  occ. eigenvalues --   -0.18048  -0.12932  -0.12186
  Beta virt. eigenvalues --   -0.06935  -0.05793  -0.05010  -0.04476  -0.02487
  Beta virt. eigenvalues --   -0.02192  -0.01597  -0.01531  -0.00871  -0.00347
  Beta virt. eigenvalues --   -0.00260   0.00124   0.00391   0.00872   0.00880

 Mulliken charges and spin densities:
               1          2
     1  Na  -0.080191   0.007472
     2  Na   0.413891  -0.136236
     3  Na   0.193242  -0.068146
     4  Na  -0.507808   0.739978
     5  Na  -0.194015   0.547026
     6  Na  -0.023195  -0.042030
     7  Na   0.198075  -0.048063
 Sum of Mulliken charges =  -0.00000   1.00000

 Dipole moment (field-independent basis, Debye):
    X=              0.0058    Y=             -0.1659    Z=              0.0844  Tot=              0.1862
 Quadrupole moment (field-independent basis, Debye-Ang):
   XX=            -55.5001   YY=            -64.8839   ZZ=            -73.7029
   XY=              0.0205   XZ=              0.1655   YZ=              1.3784

 Normal termination of Gaussian 16 at Thu Dec  7 16:00:40 2023.
