 Gaussian 16, Revision B.01,
 Gaussian 16:  ES64L-G16RevB.01 20-Dec-2017

 -------------------------
 #P B3LYP/6-311+g(d) force
 -------------------------

 -----
 DPGEN
 -----
 Symbolic Z-matrix:
 Charge =  0 Multiplicity = 2

                         Standard orientation:
 ---------------------------------------------------------------------
 Center     Atomic      Atomic             Coordinates (Angstroms)
 Number     Number       Type             X           Y           Z
 ---------------------------------------------------------------------
      1         11           0       -2.655028    2.004867   -0.083268
      2         11           0        1.370758    2.358764    0.333336
      3         11           0       -0.733662   -0.086959    1.964409
      4         11           0       -0.170451    0.079769   -1.611916
      5         11           0        3.801578   -0.153245   -0.705876
      6         11           0        1.627966   -2.259375    0.720202
      7         11           0       -3.241161   -1.943822   -0.616888
 ---------------------------------------------------------------------

 SCF Done:  E(UB3LYP) =  -1136.12536711     A.U. after   24 cycles

 The electronic state is 2-A.
 Alpha  occ. eigenvalues --  -38.44610 -38.44582 -38.44411 -38.44238 -38.43544
 Alpha  occ. eigenvalues --  -38.43507 -38.43328  -2.20406  -2.20380  -2.20278
 Alpha  occ. eigenvalues --   -2.19992  -2.19438  -2.19331  -2.19151  -1.14100
 Alpha  occ. eigenvalues --   -1.14074  -1.14048  -1.14036  -1.14020  -1.14013
 Alpha  occ. eigenvalues --   -1.13987  -1.13923  -1.13891  -1.13666  -1.13646
 Alpha  occ. eigenvalues --   -1.13623  -1.13129  -1.13071  -1.13049  -1.12997
 Alpha  occ. eigenvalues --   -1.12992  -1.12963  -1.12845  -1.12830  -1.12762
 Alpha  occ. eigenvalues --   -0.17966  -0.13467  -0.11388  -0.10760
 Alpha virt. eigenvalues --   -0.06490  -0.05927  -0.04183  -0.03137  -0.02736
 Alpha virt. eigenvalues --   -0.02467  -0.02256  -0.01494  -0.00832  -0.00249
 Alpha virt. eigenvalues --   -0.00039   0.00162   0.00485   0.00603   0.00687

  Beta  occ. eigenvalues --  -38.44605 -38.44565 -38.44377 -38.44220 -38.43487
  Beta  occ. eigenvalues --  -38.43452 -38.43325  -2.20400  -2.20349  -2.20215
  Beta  occ. eigenvalues --   -2.19961  -2.19298  -2.19270  -2.19149  -1.14083
  Beta  occ. eigenvalues --   -1.14072  -1.14024  -1.14017  -1.14011  -1.13991
  Beta  occ. eigenvalues --   -1.13935  -1.13883  -1.13841  -1.13641  -1.13619
  Beta  occ. eigenvalues --   -1.13604  -1.13025  -1.12977  -1.12963  -1.12947
  Beta  occ. eigenvalues --   -1.12940  -1.12908  -1.12846  -1.12812  -1.12755
  Beta  occ. eigenvalues --   -0.17300  -0.13198  -0.11115
  Beta virt. eigenvalues --   -0.07073  -0.06252  -0.05844  -0.03898  -0.02793
  Beta virt. eigenvalues --   -0.02196  -0.02017  -0.01536  -0.01429  -0.00707
  Beta virt. eigenvalues --   -0.00068  -0.00037   0.00218   0.00634   0.00690

 Mulliken charges and spin densities:
               1          2
     1  Na   0.216465  -0.025708
     2  Na  -0.043274  -0.075128
     3  Na   0.135490   0.478672
     4  Na  -0.300645   0.443723
     5  Na   0.142570   0.139320
     6  Na  -0.030543  -0.018078
     7  Na  -0.120064   0.057200
 Sum of Mulliken charges =  -0.00000   1.00000

 Dipole moment (field-independent basis, Debye):
    X=             -0.1927    Y=              0.4047    Z=             -0.1494  Tot=              0.4725
 Quadrupole moment (field-independent basis, Debye-Ang):
   XX=            -51.0332   YY=            -69.7298   ZZ=            -72.7557
   XY=             -1.5034   XZ=             -1.2715   YZ=              0.8079

 Normal termination of Gaussian 16 at Tue Dec  5 22:19:21 2023.
