 Gaussian 16, Revision B.01,
 Gaussian 16:  ES64L-G16RevB.01 20-Dec-2017

 -------------------------
 #P B3LYP/6-311+g(d) force
 -------------------------

 -----
 DPGEN
 -----
 Symbolic Z-matrix:
 Charge =  0 Multiplicity = 2

                         Standard orientation:
 ---------------------------------------------------------------------
 Center     Atomic      Atomic             Coordinates (Angstroms)
 Number     Number       Type             X           Y           Z
 ---------------------------------------------------------------------
      1         11           0       -4.308223   -0.350980    0.804831
      2         11           0        1.484675   -2.134002   -0.715199
      3         11           0       -1.314057   -1.147122   -1.284363
      4         11           0        0.158761   -0.120047    1.934599
      5         11           0        1.606628    1.935587   -0.735623
      6         11           0       -1.808963    1.759102   -0.623355
      7         11           0        4.181180    0.057461    0.619110
 ---------------------------------------------------------------------

 SCF Done:  E(UB3LYP) =  -1136.11383607     A.U. after   27 cycles

 The electronic state is 2-A.
 Alpha  occ. eigenvalues --  -38.47347 -38.44818 -38.44777 -38.43264 -38.43217
 Alpha  occ. eigenvalues --  -38.43091 -38.42443  -2.23107  -2.20613  -2.20580
 Alpha  occ. eigenvalues --   -2.19179  -2.19163  -2.18935  -2.18322  -1.16800
 Alpha  occ. eigenvalues --   -1.16752  -1.16737  -1.14283  -1.14252  -1.14234
 Alpha  occ. eigenvalues --   -1.14231  -1.14223  -1.14187  -1.13001  -1.12863
 Alpha  occ. eigenvalues --   -1.12834  -1.12803  -1.12791  -1.12737  -1.12612
 Alpha  occ. eigenvalues --   -1.12606  -1.12567  -1.12016  -1.11977  -1.11945
 Alpha  occ. eigenvalues --   -0.18240  -0.14133  -0.11088  -0.10937
 Alpha virt. eigenvalues --   -0.07795  -0.05037  -0.04473  -0.03314  -0.03081
 Alpha virt. eigenvalues --   -0.02296  -0.02125  -0.01645  -0.01097  -0.00384
 Alpha virt. eigenvalues --   -0.00188   0.00170   0.00248   0.00652   0.00702

  Beta  occ. eigenvalues --  -38.47348 -38.44773 -38.44695 -38.43242 -38.43186
  Beta  occ. eigenvalues --  -38.43075 -38.42435  -2.23108  -2.20528  -2.20426
  Beta  occ. eigenvalues --   -2.19140  -2.19113  -2.18910  -2.18311  -1.16789
  Beta  occ. eigenvalues --   -1.16759  -1.16739  -1.14225  -1.14196  -1.14177
  Beta  occ. eigenvalues --   -1.14125  -1.14117  -1.14088  -1.12971  -1.12830
  Beta  occ. eigenvalues --   -1.12803  -1.12752  -1.12725  -1.12710  -1.12600
  Beta  occ. eigenvalues --   -1.12588  -1.12522  -1.11992  -1.11974  -1.11934
  Beta  occ. eigenvalues --   -0.17706  -0.13569  -0.10738
  Beta virt. eigenvalues --   -0.07562  -0.07495  -0.04544  -0.04175  -0.03007
  Beta virt. eigenvalues --   -0.02908  -0.01947  -0.01708  -0.01188  -0.00867
  Beta virt. eigenvalues --   -0.00180  -0.00039   0.00253   0.00371   0.00744

 Mulliken charges and spin densities:
               1          2
     1  Na   0.281484   0.490682
     2  Na  -0.193652  -0.006575
     3  Na  -0.053440   0.092261
     4  Na  -0.263555  -0.002855
     5  Na  -0.421560   0.016942
     6  Na   0.108373   0.093737
     7  Na   0.542351   0.315806
 Sum of Mulliken charges =  -0.00000   1.00000

 Dipole moment (field-independent basis, Debye):
    X=              0.1320    Y=             -0.1199    Z=              1.1620  Tot=              1.1756
 Quadrupole moment (field-independent basis, Debye-Ang):
   XX=            -54.9571   YY=            -81.6382   ZZ=            -63.1069
   XY=             -0.8811   XZ=             -0.2243   YZ=             -2.0819

 Normal termination of Gaussian 16 at Thu Dec  7 04:36:52 2023.
