 Gaussian 16, Revision B.01,
 Gaussian 16:  ES64L-G16RevB.01 20-Dec-2017

 -------------------------
 #P B3LYP/6-311+g(d) force
 -------------------------

 -----
 DPGEN
 -----
 Symbolic Z-matrix:
 Charge =  0 Multiplicity = 2

                         Standard orientation:
 ---------------------------------------------------------------------
 Center     Atomic      Atomic             Coordinates (Angstroms)
 Number     Number       Type             X           Y           Z
 ---------------------------------------------------------------------
      1         11           0        0.280258   -0.371703    2.103623
      2         11           0        0.044815    2.395998   -0.002424
      3         11           0       -2.488878   -1.856398    0.416090
      4         11           0        1.916668   -2.003038   -0.465332
      5         11           0       -3.247971    1.275154   -0.180417
      6         11           0        3.608053    0.919247    0.145302
      7         11           0       -0.112945   -0.359261   -2.016842
 ---------------------------------------------------------------------

 SCF Done:  E(UB3LYP) =  -1136.12465000     A.U. after   23 cycles

 The electronic state is 2-A.
 Alpha  occ. eigenvalues --  -38.45277 -38.44464 -38.44363 -38.44122 -38.43851
 Alpha  occ. eigenvalues --  -38.43413 -38.42710  -2.21040  -2.20273  -2.20222
 Alpha  occ. eigenvalues --   -2.20026  -2.19672  -2.19294  -2.18555  -1.14712
 Alpha  occ. eigenvalues --   -1.14705  -1.14673  -1.13947  -1.13938  -1.13915
 Alpha  occ. eigenvalues --   -1.13895  -1.13863  -1.13829  -1.13725  -1.13667
 Alpha  occ. eigenvalues --   -1.13632  -1.13343  -1.13336  -1.13309  -1.12997
 Alpha  occ. eigenvalues --   -1.12947  -1.12904  -1.12260  -1.12245  -1.12157
 Alpha  occ. eigenvalues --   -0.18308  -0.13539  -0.11387  -0.11219
 Alpha virt. eigenvalues --   -0.06900  -0.05317  -0.03803  -0.03276  -0.03068
 Alpha virt. eigenvalues --   -0.02703  -0.02420  -0.01339  -0.00323  -0.00180
 Alpha virt. eigenvalues --    0.00052   0.00231   0.00426   0.00660   0.00795

  Beta  occ. eigenvalues --  -38.45279 -38.44465 -38.44278 -38.44035 -38.43844
  Beta  occ. eigenvalues --  -38.43397 -38.42703  -2.21045  -2.20277  -2.20064
  Beta  occ. eigenvalues --   -2.19867  -2.19662  -2.19271  -2.18546  -1.14712
  Beta  occ. eigenvalues --   -1.14704  -1.14676  -1.13952  -1.13932  -1.13916
  Beta  occ. eigenvalues --   -1.13790  -1.13755  -1.13711  -1.13620  -1.13548
  Beta  occ. eigenvalues --   -1.13523  -1.13334  -1.13313  -1.13304  -1.12969
  Beta  occ. eigenvalues --   -1.12908  -1.12894  -1.12257  -1.12214  -1.12152
  Beta  occ. eigenvalues --   -0.17548  -0.13389  -0.11111
  Beta virt. eigenvalues --   -0.07296  -0.06770  -0.05323  -0.03404  -0.02930
  Beta virt. eigenvalues --   -0.02340  -0.01994  -0.01917  -0.01281  -0.00320
  Beta virt. eigenvalues --   -0.00046   0.00038   0.00250   0.00652   0.00743

 Mulliken charges and spin densities:
               1          2
     1  Na  -0.262684   0.673950
     2  Na  -0.152115  -0.030711
     3  Na   0.178656  -0.015614
     4  Na   0.276944  -0.027576
     5  Na   0.019871  -0.071452
     6  Na   0.020119  -0.066188
     7  Na  -0.080791   0.537590
 Sum of Mulliken charges =  -0.00000   1.00000

 Dipole moment (field-independent basis, Debye):
    X=              0.3312    Y=              0.0143    Z=              0.1301  Tot=              0.3561
 Quadrupole moment (field-independent basis, Debye-Ang):
   XX=            -47.7999   YY=            -74.2613   ZZ=            -71.8124
   XY=              0.7870   XZ=              0.3679   YZ=             -0.4408

 Normal termination of Gaussian 16 at Tue Dec  5 18:31:02 2023.
