 Gaussian 16, Revision B.01,
 Gaussian 16:  ES64L-G16RevB.01 20-Dec-2017

 -------------------------
 #P B3LYP/6-311+g(d) force
 -------------------------

 -----
 DPGEN
 -----
 Symbolic Z-matrix:
 Charge =  0 Multiplicity = 2

                         Standard orientation:
 ---------------------------------------------------------------------
 Center     Atomic      Atomic             Coordinates (Angstroms)
 Number     Number       Type             X           Y           Z
 ---------------------------------------------------------------------
      1         11           0        2.160776    1.322488    0.681356
      2         11           0       -3.700100   -1.352562   -0.492005
      3         11           0        0.506611   -1.634023    1.232802
      4         11           0       -2.056650    0.769915    1.268898
      5         11           0        0.056712   -0.687355   -1.473518
      6         11           0       -0.531904    2.697319   -0.760641
      7         11           0        3.564554   -1.115781   -0.456892
 ---------------------------------------------------------------------

 SCF Done:  E(UB3LYP) =  -1136.11979745     A.U. after   25 cycles

 The electronic state is 2-A.
 Alpha  occ. eigenvalues --  -38.44816 -38.44801 -38.44101 -38.44040 -38.43885
 Alpha  occ. eigenvalues --  -38.43624 -38.42383  -2.20653  -2.20595  -2.20039
 Alpha  occ. eigenvalues --   -2.19963  -2.19803  -2.19536  -2.18260  -1.14374
 Alpha  occ. eigenvalues --   -1.14295  -1.14289  -1.14273  -1.14249  -1.14220
 Alpha  occ. eigenvalues --   -1.13943  -1.13676  -1.13622  -1.13610  -1.13579
 Alpha  occ. eigenvalues --   -1.13526  -1.13470  -1.13468  -1.13431  -1.13212
 Alpha  occ. eigenvalues --   -1.13207  -1.13161  -1.11932  -1.11920  -1.11895
 Alpha  occ. eigenvalues --   -0.18754  -0.13961  -0.11603  -0.10387
 Alpha virt. eigenvalues --   -0.07166  -0.05263  -0.03995  -0.03356  -0.02785
 Alpha virt. eigenvalues --   -0.02390  -0.01970  -0.01421  -0.00425  -0.00174
 Alpha virt. eigenvalues --    0.00135   0.00203   0.00441   0.00677   0.00765

  Beta  occ. eigenvalues --  -38.44813 -38.44795 -38.44044 -38.43988 -38.43872
  Beta  occ. eigenvalues --  -38.43596 -38.42374  -2.20644  -2.20591  -2.19937
  Beta  occ. eigenvalues --   -2.19872  -2.19782  -2.19487  -2.18244  -1.14370
  Beta  occ. eigenvalues --   -1.14287  -1.14272  -1.14268  -1.14239  -1.14217
  Beta  occ. eigenvalues --   -1.13869  -1.13603  -1.13553  -1.13537  -1.13495
  Beta  occ. eigenvalues --   -1.13464  -1.13449  -1.13439  -1.13404  -1.13178
  Beta  occ. eigenvalues --   -1.13152  -1.13130  -1.11924  -1.11904  -1.11874
  Beta  occ. eigenvalues --   -0.18016  -0.13790  -0.11427
  Beta virt. eigenvalues --   -0.07047  -0.06526  -0.05131  -0.03708  -0.02952
  Beta virt. eigenvalues --   -0.02634  -0.01851  -0.01319  -0.01006  -0.00283
  Beta virt. eigenvalues --   -0.00074   0.00154   0.00260   0.00591   0.00718

 Mulliken charges and spin densities:
               1          2
     1  Na  -0.459944   0.162313
     2  Na  -0.107509  -0.117156
     3  Na  -0.183532   0.254614
     4  Na   0.261390   0.218095
     5  Na  -0.695601   0.661562
     6  Na   0.224636  -0.147145
     7  Na   0.960561  -0.032284
 Sum of Mulliken charges =  -0.00000   1.00000

 Dipole moment (field-independent basis, Debye):
    X=              0.3850    Y=             -0.5503    Z=             -0.0671  Tot=              0.6750
 Quadrupole moment (field-independent basis, Debye-Ang):
   XX=            -46.2494   YY=            -71.6666   ZZ=            -73.5749
   XY=             -0.5329   XZ=              0.1254   YZ=              1.0737

 Normal termination of Gaussian 16 at Thu Dec  7 11:06:26 2023.
