 Gaussian 16, Revision B.01,
 Gaussian 16:  ES64L-G16RevB.01 20-Dec-2017

 -------------------------
 #P B3LYP/6-311+g(d) force
 -------------------------

 -----
 DPGEN
 -----
 Symbolic Z-matrix:
 Charge =  0 Multiplicity = 2

                         Standard orientation:
 ---------------------------------------------------------------------
 Center     Atomic      Atomic             Coordinates (Angstroms)
 Number     Number       Type             X           Y           Z
 ---------------------------------------------------------------------
      1         11           0       -0.591392   -1.079455   -1.458403
      2         11           0        2.440310   -1.642348   -0.997290
      3         11           0       -0.356610   -0.182819    1.499245
      4         11           0        0.141974    2.412682   -0.072358
      5         11           0       -2.422503   -2.075355    0.985094
      6         11           0       -2.589765    1.799358   -0.729732
      7         11           0        3.377987    0.767937    0.773445
 ---------------------------------------------------------------------

 SCF Done:  E(UB3LYP) =  -1136.11868505     A.U. after   20 cycles

 The electronic state is 2-A.
 Alpha  occ. eigenvalues --  -38.44372 -38.44074 -38.44019 -38.43858 -38.43773
 Alpha  occ. eigenvalues --  -38.43441 -38.43162  -2.20194  -2.19963  -2.19901
 Alpha  occ. eigenvalues --   -2.19889  -2.19678  -2.19425  -2.19096  -1.13889
 Alpha  occ. eigenvalues --   -1.13854  -1.13827  -1.13728  -1.13711  -1.13624
 Alpha  occ. eigenvalues --   -1.13605  -1.13595  -1.13572  -1.13521  -1.13509
 Alpha  occ. eigenvalues --   -1.13496  -1.13316  -1.13283  -1.13272  -1.13114
 Alpha  occ. eigenvalues --   -1.13049  -1.13024  -1.12792  -1.12739  -1.12712
 Alpha  occ. eigenvalues --   -0.18864  -0.13673  -0.12369  -0.11076
 Alpha virt. eigenvalues --   -0.06169  -0.05158  -0.04290  -0.03422  -0.02910
 Alpha virt. eigenvalues --   -0.02286  -0.01907  -0.01220  -0.00428   0.00094
 Alpha virt. eigenvalues --    0.00116   0.00244   0.00617   0.00767   0.00812

  Beta  occ. eigenvalues --  -38.44361 -38.44055 -38.43985 -38.43801 -38.43743
  Beta  occ. eigenvalues --  -38.43388 -38.43157  -2.20174  -2.19929  -2.19830
  Beta  occ. eigenvalues --   -2.19798  -2.19625  -2.19330  -2.19093  -1.13876
  Beta  occ. eigenvalues --   -1.13839  -1.13806  -1.13692  -1.13655  -1.13571
  Beta  occ. eigenvalues --   -1.13560  -1.13545  -1.13529  -1.13482  -1.13467
  Beta  occ. eigenvalues --   -1.13435  -1.13274  -1.13247  -1.13219  -1.13053
  Beta  occ. eigenvalues --   -1.12969  -1.12955  -1.12791  -1.12720  -1.12698
  Beta  occ. eigenvalues --   -0.18240  -0.13424  -0.12009
  Beta virt. eigenvalues --   -0.07298  -0.06011  -0.04874  -0.04031  -0.03052
  Beta virt. eigenvalues --   -0.02329  -0.01789  -0.01390  -0.01067  -0.00153
  Beta virt. eigenvalues --    0.00111   0.00175   0.00322   0.00756   0.00839

 Mulliken charges and spin densities:
               1          2
     1  Na   0.399367   0.396734
     2  Na  -0.544390   0.087498
     3  Na  -0.214054   0.398344
     4  Na  -0.249049  -0.010366
     5  Na   0.015753   0.043156
     6  Na   0.006054   0.064373
     7  Na   0.586319   0.020262
 Sum of Mulliken charges =  -0.00000   1.00000

 Dipole moment (field-independent basis, Debye):
    X=             -0.0459    Y=              0.0005    Z=             -0.0253  Tot=              0.0524
 Quadrupole moment (field-independent basis, Debye-Ang):
   XX=            -51.9750   YY=            -70.2987   ZZ=            -72.2642
   XY=              1.1536   XZ=              1.9273   YZ=              0.1840

 Normal termination of Gaussian 16 at Tue Nov 28 22:33:57 2023.
