 Gaussian 16, Revision B.01,
 Gaussian 16:  ES64L-G16RevB.01 20-Dec-2017

 -------------------------
 #P B3LYP/6-311+g(d) force
 -------------------------

 -----
 DPGEN
 -----
 Symbolic Z-matrix:
 Charge =  0 Multiplicity = 2

                         Standard orientation:
 ---------------------------------------------------------------------
 Center     Atomic      Atomic             Coordinates (Angstroms)
 Number     Number       Type             X           Y           Z
 ---------------------------------------------------------------------
      1         11           0       -2.867985   -1.351583    0.214596
      2         11           0       -0.090228    0.012977    2.082596
      3         11           0        0.616198   -2.789219   -0.257084
      4         11           0       -2.258741    1.900821   -0.617906
      5         11           0        3.084267   -0.635059   -0.162288
      6         11           0        1.395828    2.941086    0.171470
      7         11           0        0.120661   -0.079023   -1.431385
 ---------------------------------------------------------------------

 SCF Done:  E(UB3LYP) =  -1136.13547543     A.U. after   19 cycles

 The electronic state is 2-A.
 Alpha  occ. eigenvalues --  -38.44049 -38.43756 -38.43755 -38.43693 -38.43618
 Alpha  occ. eigenvalues --  -38.43422 -38.43032  -2.19893  -2.19604  -2.19586
 Alpha  occ. eigenvalues --   -2.19495  -2.19476  -2.19321  -2.19069  -1.13586
 Alpha  occ. eigenvalues --   -1.13557  -1.13522  -1.13320  -1.13278  -1.13255
 Alpha  occ. eigenvalues --   -1.13241  -1.13239  -1.13196  -1.13170  -1.13153
 Alpha  occ. eigenvalues --   -1.13135  -1.13123  -1.13119  -1.13098  -1.13095
 Alpha  occ. eigenvalues --   -1.12967  -1.12927  -1.12744  -1.12698  -1.12676
 Alpha  occ. eigenvalues --   -0.18602  -0.13056  -0.12362  -0.10660
 Alpha virt. eigenvalues --   -0.05519  -0.05292  -0.04784  -0.03101  -0.02815
 Alpha virt. eigenvalues --   -0.02486  -0.01549  -0.01270  -0.00444  -0.00343
 Alpha virt. eigenvalues --    0.00004   0.00337   0.00791   0.00846   0.00882

  Beta  occ. eigenvalues --  -38.44045 -38.43752 -38.43736 -38.43693 -38.43519
  Beta  occ. eigenvalues --  -38.43414 -38.42979  -2.19889  -2.19582  -2.19571
  Beta  occ. eigenvalues --   -2.19478  -2.19314  -2.19308  -2.18976  -1.13579
  Beta  occ. eigenvalues --   -1.13549  -1.13513  -1.13296  -1.13260  -1.13239
  Beta  occ. eigenvalues --   -1.13226  -1.13214  -1.13182  -1.13141  -1.13134
  Beta  occ. eigenvalues --   -1.13122  -1.13083  -1.13044  -1.12997  -1.12966
  Beta  occ. eigenvalues --   -1.12948  -1.12911  -1.12673  -1.12629  -1.12613
  Beta  occ. eigenvalues --   -0.17894  -0.12783  -0.12145
  Beta virt. eigenvalues --   -0.06756  -0.05496  -0.05227  -0.04745  -0.02354
  Beta virt. eigenvalues --   -0.02094  -0.01462  -0.01423  -0.01178  -0.00450
  Beta virt. eigenvalues --   -0.00390   0.00141   0.00372   0.00839   0.00849

 Mulliken charges and spin densities:
               1          2
     1  Na   0.210873   0.043061
     2  Na  -0.512663   0.798450
     3  Na   0.355678   0.032377
     4  Na   0.132641   0.026642
     5  Na   0.141040  -0.024763
     6  Na  -0.022712  -0.031948
     7  Na  -0.304857   0.156181
 Sum of Mulliken charges =  -0.00000   1.00000

 Dipole moment (field-independent basis, Debye):
    X=              0.1109    Y=              0.0188    Z=              0.2352  Tot=              0.2607
 Quadrupole moment (field-independent basis, Debye-Ang):
   XX=            -56.2257   YY=            -61.1797   ZZ=            -75.1475
   XY=              0.8201   XZ=              0.4266   YZ=             -0.3500

 Normal termination of Gaussian 16 at Thu Dec  7 19:10:47 2023.
