 Gaussian 16, Revision B.01,
 Gaussian 16:  ES64L-G16RevB.01 20-Dec-2017

 -------------------------
 #P B3LYP/6-311+g(d) force
 -------------------------

 -----
 DPGEN
 -----
 Symbolic Z-matrix:
 Charge =  0 Multiplicity = 2

                         Standard orientation:
 ---------------------------------------------------------------------
 Center     Atomic      Atomic             Coordinates (Angstroms)
 Number     Number       Type             X           Y           Z
 ---------------------------------------------------------------------
      1         11           0        1.466699    1.978300   -0.101885
      2         11           0       -1.967049   -2.544409   -0.642310
      3         11           0        2.506328   -1.876648    0.472948
      4         11           0       -3.648673    0.079582   -1.184229
      5         11           0       -0.487285   -0.639311    2.127292
      6         11           0       -1.790079    2.625879    0.516642
      7         11           0        3.920058    0.376607   -1.188457
 ---------------------------------------------------------------------

 SCF Done:  E(UB3LYP) =  -1136.12132242     A.U. after   21 cycles

 The electronic state is 2-A.
 Alpha  occ. eigenvalues --  -38.44598 -38.44571 -38.44569 -38.44197 -38.43949
 Alpha  occ. eigenvalues --  -38.43912 -38.43173  -2.20419  -2.20397  -2.20378
 Alpha  occ. eigenvalues --   -2.20072  -2.19749  -2.19745  -2.18983  -1.14094
 Alpha  occ. eigenvalues --   -1.14070  -1.14067  -1.14058  -1.14045  -1.14045
 Alpha  occ. eigenvalues --   -1.14035  -1.14018  -1.14017  -1.13758  -1.13701
 Alpha  occ. eigenvalues --   -1.13694  -1.13434  -1.13424  -1.13423  -1.13412
 Alpha  occ. eigenvalues --   -1.13383  -1.13372  -1.12654  -1.12641  -1.12636
 Alpha  occ. eigenvalues --   -0.17172  -0.14279  -0.11857  -0.11316
 Alpha virt. eigenvalues --   -0.06423  -0.05243  -0.04632  -0.03742  -0.03274
 Alpha virt. eigenvalues --   -0.02300  -0.01891  -0.01329  -0.00650  -0.00482
 Alpha virt. eigenvalues --   -0.00424   0.00108   0.00354   0.00477   0.00669

  Beta  occ. eigenvalues --  -38.44560 -38.44513 -38.44507 -38.44152 -38.43947
  Beta  occ. eigenvalues --  -38.43905 -38.43171  -2.20366  -2.20279  -2.20262
  Beta  occ. eigenvalues --   -2.19988  -2.19745  -2.19739  -2.18982  -1.14053
  Beta  occ. eigenvalues --   -1.14045  -1.14011  -1.13986  -1.13971  -1.13967
  Beta  occ. eigenvalues --   -1.13956  -1.13935  -1.13908  -1.13702  -1.13644
  Beta  occ. eigenvalues --   -1.13642  -1.13430  -1.13423  -1.13417  -1.13404
  Beta  occ. eigenvalues --   -1.13356  -1.13351  -1.12655  -1.12639  -1.12625
  Beta  occ. eigenvalues --   -0.16523  -0.13671  -0.11637
  Beta virt. eigenvalues --   -0.07795  -0.06308  -0.04869  -0.04096  -0.03604
  Beta virt. eigenvalues --   -0.02603  -0.01778  -0.01734  -0.01229  -0.00546
  Beta virt. eigenvalues --   -0.00372  -0.00171   0.00372   0.00443   0.00584

 Mulliken charges and spin densities:
               1          2
     1  Na  -0.713590   0.011868
     2  Na   0.037446   0.036132
     3  Na  -0.158246  -0.026790
     4  Na   0.034438   0.228947
     5  Na  -0.195712   0.487532
     6  Na   0.028519   0.041474
     7  Na   0.967145   0.220838
 Sum of Mulliken charges =  -0.00000   1.00000

 Dipole moment (field-independent basis, Debye):
    X=              0.4460    Y=             -0.4003    Z=             -0.1585  Tot=              0.6199
 Quadrupole moment (field-independent basis, Debye-Ang):
   XX=            -60.0943   YY=            -70.6620   ZZ=            -68.3161
   XY=             -4.0742   XZ=             -1.7848   YZ=             -0.3463

 Normal termination of Gaussian 16 at Sun Dec  3 18:42:00 2023.
