 Gaussian 16, Revision B.01,
 Gaussian 16:  ES64L-G16RevB.01 20-Dec-2017

 -------------------------
 #P B3LYP/6-311+g(d) force
 -------------------------

 -----
 DPGEN
 -----
 Symbolic Z-matrix:
 Charge =  0 Multiplicity = 2

                         Standard orientation:
 ---------------------------------------------------------------------
 Center     Atomic      Atomic             Coordinates (Angstroms)
 Number     Number       Type             X           Y           Z
 ---------------------------------------------------------------------
      1         11           0        3.169109   -2.307283    0.599590
      2         11           0        0.141661   -1.972442   -1.247295
      3         11           0       -2.273658    0.920552    0.029501
      4         11           0       -4.424981   -1.169326   -0.210144
      5         11           0        0.311467   -0.278078    1.911840
      6         11           0        2.627380    1.119458   -1.237284
      7         11           0        0.449021    3.687118    0.153792
 ---------------------------------------------------------------------

 SCF Done:  E(UB3LYP) =  -1136.11872275     A.U. after   22 cycles

 The electronic state is 2-A.
 Alpha  occ. eigenvalues --  -38.45488 -38.44885 -38.44366 -38.44139 -38.43960
 Alpha  occ. eigenvalues --  -38.43479 -38.43426  -2.21260  -2.20661  -2.20170
 Alpha  occ. eigenvalues --   -2.19929  -2.19810  -2.19351  -2.19183  -1.14959
 Alpha  occ. eigenvalues --   -1.14942  -1.14854  -1.14339  -1.14323  -1.14291
 Alpha  occ. eigenvalues --   -1.13878  -1.13813  -1.13795  -1.13615  -1.13584
 Alpha  occ. eigenvalues --   -1.13529  -1.13494  -1.13443  -1.13408  -1.13040
 Alpha  occ. eigenvalues --   -1.13027  -1.12967  -1.12865  -1.12845  -1.12824
 Alpha  occ. eigenvalues --   -0.17327  -0.13413  -0.11990  -0.10333
 Alpha virt. eigenvalues --   -0.06975  -0.05623  -0.04767  -0.03234  -0.02876
 Alpha virt. eigenvalues --   -0.02446  -0.02185  -0.01626  -0.00994  -0.00496
 Alpha virt. eigenvalues --   -0.00245   0.00029   0.00307   0.00506   0.00577

  Beta  occ. eigenvalues --  -38.45474 -38.44883 -38.44350 -38.44081 -38.43863
  Beta  occ. eigenvalues --  -38.43472 -38.43436  -2.21237  -2.20661  -2.20141
  Beta  occ. eigenvalues --   -2.19822  -2.19632  -2.19342  -2.19202  -1.14945
  Beta  occ. eigenvalues --   -1.14906  -1.14841  -1.14342  -1.14301  -1.14293
  Beta  occ. eigenvalues --   -1.13860  -1.13791  -1.13775  -1.13540  -1.13511
  Beta  occ. eigenvalues --   -1.13453  -1.13375  -1.13324  -1.13279  -1.13032
  Beta  occ. eigenvalues --   -1.13012  -1.12953  -1.12879  -1.12848  -1.12837
  Beta  occ. eigenvalues --   -0.16678  -0.13133  -0.11823
  Beta virt. eigenvalues --   -0.06826  -0.06678  -0.05374  -0.04540  -0.02797
  Beta virt. eigenvalues --   -0.02541  -0.02087  -0.01529  -0.01487  -0.00904
  Beta virt. eigenvalues --   -0.00263  -0.00116   0.00139   0.00453   0.00594

 Mulliken charges and spin densities:
               1          2
     1  Na   0.379840  -0.004744
     2  Na  -0.068705   0.271182
     3  Na  -1.304985   0.033388
     4  Na   0.612167   0.054639
     5  Na  -0.007650   0.383000
     6  Na  -0.313429   0.260415
     7  Na   0.702763   0.002118
 Sum of Mulliken charges =  -0.00000   1.00000

 Dipole moment (field-independent basis, Debye):
    X=              0.5169    Y=             -1.3756    Z=              0.2261  Tot=              1.4868
 Quadrupole moment (field-independent basis, Debye-Ang):
   XX=            -56.5597   YY=            -64.6384   ZZ=            -73.9128
   XY=             -2.8179   XZ=              2.3825   YZ=              1.3067

 Normal termination of Gaussian 16 at Sun Dec  3 12:43:04 2023.
