 Gaussian 16, Revision B.01,
 Gaussian 16:  ES64L-G16RevB.01 20-Dec-2017

 -------------------------
 #P B3LYP/6-311+g(d) force
 -------------------------

 -----
 DPGEN
 -----
 Symbolic Z-matrix:
 Charge =  0 Multiplicity = 2

                         Standard orientation:
 ---------------------------------------------------------------------
 Center     Atomic      Atomic             Coordinates (Angstroms)
 Number     Number       Type             X           Y           Z
 ---------------------------------------------------------------------
      1         11           0       -4.283209    0.467144    0.185149
      2         11           0       -2.094240    3.324895    0.102961
      3         11           0       -2.900180   -2.617859   -0.493770
      4         11           0        3.183596   -2.098469    0.720098
      5         11           0        0.094926   -3.009606   -0.043982
      6         11           0        1.033955    2.847550    0.095596
      7         11           0        4.965151    1.086346   -0.566052
 ---------------------------------------------------------------------

 SCF Done:  E(UB3LYP) =  -1136.10635983     A.U. after   22 cycles

 The electronic state is 2-A.
 Alpha  occ. eigenvalues --  -38.45379 -38.45202 -38.45031 -38.44551 -38.44477
 Alpha  occ. eigenvalues --  -38.43969 -38.43828  -2.21148  -2.20960  -2.20813
 Alpha  occ. eigenvalues --   -2.20361  -2.20250  -2.19779  -2.19668  -1.14819
 Alpha  occ. eigenvalues --   -1.14815  -1.14777  -1.14643  -1.14642  -1.14591
 Alpha  occ. eigenvalues --   -1.14479  -1.14464  -1.14443  -1.14073  -1.14025
 Alpha  occ. eigenvalues --   -1.14006  -1.13900  -1.13890  -1.13863  -1.13451
 Alpha  occ. eigenvalues --   -1.13438  -1.13421  -1.13320  -1.13315  -1.13311
 Alpha  occ. eigenvalues --   -0.15695  -0.13826  -0.13567  -0.11010
 Alpha virt. eigenvalues --   -0.07764  -0.05135  -0.04099  -0.03697  -0.03488
 Alpha virt. eigenvalues --   -0.02435  -0.02331  -0.01841  -0.01342  -0.00794
 Alpha virt. eigenvalues --   -0.00670  -0.00221   0.00002   0.00456   0.00527

  Beta  occ. eigenvalues --  -38.45342 -38.45198 -38.44984 -38.44563 -38.44385
  Beta  occ. eigenvalues --  -38.43954 -38.43794  -2.21086  -2.20958  -2.20727
  Beta  occ. eigenvalues --   -2.20385  -2.20079  -2.19755  -2.19605  -1.14781
  Beta  occ. eigenvalues --   -1.14774  -1.14710  -1.14646  -1.14638  -1.14559
  Beta  occ. eigenvalues --   -1.14421  -1.14407  -1.14381  -1.14085  -1.14045
  Beta  occ. eigenvalues --   -1.14006  -1.13783  -1.13773  -1.13751  -1.13426
  Beta  occ. eigenvalues --   -1.13425  -1.13396  -1.13286  -1.13271  -1.13267
  Beta  occ. eigenvalues --   -0.15285  -0.13178  -0.12848
  Beta virt. eigenvalues --   -0.07933  -0.07629  -0.04596  -0.03775  -0.03521
  Beta virt. eigenvalues --   -0.03092  -0.02183  -0.02134  -0.01676  -0.01207
  Beta virt. eigenvalues --   -0.00509  -0.00292  -0.00086   0.00255   0.00490

 Mulliken charges and spin densities:
               1          2
     1  Na  -0.145025   0.231349
     2  Na   0.286802  -0.069164
     3  Na   0.503504   0.228831
     4  Na  -0.016471  -0.161052
     5  Na  -0.332808   0.016734
     6  Na  -0.537917   0.290847
     7  Na   0.241915   0.462455
 Sum of Mulliken charges =  -0.00000   1.00000

 Dipole moment (field-independent basis, Debye):
    X=             -0.4000    Y=              0.2312    Z=              0.0937  Tot=              0.4714
 Quadrupole moment (field-independent basis, Debye-Ang):
   XX=            -60.2985   YY=            -67.3906   ZZ=            -73.0365
   XY=             -1.9161   XZ=              0.4341   YZ=             -0.5120

 Normal termination of Gaussian 16 at Sun Dec  3 18:51:17 2023.
