 Gaussian 16, Revision B.01,
 Gaussian 16:  ES64L-G16RevB.01 20-Dec-2017

 -------------------------
 #P B3LYP/6-311+g(d) force
 -------------------------

 -----
 DPGEN
 -----
 Symbolic Z-matrix:
 Charge =  0 Multiplicity = 2

                         Standard orientation:
 ---------------------------------------------------------------------
 Center     Atomic      Atomic             Coordinates (Angstroms)
 Number     Number       Type             X           Y           Z
 ---------------------------------------------------------------------
      1         11           0        3.394079   -0.510097    0.642788
      2         11           0       -0.927356    2.845683    0.441389
      3         11           0        1.626598    0.761249   -1.518322
      4         11           0        0.202698    0.133071    2.065793
      5         11           0       -2.936548   -1.666951    0.631485
      6         11           0       -1.733925    0.571421   -1.413619
      7         11           0        0.374455   -2.134376   -0.849514
 ---------------------------------------------------------------------

 SCF Done:  E(UB3LYP) =  -1136.13076802     A.U. after   20 cycles

 The electronic state is 2-A.
 Alpha  occ. eigenvalues --  -38.44338 -38.44259 -38.43756 -38.43725 -38.43528
 Alpha  occ. eigenvalues --  -38.43398 -38.42749  -2.20214  -2.20106  -2.19702
 Alpha  occ. eigenvalues --   -2.19539  -2.19408  -2.19363  -2.18617  -1.13878
 Alpha  occ. eigenvalues --   -1.13855  -1.13840  -1.13820  -1.13750  -1.13733
 Alpha  occ. eigenvalues --   -1.13425  -1.13342  -1.13299  -1.13235  -1.13195
 Alpha  occ. eigenvalues --   -1.13173  -1.13126  -1.13080  -1.13048  -1.13039
 Alpha  occ. eigenvalues --   -1.12988  -1.12963  -1.12292  -1.12281  -1.12240
 Alpha  occ. eigenvalues --   -0.18787  -0.13256  -0.11816  -0.11721
 Alpha virt. eigenvalues --   -0.05934  -0.04642  -0.04308  -0.03430  -0.03210
 Alpha virt. eigenvalues --   -0.02983  -0.01712  -0.00826  -0.00516   0.00213
 Alpha virt. eigenvalues --    0.00309   0.00360   0.00641   0.00853   0.00873

  Beta  occ. eigenvalues --  -38.44252 -38.44251 -38.43720 -38.43708 -38.43506
  Beta  occ. eigenvalues --  -38.43365 -38.42747  -2.20095  -2.20053  -2.19617
  Beta  occ. eigenvalues --   -2.19531  -2.19373  -2.19306  -2.18615  -1.13814
  Beta  occ. eigenvalues --   -1.13775  -1.13751  -1.13733  -1.13725  -1.13702
  Beta  occ. eigenvalues --   -1.13357  -1.13276  -1.13242  -1.13228  -1.13180
  Beta  occ. eigenvalues --   -1.13168  -1.13094  -1.13033  -1.13009  -1.12989
  Beta  occ. eigenvalues --   -1.12963  -1.12926  -1.12294  -1.12266  -1.12234
  Beta  occ. eigenvalues --   -0.17956  -0.13111  -0.11564
  Beta virt. eigenvalues --   -0.07738  -0.05774  -0.04440  -0.03974  -0.03099
  Beta virt. eigenvalues --   -0.02354  -0.02201  -0.01610  -0.00696  -0.00252
  Beta virt. eigenvalues --    0.00229   0.00354   0.00435   0.00725   0.00873

 Mulliken charges and spin densities:
               1          2
     1  Na   0.283312  -0.060702
     2  Na  -0.303222  -0.079163
     3  Na   0.115442   0.238894
     4  Na  -0.234530   0.711917
     5  Na   0.072440  -0.083811
     6  Na   0.558872   0.184555
     7  Na  -0.492313   0.088311
 Sum of Mulliken charges =  -0.00000   1.00000

 Dipole moment (field-independent basis, Debye):
    X=              0.5150    Y=             -0.2995    Z=              0.4221  Tot=              0.7301
 Quadrupole moment (field-independent basis, Debye-Ang):
   XX=            -56.9238   YY=            -71.2569   ZZ=            -67.0716
   XY=             -0.1973   XZ=             -0.0740   YZ=             -0.7673

 Normal termination of Gaussian 16 at Wed Nov 29 15:56:48 2023.
