 Gaussian 16, Revision B.01,
 Gaussian 16:  ES64L-G16RevB.01 20-Dec-2017

 -------------------------
 #P B3LYP/6-311+g(d) force
 -------------------------

 -----
 DPGEN
 -----
 Symbolic Z-matrix:
 Charge =  0 Multiplicity = 2

                         Standard orientation:
 ---------------------------------------------------------------------
 Center     Atomic      Atomic             Coordinates (Angstroms)
 Number     Number       Type             X           Y           Z
 ---------------------------------------------------------------------
      1         11           0        0.666615   -1.624627    0.268420
      2         11           0        4.425322   -2.352835    0.241847
      3         11           0        2.885585    0.363567   -0.899406
      4         11           0        0.819333    3.702243    0.566257
      5         11           0       -1.227161    2.182042   -0.834543
      6         11           0       -2.797833   -0.376734    1.517300
      7         11           0       -4.771862   -1.893655   -0.859876
 ---------------------------------------------------------------------

 SCF Done:  E(UB3LYP) =  -1136.11217242     A.U. after   20 cycles

 The electronic state is 2-A.
 Alpha  occ. eigenvalues --  -38.45023 -38.44835 -38.44686 -38.43899 -38.43865
 Alpha  occ. eigenvalues --  -38.43768 -38.43691  -2.20843  -2.20628  -2.20515
 Alpha  occ. eigenvalues --   -2.19730  -2.19704  -2.19548  -2.19481  -1.14560
 Alpha  occ. eigenvalues --   -1.14532  -1.14445  -1.14290  -1.14287  -1.14252
 Alpha  occ. eigenvalues --   -1.14234  -1.14170  -1.14144  -1.13403  -1.13401
 Alpha  occ. eigenvalues --   -1.13376  -1.13367  -1.13352  -1.13271  -1.13234
 Alpha  occ. eigenvalues --   -1.13218  -1.13200  -1.13128  -1.13126  -1.13082
 Alpha  occ. eigenvalues --   -0.16596  -0.13758  -0.12613  -0.09774
 Alpha virt. eigenvalues --   -0.06701  -0.05564  -0.05230  -0.03347  -0.03030
 Alpha virt. eigenvalues --   -0.02436  -0.02065  -0.01703  -0.01103  -0.00439
 Alpha virt. eigenvalues --   -0.00341  -0.00076   0.00291   0.00353   0.00467

  Beta  occ. eigenvalues --  -38.45019 -38.44807 -38.44687 -38.43889 -38.43797
  Beta  occ. eigenvalues --  -38.43777 -38.43606  -2.20838  -2.20577  -2.20518
  Beta  occ. eigenvalues --   -2.19710  -2.19578  -2.19569  -2.19322  -1.14536
  Beta  occ. eigenvalues --   -1.14531  -1.14439  -1.14256  -1.14255  -1.14245
  Beta  occ. eigenvalues --   -1.14204  -1.14176  -1.14133  -1.13391  -1.13352
  Beta  occ. eigenvalues --   -1.13340  -1.13316  -1.13290  -1.13254  -1.13232
  Beta  occ. eigenvalues --   -1.13185  -1.13169  -1.13019  -1.13016  -1.12984
  Beta  occ. eigenvalues --   -0.16151  -0.13513  -0.12091
  Beta virt. eigenvalues --   -0.06539  -0.06279  -0.05434  -0.04815  -0.03124
  Beta virt. eigenvalues --   -0.02828  -0.02240  -0.01814  -0.01351  -0.00871
  Beta virt. eigenvalues --   -0.00245  -0.00000   0.00105   0.00386   0.00485

 Mulliken charges and spin densities:
               1          2
     1  Na  -0.743588   0.209251
     2  Na   0.798128   0.182544
     3  Na  -0.246760   0.127100
     4  Na   0.340156   0.023702
     5  Na  -0.256425   0.057959
     6  Na   0.055945  -0.105105
     7  Na   0.052543   0.504549
 Sum of Mulliken charges =  -0.00000   1.00000

 Dipole moment (field-independent basis, Debye):
    X=              2.2092    Y=             -0.1953    Z=              0.2758  Tot=              2.2349
 Quadrupole moment (field-independent basis, Debye-Ang):
   XX=            -72.0966   YY=            -67.0084   ZZ=            -65.5412
   XY=             -6.9441   XZ=              2.5603   YZ=              1.6935

 Normal termination of Gaussian 16 at Tue Nov 28 23:13:52 2023.
