 Gaussian 16, Revision B.01,
 Gaussian 16:  ES64L-G16RevB.01 20-Dec-2017

 -------------------------
 #P B3LYP/6-311+g(d) force
 -------------------------

 -----
 DPGEN
 -----
 Symbolic Z-matrix:
 Charge =  0 Multiplicity = 2

                         Standard orientation:
 ---------------------------------------------------------------------
 Center     Atomic      Atomic             Coordinates (Angstroms)
 Number     Number       Type             X           Y           Z
 ---------------------------------------------------------------------
      1         11           0       -2.139114    0.828721    1.076238
      2         11           0        1.174180    0.608826   -0.578216
      3         11           0        2.106661   -2.539638   -0.053166
      4         11           0       -1.133899   -2.328577   -0.035970
      5         11           0       -4.358750   -0.557030   -0.404785
      6         11           0        4.383140    0.332514    0.291675
      7         11           0       -0.032219    3.655185   -0.295775
 ---------------------------------------------------------------------

 SCF Done:  E(UB3LYP) =  -1136.12705577     A.U. after   19 cycles

 The electronic state is 2-A.
 Alpha  occ. eigenvalues --  -38.44216 -38.44204 -38.44118 -38.43758 -38.43618
 Alpha  occ. eigenvalues --  -38.43356 -38.43223  -2.20090  -2.20033  -2.19972
 Alpha  occ. eigenvalues --   -2.19614  -2.19485  -2.19153  -2.19138  -1.13865
 Alpha  occ. eigenvalues --   -1.13776  -1.13720  -1.13678  -1.13671  -1.13640
 Alpha  occ. eigenvalues --   -1.13602  -1.13598  -1.13546  -1.13315  -1.13286
 Alpha  occ. eigenvalues --   -1.13256  -1.13172  -1.13161  -1.13075  -1.12851
 Alpha  occ. eigenvalues --   -1.12844  -1.12831  -1.12812  -1.12793  -1.12713
 Alpha  occ. eigenvalues --   -0.17317  -0.14214  -0.12407  -0.10710
 Alpha virt. eigenvalues --   -0.05635  -0.05426  -0.04839  -0.03502  -0.02782
 Alpha virt. eigenvalues --   -0.02038  -0.01663  -0.01509  -0.00790  -0.00600
 Alpha virt. eigenvalues --   -0.00308  -0.00135   0.00531   0.00599   0.00739

  Beta  occ. eigenvalues --  -38.44210 -38.44104 -38.44056 -38.43746 -38.43586
  Beta  occ. eigenvalues --  -38.43351 -38.43216  -2.20082  -2.19858  -2.19847
  Beta  occ. eigenvalues --   -2.19598  -2.19430  -2.19144  -2.19130  -1.13830
  Beta  occ. eigenvalues --   -1.13771  -1.13703  -1.13553  -1.13544  -1.13525
  Beta  occ. eigenvalues --   -1.13521  -1.13518  -1.13486  -1.13297  -1.13281
  Beta  occ. eigenvalues --   -1.13210  -1.13138  -1.13127  -1.13013  -1.12846
  Beta  occ. eigenvalues --   -1.12842  -1.12808  -1.12792  -1.12786  -1.12711
  Beta  occ. eigenvalues --   -0.16845  -0.13424  -0.12018
  Beta virt. eigenvalues --   -0.07279  -0.05484  -0.05237  -0.04486  -0.02949
  Beta virt. eigenvalues --   -0.02479  -0.01754  -0.01438  -0.01240  -0.00627
  Beta virt. eigenvalues --   -0.00321   0.00010   0.00155   0.00612   0.00657

 Mulliken charges and spin densities:
               1          2
     1  Na   0.046054   0.074309
     2  Na  -1.697107   0.024878
     3  Na   0.461837  -0.011825
     4  Na  -0.228963   0.097217
     5  Na   0.565229   0.348306
     6  Na   0.494144   0.485703
     7  Na   0.358805  -0.018587
 Sum of Mulliken charges =  -0.00000   1.00000

 Dipole moment (field-independent basis, Debye):
    X=             -0.3571    Y=             -0.1640    Z=              0.0088  Tot=              0.3931
 Quadrupole moment (field-independent basis, Debye-Ang):
   XX=            -63.4550   YY=            -63.7274   ZZ=            -68.9719
   XY=             -0.7372   XZ=              2.8904   YZ=              0.5659

 Normal termination of Gaussian 16 at Tue Nov 28 19:40:45 2023.
