 Gaussian 16, Revision B.01,
 Gaussian 16:  ES64L-G16RevB.01 20-Dec-2017

 -------------------------
 #P B3LYP/6-311+g(d) force
 -------------------------

 -----
 DPGEN
 -----
 Symbolic Z-matrix:
 Charge =  0 Multiplicity = 2

                         Standard orientation:
 ---------------------------------------------------------------------
 Center     Atomic      Atomic             Coordinates (Angstroms)
 Number     Number       Type             X           Y           Z
 ---------------------------------------------------------------------
      1         11           0        1.444246    2.151287    0.188912
      2         11           0       -0.876769   -0.161770    1.131910
      3         11           0       -1.196661   -2.774178   -0.177678
      4         11           0        1.961408   -1.299465   -0.877830
      5         11           0        4.537783   -0.107544    0.264716
      6         11           0       -3.718555   -0.755214    0.071987
      7         11           0       -2.151453    2.946885   -0.602019
 ---------------------------------------------------------------------

 SCF Done:  E(UB3LYP) =  -1136.12185545     A.U. after   20 cycles

 The electronic state is 2-A.
 Alpha  occ. eigenvalues --  -38.44307 -38.44100 -38.44070 -38.43853 -38.43653
 Alpha  occ. eigenvalues --  -38.43602 -38.43547  -2.20063  -2.20056  -2.19918
 Alpha  occ. eigenvalues --   -2.19735  -2.19543  -2.19461  -2.19458  -1.13814
 Alpha  occ. eigenvalues --   -1.13751  -1.13747  -1.13720  -1.13704  -1.13685
 Alpha  occ. eigenvalues --   -1.13620  -1.13604  -1.13498  -1.13460  -1.13395
 Alpha  occ. eigenvalues --   -1.13389  -1.13214  -1.13201  -1.13158  -1.13133
 Alpha  occ. eigenvalues --   -1.13107  -1.13099  -1.13088  -1.13058  -1.13050
 Alpha  occ. eigenvalues --   -0.17814  -0.14253  -0.12436  -0.10184
 Alpha virt. eigenvalues --   -0.06505  -0.05356  -0.04735  -0.03307  -0.02945
 Alpha virt. eigenvalues --   -0.02330  -0.01812  -0.00929  -0.00752  -0.00585
 Alpha virt. eigenvalues --   -0.00337  -0.00077   0.00554   0.00605   0.00728

  Beta  occ. eigenvalues --  -38.44317 -38.44085 -38.44047 -38.43835 -38.43585
  Beta  occ. eigenvalues --  -38.43533 -38.43521  -2.20079  -2.20025  -2.19893
  Beta  occ. eigenvalues --   -2.19712  -2.19439  -2.19414  -2.19307  -1.13792
  Beta  occ. eigenvalues --   -1.13764  -1.13730  -1.13702  -1.13691  -1.13668
  Beta  occ. eigenvalues --   -1.13603  -1.13580  -1.13477  -1.13427  -1.13383
  Beta  occ. eigenvalues --   -1.13336  -1.13156  -1.13118  -1.13114  -1.13082
  Beta  occ. eigenvalues --   -1.13070  -1.13003  -1.12992  -1.12983  -1.12961
  Beta  occ. eigenvalues --   -0.17224  -0.13576  -0.12163
  Beta virt. eigenvalues --   -0.06718  -0.06358  -0.05187  -0.04390  -0.02723
  Beta virt. eigenvalues --   -0.02584  -0.02242  -0.01345  -0.00780  -0.00669
  Beta virt. eigenvalues --   -0.00386   0.00010   0.00240   0.00691   0.00739

 Mulliken charges and spin densities:
               1          2
     1  Na  -0.060816   0.003307
     2  Na   0.084040   0.071400
     3  Na   0.125810  -0.002634
     4  Na  -0.463787   0.098011
     5  Na   0.370514   0.427620
     6  Na   0.075059   0.463668
     7  Na  -0.130820  -0.061372
 Sum of Mulliken charges =  -0.00000   1.00000

 Dipole moment (field-independent basis, Debye):
    X=             -0.4060    Y=              0.2150    Z=             -0.3421  Tot=              0.5727
 Quadrupole moment (field-independent basis, Debye-Ang):
   XX=            -71.2826   YY=            -64.1208   ZZ=            -67.0678
   XY=              0.1781   XZ=              3.4927   YZ=              0.2318

 Normal termination of Gaussian 16 at Wed Nov 29 03:01:13 2023.
