 Gaussian 16, Revision B.01,
 Gaussian 16:  ES64L-G16RevB.01 20-Dec-2017

 -------------------------
 #P B3LYP/6-311+g(d) force
 -------------------------

 -----
 DPGEN
 -----
 Symbolic Z-matrix:
 Charge =  0 Multiplicity = 2

                         Standard orientation:
 ---------------------------------------------------------------------
 Center     Atomic      Atomic             Coordinates (Angstroms)
 Number     Number       Type             X           Y           Z
 ---------------------------------------------------------------------
      1         11           0       -0.579512    3.065811   -0.146604
      2         11           0        0.151660   -0.084869    1.842910
      3         11           0       -3.236629    0.351256   -0.380990
      4         11           0       -0.518052   -0.552941   -1.781822
      5         11           0       -1.642138   -2.516359    0.799742
      6         11           0        2.688859    1.494186    0.363354
      7         11           0        3.135811   -1.757085   -0.696590
 ---------------------------------------------------------------------

 SCF Done:  E(UB3LYP) =  -1136.13038729     A.U. after   20 cycles

 The electronic state is 2-A.
 Alpha  occ. eigenvalues --  -38.44495 -38.44159 -38.44081 -38.43915 -38.43769
 Alpha  occ. eigenvalues --  -38.43611 -38.43096  -2.20335  -2.20037  -2.19858
 Alpha  occ. eigenvalues --   -2.19743  -2.19674  -2.19481  -2.18886  -1.14046
 Alpha  occ. eigenvalues --   -1.13989  -1.13955  -1.13716  -1.13673  -1.13658
 Alpha  occ. eigenvalues --   -1.13525  -1.13518  -1.13494  -1.13458  -1.13409
 Alpha  occ. eigenvalues --   -1.13365  -1.13354  -1.13313  -1.13291  -1.13140
 Alpha  occ. eigenvalues --   -1.13124  -1.13105  -1.12571  -1.12551  -1.12526
 Alpha  occ. eigenvalues --   -0.18091  -0.13387  -0.11893  -0.10914
 Alpha virt. eigenvalues --   -0.06003  -0.05290  -0.04804  -0.03334  -0.02828
 Alpha virt. eigenvalues --   -0.02513  -0.01886  -0.01180  -0.00594  -0.00379
 Alpha virt. eigenvalues --   -0.00073   0.00294   0.00655   0.00727   0.00795

  Beta  occ. eigenvalues --  -38.44482 -38.44103 -38.44058 -38.43912 -38.43689
  Beta  occ. eigenvalues --  -38.43583 -38.43102  -2.20314  -2.19935  -2.19815
  Beta  occ. eigenvalues --   -2.19739  -2.19529  -2.19432  -2.18898  -1.14019
  Beta  occ. eigenvalues --   -1.13967  -1.13943  -1.13646  -1.13607  -1.13577
  Beta  occ. eigenvalues --   -1.13497  -1.13484  -1.13469  -1.13437  -1.13404
  Beta  occ. eigenvalues --   -1.13347  -1.13271  -1.13211  -1.13197  -1.13096
  Beta  occ. eigenvalues --   -1.13082  -1.13061  -1.12577  -1.12560  -1.12525
  Beta  occ. eigenvalues --   -0.17428  -0.13128  -0.11598
  Beta virt. eigenvalues --   -0.07181  -0.05829  -0.05156  -0.04613  -0.02796
  Beta virt. eigenvalues --   -0.02212  -0.01737  -0.01590  -0.01067  -0.00565
  Beta virt. eigenvalues --   -0.00365   0.00064   0.00352   0.00760   0.00827

 Mulliken charges and spin densities:
               1          2
     1  Na  -0.379613  -0.086940
     2  Na   0.265230   0.358177
     3  Na   0.265995   0.068718
     4  Na  -0.111094   0.518237
     5  Na   0.082142   0.052111
     6  Na   0.045974  -0.012779
     7  Na  -0.168634   0.102476
 Sum of Mulliken charges =  -0.00000   1.00000

 Dipole moment (field-independent basis, Debye):
    X=             -0.3410    Y=             -0.2775    Z=             -0.0862  Tot=              0.4480
 Quadrupole moment (field-independent basis, Debye-Ang):
   XX=            -55.8856   YY=            -65.7726   ZZ=            -73.3728
   XY=              0.4936   XZ=             -0.6979   YZ=             -0.1744

 Normal termination of Gaussian 16 at Thu Dec  7 21:56:22 2023.
