 Gaussian 16, Revision B.01,
 Gaussian 16:  ES64L-G16RevB.01 20-Dec-2017

 -------------------------
 #P B3LYP/6-311+g(d) force
 -------------------------

 -----
 DPGEN
 -----
 Symbolic Z-matrix:
 Charge =  0 Multiplicity = 2

                         Standard orientation:
 ---------------------------------------------------------------------
 Center     Atomic      Atomic             Coordinates (Angstroms)
 Number     Number       Type             X           Y           Z
 ---------------------------------------------------------------------
      1         11           0        3.440363   -1.032994    0.335779
      2         11           0       -2.159074    1.190300   -1.736612
      3         11           0        0.120609   -2.185837   -1.598593
      4         11           0       -2.596893   -1.658236    0.674374
      5         11           0        0.142456   -0.777346    1.787489
      6         11           0       -0.573593    2.303610    1.859041
      7         11           0        1.626131    2.160503   -1.321478
 ---------------------------------------------------------------------

 SCF Done:  E(UB3LYP) =  -1136.12257498     A.U. after   21 cycles

 The electronic state is 2-A.
 Alpha  occ. eigenvalues --  -38.44586 -38.44526 -38.44374 -38.44166 -38.43815
 Alpha  occ. eigenvalues --  -38.43705 -38.43617  -2.20360  -2.20310  -2.20122
 Alpha  occ. eigenvalues --   -2.19976  -2.19749  -2.19544  -2.19376  -1.14038
 Alpha  occ. eigenvalues --   -1.14003  -1.13991  -1.13979  -1.13971  -1.13923
 Alpha  occ. eigenvalues --   -1.13806  -1.13776  -1.13748  -1.13709  -1.13605
 Alpha  occ. eigenvalues --   -1.13583  -1.13466  -1.13400  -1.13368  -1.13212
 Alpha  occ. eigenvalues --   -1.13179  -1.13170  -1.13059  -1.13029  -1.13019
 Alpha  occ. eigenvalues --   -0.17622  -0.12221  -0.12019  -0.11850
 Alpha virt. eigenvalues --   -0.05630  -0.05511  -0.04500  -0.03491  -0.03358
 Alpha virt. eigenvalues --   -0.03287  -0.01320  -0.00957  -0.00780  -0.00122
 Alpha virt. eigenvalues --    0.00084   0.00292   0.00412   0.00452   0.00769

  Beta  occ. eigenvalues --  -38.44535 -38.44498 -38.44356 -38.44122 -38.43748
  Beta  occ. eigenvalues --  -38.43703 -38.43621  -2.20267  -2.20258  -2.20089
  Beta  occ. eigenvalues --   -2.19897  -2.19629  -2.19542  -2.19386  -1.13966
  Beta  occ. eigenvalues --   -1.13954  -1.13943  -1.13932  -1.13915  -1.13886
  Beta  occ. eigenvalues --   -1.13775  -1.13756  -1.13725  -1.13637  -1.13555
  Beta  occ. eigenvalues --   -1.13526  -1.13403  -1.13325  -1.13262  -1.13183
  Beta  occ. eigenvalues --   -1.13178  -1.13162  -1.13060  -1.13036  -1.13025
  Beta  occ. eigenvalues --   -0.16819  -0.12074  -0.11663
  Beta virt. eigenvalues --   -0.08122  -0.05438  -0.05152  -0.04122  -0.03189
  Beta virt. eigenvalues --   -0.02900  -0.02432  -0.01236  -0.00845  -0.00446
  Beta virt. eigenvalues --   -0.00044   0.00159   0.00390   0.00472   0.00509

 Mulliken charges and spin densities:
               1          2
     1  Na  -0.039617  -0.069136
     2  Na  -0.149324   0.349608
     3  Na  -0.410750   0.276627
     4  Na   0.264796  -0.044445
     5  Na   0.796372   0.304808
     6  Na  -0.319966   0.013567
     7  Na  -0.141511   0.168972
 Sum of Mulliken charges =  -0.00000   1.00000

 Dipole moment (field-independent basis, Debye):
    X=             -0.3259    Y=              0.0901    Z=             -0.5384  Tot=              0.6358
 Quadrupole moment (field-independent basis, Debye-Ang):
   XX=            -62.6696   YY=            -69.8573   ZZ=            -64.1562
   XY=              0.7553   XZ=             -0.4200   YZ=              1.1031

 Normal termination of Gaussian 16 at Sun Dec  3 13:37:06 2023.
