 Gaussian 16, Revision B.01,
 Gaussian 16:  ES64L-G16RevB.01 20-Dec-2017

 -------------------------
 #P B3LYP/6-311+g(d) force
 -------------------------

 -----
 DPGEN
 -----
 Symbolic Z-matrix:
 Charge =  0 Multiplicity = 2

                         Standard orientation:
 ---------------------------------------------------------------------
 Center     Atomic      Atomic             Coordinates (Angstroms)
 Number     Number       Type             X           Y           Z
 ---------------------------------------------------------------------
      1         11           0       -3.663494    3.109737   -0.134963
      2         11           0       -4.798754    0.361151    0.318208
      3         11           0       -0.608178    0.094419   -0.258679
      4         11           0       -2.696238   -2.955292    0.050529
      5         11           0        1.611980   -1.961272   -0.676539
      6         11           0        4.162798   -0.152960    1.148623
      7         11           0        5.991886    1.504218   -0.447178
 ---------------------------------------------------------------------

 SCF Done:  E(UB3LYP) =  -1136.11175336     A.U. after   19 cycles

 The electronic state is 2-A.
 Alpha  occ. eigenvalues --  -38.44696 -38.44602 -38.44343 -38.44201 -38.44009
 Alpha  occ. eigenvalues --  -38.43890 -38.43867  -2.20516  -2.20394  -2.20159
 Alpha  occ. eigenvalues --   -2.20036  -2.19833  -2.19721  -2.19694  -1.14209
 Alpha  occ. eigenvalues --   -1.14178  -1.14172  -1.14053  -1.14035  -1.13994
 Alpha  occ. eigenvalues --   -1.13869  -1.13832  -1.13803  -1.13707  -1.13691
 Alpha  occ. eigenvalues --   -1.13639  -1.13626  -1.13470  -1.13466  -1.13380
 Alpha  occ. eigenvalues --   -1.13357  -1.13340  -1.13335  -1.13321  -1.13301
 Alpha  occ. eigenvalues --   -0.16165  -0.14268  -0.12285  -0.10990
 Alpha virt. eigenvalues --   -0.06294  -0.05261  -0.04771  -0.03519  -0.03219
 Alpha virt. eigenvalues --   -0.02766  -0.01755  -0.01402  -0.01254  -0.00973
 Alpha virt. eigenvalues --   -0.00703  -0.00156   0.00101   0.00548   0.00680

  Beta  occ. eigenvalues --  -38.44685 -38.44504 -38.44339 -38.44175 -38.43973
  Beta  occ. eigenvalues --  -38.43895 -38.43836  -2.20498  -2.20212  -2.20155
  Beta  occ. eigenvalues --   -2.19988  -2.19769  -2.19732  -2.19634  -1.14199
  Beta  occ. eigenvalues --   -1.14166  -1.14142  -1.13930  -1.13910  -1.13867
  Beta  occ. eigenvalues --   -1.13848  -1.13834  -1.13789  -1.13671  -1.13655
  Beta  occ. eigenvalues --   -1.13616  -1.13597  -1.13431  -1.13423  -1.13385
  Beta  occ. eigenvalues --   -1.13360  -1.13305  -1.13293  -1.13279  -1.13278
  Beta  occ. eigenvalues --   -0.15629  -0.13850  -0.11882
  Beta virt. eigenvalues --   -0.07532  -0.05994  -0.04960  -0.04340  -0.03280
  Beta virt. eigenvalues --   -0.02829  -0.02574  -0.01630  -0.01271  -0.01046
  Beta virt. eigenvalues --   -0.00484  -0.00224  -0.00021   0.00247   0.00577

 Mulliken charges and spin densities:
               1          2
     1  Na   0.552925   0.099089
     2  Na   0.036266   0.075489
     3  Na  -1.861643   0.124949
     4  Na   0.365765   0.539539
     5  Na   0.885284   0.007218
     6  Na  -0.243324   0.003961
     7  Na   0.264727   0.149755
 Sum of Mulliken charges =  -0.00000   1.00000

 Dipole moment (field-independent basis, Debye):
    X=             -0.1063    Y=             -0.1961    Z=             -0.3771  Tot=              0.4381
 Quadrupole moment (field-independent basis, Debye-Ang):
   XX=            -70.6976   YY=            -61.7008   ZZ=            -70.6503
   XY=              0.6423   XZ=             -4.3878   YZ=             -2.0410

 Normal termination of Gaussian 16 at Sun Dec  3 17:51:40 2023.
