 Gaussian 16, Revision B.01,
 Gaussian 16:  ES64L-G16RevB.01 20-Dec-2017

 -------------------------
 #P B3LYP/6-311+g(d) force
 -------------------------

 -----
 DPGEN
 -----
 Symbolic Z-matrix:
 Charge =  0 Multiplicity = 2

                         Standard orientation:
 ---------------------------------------------------------------------
 Center     Atomic      Atomic             Coordinates (Angstroms)
 Number     Number       Type             X           Y           Z
 ---------------------------------------------------------------------
      1         11           0       -3.278113    1.160996   -0.366567
      2         11           0        0.880796    2.603381   -0.418255
      3         11           0       -2.926685   -2.024542   -0.249128
      4         11           0       -0.292449   -1.051128   -1.096347
      5         11           0       -0.662036    0.575164    2.449049
      6         11           0        2.859401    0.031637   -1.479764
      7         11           0        3.419086   -1.295508    1.161012
 ---------------------------------------------------------------------

 SCF Done:  E(UB3LYP) =  -1136.11239049     A.U. after   25 cycles

 The electronic state is 2-A.
 Alpha  occ. eigenvalues --  -38.45813 -38.44712 -38.44216 -38.44161 -38.43855
 Alpha  occ. eigenvalues --  -38.43628 -38.43198  -2.21598  -2.20532  -2.20110
 Alpha  occ. eigenvalues --   -2.19952  -2.19756  -2.19511  -2.19004  -1.15287
 Alpha  occ. eigenvalues --   -1.15262  -1.15225  -1.14232  -1.14160  -1.14153
 Alpha  occ. eigenvalues --   -1.13862  -1.13778  -1.13746  -1.13619  -1.13588
 Alpha  occ. eigenvalues --   -1.13560  -1.13432  -1.13407  -1.13385  -1.13187
 Alpha  occ. eigenvalues --   -1.13153  -1.13135  -1.12675  -1.12668  -1.12632
 Alpha  occ. eigenvalues --   -0.17731  -0.14305  -0.11121  -0.10955
 Alpha virt. eigenvalues --   -0.07056  -0.05246  -0.04926  -0.03158  -0.02977
 Alpha virt. eigenvalues --   -0.02523  -0.02463  -0.01164  -0.00629  -0.00497
 Alpha virt. eigenvalues --   -0.00114   0.00156   0.00229   0.00361   0.00662

  Beta  occ. eigenvalues --  -38.45823 -38.44654 -38.44208 -38.44081 -38.43833
  Beta  occ. eigenvalues --  -38.43634 -38.43169  -2.21618  -2.20421  -2.20096
  Beta  occ. eigenvalues --   -2.19802  -2.19720  -2.19523  -2.18952  -1.15294
  Beta  occ. eigenvalues --   -1.15277  -1.15239  -1.14159  -1.14086  -1.14073
  Beta  occ. eigenvalues --   -1.13843  -1.13764  -1.13738  -1.13517  -1.13485
  Beta  occ. eigenvalues --   -1.13458  -1.13398  -1.13390  -1.13333  -1.13198
  Beta  occ. eigenvalues --   -1.13160  -1.13135  -1.12638  -1.12632  -1.12586
  Beta  occ. eigenvalues --   -0.17201  -0.13940  -0.10944
  Beta virt. eigenvalues --   -0.07241  -0.06848  -0.05150  -0.04256  -0.03059
  Beta virt. eigenvalues --   -0.02464  -0.02269  -0.01723  -0.01009  -0.00538
  Beta virt. eigenvalues --   -0.00326   0.00034   0.00203   0.00395   0.00533

 Mulliken charges and spin densities:
               1          2
     1  Na   0.221379  -0.059308
     2  Na  -0.304928   0.125676
     3  Na   1.310797  -0.001385
     4  Na  -1.871533   0.117643
     5  Na  -0.313392   0.538908
     6  Na   1.101623  -0.002001
     7  Na  -0.143946   0.280467
 Sum of Mulliken charges =  -0.00000   1.00000

 Dipole moment (field-independent basis, Debye):
    X=             -1.0075    Y=              0.3576    Z=              0.0911  Tot=              1.0729
 Quadrupole moment (field-independent basis, Debye-Ang):
   XX=            -52.8944   YY=            -73.3498   ZZ=            -71.1688
   XY=             -1.9557   XZ=              0.3062   YZ=             -5.2542

 Normal termination of Gaussian 16 at Wed Nov 29 17:14:53 2023.
