 Gaussian 16, Revision B.01,
 Gaussian 16:  ES64L-G16RevB.01 20-Dec-2017

 -------------------------
 #P B3LYP/6-311+g(d) force
 -------------------------

 -----
 DPGEN
 -----
 Symbolic Z-matrix:
 Charge =  0 Multiplicity = 2

                         Standard orientation:
 ---------------------------------------------------------------------
 Center     Atomic      Atomic             Coordinates (Angstroms)
 Number     Number       Type             X           Y           Z
 ---------------------------------------------------------------------
      1         11           0       -0.342076   -2.708180   -0.179083
      2         11           0        2.795092   -1.360042   -0.037905
      3         11           0       -0.005838   -0.253753    1.588635
      4         11           0       -1.855399    2.363253   -0.136650
      5         11           0       -3.134000   -0.784912   -0.026693
      6         11           0        0.600566    0.394286   -1.538211
      7         11           0        1.941655    2.349348    0.329906
 ---------------------------------------------------------------------

 SCF Done:  E(UB3LYP) =  -1136.13389170     A.U. after   22 cycles

 The electronic state is 2-A.
 Alpha  occ. eigenvalues --  -38.44042 -38.43980 -38.43874 -38.43819 -38.43321
 Alpha  occ. eigenvalues --  -38.42849 -38.42788  -2.19919  -2.19813  -2.19742
 Alpha  occ. eigenvalues --   -2.19653  -2.19235  -2.18884  -2.18814  -1.13612
 Alpha  occ. eigenvalues --   -1.13580  -1.13549  -1.13483  -1.13474  -1.13472
 Alpha  occ. eigenvalues --   -1.13468  -1.13399  -1.13356  -1.13331  -1.13317
 Alpha  occ. eigenvalues --   -1.13278  -1.12981  -1.12893  -1.12848  -1.12610
 Alpha  occ. eigenvalues --   -1.12519  -1.12491  -1.12479  -1.12434  -1.12411
 Alpha  occ. eigenvalues --   -0.19055  -0.13227  -0.12775  -0.10128
 Alpha virt. eigenvalues --   -0.05662  -0.05552  -0.04720  -0.02940  -0.02737
 Alpha virt. eigenvalues --   -0.01806  -0.01622  -0.01322  -0.00508  -0.00312
 Alpha virt. eigenvalues --    0.00055   0.00344   0.00812   0.00844   0.00894

  Beta  occ. eigenvalues --  -38.44033 -38.43980 -38.43863 -38.43814 -38.43312
  Beta  occ. eigenvalues --  -38.42785 -38.42713  -2.19907  -2.19814  -2.19726
  Beta  occ. eigenvalues --   -2.19647  -2.19223  -2.18768  -2.18678  -1.13603
  Beta  occ. eigenvalues --   -1.13553  -1.13535  -1.13486  -1.13476  -1.13457
  Beta  occ. eigenvalues --   -1.13455  -1.13363  -1.13348  -1.13322  -1.13297
  Beta  occ. eigenvalues --   -1.13277  -1.12966  -1.12860  -1.12839  -1.12525
  Beta  occ. eigenvalues --   -1.12436  -1.12404  -1.12386  -1.12337  -1.12311
  Beta  occ. eigenvalues --   -0.18351  -0.12990  -0.12508
  Beta virt. eigenvalues --   -0.06249  -0.05639  -0.05511  -0.04700  -0.02194
  Beta virt. eigenvalues --   -0.01963  -0.01551  -0.01254  -0.00843  -0.00548
  Beta virt. eigenvalues --   -0.00357   0.00197   0.00389   0.00835   0.00859

 Mulliken charges and spin densities:
               1          2
     1  Na   0.201185  -0.028876
     2  Na   0.413994  -0.006170
     3  Na  -0.389006   0.640857
     4  Na   0.087148  -0.072164
     5  Na  -0.034805  -0.049162
     6  Na  -0.393300   0.602234
     7  Na   0.114785  -0.086721
 Sum of Mulliken charges =  -0.00000   1.00000

 Dipole moment (field-independent basis, Debye):
    X=              0.0677    Y=              0.1318    Z=              0.0563  Tot=              0.1585
 Quadrupole moment (field-independent basis, Debye-Ang):
   XX=            -53.3835   YY=            -60.2243   ZZ=            -77.4917
   XY=             -0.1615   XZ=              1.2687   YZ=              1.3877

 Normal termination of Gaussian 16 at Wed Nov 29 01:07:27 2023.
