 Gaussian 16, Revision B.01,
 Gaussian 16:  ES64L-G16RevB.01 20-Dec-2017

 -------------------------
 #P B3LYP/6-311+g(d) force
 -------------------------

 -----
 DPGEN
 -----
 Symbolic Z-matrix:
 Charge =  0 Multiplicity = 2

                         Standard orientation:
 ---------------------------------------------------------------------
 Center     Atomic      Atomic             Coordinates (Angstroms)
 Number     Number       Type             X           Y           Z
 ---------------------------------------------------------------------
      1         11           0        2.106008    2.285562    0.126075
      2         11           0       -3.529379   -0.217213    0.164916
      3         11           0        3.000565   -1.250255    0.189476
      4         11           0       -1.447902    1.988052   -0.485780
      5         11           0       -0.457299   -2.595890   -0.099148
      6         11           0        0.436460   -0.293557   -1.815652
      7         11           0       -0.108454    0.083300    1.920114
 ---------------------------------------------------------------------

 SCF Done:  E(UB3LYP) =  -1136.13237244     A.U. after   20 cycles

 The electronic state is 2-A.
 Alpha  occ. eigenvalues --  -38.44698 -38.44540 -38.43728 -38.43376 -38.43311
 Alpha  occ. eigenvalues --  -38.43079 -38.43068  -2.20507  -2.20354  -2.19641
 Alpha  occ. eigenvalues --   -2.19358  -2.19139  -2.18994  -2.18963  -1.14206
 Alpha  occ. eigenvalues --   -1.14162  -1.14133  -1.14038  -1.14011  -1.13984
 Alpha  occ. eigenvalues --   -1.13331  -1.13284  -1.13245  -1.13078  -1.13018
 Alpha  occ. eigenvalues --   -1.12971  -1.12809  -1.12797  -1.12788  -1.12679
 Alpha  occ. eigenvalues --   -1.12657  -1.12650  -1.12632  -1.12611  -1.12548
 Alpha  occ. eigenvalues --   -0.18783  -0.13283  -0.12030  -0.10877
 Alpha virt. eigenvalues --   -0.06361  -0.05002  -0.03965  -0.03364  -0.02767
 Alpha virt. eigenvalues --   -0.02619  -0.02097  -0.01090  -0.00289  -0.00069
 Alpha virt. eigenvalues --    0.00058   0.00312   0.00739   0.00767   0.00874

  Beta  occ. eigenvalues --  -38.44700 -38.44536 -38.43648 -38.43309 -38.43295
  Beta  occ. eigenvalues --  -38.43069 -38.43052  -2.20513  -2.20349  -2.19493
  Beta  occ. eigenvalues --   -2.19209  -2.19138  -2.18968  -2.18950  -1.14211
  Beta  occ. eigenvalues --   -1.14153  -1.14138  -1.14024  -1.14001  -1.13983
  Beta  occ. eigenvalues --   -1.13233  -1.13179  -1.13137  -1.12985  -1.12913
  Beta  occ. eigenvalues --   -1.12868  -1.12799  -1.12794  -1.12779  -1.12661
  Beta  occ. eigenvalues --   -1.12635  -1.12603  -1.12600  -1.12588  -1.12544
  Beta  occ. eigenvalues --   -0.18026  -0.13093  -0.11764
  Beta virt. eigenvalues --   -0.06942  -0.06282  -0.05010  -0.03940  -0.02638
  Beta virt. eigenvalues --   -0.02013  -0.01953  -0.01544  -0.01043  -0.00314
  Beta virt. eigenvalues --    0.00026   0.00074   0.00326   0.00804   0.00842

 Mulliken charges and spin densities:
               1          2
     1  Na   0.056162  -0.080398
     2  Na   0.017311  -0.058133
     3  Na   0.128091  -0.093576
     4  Na   0.297894   0.011545
     5  Na   0.159526  -0.143377
     6  Na  -0.114766   0.547331
     7  Na  -0.544218   0.816608
 Sum of Mulliken charges =  -0.00000   1.00000

 Dipole moment (field-independent basis, Debye):
    X=              0.0593    Y=             -0.2870    Z=              0.2557  Tot=              0.3889
 Quadrupole moment (field-independent basis, Debye-Ang):
   XX=            -50.1709   YY=            -68.7424   ZZ=            -73.5635
   XY=              0.6474   XZ=              0.5741   YZ=             -0.8786

 Normal termination of Gaussian 16 at Thu Dec  7 18:34:48 2023.
