 Gaussian 16, Revision B.01,
 Gaussian 16:  ES64L-G16RevB.01 20-Dec-2017

 -------------------------
 #P B3LYP/6-311+g(d) force
 -------------------------

 -----
 DPGEN
 -----
 Symbolic Z-matrix:
 Charge =  0 Multiplicity = 2

                         Standard orientation:
 ---------------------------------------------------------------------
 Center     Atomic      Atomic             Coordinates (Angstroms)
 Number     Number       Type             X           Y           Z
 ---------------------------------------------------------------------
      1         11           0        3.408719    1.116822    0.637018
      2         11           0        2.963608   -2.111908   -0.250595
      3         11           0        0.474120    2.574624   -0.230934
      4         11           0       -2.341619    1.580982   -1.446394
      5         11           0        0.195549   -1.307043   -1.114127
      6         11           0       -2.798365   -1.855933   -0.096052
      7         11           0       -1.902011    0.002456    2.501083
 ---------------------------------------------------------------------

 SCF Done:  E(UB3LYP) =  -1136.11985190     A.U. after   21 cycles

 The electronic state is 2-A.
 Alpha  occ. eigenvalues --  -38.44923 -38.44685 -38.44349 -38.44266 -38.44018
 Alpha  occ. eigenvalues --  -38.43709 -38.42901  -2.20734  -2.20483  -2.20190
 Alpha  occ. eigenvalues --   -2.20097  -2.19855  -2.19603  -2.18726  -1.14376
 Alpha  occ. eigenvalues --   -1.14368  -1.14347  -1.14153  -1.14141  -1.14120
 Alpha  occ. eigenvalues --   -1.13882  -1.13851  -1.13833  -1.13771  -1.13750
 Alpha  occ. eigenvalues --   -1.13715  -1.13611  -1.13501  -1.13480  -1.13270
 Alpha  occ. eigenvalues --   -1.13242  -1.13221  -1.12405  -1.12392  -1.12382
 Alpha  occ. eigenvalues --   -0.17539  -0.13905  -0.11947  -0.11100
 Alpha virt. eigenvalues --   -0.06503  -0.05987  -0.03979  -0.03518  -0.03038
 Alpha virt. eigenvalues --   -0.02715  -0.01933  -0.01395  -0.00774  -0.00392
 Alpha virt. eigenvalues --   -0.00098   0.00241   0.00274   0.00431   0.00657

  Beta  occ. eigenvalues --  -38.44813 -38.44669 -38.44349 -38.44225 -38.44019
  Beta  occ. eigenvalues --  -38.43677 -38.42902  -2.20529  -2.20453  -2.20195
  Beta  occ. eigenvalues --   -2.20022  -2.19858  -2.19545  -2.18730  -1.14237
  Beta  occ. eigenvalues --   -1.14229  -1.14206  -1.14131  -1.14122  -1.14101
  Beta  occ. eigenvalues --   -1.13888  -1.13843  -1.13813  -1.13719  -1.13691
  Beta  occ. eigenvalues --   -1.13668  -1.13603  -1.13503  -1.13481  -1.13228
  Beta  occ. eigenvalues --   -1.13205  -1.13182  -1.12408  -1.12392  -1.12372
  Beta  occ. eigenvalues --   -0.16963  -0.13580  -0.11698
  Beta virt. eigenvalues --   -0.07427  -0.06051  -0.05828  -0.03839  -0.03115
  Beta virt. eigenvalues --   -0.02263  -0.02137  -0.01850  -0.01184  -0.00696
  Beta virt. eigenvalues --   -0.00069  -0.00044   0.00313   0.00458   0.00682

 Mulliken charges and spin densities:
               1          2
     1  Na  -0.222437   0.075001
     2  Na   0.769955  -0.041376
     3  Na  -0.020561  -0.009115
     4  Na   0.306853   0.114353
     5  Na  -1.179250   0.268622
     6  Na   0.633619   0.058400
     7  Na  -0.288179   0.534115
 Sum of Mulliken charges =  -0.00000   1.00000

 Dipole moment (field-independent basis, Debye):
    X=             -0.1163    Y=             -0.2777    Z=              0.3320  Tot=              0.4482
 Quadrupole moment (field-independent basis, Debye-Ang):
   XX=            -53.9760   YY=            -72.1796   ZZ=            -71.0726
   XY=              0.0368   XZ=              4.9614   YZ=              0.7460

 Normal termination of Gaussian 16 at Mon Dec  4 00:25:41 2023.
