 Gaussian 16, Revision B.01,
 Gaussian 16:  ES64L-G16RevB.01 20-Dec-2017

 -------------------------
 #P B3LYP/6-311+g(d) force
 -------------------------

 -----
 DPGEN
 -----
 Symbolic Z-matrix:
 Charge =  0 Multiplicity = 2

                         Standard orientation:
 ---------------------------------------------------------------------
 Center     Atomic      Atomic             Coordinates (Angstroms)
 Number     Number       Type             X           Y           Z
 ---------------------------------------------------------------------
      1         11           0       -1.898357    2.256714   -0.120458
      2         11           0       -0.240427   -2.512467    0.421665
      3         11           0       -2.993788   -1.030860   -0.481512
      4         11           0        1.953149    2.342873    0.122796
      5         11           0        0.558256    0.085610   -1.810041
      6         11           0        2.835377   -1.401686   -0.130564
      7         11           0       -0.214208    0.259816    1.998113
 ---------------------------------------------------------------------

 SCF Done:  E(UB3LYP) =  -1136.13677937     A.U. after   19 cycles

 The electronic state is 2-A.
 Alpha  occ. eigenvalues --  -38.43892 -38.43829 -38.43775 -38.43722 -38.43620
 Alpha  occ. eigenvalues --  -38.43537 -38.42931  -2.19743  -2.19662  -2.19604
 Alpha  occ. eigenvalues --   -2.19555  -2.19544  -2.19478  -2.18854  -1.13450
 Alpha  occ. eigenvalues --   -1.13399  -1.13379  -1.13339  -1.13322  -1.13315
 Alpha  occ. eigenvalues --   -1.13306  -1.13285  -1.13260  -1.13231  -1.13225
 Alpha  occ. eigenvalues --   -1.13217  -1.13174  -1.13157  -1.13149  -1.13144
 Alpha  occ. eigenvalues --   -1.13099  -1.13095  -1.12547  -1.12511  -1.12478
 Alpha  occ. eigenvalues --   -0.18727  -0.13004  -0.12448  -0.10988
 Alpha virt. eigenvalues --   -0.05546  -0.05351  -0.04320  -0.03323  -0.03073
 Alpha virt. eigenvalues --   -0.02686  -0.01461  -0.01175  -0.00251  -0.00132
 Alpha virt. eigenvalues --    0.00029   0.00360   0.00801   0.00866   0.00949

  Beta  occ. eigenvalues --  -38.43890 -38.43820 -38.43770 -38.43717 -38.43528
  Beta  occ. eigenvalues --  -38.43472 -38.42917  -2.19741  -2.19647  -2.19599
  Beta  occ. eigenvalues --   -2.19550  -2.19376  -2.19357  -2.18833  -1.13440
  Beta  occ. eigenvalues --   -1.13385  -1.13378  -1.13331  -1.13310  -1.13295
  Beta  occ. eigenvalues --   -1.13293  -1.13260  -1.13239  -1.13223  -1.13207
  Beta  occ. eigenvalues --   -1.13169  -1.13110  -1.13066  -1.13045  -1.13037
  Beta  occ. eigenvalues --   -1.13018  -1.13007  -1.12530  -1.12473  -1.12463
  Beta  occ. eigenvalues --   -0.17987  -0.12762  -0.12204
  Beta virt. eigenvalues --   -0.07094  -0.05559  -0.05224  -0.04289  -0.02571
  Beta virt. eigenvalues --   -0.02266  -0.01667  -0.01358  -0.01125  -0.00302
  Beta virt. eigenvalues --   -0.00086   0.00111   0.00388   0.00831   0.00903

 Mulliken charges and spin densities:
               1          2
     1  Na   0.098011  -0.055415
     2  Na   0.273232   0.083336
     3  Na  -0.092314   0.012841
     4  Na   0.071014  -0.161021
     5  Na  -0.322555   0.631295
     6  Na   0.208853  -0.095050
     7  Na  -0.236241   0.584012
 Sum of Mulliken charges =  -0.00000   1.00000

 Dipole moment (field-independent basis, Debye):
    X=              0.1778    Y=              0.3152    Z=             -0.0524  Tot=              0.3657
 Quadrupole moment (field-independent basis, Debye-Ang):
   XX=            -56.6663   YY=            -64.8072   ZZ=            -72.6851
   XY=             -0.1079   XZ=              1.8582   YZ=              0.0347

 Normal termination of Gaussian 16 at Tue Dec  5 22:04:09 2023.
