 Gaussian 16, Revision B.01,
 Gaussian 16:  ES64L-G16RevB.01 20-Dec-2017

 -------------------------
 #P B3LYP/6-311+g(d) force
 -------------------------

 -----
 DPGEN
 -----
 Symbolic Z-matrix:
 Charge =  0 Multiplicity = 2

                         Standard orientation:
 ---------------------------------------------------------------------
 Center     Atomic      Atomic             Coordinates (Angstroms)
 Number     Number       Type             X           Y           Z
 ---------------------------------------------------------------------
      1         11           0       -0.842446   -1.075295    1.893909
      2         11           0        4.234934    1.238134   -0.448302
      3         11           0       -2.565974    1.866774    0.996633
      4         11           0        0.413945    1.414620   -0.560317
      5         11           0        2.447579   -1.356957    0.552853
      6         11           0       -0.416343   -1.909552   -1.063153
      7         11           0       -3.271696   -0.177724   -1.371623
 ---------------------------------------------------------------------

 SCF Done:  E(UB3LYP) =  -1136.12415427     A.U. after   22 cycles

 The electronic state is 2-A.
 Alpha  occ. eigenvalues --  -38.44833 -38.44640 -38.43903 -38.43830 -38.43621
 Alpha  occ. eigenvalues --  -38.43556 -38.43019  -2.20667  -2.20501  -2.19713
 Alpha  occ. eigenvalues --   -2.19690  -2.19537  -2.19432  -2.18965  -1.14386
 Alpha  occ. eigenvalues --   -1.14363  -1.14255  -1.14163  -1.14148  -1.14132
 Alpha  occ. eigenvalues --   -1.13414  -1.13405  -1.13394  -1.13353  -1.13331
 Alpha  occ. eigenvalues --   -1.13277  -1.13221  -1.13202  -1.13148  -1.13099
 Alpha  occ. eigenvalues --   -1.13075  -1.13067  -1.12645  -1.12630  -1.12572
 Alpha  occ. eigenvalues --   -0.18600  -0.13983  -0.11600  -0.11165
 Alpha virt. eigenvalues --   -0.06962  -0.05284  -0.04196  -0.03235  -0.02791
 Alpha virt. eigenvalues --   -0.02691  -0.02272  -0.01244  -0.00825  -0.00117
 Alpha virt. eigenvalues --    0.00036   0.00119   0.00368   0.00615   0.00803

  Beta  occ. eigenvalues --  -38.44820 -38.44581 -38.43907 -38.43827 -38.43559
  Beta  occ. eigenvalues --  -38.43527 -38.42989  -2.20648  -2.20393  -2.19709
  Beta  occ. eigenvalues --   -2.19696  -2.19423  -2.19382  -2.18912  -1.14360
  Beta  occ. eigenvalues --   -1.14338  -1.14246  -1.14081  -1.14071  -1.14057
  Beta  occ. eigenvalues --   -1.13408  -1.13405  -1.13390  -1.13357  -1.13334
  Beta  occ. eigenvalues --   -1.13276  -1.13152  -1.13116  -1.13073  -1.13061
  Beta  occ. eigenvalues --   -1.13041  -1.13008  -1.12616  -1.12596  -1.12503
  Beta  occ. eigenvalues --   -0.17911  -0.13779  -0.11308
  Beta virt. eigenvalues --   -0.07284  -0.06741  -0.05154  -0.03662  -0.03015
  Beta virt. eigenvalues --   -0.02631  -0.02063  -0.01617  -0.01104  -0.00402
  Beta virt. eigenvalues --   -0.00102   0.00079   0.00207   0.00498   0.00742

 Mulliken charges and spin densities:
               1          2
     1  Na  -0.490209   0.286408
     2  Na   0.208929  -0.041487
     3  Na   0.988994   0.139208
     4  Na  -1.264247   0.199910
     5  Na   0.411733   0.031507
     6  Na   0.084896   0.276889
     7  Na   0.059903   0.107565
 Sum of Mulliken charges =  -0.00000   1.00000

 Dipole moment (field-independent basis, Debye):
    X=             -0.1785    Y=             -0.2293    Z=              0.2493  Tot=              0.3829
 Quadrupole moment (field-independent basis, Debye-Ang):
   XX=            -54.5085   YY=            -72.9444   ZZ=            -69.4400
   XY=             -0.9299   XZ=              0.0047   YZ=             -0.1838

 Normal termination of Gaussian 16 at Tue Dec  5 11:10:23 2023.
