 Gaussian 16, Revision B.01,
 Gaussian 16:  ES64L-G16RevB.01 20-Dec-2017

 -------------------------
 #P B3LYP/6-311+g(d) force
 -------------------------

 -----
 DPGEN
 -----
 Symbolic Z-matrix:
 Charge =  0 Multiplicity = 2

                         Standard orientation:
 ---------------------------------------------------------------------
 Center     Atomic      Atomic             Coordinates (Angstroms)
 Number     Number       Type             X           Y           Z
 ---------------------------------------------------------------------
      1         11           0        0.211237   -0.073978   -0.937313
      2         11           0        0.289946   -2.702993    1.054927
      3         11           0       -2.983928    1.560935   -0.310264
      4         11           0        3.095607   -1.689042   -0.190835
      5         11           0       -3.245920   -1.892326   -0.282408
      6         11           0       -0.245410    2.966132    1.048811
      7         11           0        2.878468    1.831271   -0.382918
 ---------------------------------------------------------------------

 SCF Done:  E(UB3LYP) =  -1136.12636391     A.U. after   22 cycles

 The electronic state is 2-A.
 Alpha  occ. eigenvalues --  -38.44450 -38.44438 -38.44296 -38.43713 -38.43529
 Alpha  occ. eigenvalues --  -38.43435 -38.43318  -2.20303  -2.20262  -2.20209
 Alpha  occ. eigenvalues --   -2.19521  -2.19381  -2.19301  -2.19158  -1.13994
 Alpha  occ. eigenvalues --   -1.13981  -1.13950  -1.13944  -1.13940  -1.13929
 Alpha  occ. eigenvalues --   -1.13898  -1.13859  -1.13827  -1.13186  -1.13168
 Alpha  occ. eigenvalues --   -1.13148  -1.13048  -1.13033  -1.13006  -1.12971
 Alpha  occ. eigenvalues --   -1.12944  -1.12922  -1.12818  -1.12808  -1.12787
 Alpha  occ. eigenvalues --   -0.17567  -0.13855  -0.13032  -0.09650
 Alpha virt. eigenvalues --   -0.06447  -0.06057  -0.04052  -0.03482  -0.02952
 Alpha virt. eigenvalues --   -0.02268  -0.01934  -0.01252  -0.00848  -0.00515
 Alpha virt. eigenvalues --    0.00044   0.00156   0.00333   0.00624   0.00778

  Beta  occ. eigenvalues --  -38.44440 -38.44426 -38.44302 -38.43666 -38.43486
  Beta  occ. eigenvalues --  -38.43387 -38.43273  -2.20293  -2.20246  -2.20217
  Beta  occ. eigenvalues --   -2.19436  -2.19303  -2.19214  -2.19077  -1.13997
  Beta  occ. eigenvalues --   -1.13977  -1.13946  -1.13932  -1.13924  -1.13887
  Beta  occ. eigenvalues --   -1.13874  -1.13839  -1.13835  -1.13128  -1.13103
  Beta  occ. eigenvalues --   -1.13093  -1.12994  -1.12984  -1.12944  -1.12915
  Beta  occ. eigenvalues --   -1.12887  -1.12855  -1.12763  -1.12750  -1.12730
  Beta  occ. eigenvalues --   -0.17252  -0.13145  -0.12482
  Beta virt. eigenvalues --   -0.06511  -0.06434  -0.05772  -0.03862  -0.02897
  Beta virt. eigenvalues --   -0.02393  -0.02048  -0.01900  -0.00974  -0.00584
  Beta virt. eigenvalues --   -0.00390   0.00280   0.00354   0.00422   0.00694

 Mulliken charges and spin densities:
               1          2
     1  Na  -0.606286  -0.080461
     2  Na  -0.289825   0.201464
     3  Na   0.313761   0.099807
     4  Na   0.467463   0.068050
     5  Na   0.157838   0.281796
     6  Na  -0.224799   0.193922
     7  Na   0.181848   0.235423
 Sum of Mulliken charges =  -0.00000   1.00000

 Dipole moment (field-independent basis, Debye):
    X=              0.3568    Y=             -0.1615    Z=              0.3188  Tot=              0.5050
 Quadrupole moment (field-independent basis, Debye-Ang):
   XX=            -60.3914   YY=            -67.2432   ZZ=            -70.8499
   XY=             -1.6599   XZ=              0.4176   YZ=              0.1042

 Normal termination of Gaussian 16 at Wed Nov 29 15:54:13 2023.
