 Gaussian 16, Revision B.01,
 Gaussian 16:  ES64L-G16RevB.01 20-Dec-2017

 -------------------------
 #P B3LYP/6-311+g(d) force
 -------------------------

 -----
 DPGEN
 -----
 Symbolic Z-matrix:
 Charge =  0 Multiplicity = 2

                         Standard orientation:
 ---------------------------------------------------------------------
 Center     Atomic      Atomic             Coordinates (Angstroms)
 Number     Number       Type             X           Y           Z
 ---------------------------------------------------------------------
      1         11           0       -0.102647    0.156633    2.223042
      2         11           0        1.145001   -2.572491   -0.038653
      3         11           0       -0.327443   -0.202216   -1.535511
      4         11           0       -1.974575    2.397865   -0.382157
      5         11           0        3.130806   -0.371667   -0.311268
      6         11           0        1.295239    2.391028    0.029278
      7         11           0       -3.166381   -1.799151    0.015269
 ---------------------------------------------------------------------

 SCF Done:  E(UB3LYP) =  -1136.12988380     A.U. after   21 cycles

 The electronic state is 2-A.
 Alpha  occ. eigenvalues --  -38.44440 -38.44040 -38.43871 -38.43850 -38.43814
 Alpha  occ. eigenvalues --  -38.43250 -38.43174  -2.20181  -2.19876  -2.19738
 Alpha  occ. eigenvalues --   -2.19728  -2.19699  -2.19217  -2.19074  -1.13859
 Alpha  occ. eigenvalues --   -1.13839  -1.13822  -1.13569  -1.13549  -1.13529
 Alpha  occ. eigenvalues --   -1.13508  -1.13412  -1.13393  -1.13378  -1.13368
 Alpha  occ. eigenvalues --   -1.13355  -1.13344  -1.13329  -1.13254  -1.12910
 Alpha  occ. eigenvalues --   -1.12875  -1.12830  -1.12745  -1.12733  -1.12712
 Alpha  occ. eigenvalues --   -0.18560  -0.13019  -0.12289  -0.10826
 Alpha virt. eigenvalues --   -0.06029  -0.05393  -0.04333  -0.03158  -0.02865
 Alpha virt. eigenvalues --   -0.02716  -0.01753  -0.01349  -0.00377  -0.00225
 Alpha virt. eigenvalues --   -0.00044   0.00304   0.00730   0.00809   0.00902

  Beta  occ. eigenvalues --  -38.44445 -38.44031 -38.43844 -38.43807 -38.43762
  Beta  occ. eigenvalues --  -38.43199 -38.43165  -2.20192  -2.19862  -2.19729
  Beta  occ. eigenvalues --   -2.19691  -2.19527  -2.19126  -2.19063  -1.13857
  Beta  occ. eigenvalues --   -1.13847  -1.13829  -1.13553  -1.13547  -1.13508
  Beta  occ. eigenvalues --   -1.13500  -1.13404  -1.13367  -1.13349  -1.13309
  Beta  occ. eigenvalues --   -1.13254  -1.13251  -1.13209  -1.13201  -1.12848
  Beta  occ. eigenvalues --   -1.12809  -1.12768  -1.12731  -1.12711  -1.12687
  Beta  occ. eigenvalues --   -0.17820  -0.12785  -0.12114
  Beta virt. eigenvalues --   -0.06839  -0.06016  -0.05315  -0.04308  -0.02408
  Beta virt. eigenvalues --   -0.02147  -0.01774  -0.01508  -0.01260  -0.00425
  Beta virt. eigenvalues --   -0.00248   0.00115   0.00340   0.00779   0.00844

 Mulliken charges and spin densities:
               1          2
     1  Na  -0.638555   0.688903
     2  Na   0.305017   0.056040
     3  Na  -0.326884   0.151789
     4  Na   0.201829  -0.035031
     5  Na   0.057918   0.041022
     6  Na   0.397599   0.162006
     7  Na   0.003076  -0.064729
 Sum of Mulliken charges =  -0.00000   1.00000

 Dipole moment (field-independent basis, Debye):
    X=             -0.4597    Y=             -0.0480    Z=              0.1776  Tot=              0.4952
 Quadrupole moment (field-independent basis, Debye-Ang):
   XX=            -55.6962   YY=            -63.5579   ZZ=            -74.4858
   XY=             -0.2045   XZ=             -0.7782   YZ=             -1.0328

 Normal termination of Gaussian 16 at Thu Dec  7 08:21:34 2023.
