 Gaussian 16, Revision B.01,
 Gaussian 16:  ES64L-G16RevB.01 20-Dec-2017

 -------------------------
 #P B3LYP/6-311+g(d) force
 -------------------------

 -----
 DPGEN
 -----
 Symbolic Z-matrix:
 Charge =  0 Multiplicity = 2

                         Standard orientation:
 ---------------------------------------------------------------------
 Center     Atomic      Atomic             Coordinates (Angstroms)
 Number     Number       Type             X           Y           Z
 ---------------------------------------------------------------------
      1         11           0       -2.031207   -1.607953    0.908434
      2         11           0        1.309017   -0.468230    1.962501
      3         11           0       -0.981723    2.148636    0.638716
      4         11           0        3.143507   -1.615437   -0.554591
      5         11           0        0.010360   -0.799384   -1.700556
      6         11           0        2.538099    2.127458   -0.511593
      7         11           0       -3.988053    0.214912   -0.742911
 ---------------------------------------------------------------------

 SCF Done:  E(UB3LYP) =  -1136.12391482     A.U. after   24 cycles

 The electronic state is 2-A.
 Alpha  occ. eigenvalues --  -38.45188 -38.44771 -38.44021 -38.43952 -38.43851
 Alpha  occ. eigenvalues --  -38.43757 -38.42909  -2.20994  -2.20599  -2.19891
 Alpha  occ. eigenvalues --   -2.19777  -2.19727  -2.19546  -2.18714  -1.14679
 Alpha  occ. eigenvalues --   -1.14638  -1.14623  -1.14298  -1.14254  -1.14214
 Alpha  occ. eigenvalues --   -1.13574  -1.13540  -1.13530  -1.13479  -1.13435
 Alpha  occ. eigenvalues --   -1.13419  -1.13399  -1.13350  -1.13333  -1.13228
 Alpha  occ. eigenvalues --   -1.13196  -1.13176  -1.12413  -1.12400  -1.12323
 Alpha  occ. eigenvalues --   -0.18073  -0.14016  -0.11013  -0.10961
 Alpha virt. eigenvalues --   -0.06953  -0.05543  -0.04506  -0.03092  -0.02838
 Alpha virt. eigenvalues --   -0.02468  -0.02386  -0.01211  -0.00901  -0.00344
 Alpha virt. eigenvalues --    0.00094   0.00177   0.00283   0.00606   0.00666

  Beta  occ. eigenvalues --  -38.45171 -38.44734 -38.43996 -38.43948 -38.43774
  Beta  occ. eigenvalues --  -38.43743 -38.42904  -2.20961  -2.20532  -2.19848
  Beta  occ. eigenvalues --   -2.19772  -2.19587  -2.19522  -2.18709  -1.14659
  Beta  occ. eigenvalues --   -1.14613  -1.14600  -1.14244  -1.14206  -1.14164
  Beta  occ. eigenvalues --   -1.13549  -1.13507  -1.13474  -1.13462  -1.13425
  Beta  occ. eigenvalues --   -1.13409  -1.13301  -1.13259  -1.13235  -1.13206
  Beta  occ. eigenvalues --   -1.13180  -1.13156  -1.12412  -1.12373  -1.12323
  Beta  occ. eigenvalues --   -0.17366  -0.13810  -0.10810
  Beta virt. eigenvalues --   -0.07182  -0.06718  -0.05433  -0.03985  -0.02961
  Beta virt. eigenvalues --   -0.02483  -0.01888  -0.01705  -0.01094  -0.00529
  Beta virt. eigenvalues --   -0.00251   0.00128   0.00216   0.00427   0.00654

 Mulliken charges and spin densities:
               1          2
     1  Na  -0.049268   0.118120
     2  Na   0.276878   0.357514
     3  Na  -0.522351  -0.016960
     4  Na   0.216294   0.044241
     5  Na  -0.218969   0.304522
     6  Na  -0.176057   0.080489
     7  Na   0.473473   0.112073
 Sum of Mulliken charges =  -0.00000   1.00000

 Dipole moment (field-independent basis, Debye):
    X=             -0.6647    Y=             -0.2301    Z=             -0.3869  Tot=              0.8028
 Quadrupole moment (field-independent basis, Debye-Ang):
   XX=            -47.1278   YY=            -77.1705   ZZ=            -69.8639
   XY=             -0.9502   XZ=              1.4388   YZ=             -2.5644

 Normal termination of Gaussian 16 at Tue Dec  5 15:59:28 2023.
