 Gaussian 16, Revision B.01,
 Gaussian 16:  ES64L-G16RevB.01 20-Dec-2017

 -------------------------
 #P B3LYP/6-311+g(d) force
 -------------------------

 -----
 DPGEN
 -----
 Symbolic Z-matrix:
 Charge =  0 Multiplicity = 2

                         Standard orientation:
 ---------------------------------------------------------------------
 Center     Atomic      Atomic             Coordinates (Angstroms)
 Number     Number       Type             X           Y           Z
 ---------------------------------------------------------------------
      1         11           0        2.186310   -2.141776   -0.776819
      2         11           0        3.947388    0.494212    0.738161
      3         11           0        1.256992    1.511598   -1.190655
      4         11           0        0.295959   -0.302441    1.953652
      5         11           0       -4.133500   -0.662051    0.685804
      6         11           0       -1.814355   -1.297877   -1.135787
      7         11           0       -1.738794    2.398335   -0.274357
 ---------------------------------------------------------------------

 SCF Done:  E(UB3LYP) =  -1136.11586700     A.U. after   31 cycles

 The electronic state is 2-A.
 Alpha  occ. eigenvalues --  -38.45972 -38.45228 -38.44659 -38.43966 -38.43946
 Alpha  occ. eigenvalues --  -38.43013 -38.42817  -2.21743  -2.21030  -2.20461
 Alpha  occ. eigenvalues --   -2.19819  -2.19762  -2.18832  -2.18695  -1.15433
 Alpha  occ. eigenvalues --   -1.15394  -1.15352  -1.14704  -1.14680  -1.14655
 Alpha  occ. eigenvalues --   -1.14184  -1.14113  -1.14096  -1.13499  -1.13468
 Alpha  occ. eigenvalues --   -1.13454  -1.13434  -1.13422  -1.13386  -1.12525
 Alpha  occ. eigenvalues --   -1.12504  -1.12473  -1.12369  -1.12360  -1.12304
 Alpha  occ. eigenvalues --   -0.17841  -0.14054  -0.11095  -0.10558
 Alpha virt. eigenvalues --   -0.07608  -0.05430  -0.04663  -0.03172  -0.03153
 Alpha virt. eigenvalues --   -0.02339  -0.02229  -0.01403  -0.01129  -0.00552
 Alpha virt. eigenvalues --   -0.00090   0.00091   0.00202   0.00568   0.00621

  Beta  occ. eigenvalues --  -38.45920 -38.45203 -38.44674 -38.43946 -38.43905
  Beta  occ. eigenvalues --  -38.43019 -38.42787  -2.21647  -2.20984  -2.20488
  Beta  occ. eigenvalues --   -2.19783  -2.19689  -2.18842  -2.18640  -1.15354
  Beta  occ. eigenvalues --   -1.15330  -1.15280  -1.14664  -1.14647  -1.14625
  Beta  occ. eigenvalues --   -1.14208  -1.14128  -1.14112  -1.13473  -1.13432
  Beta  occ. eigenvalues --   -1.13426  -1.13379  -1.13370  -1.13324  -1.12530
  Beta  occ. eigenvalues --   -1.12507  -1.12478  -1.12336  -1.12296  -1.12280
  Beta  occ. eigenvalues --   -0.17153  -0.14067  -0.10859
  Beta virt. eigenvalues --   -0.07285  -0.06889  -0.05280  -0.04172  -0.02990
  Beta virt. eigenvalues --   -0.02869  -0.01745  -0.01514  -0.01107  -0.00972
  Beta virt. eigenvalues --   -0.00487  -0.00047   0.00159   0.00360   0.00646

 Mulliken charges and spin densities:
               1          2
     1  Na  -0.034870   0.155610
     2  Na   0.674415   0.092782
     3  Na  -0.371268   0.282547
     4  Na  -0.382467   0.437470
     5  Na   0.506989  -0.030927
     6  Na  -0.390449   0.092372
     7  Na  -0.002351  -0.029854
 Sum of Mulliken charges =  -0.00000   1.00000

 Dipole moment (field-independent basis, Debye):
    X=              0.4480    Y=              0.0343    Z=              0.7587  Tot=              0.8818
 Quadrupole moment (field-independent basis, Debye-Ang):
   XX=            -48.5202   YY=            -76.6805   ZZ=            -70.8144
   XY=             -1.2389   XZ=             -2.1008   YZ=              1.8352

 Normal termination of Gaussian 16 at Thu Dec  7 09:50:08 2023.
