 Gaussian 16, Revision B.01,
 Gaussian 16:  ES64L-G16RevB.01 20-Dec-2017

 -------------------------
 #P B3LYP/6-311+g(d) force
 -------------------------

 -----
 DPGEN
 -----
 Symbolic Z-matrix:
 Charge =  0 Multiplicity = 2

                         Standard orientation:
 ---------------------------------------------------------------------
 Center     Atomic      Atomic             Coordinates (Angstroms)
 Number     Number       Type             X           Y           Z
 ---------------------------------------------------------------------
      1         11           0       -2.540871   -2.071836   -0.092438
      2         11           0        0.192045   -0.093095   -1.406372
      3         11           0       -2.754436    1.291325   -0.079838
      4         11           0        0.411202    3.251075   -0.067048
      5         11           0        0.061897    0.031632    1.718103
      6         11           0        3.239494    0.174133   -0.088042
      7         11           0        1.390669   -2.583235    0.015634
 ---------------------------------------------------------------------

 SCF Done:  E(UB3LYP) =  -1136.13455618     A.U. after   19 cycles

 The electronic state is 2-A.
 Alpha  occ. eigenvalues --  -38.44382 -38.44008 -38.43813 -38.43701 -38.43689
 Alpha  occ. eigenvalues --  -38.42858 -38.42796  -2.20221  -2.19848  -2.19629
 Alpha  occ. eigenvalues --   -2.19582  -2.19493  -2.18886  -2.18760  -1.13899
 Alpha  occ. eigenvalues --   -1.13880  -1.13860  -1.13529  -1.13523  -1.13481
 Alpha  occ. eigenvalues --   -1.13303  -1.13295  -1.13283  -1.13274  -1.13242
 Alpha  occ. eigenvalues --   -1.13196  -1.13167  -1.13149  -1.13138  -1.12656
 Alpha  occ. eigenvalues --   -1.12516  -1.12489  -1.12436  -1.12369  -1.12357
 Alpha  occ. eigenvalues --   -0.18701  -0.13289  -0.12394  -0.09914
 Alpha virt. eigenvalues --   -0.05862  -0.05293  -0.05126  -0.02952  -0.02460
 Alpha virt. eigenvalues --   -0.01801  -0.01778  -0.01419  -0.00648  -0.00607
 Alpha virt. eigenvalues --    0.00045   0.00331   0.00754   0.00800   0.00846

  Beta  occ. eigenvalues --  -38.44376 -38.44003 -38.43811 -38.43700 -38.43679
  Beta  occ. eigenvalues --  -38.42801 -38.42709  -2.20213  -2.19842  -2.19628
  Beta  occ. eigenvalues --   -2.19569  -2.19494  -2.18786  -2.18600  -1.13891
  Beta  occ. eigenvalues --   -1.13861  -1.13849  -1.13527  -1.13496  -1.13481
  Beta  occ. eigenvalues --   -1.13296  -1.13285  -1.13279  -1.13269  -1.13200
  Beta  occ. eigenvalues --   -1.13190  -1.13154  -1.13147  -1.13141  -1.12569
  Beta  occ. eigenvalues --   -1.12442  -1.12415  -1.12330  -1.12254  -1.12243
  Beta  occ. eigenvalues --   -0.17995  -0.13034  -0.12172
  Beta virt. eigenvalues --   -0.06063  -0.05817  -0.05298  -0.05095  -0.02162
  Beta virt. eigenvalues --   -0.01778  -0.01701  -0.01359  -0.00860  -0.00687
  Beta virt. eigenvalues --   -0.00613   0.00196   0.00381   0.00786   0.00807

 Mulliken charges and spin densities:
               1          2
     1  Na   0.147268  -0.037021
     2  Na  -0.593449   0.535020
     3  Na   0.121253  -0.049211
     4  Na  -0.007234  -0.113035
     5  Na  -0.324211   0.722613
     6  Na   0.257336  -0.061811
     7  Na   0.399038   0.003445
 Sum of Mulliken charges =  -0.00000   1.00000

 Dipole moment (field-independent basis, Debye):
    X=              0.1882    Y=              0.0551    Z=              0.1011  Tot=              0.2206
 Quadrupole moment (field-independent basis, Debye-Ang):
   XX=            -53.0752   YY=            -57.9525   ZZ=            -78.8819
   XY=              0.7344   XZ=              0.2709   YZ=             -0.2559

 Normal termination of Gaussian 16 at Sat Dec  9 06:41:01 2023.
