 Gaussian 16, Revision B.01,
 Gaussian 16:  ES64L-G16RevB.01 20-Dec-2017

 -------------------------
 #P B3LYP/6-311+g(d) force
 -------------------------

 -----
 DPGEN
 -----
 Symbolic Z-matrix:
 Charge =  0 Multiplicity = 2

                         Standard orientation:
 ---------------------------------------------------------------------
 Center     Atomic      Atomic             Coordinates (Angstroms)
 Number     Number       Type             X           Y           Z
 ---------------------------------------------------------------------
      1         11           0       -1.318546   -2.498154   -0.196150
      2         11           0       -0.888540    2.731284    0.240558
      3         11           0        0.038308    0.073982   -1.735204
      4         11           0        0.191776    0.037633    2.137266
      5         11           0        2.171330   -1.858457    0.226647
      6         11           0       -3.143468    0.214350   -0.181317
      7         11           0        2.949140    1.299361   -0.491798
 ---------------------------------------------------------------------

 SCF Done:  E(UB3LYP) =  -1136.13789809     A.U. after   19 cycles

 The electronic state is 2-A.
 Alpha  occ. eigenvalues --  -38.44075 -38.44074 -38.43908 -38.43504 -38.43495
 Alpha  occ. eigenvalues --  -38.43161 -38.42951  -2.19924  -2.19899  -2.19795
 Alpha  occ. eigenvalues --   -2.19465  -2.19377  -2.19006  -2.18829  -1.13596
 Alpha  occ. eigenvalues --   -1.13592  -1.13580  -1.13568  -1.13559  -1.13534
 Alpha  occ. eigenvalues --   -1.13457  -1.13429  -1.13414  -1.13155  -1.13114
 Alpha  occ. eigenvalues --   -1.13093  -1.13055  -1.13031  -1.13004  -1.12684
 Alpha  occ. eigenvalues --   -1.12676  -1.12635  -1.12513  -1.12491  -1.12460
 Alpha  occ. eigenvalues --   -0.18726  -0.13259  -0.12149  -0.11134
 Alpha virt. eigenvalues --   -0.05762  -0.05048  -0.04325  -0.03409  -0.02905
 Alpha virt. eigenvalues --   -0.02863  -0.01640  -0.00968  -0.00264  -0.00121
 Alpha virt. eigenvalues --   -0.00035   0.00355   0.00782   0.00904   0.00913

  Beta  occ. eigenvalues --  -38.44073 -38.44062 -38.43808 -38.43486 -38.43441
  Beta  occ. eigenvalues --  -38.43155 -38.42947  -2.19923  -2.19880  -2.19611
  Beta  occ. eigenvalues --   -2.19366  -2.19349  -2.18999  -2.18825  -1.13595
  Beta  occ. eigenvalues --   -1.13584  -1.13561  -1.13559  -1.13540  -1.13519
  Beta  occ. eigenvalues --   -1.13337  -1.13295  -1.13285  -1.13086  -1.13047
  Beta  occ. eigenvalues --   -1.13029  -1.13011  -1.13000  -1.12985  -1.12679
  Beta  occ. eigenvalues --   -1.12648  -1.12633  -1.12508  -1.12483  -1.12446
  Beta  occ. eigenvalues --   -0.17988  -0.13012  -0.11896
  Beta virt. eigenvalues --   -0.07200  -0.05705  -0.05018  -0.04289  -0.02636
  Beta virt. eigenvalues --   -0.02129  -0.01804  -0.01527  -0.00901  -0.00289
  Beta virt. eigenvalues --   -0.00157   0.00091   0.00383   0.00862   0.00901

 Mulliken charges and spin densities:
               1          2
     1  Na   0.143591  -0.030569
     2  Na   0.098411  -0.040802
     3  Na  -0.289231   0.462000
     4  Na  -0.462955   0.632095
     5  Na   0.291607   0.055615
     6  Na   0.095566  -0.049630
     7  Na   0.123011  -0.028709
 Sum of Mulliken charges =  -0.00000   1.00000

 Dipole moment (field-independent basis, Debye):
    X=              0.1179    Y=              0.1801    Z=              0.1010  Tot=              0.2377
 Quadrupole moment (field-independent basis, Debye-Ang):
   XX=            -56.0091   YY=            -66.1907   ZZ=            -72.3300
   XY=              0.4404   XZ=             -0.3103   YZ=             -0.3277

 Normal termination of Gaussian 16 at Tue Dec  5 21:56:11 2023.
