 Gaussian 16, Revision B.01,
 Gaussian 16:  ES64L-G16RevB.01 20-Dec-2017

 -------------------------
 #P B3LYP/6-311+g(d) force
 -------------------------

 -----
 DPGEN
 -----
 Symbolic Z-matrix:
 Charge =  0 Multiplicity = 2

                         Standard orientation:
 ---------------------------------------------------------------------
 Center     Atomic      Atomic             Coordinates (Angstroms)
 Number     Number       Type             X           Y           Z
 ---------------------------------------------------------------------
      1         11           0       -1.370645   -3.165800    0.514712
      2         11           0       -2.693546    3.063440   -0.166982
      3         11           0       -3.630095   -0.140419   -0.613780
      4         11           0       -1.069975    0.345274    1.453710
      5         11           0        0.713500   -1.830045   -1.245296
      6         11           0        4.563616   -0.879210    0.251377
      7         11           0        3.487144    2.606760   -0.193741
 ---------------------------------------------------------------------

 SCF Done:  E(UB3LYP) =  -1136.10473104     A.U. after   28 cycles

 The electronic state is 2-A.
 Alpha  occ. eigenvalues --  -38.44970 -38.44865 -38.44659 -38.44535 -38.44149
 Alpha  occ. eigenvalues --  -38.44075 -38.43662  -2.20691  -2.20671  -2.20491
 Alpha  occ. eigenvalues --   -2.20276  -2.19942  -2.19920  -2.19528  -1.14370
 Alpha  occ. eigenvalues --   -1.14370  -1.14352  -1.14338  -1.14319  -1.14297
 Alpha  occ. eigenvalues --   -1.14170  -1.14158  -1.14102  -1.13951  -1.13932
 Alpha  occ. eigenvalues --   -1.13902  -1.13612  -1.13601  -1.13600  -1.13579
 Alpha  occ. eigenvalues --   -1.13569  -1.13552  -1.13207  -1.13189  -1.13128
 Alpha  occ. eigenvalues --   -0.16880  -0.13350  -0.12359  -0.09280
 Alpha virt. eigenvalues --   -0.07033  -0.06476  -0.05204  -0.02981  -0.02883
 Alpha virt. eigenvalues --   -0.02541  -0.02123  -0.01645  -0.01425  -0.01218
 Alpha virt. eigenvalues --   -0.00239   0.00112   0.00263   0.00307   0.00388

  Beta  occ. eigenvalues --  -38.44959 -38.44847 -38.44621 -38.44513 -38.44143
  Beta  occ. eigenvalues --  -38.44072 -38.43599  -2.20670  -2.20637  -2.20423
  Beta  occ. eigenvalues --   -2.20234  -2.19934  -2.19917  -2.19411  -1.14356
  Beta  occ. eigenvalues --   -1.14349  -1.14335  -1.14304  -1.14302  -1.14274
  Beta  occ. eigenvalues --   -1.14119  -1.14108  -1.14049  -1.13922  -1.13900
  Beta  occ. eigenvalues --   -1.13873  -1.13609  -1.13599  -1.13584  -1.13566
  Beta  occ. eigenvalues --   -1.13565  -1.13534  -1.13127  -1.13106  -1.13045
  Beta  occ. eigenvalues --   -0.16410  -0.13004  -0.12210
  Beta virt. eigenvalues --   -0.06742  -0.06260  -0.05717  -0.05155  -0.02728
  Beta virt. eigenvalues --   -0.02446  -0.02176  -0.01966  -0.01498  -0.01348
  Beta virt. eigenvalues --   -0.00744   0.00015   0.00251   0.00370   0.00464

 Mulliken charges and spin densities:
               1          2
     1  Na   0.261848   0.046329
     2  Na   0.222518  -0.038997
     3  Na  -0.007872   0.344909
     4  Na  -0.500765   0.382178
     5  Na   0.035347   0.107741
     6  Na   0.028958   0.092937
     7  Na  -0.040034   0.064903
 Sum of Mulliken charges =  -0.00000   1.00000

 Dipole moment (field-independent basis, Debye):
    X=             -0.3319    Y=             -0.1388    Z=              0.1022  Tot=              0.3740
 Quadrupole moment (field-independent basis, Debye-Ang):
   XX=            -67.9212   YY=            -58.3752   ZZ=            -74.8387
   XY=              5.0359   XZ=             -0.1878   YZ=             -4.4621

 Normal termination of Gaussian 16 at Fri Dec  8 19:06:38 2023.
