 Gaussian 16, Revision B.01,
 Gaussian 16:  ES64L-G16RevB.01 20-Dec-2017

 -------------------------
 #P B3LYP/6-311+g(d) force
 -------------------------

 -----
 DPGEN
 -----
 Symbolic Z-matrix:
 Charge =  0 Multiplicity = 2

                         Standard orientation:
 ---------------------------------------------------------------------
 Center     Atomic      Atomic             Coordinates (Angstroms)
 Number     Number       Type             X           Y           Z
 ---------------------------------------------------------------------
      1         11           0       -0.400604    0.389055   -1.228415
      2         11           0        1.617859   -2.087365    0.208354
      3         11           0       -0.639510    2.817811    0.422985
      4         11           0        1.110385    0.816519    1.458166
      5         11           0        2.236908    0.269775   -1.446122
      6         11           0       -0.831284   -1.325703    1.267186
      7         11           0       -3.093753   -0.880093   -0.682154
 ---------------------------------------------------------------------

 SCF Done:  E(UB3LYP) =  -1136.09593448     A.U. after   20 cycles

 The electronic state is 2-A.
 Alpha  occ. eigenvalues --  -38.44515 -38.43898 -38.43672 -38.43625 -38.43578
 Alpha  occ. eigenvalues --  -38.43565 -38.43466  -2.20558  -2.19840  -2.19786
 Alpha  occ. eigenvalues --   -2.19735  -2.19699  -2.19591  -2.19552  -1.14484
 Alpha  occ. eigenvalues --   -1.14190  -1.14128  -1.13753  -1.13653  -1.13586
 Alpha  occ. eigenvalues --   -1.13551  -1.13497  -1.13459  -1.13410  -1.13383
 Alpha  occ. eigenvalues --   -1.13375  -1.13287  -1.13258  -1.13243  -1.13220
 Alpha  occ. eigenvalues --   -1.13182  -1.13149  -1.13127  -1.13116  -1.13095
 Alpha  occ. eigenvalues --   -0.20436  -0.13252  -0.12671  -0.12144
 Alpha virt. eigenvalues --   -0.05211  -0.04677  -0.03883  -0.03445  -0.03261
 Alpha virt. eigenvalues --   -0.02906  -0.01162  -0.00851  -0.00284   0.00318
 Alpha virt. eigenvalues --    0.00608   0.00823   0.00838   0.00935   0.01143

  Beta  occ. eigenvalues --  -38.44456 -38.43884 -38.43617 -38.43606 -38.43554
  Beta  occ. eigenvalues --  -38.43534 -38.43411  -2.20452  -2.19760  -2.19725
  Beta  occ. eigenvalues --   -2.19640  -2.19631  -2.19570  -2.19539  -1.14398
  Beta  occ. eigenvalues --   -1.14122  -1.14048  -1.13687  -1.13594  -1.13550
  Beta  occ. eigenvalues --   -1.13488  -1.13455  -1.13388  -1.13375  -1.13345
  Beta  occ. eigenvalues --   -1.13315  -1.13234  -1.13217  -1.13186  -1.13177
  Beta  occ. eigenvalues --   -1.13132  -1.13120  -1.13097  -1.13088  -1.13058
  Beta  occ. eigenvalues --   -0.19664  -0.12984  -0.12390
  Beta virt. eigenvalues --   -0.07938  -0.05060  -0.04662  -0.03529  -0.02994
  Beta virt. eigenvalues --   -0.02516  -0.01848  -0.01036  -0.00793  -0.00038
  Beta virt. eigenvalues --    0.00358   0.00624   0.00866   0.00891   0.01005

 Mulliken charges and spin densities:
               1          2
     1  Na  -0.873086   0.138694
     2  Na  -0.064557   0.153763
     3  Na  -0.156563   0.023519
     4  Na   0.039144   0.346008
     5  Na   0.629427   0.229655
     6  Na   0.089826   0.110550
     7  Na   0.335810  -0.002189
 Sum of Mulliken charges =  -0.00000   1.00000

 Dipole moment (field-independent basis, Debye):
    X=             -0.0678    Y=              0.1259    Z=             -0.0964  Tot=              0.1725
 Quadrupole moment (field-independent basis, Debye-Ang):
   XX=            -60.1142   YY=            -66.4360   ZZ=            -68.1226
   XY=             -1.3748   XZ=             -0.1045   YZ=              0.3592

 Normal termination of Gaussian 16 at Fri Dec  8 19:23:06 2023.
