 Gaussian 16, Revision B.01,
 Gaussian 16:  ES64L-G16RevB.01 20-Dec-2017

 -------------------------
 #P B3LYP/6-311+g(d) force
 -------------------------

 -----
 DPGEN
 -----
 Symbolic Z-matrix:
 Charge =  0 Multiplicity = 2

                         Standard orientation:
 ---------------------------------------------------------------------
 Center     Atomic      Atomic             Coordinates (Angstroms)
 Number     Number       Type             X           Y           Z
 ---------------------------------------------------------------------
      1         11           0       -0.312758   -1.767962   -0.934419
      2         11           0       -2.844082   -2.979444    0.351861
      3         11           0       -2.990596    0.131951    1.011858
      4         11           0       -2.722263    3.288605   -0.247110
      5         11           0        0.168523    1.641601   -0.487103
      6         11           0        3.171178   -0.756421   -0.618003
      7         11           0        5.529998    0.441670    0.922915
 ---------------------------------------------------------------------

 SCF Done:  E(UB3LYP) =  -1136.12560062     A.U. after   20 cycles

 The electronic state is 2-A.
 Alpha  occ. eigenvalues --  -38.44358 -38.44331 -38.44326 -38.43831 -38.43768
 Alpha  occ. eigenvalues --  -38.43532 -38.43410  -2.20222  -2.20162  -2.20160
 Alpha  occ. eigenvalues --   -2.19719  -2.19587  -2.19404  -2.19247  -1.13915
 Alpha  occ. eigenvalues --   -1.13894  -1.13858  -1.13852  -1.13840  -1.13826
 Alpha  occ. eigenvalues --   -1.13785  -1.13782  -1.13749  -1.13401  -1.13389
 Alpha  occ. eigenvalues --   -1.13371  -1.13252  -1.13245  -1.13219  -1.13061
 Alpha  occ. eigenvalues --   -1.13041  -1.13035  -1.12931  -1.12922  -1.12898
 Alpha  occ. eigenvalues --   -0.17177  -0.14074  -0.12664  -0.11247
 Alpha virt. eigenvalues --   -0.05644  -0.05389  -0.04594  -0.04021  -0.02517
 Alpha virt. eigenvalues --   -0.02297  -0.01961  -0.01761  -0.01020  -0.00663
 Alpha virt. eigenvalues --   -0.00143   0.00095   0.00347   0.00417   0.00683

  Beta  occ. eigenvalues --  -38.44324 -38.44295 -38.44236 -38.43791 -38.43763
  Beta  occ. eigenvalues --  -38.43518 -38.43407  -2.20160  -2.20106  -2.19986
  Beta  occ. eigenvalues --   -2.19648  -2.19577  -2.19379  -2.19252  -1.13872
  Beta  occ. eigenvalues --   -1.13854  -1.13820  -1.13813  -1.13788  -1.13712
  Beta  occ. eigenvalues --   -1.13705  -1.13664  -1.13662  -1.13351  -1.13346
  Beta  occ. eigenvalues --   -1.13312  -1.13241  -1.13238  -1.13215  -1.13030
  Beta  occ. eigenvalues --   -1.13025  -1.13018  -1.12935  -1.12933  -1.12837
  Beta  occ. eigenvalues --   -0.16583  -0.13160  -0.12599
  Beta virt. eigenvalues --   -0.07739  -0.05483  -0.04977  -0.04156  -0.03774
  Beta virt. eigenvalues --   -0.02182  -0.02077  -0.01777  -0.01345  -0.00875
  Beta virt. eigenvalues --   -0.00312   0.00112   0.00239   0.00457   0.00534

 Mulliken charges and spin densities:
               1          2
     1  Na  -0.965229   0.038718
     2  Na   1.466716   0.175554
     3  Na  -0.470023   0.289423
     4  Na   0.613871   0.100413
     5  Na  -0.820985   0.003568
     6  Na  -0.004454   0.046880
     7  Na   0.180105   0.345444
 Sum of Mulliken charges =  -0.00000   1.00000

 Dipole moment (field-independent basis, Debye):
    X=             -0.8679    Y=              0.4301    Z=              0.1298  Tot=              0.9773
 Quadrupole moment (field-independent basis, Debye-Ang):
   XX=            -64.5151   YY=            -62.4165   ZZ=            -69.7119
   XY=              0.7675   XZ=              1.3555   YZ=              0.4744

 Normal termination of Gaussian 16 at Tue Nov 28 20:14:28 2023.
