 Gaussian 16, Revision B.01,
 Gaussian 16:  ES64L-G16RevB.01 20-Dec-2017

 -------------------------
 #P B3LYP/6-311+g(d) force
 -------------------------

 -----
 DPGEN
 -----
 Symbolic Z-matrix:
 Charge =  0 Multiplicity = 2

                         Standard orientation:
 ---------------------------------------------------------------------
 Center     Atomic      Atomic             Coordinates (Angstroms)
 Number     Number       Type             X           Y           Z
 ---------------------------------------------------------------------
      1         11           0       -0.432907   -0.245479    2.083679
      2         11           0        3.266676   -0.734905    0.085312
      3         11           0        2.051562    2.193248   -0.288004
      4         11           0       -0.258952   -0.444504   -1.607258
      5         11           0       -1.494910    2.609526    0.055437
      6         11           0       -3.365606   -0.658834   -0.266117
      7         11           0        0.234137   -2.719052   -0.063050
 ---------------------------------------------------------------------

 SCF Done:  E(UB3LYP) =  -1136.12942791     A.U. after   21 cycles

 The electronic state is 2-A.
 Alpha  occ. eigenvalues --  -38.44910 -38.44404 -38.43597 -38.43554 -38.43548
 Alpha  occ. eigenvalues --  -38.43463 -38.43400  -2.20702  -2.20216  -2.19534
 Alpha  occ. eigenvalues --   -2.19476  -2.19374  -2.19364  -2.19229  -1.14382
 Alpha  occ. eigenvalues --   -1.14349  -1.14340  -1.13903  -1.13880  -1.13848
 Alpha  occ. eigenvalues --   -1.13455  -1.13189  -1.13140  -1.13123  -1.13116
 Alpha  occ. eigenvalues --   -1.13091  -1.13039  -1.13034  -1.13002  -1.12998
 Alpha  occ. eigenvalues --   -1.12964  -1.12944  -1.12900  -1.12896  -1.12866
 Alpha  occ. eigenvalues --   -0.18433  -0.13155  -0.12281  -0.10646
 Alpha virt. eigenvalues --   -0.06366  -0.05144  -0.04435  -0.03183  -0.02786
 Alpha virt. eigenvalues --   -0.02550  -0.02114  -0.01025  -0.00501  -0.00295
 Alpha virt. eigenvalues --   -0.00052   0.00296   0.00748   0.00805   0.00822

  Beta  occ. eigenvalues --  -38.44902 -38.44406 -38.43551 -38.43496 -38.43488
  Beta  occ. eigenvalues --  -38.43452 -38.43398  -2.20690  -2.20220  -2.19429
  Beta  occ. eigenvalues --   -2.19361  -2.19355  -2.19290  -2.19226  -1.14357
  Beta  occ. eigenvalues --   -1.14339  -1.14334  -1.13908  -1.13869  -1.13853
  Beta  occ. eigenvalues --   -1.13403  -1.13108  -1.13046  -1.13041  -1.13032
  Beta  occ. eigenvalues --   -1.13019  -1.13002  -1.12985  -1.12963  -1.12942
  Beta  occ. eigenvalues --   -1.12936  -1.12910  -1.12899  -1.12883  -1.12864
  Beta  occ. eigenvalues --   -0.17724  -0.12959  -0.12048
  Beta virt. eigenvalues --   -0.06716  -0.06309  -0.05141  -0.04375  -0.02470
  Beta virt. eigenvalues --   -0.02049  -0.01987  -0.01471  -0.00981  -0.00539
  Beta virt. eigenvalues --   -0.00325   0.00115   0.00340   0.00792   0.00854

 Mulliken charges and spin densities:
               1          2
     1  Na  -0.430848   0.717048
     2  Na   0.011730  -0.015835
     3  Na  -0.019310  -0.046632
     4  Na  -0.241706   0.523431
     5  Na  -0.073653  -0.039189
     6  Na   0.267281  -0.073521
     7  Na   0.486506  -0.065300
 Sum of Mulliken charges =  -0.00000   1.00000

 Dipole moment (field-independent basis, Debye):
    X=             -0.4499    Y=             -0.2263    Z=              0.1590  Tot=              0.5281
 Quadrupole moment (field-independent basis, Debye-Ang):
   XX=            -51.9885   YY=            -66.1355   ZZ=            -75.2494
   XY=             -0.7406   XZ=              0.6247   YZ=             -0.5553

 Normal termination of Gaussian 16 at Thu Dec  7 14:58:59 2023.
