 Gaussian 16, Revision B.01,
 Gaussian 16:  ES64L-G16RevB.01 20-Dec-2017

 -------------------------
 #P B3LYP/6-311+g(d) force
 -------------------------

 -----
 DPGEN
 -----
 Symbolic Z-matrix:
 Charge =  0 Multiplicity = 2

                         Standard orientation:
 ---------------------------------------------------------------------
 Center     Atomic      Atomic             Coordinates (Angstroms)
 Number     Number       Type             X           Y           Z
 ---------------------------------------------------------------------
      1         11           0       -0.320163    0.061085    1.938047
      2         11           0        4.480746   -0.034705    0.944087
      3         11           0        1.579080    1.993440   -1.032119
      4         11           0       -2.194869    1.887811   -0.996541
      5         11           0       -3.809729   -0.189171    1.288324
      6         11           0       -1.919099   -2.088968   -1.320630
      7         11           0        2.184034   -1.629492   -0.821168
 ---------------------------------------------------------------------

 SCF Done:  E(UB3LYP) =  -1136.11079167     A.U. after   42 cycles

 The electronic state is 2-A.
 Alpha  occ. eigenvalues --  -38.46439 -38.45266 -38.44500 -38.44450 -38.44075
 Alpha  occ. eigenvalues --  -38.43729 -38.42994  -2.22190  -2.21053  -2.20321
 Alpha  occ. eigenvalues --   -2.20249  -2.19860  -2.19509  -2.18783  -1.15874
 Alpha  occ. eigenvalues --   -1.15836  -1.15818  -1.14716  -1.14703  -1.14674
 Alpha  occ. eigenvalues --   -1.13988  -1.13971  -1.13947  -1.13931  -1.13923
 Alpha  occ. eigenvalues --   -1.13877  -1.13520  -1.13510  -1.13479  -1.13202
 Alpha  occ. eigenvalues --   -1.13177  -1.13154  -1.12475  -1.12460  -1.12393
 Alpha  occ. eigenvalues --   -0.17257  -0.14321  -0.11063  -0.10505
 Alpha virt. eigenvalues --   -0.07548  -0.05600  -0.05226  -0.03336  -0.03059
 Alpha virt. eigenvalues --   -0.02476  -0.02043  -0.01828  -0.01191  -0.00575
 Alpha virt. eigenvalues --   -0.00249   0.00071   0.00125   0.00276   0.00507

  Beta  occ. eigenvalues --  -38.46409 -38.45223 -38.44465 -38.44437 -38.44008
  Beta  occ. eigenvalues --  -38.43748 -38.42981  -2.22135  -2.20972  -2.20255
  Beta  occ. eigenvalues --   -2.20229  -2.19735  -2.19549  -2.18762  -1.15829
  Beta  occ. eigenvalues --   -1.15802  -1.15773  -1.14659  -1.14648  -1.14621
  Beta  occ. eigenvalues --   -1.13947  -1.13925  -1.13917  -1.13903  -1.13903
  Beta  occ. eigenvalues --   -1.13841  -1.13437  -1.13425  -1.13388  -1.13219
  Beta  occ. eigenvalues --   -1.13205  -1.13174  -1.12454  -1.12444  -1.12378
  Beta  occ. eigenvalues --   -0.16712  -0.13982  -0.10347
  Beta virt. eigenvalues --   -0.07436  -0.07249  -0.05361  -0.04831  -0.02976
  Beta virt. eigenvalues --   -0.02860  -0.02062  -0.01634  -0.01194  -0.01082
  Beta virt. eigenvalues --   -0.00517  -0.00073   0.00167   0.00225   0.00366

 Mulliken charges and spin densities:
               1          2
     1  Na  -0.689394   0.071173
     2  Na   0.645767   0.259727
     3  Na  -0.169956   0.040036
     4  Na  -0.210589  -0.049365
     5  Na   0.985355   0.226276
     6  Na  -0.284017   0.342798
     7  Na  -0.277167   0.109354
 Sum of Mulliken charges =  -0.00000   1.00000

 Dipole moment (field-independent basis, Debye):
    X=              0.4439    Y=              0.0505    Z=              1.0210  Tot=              1.1144
 Quadrupole moment (field-independent basis, Debye-Ang):
   XX=            -49.0144   YY=            -81.3217   ZZ=            -68.4114
   XY=              0.7420   XZ=              2.8440   YZ=              2.7499

 Normal termination of Gaussian 16 at Mon Dec  4 01:38:42 2023.
