 Gaussian 16, Revision B.01,
 Gaussian 16:  ES64L-G16RevB.01 20-Dec-2017

 -------------------------
 #P B3LYP/6-311+g(d) force
 -------------------------

 -----
 DPGEN
 -----
 Symbolic Z-matrix:
 Charge =  0 Multiplicity = 2

                         Standard orientation:
 ---------------------------------------------------------------------
 Center     Atomic      Atomic             Coordinates (Angstroms)
 Number     Number       Type             X           Y           Z
 ---------------------------------------------------------------------
      1         11           0        0.684133    1.903330    0.082308
      2         11           0        0.007271    0.062599   -1.782361
      3         11           0       -2.114588   -1.409824   -0.050208
      4         11           0       -2.120672    1.386849    0.000600
      5         11           0       -0.083563   -0.170061    1.823263
      6         11           0        0.814697   -1.816650   -0.105669
      7         11           0        2.812722    0.043757    0.032068
 ---------------------------------------------------------------------

 SCF Done:  E(UB3LYP) =  -1136.07537561     A.U. after   19 cycles

 The electronic state is 2-A.
 Alpha  occ. eigenvalues --  -38.44504 -38.44380 -38.44360 -38.43646 -38.43578
 Alpha  occ. eigenvalues --  -38.43555 -38.43253  -2.20768  -2.20608  -2.20413
 Alpha  occ. eigenvalues --   -2.19803  -2.19752  -2.19664  -2.19468  -1.14654
 Alpha  occ. eigenvalues --   -1.14536  -1.14442  -1.14358  -1.14313  -1.14237
 Alpha  occ. eigenvalues --   -1.14180  -1.14126  -1.13997  -1.13634  -1.13524
 Alpha  occ. eigenvalues --   -1.13476  -1.13395  -1.13359  -1.13356  -1.13279
 Alpha  occ. eigenvalues --   -1.13222  -1.13149  -1.13106  -1.13087  -1.12986
 Alpha  occ. eigenvalues --   -0.21752  -0.14251  -0.12530  -0.12345
 Alpha virt. eigenvalues --   -0.05534  -0.04227  -0.03901  -0.03780  -0.02991
 Alpha virt. eigenvalues --   -0.02783  -0.01432  -0.00389  -0.00105   0.00316
 Alpha virt. eigenvalues --    0.00680   0.00794   0.01025   0.01148   0.01240

  Beta  occ. eigenvalues --  -38.44407 -38.44354 -38.44283 -38.43635 -38.43567
  Beta  occ. eigenvalues --  -38.43534 -38.43234  -2.20593  -2.20432  -2.20406
  Beta  occ. eigenvalues --   -2.19774  -2.19740  -2.19650  -2.19442  -1.14557
  Beta  occ. eigenvalues --   -1.14411  -1.14333  -1.14270  -1.14191  -1.14178
  Beta  occ. eigenvalues --   -1.14129  -1.14062  -1.13950  -1.13632  -1.13516
  Beta  occ. eigenvalues --   -1.13463  -1.13345  -1.13313  -1.13280  -1.13223
  Beta  occ. eigenvalues --   -1.13213  -1.13146  -1.13093  -1.12998  -1.12979
  Beta  occ. eigenvalues --   -0.20907  -0.13870  -0.12152
  Beta virt. eigenvalues --   -0.08139  -0.05563  -0.04218  -0.03669  -0.02907
  Beta virt. eigenvalues --   -0.02078  -0.01779  -0.01346  -0.00358   0.00045
  Beta virt. eigenvalues --    0.00340   0.00694   0.00767   0.01049   0.01142

 Mulliken charges and spin densities:
               1          2
     1  Na   0.164663   0.048948
     2  Na  -0.114903   0.499357
     3  Na   0.093062  -0.004805
     4  Na   0.045666   0.001341
     5  Na  -0.124125   0.528211
     6  Na   0.053323   0.017375
     7  Na  -0.117686  -0.090426
 Sum of Mulliken charges =  -0.00000   1.00000

 Dipole moment (field-independent basis, Debye):
    X=              0.0461    Y=              0.0361    Z=              0.0939  Tot=              0.1107
 Quadrupole moment (field-independent basis, Debye-Ang):
   XX=            -56.2484   YY=            -72.9513   ZZ=            -68.1306
   XY=              0.3042   XZ=              0.2302   YZ=              0.3673

 Normal termination of Gaussian 16 at Fri Dec  8 18:31:25 2023.
