 Gaussian 16, Revision B.01,
 Gaussian 16:  ES64L-G16RevB.01 20-Dec-2017

 -------------------------
 #P B3LYP/6-311+g(d) force
 -------------------------

 -----
 DPGEN
 -----
 Symbolic Z-matrix:
 Charge =  0 Multiplicity = 2

                         Standard orientation:
 ---------------------------------------------------------------------
 Center     Atomic      Atomic             Coordinates (Angstroms)
 Number     Number       Type             X           Y           Z
 ---------------------------------------------------------------------
      1         11           0       -0.638274   -0.849390   -0.663629
      2         11           0        1.815187   -1.401770    1.565590
      3         11           0        2.399223    1.807519    0.145935
      4         11           0       -3.866334   -1.361734   -0.473976
      5         11           0       -1.351651    0.765639    2.005427
      6         11           0       -1.267601    2.295739   -1.141241
      7         11           0        2.909450   -1.256002   -1.438106
 ---------------------------------------------------------------------

 SCF Done:  E(UB3LYP) =  -1136.12171230     A.U. after   24 cycles

 The electronic state is 2-A.
 Alpha  occ. eigenvalues --  -38.44319 -38.44269 -38.44265 -38.44052 -38.43949
 Alpha  occ. eigenvalues --  -38.43479 -38.43157  -2.20172  -2.20066  -2.20041
 Alpha  occ. eigenvalues --   -2.19909  -2.19839  -2.19308  -2.19129  -1.13882
 Alpha  occ. eigenvalues --   -1.13804  -1.13775  -1.13759  -1.13740  -1.13716
 Alpha  occ. eigenvalues --   -1.13698  -1.13689  -1.13676  -1.13597  -1.13568
 Alpha  occ. eigenvalues --   -1.13544  -1.13519  -1.13480  -1.13425  -1.13028
 Alpha  occ. eigenvalues --   -1.12960  -1.12909  -1.12857  -1.12776  -1.12739
 Alpha  occ. eigenvalues --   -0.18242  -0.13742  -0.11172  -0.10954
 Alpha virt. eigenvalues --   -0.06476  -0.05284  -0.04834  -0.03126  -0.02511
 Alpha virt. eigenvalues --   -0.02467  -0.02201  -0.01119  -0.00682  -0.00280
 Alpha virt. eigenvalues --    0.00175   0.00201   0.00328   0.00500   0.00617

  Beta  occ. eigenvalues --  -38.44264 -38.44261 -38.44260 -38.44024 -38.43905
  Beta  occ. eigenvalues --  -38.43458 -38.43137  -2.20067  -2.20059  -2.20032
  Beta  occ. eigenvalues --   -2.19856  -2.19760  -2.19268  -2.19100  -1.13811
  Beta  occ. eigenvalues --   -1.13738  -1.13732  -1.13713  -1.13707  -1.13705
  Beta  occ. eigenvalues --   -1.13689  -1.13687  -1.13672  -1.13560  -1.13528
  Beta  occ. eigenvalues --   -1.13505  -1.13465  -1.13428  -1.13355  -1.12998
  Beta  occ. eigenvalues --   -1.12931  -1.12882  -1.12794  -1.12755  -1.12724
  Beta  occ. eigenvalues --   -0.17505  -0.13551  -0.10827
  Beta virt. eigenvalues --   -0.07298  -0.06322  -0.04996  -0.04289  -0.02911
  Beta virt. eigenvalues --   -0.02262  -0.01946  -0.01629  -0.00986  -0.00292
  Beta virt. eigenvalues --   -0.00211   0.00248   0.00282   0.00374   0.00665

 Mulliken charges and spin densities:
               1          2
     1  Na  -1.811115   0.464580
     2  Na   0.222487   0.223977
     3  Na  -0.082497   0.164850
     4  Na   0.493870  -0.037354
     5  Na   0.161620   0.245429
     6  Na   0.034613  -0.062224
     7  Na   0.981023   0.000742
 Sum of Mulliken charges =  -0.00000   1.00000

 Dipole moment (field-independent basis, Debye):
    X=              0.1570    Y=              0.3253    Z=              0.2431  Tot=              0.4354
 Quadrupole moment (field-independent basis, Debye-Ang):
   XX=            -52.8130   YY=            -74.6218   ZZ=            -65.9336
   XY=             -1.1722   XZ=             -1.2992   YZ=              0.1308

 Normal termination of Gaussian 16 at Tue Dec  5 14:46:34 2023.
