 Gaussian 16, Revision B.01,
 Gaussian 16:  ES64L-G16RevB.01 20-Dec-2017

 -------------------------
 #P B3LYP/6-311+g(d) force
 -------------------------

 -----
 DPGEN
 -----
 Symbolic Z-matrix:
 Charge =  0 Multiplicity = 2

                         Standard orientation:
 ---------------------------------------------------------------------
 Center     Atomic      Atomic             Coordinates (Angstroms)
 Number     Number       Type             X           Y           Z
 ---------------------------------------------------------------------
      1         11           0       -0.198038    1.014843    1.303691
      2         11           0       -1.907077    3.495007   -0.989946
      3         11           0       -3.460448    0.617928    0.455789
      4         11           0       -0.081002   -2.068839   -0.298552
      5         11           0        2.794131   -0.458374    1.105858
      6         11           0       -3.127702   -2.818390   -0.687664
      7         11           0        5.980136    0.217825   -0.889176
 ---------------------------------------------------------------------

 SCF Done:  E(UB3LYP) =  -1136.11944601     A.U. after   20 cycles

 The electronic state is 2-A.
 Alpha  occ. eigenvalues --  -38.44988 -38.44680 -38.44589 -38.44146 -38.43987
 Alpha  occ. eigenvalues --  -38.43257 -38.43173  -2.20774  -2.20441  -2.20402
 Alpha  occ. eigenvalues --   -2.20013  -2.19833  -2.19071  -2.18998  -1.14403
 Alpha  occ. eigenvalues --   -1.14403  -1.14376  -1.14123  -1.14115  -1.14110
 Alpha  occ. eigenvalues --   -1.14081  -1.14055  -1.13978  -1.13714  -1.13703
 Alpha  occ. eigenvalues --   -1.13599  -1.13520  -1.13511  -1.13456  -1.12760
 Alpha  occ. eigenvalues --   -1.12746  -1.12713  -1.12665  -1.12651  -1.12634
 Alpha  occ. eigenvalues --   -0.16799  -0.13651  -0.12248  -0.11382
 Alpha virt. eigenvalues --   -0.06565  -0.05063  -0.04725  -0.03719  -0.02711
 Alpha virt. eigenvalues --   -0.02362  -0.02000  -0.01845  -0.00937  -0.00780
 Alpha virt. eigenvalues --   -0.00566  -0.00241   0.00186   0.00434   0.00597

  Beta  occ. eigenvalues --  -38.44848 -38.44675 -38.44575 -38.44114 -38.43978
  Beta  occ. eigenvalues --  -38.43259 -38.43161  -2.20513  -2.20430  -2.20377
  Beta  occ. eigenvalues --   -2.19957  -2.19818  -2.19083  -2.18976  -1.14226
  Beta  occ. eigenvalues --   -1.14226  -1.14202  -1.14109  -1.14106  -1.14099
  Beta  occ. eigenvalues --   -1.14069  -1.14046  -1.13958  -1.13682  -1.13666
  Beta  occ. eigenvalues --   -1.13548  -1.13512  -1.13500  -1.13436  -1.12774
  Beta  occ. eigenvalues --   -1.12761  -1.12669  -1.12652  -1.12636  -1.12617
  Beta  occ. eigenvalues --   -0.16432  -0.12759  -0.12105
  Beta virt. eigenvalues --   -0.07613  -0.06476  -0.04562  -0.04518  -0.03583
  Beta virt. eigenvalues --   -0.02511  -0.02036  -0.01505  -0.01324  -0.00793
  Beta virt. eigenvalues --   -0.00468  -0.00354   0.00029   0.00319   0.00536

 Mulliken charges and spin densities:
               1          2
     1  Na  -0.596197   0.077595
     2  Na   0.281720   0.043411
     3  Na   0.083026   0.161565
     4  Na  -0.477582   0.003024
     5  Na   0.294913  -0.033959
     6  Na   0.429857   0.051702
     7  Na  -0.015737   0.696663
 Sum of Mulliken charges =  -0.00000   1.00000

 Dipole moment (field-independent basis, Debye):
    X=             -0.7685    Y=              1.0034    Z=             -0.5829  Tot=              1.3918
 Quadrupole moment (field-independent basis, Debye-Ang):
   XX=            -65.8954   YY=            -66.0739   ZZ=            -67.3996
   XY=             -0.7382   XZ=             -1.8102   YZ=             -2.7440

 Normal termination of Gaussian 16 at Wed Nov 29 02:25:17 2023.
