 Gaussian 16, Revision B.01,
 Gaussian 16:  ES64L-G16RevB.01 20-Dec-2017

 -------------------------
 #P B3LYP/6-311+g(d) force
 -------------------------

 -----
 DPGEN
 -----
 Symbolic Z-matrix:
 Charge =  0 Multiplicity = 2

                         Standard orientation:
 ---------------------------------------------------------------------
 Center     Atomic      Atomic             Coordinates (Angstroms)
 Number     Number       Type             X           Y           Z
 ---------------------------------------------------------------------
      1         11           0       -0.526761   -0.328237    2.102029
      2         11           0        3.356220   -0.767051    0.026285
      3         11           0        2.069578    2.153338   -0.149393
      4         11           0       -0.194688   -0.286016   -1.624160
      5         11           0       -1.435997    2.558691    0.057981
      6         11           0       -3.377912   -0.552977   -0.327029
      7         11           0        0.109560   -2.777748   -0.085713
 ---------------------------------------------------------------------

 SCF Done:  E(UB3LYP) =  -1136.13137787     A.U. after   21 cycles

 The electronic state is 2-A.
 Alpha  occ. eigenvalues --  -38.44957 -38.44555 -38.43587 -38.43454 -38.43368
 Alpha  occ. eigenvalues --  -38.43360 -38.43347  -2.20750  -2.20350  -2.19464
 Alpha  occ. eigenvalues --   -2.19421  -2.19227  -2.19205  -2.19191  -1.14428
 Alpha  occ. eigenvalues --   -1.14398  -1.14389  -1.14037  -1.14017  -1.13979
 Alpha  occ. eigenvalues --   -1.13222  -1.13131  -1.13097  -1.13083  -1.13078
 Alpha  occ. eigenvalues --   -1.13023  -1.12887  -1.12879  -1.12874  -1.12871
 Alpha  occ. eigenvalues --   -1.12870  -1.12860  -1.12846  -1.12815  -1.12809
 Alpha  occ. eigenvalues --   -0.18373  -0.13161  -0.12218  -0.10639
 Alpha virt. eigenvalues --   -0.06467  -0.05042  -0.04428  -0.03162  -0.02763
 Alpha virt. eigenvalues --   -0.02579  -0.02170  -0.01025  -0.00522  -0.00288
 Alpha virt. eigenvalues --   -0.00070   0.00289   0.00736   0.00784   0.00826

  Beta  occ. eigenvalues --  -38.44947 -38.44558 -38.43487 -38.43394 -38.43367
  Beta  occ. eigenvalues --  -38.43356 -38.43337  -2.20736  -2.20357  -2.19313
  Beta  occ. eigenvalues --   -2.19278  -2.19214  -2.19205  -2.19186  -1.14398
  Beta  occ. eigenvalues --   -1.14385  -1.14382  -1.14043  -1.14010  -1.13985
  Beta  occ. eigenvalues --   -1.13164  -1.13022  -1.12991  -1.12966  -1.12953
  Beta  occ. eigenvalues --   -1.12943  -1.12882  -1.12876  -1.12857  -1.12854
  Beta  occ. eigenvalues --   -1.12845  -1.12835  -1.12822  -1.12810  -1.12810
  Beta  occ. eigenvalues --   -0.17666  -0.12975  -0.11983
  Beta virt. eigenvalues --   -0.06701  -0.06404  -0.05055  -0.04369  -0.02474
  Beta virt. eigenvalues --   -0.02073  -0.01985  -0.01484  -0.00989  -0.00551
  Beta virt. eigenvalues --   -0.00324   0.00103   0.00334   0.00800   0.00835

 Mulliken charges and spin densities:
               1          2
     1  Na  -0.439971   0.740914
     2  Na   0.033585  -0.037702
     3  Na  -0.026660  -0.059747
     4  Na  -0.165256   0.530333
     5  Na  -0.002708  -0.016080
     6  Na   0.318682  -0.049163
     7  Na   0.282328  -0.108556
 Sum of Mulliken charges =  -0.00000   1.00000

 Dipole moment (field-independent basis, Debye):
    X=             -0.3613    Y=             -0.2956    Z=              0.1063  Tot=              0.4787
 Quadrupole moment (field-independent basis, Debye-Ang):
   XX=            -51.4403   YY=            -66.4356   ZZ=            -75.2407
   XY=             -0.7605   XZ=              0.8772   YZ=             -0.0069

 Normal termination of Gaussian 16 at Thu Dec  7 16:18:57 2023.
