 Gaussian 16, Revision B.01,
 Gaussian 16:  ES64L-G16RevB.01 20-Dec-2017

 -------------------------
 #P B3LYP/6-311+g(d) force
 -------------------------

 -----
 DPGEN
 -----
 Symbolic Z-matrix:
 Charge =  0 Multiplicity = 2

                         Standard orientation:
 ---------------------------------------------------------------------
 Center     Atomic      Atomic             Coordinates (Angstroms)
 Number     Number       Type             X           Y           Z
 ---------------------------------------------------------------------
      1         11           0        2.505782   -1.734302    0.050424
      2         11           0        2.525530    1.377273   -0.133419
      3         11           0        0.111455   -0.141781    1.647411
      4         11           0       -2.938965    0.222612    0.142195
      5         11           0       -1.322076   -2.697120   -0.113307
      6         11           0       -0.200829   -0.007890   -1.645142
      7         11           0       -0.680896    2.981207    0.051838
 ---------------------------------------------------------------------

 SCF Done:  E(UB3LYP) =  -1136.13858341     A.U. after   19 cycles

 The electronic state is 2-A.
 Alpha  occ. eigenvalues --  -38.43866 -38.43731 -38.43643 -38.43541 -38.43360
 Alpha  occ. eigenvalues --  -38.42869 -38.42855  -2.19754  -2.19610  -2.19546
 Alpha  occ. eigenvalues --   -2.19412  -2.19204  -2.18883  -2.18871  -1.13446
 Alpha  occ. eigenvalues --   -1.13424  -1.13383  -1.13357  -1.13277  -1.13250
 Alpha  occ. eigenvalues --   -1.13212  -1.13206  -1.13141  -1.13096  -1.13076
 Alpha  occ. eigenvalues --   -1.13041  -1.12874  -1.12869  -1.12848  -1.12623
 Alpha  occ. eigenvalues --   -1.12524  -1.12506  -1.12495  -1.12495  -1.12479
 Alpha  occ. eigenvalues --   -0.19164  -0.13348  -0.12598  -0.10385
 Alpha virt. eigenvalues --   -0.05453  -0.05149  -0.04945  -0.03120  -0.02668
 Alpha virt. eigenvalues --   -0.02051  -0.01446  -0.01261  -0.00349  -0.00280
 Alpha virt. eigenvalues --    0.00048   0.00366   0.00842   0.00889   0.00902

  Beta  occ. eigenvalues --  -38.43859 -38.43726 -38.43635 -38.43534 -38.43357
  Beta  occ. eigenvalues --  -38.42794 -38.42779  -2.19744  -2.19604  -2.19537
  Beta  occ. eigenvalues --   -2.19404  -2.19202  -2.18746  -2.18734  -1.13441
  Beta  occ. eigenvalues --   -1.13389  -1.13378  -1.13356  -1.13262  -1.13232
  Beta  occ. eigenvalues --   -1.13208  -1.13167  -1.13140  -1.13090  -1.13044
  Beta  occ. eigenvalues --   -1.13038  -1.12872  -1.12853  -1.12842  -1.12530
  Beta  occ. eigenvalues --   -1.12427  -1.12407  -1.12397  -1.12394  -1.12379
  Beta  occ. eigenvalues --   -0.18440  -0.13074  -0.12344
  Beta virt. eigenvalues --   -0.06474  -0.05436  -0.05145  -0.04936  -0.02277
  Beta virt. eigenvalues --   -0.01919  -0.01360  -0.01195  -0.01040  -0.00410
  Beta virt. eigenvalues --   -0.00325   0.00178   0.00395   0.00870   0.00900

 Mulliken charges and spin densities:
               1          2
     1  Na   0.224051  -0.078443
     2  Na   0.156349  -0.037908
     3  Na  -0.396428   0.686784
     4  Na   0.186999  -0.055270
     5  Na   0.180029  -0.104636
     6  Na  -0.387419   0.677832
     7  Na   0.036420  -0.088359
 Sum of Mulliken charges =  -0.00000   1.00000

 Dipole moment (field-independent basis, Debye):
    X=             -0.0701    Y=             -0.0982    Z=              0.0102  Tot=              0.1211
 Quadrupole moment (field-independent basis, Debye-Ang):
   XX=            -56.5716   YY=            -58.8282   ZZ=            -76.4546
   XY=             -0.3458   XZ=             -0.7449   YZ=              0.3085

 Normal termination of Gaussian 16 at Tue Nov 28 21:54:47 2023.
