 Gaussian 16, Revision B.01,
 Gaussian 16:  ES64L-G16RevB.01 20-Dec-2017

 -------------------------
 #P B3LYP/6-311+g(d) force
 -------------------------

 -----
 DPGEN
 -----
 Symbolic Z-matrix:
 Charge =  0 Multiplicity = 2

                         Standard orientation:
 ---------------------------------------------------------------------
 Center     Atomic      Atomic             Coordinates (Angstroms)
 Number     Number       Type             X           Y           Z
 ---------------------------------------------------------------------
      1         11           0       -1.151700    2.956105   -0.209733
      2         11           0        2.884393    1.206967   -0.669574
      3         11           0        0.279776   -0.081771   -1.501315
      4         11           0       -1.626690   -2.562010   -0.387224
      5         11           0        2.683642   -1.908480    0.503505
      6         11           0       -3.333810   -0.221567    0.130618
      7         11           0        0.264388    0.610755    2.133723
 ---------------------------------------------------------------------

 SCF Done:  E(UB3LYP) =  -1136.12691590     A.U. after   20 cycles

 The electronic state is 2-A.
 Alpha  occ. eigenvalues --  -38.44603 -38.44479 -38.44208 -38.43888 -38.43465
 Alpha  occ. eigenvalues --  -38.43308 -38.43304  -2.20435  -2.20346  -2.20019
 Alpha  occ. eigenvalues --   -2.19724  -2.19427  -2.19172  -2.19097  -1.14156
 Alpha  occ. eigenvalues --   -1.14096  -1.14078  -1.14053  -1.13986  -1.13961
 Alpha  occ. eigenvalues --   -1.13676  -1.13673  -1.13666  -1.13392  -1.13366
 Alpha  occ. eigenvalues --   -1.13328  -1.13108  -1.13104  -1.13037  -1.12851
 Alpha  occ. eigenvalues --   -1.12829  -1.12796  -1.12773  -1.12753  -1.12743
 Alpha  occ. eigenvalues --   -0.18147  -0.13529  -0.11866  -0.10704
 Alpha virt. eigenvalues --   -0.06089  -0.05584  -0.04355  -0.03418  -0.02751
 Alpha virt. eigenvalues --   -0.02533  -0.01892  -0.01337  -0.00517  -0.00391
 Alpha virt. eigenvalues --   -0.00050   0.00310   0.00677   0.00770   0.00841

  Beta  occ. eigenvalues --  -38.44605 -38.44454 -38.44194 -38.43799 -38.43409
  Beta  occ. eigenvalues --  -38.43307 -38.43305  -2.20440  -2.20304  -2.19995
  Beta  occ. eigenvalues --   -2.19559  -2.19328  -2.19170  -2.19104  -1.14162
  Beta  occ. eigenvalues --   -1.14088  -1.14058  -1.14039  -1.13941  -1.13936
  Beta  occ. eigenvalues --   -1.13660  -1.13654  -1.13637  -1.13282  -1.13253
  Beta  occ. eigenvalues --   -1.13205  -1.13038  -1.13021  -1.12972  -1.12851
  Beta  occ. eigenvalues --   -1.12819  -1.12788  -1.12771  -1.12756  -1.12744
  Beta  occ. eigenvalues --   -0.17463  -0.13334  -0.11680
  Beta virt. eigenvalues --   -0.06802  -0.05999  -0.05446  -0.04328  -0.02739
  Beta virt. eigenvalues --   -0.02099  -0.01800  -0.01539  -0.01187  -0.00505
  Beta virt. eigenvalues --   -0.00403   0.00109   0.00362   0.00756   0.00791

 Mulliken charges and spin densities:
               1          2
     1  Na  -0.045467  -0.062270
     2  Na   0.397362   0.010401
     3  Na   0.058976   0.216904
     4  Na   0.150310   0.008280
     5  Na  -0.100662   0.179299
     6  Na  -0.017018  -0.017780
     7  Na  -0.443500   0.665165
 Sum of Mulliken charges =  -0.00000   1.00000

 Dipole moment (field-independent basis, Debye):
    X=              0.2920    Y=              0.0977    Z=              0.2342  Tot=              0.3868
 Quadrupole moment (field-independent basis, Debye-Ang):
   XX=            -54.2982   YY=            -65.2480   ZZ=            -74.9064
   XY=             -1.7260   XZ=             -0.4412   YZ=             -1.9039

 Normal termination of Gaussian 16 at Thu Dec  7 14:13:32 2023.
