 Gaussian 16, Revision B.01,
 Gaussian 16:  ES64L-G16RevB.01 20-Dec-2017

 -------------------------
 #P B3LYP/6-311+g(d) force
 -------------------------

 -----
 DPGEN
 -----
 Symbolic Z-matrix:
 Charge =  0 Multiplicity = 2

                         Standard orientation:
 ---------------------------------------------------------------------
 Center     Atomic      Atomic             Coordinates (Angstroms)
 Number     Number       Type             X           Y           Z
 ---------------------------------------------------------------------
      1         11           0       -0.072626   -0.447413    2.125044
      2         11           0       -0.236451   -0.517404   -1.544030
      3         11           0       -3.036796   -1.978732   -0.108825
      4         11           0        3.058304    0.975076   -0.469991
      5         11           0        0.549826    2.681514    0.297329
      6         11           0       -2.831832    1.626997   -0.278135
      7         11           0        2.569576   -2.340039   -0.021392
 ---------------------------------------------------------------------

 SCF Done:  E(UB3LYP) =  -1136.12882541     A.U. after   21 cycles

 The electronic state is 2-A.
 Alpha  occ. eigenvalues --  -38.44635 -38.44535 -38.44271 -38.44017 -38.43951
 Alpha  occ. eigenvalues --  -38.43677 -38.42625  -2.20432  -2.20318  -2.20121
 Alpha  occ. eigenvalues --   -2.19824  -2.19810  -2.19519  -2.18488  -1.14116
 Alpha  occ. eigenvalues --   -1.14092  -1.14065  -1.13993  -1.13972  -1.13957
 Alpha  occ. eigenvalues --   -1.13805  -1.13783  -1.13760  -1.13529  -1.13484
 Alpha  occ. eigenvalues --   -1.13473  -1.13467  -1.13460  -1.13430  -1.13179
 Alpha  occ. eigenvalues --   -1.13140  -1.13133  -1.12173  -1.12143  -1.12137
 Alpha  occ. eigenvalues --   -0.18017  -0.13527  -0.11782  -0.10514
 Alpha virt. eigenvalues --   -0.06322  -0.06078  -0.04074  -0.03365  -0.02714
 Alpha virt. eigenvalues --   -0.02450  -0.02085  -0.01569  -0.00878  -0.00215
 Alpha virt. eigenvalues --   -0.00052   0.00258   0.00601   0.00639   0.00752

  Beta  occ. eigenvalues --  -38.44629 -38.44535 -38.44259 -38.44017 -38.43913
  Beta  occ. eigenvalues --  -38.43565 -38.42619  -2.20423  -2.20319  -2.20100
  Beta  occ. eigenvalues --   -2.19814  -2.19754  -2.19312  -2.18480  -1.14101
  Beta  occ. eigenvalues --   -1.14083  -1.14058  -1.13991  -1.13965  -1.13956
  Beta  occ. eigenvalues --   -1.13793  -1.13755  -1.13748  -1.13482  -1.13476
  Beta  occ. eigenvalues --   -1.13463  -1.13451  -1.13424  -1.13382  -1.13040
  Beta  occ. eigenvalues --   -1.12996  -1.12986  -1.12171  -1.12137  -1.12110
  Beta  occ. eigenvalues --   -0.17336  -0.13306  -0.11611
  Beta virt. eigenvalues --   -0.06623  -0.06320  -0.05938  -0.04037  -0.02689
  Beta virt. eigenvalues --   -0.01974  -0.01908  -0.01692  -0.01304  -0.00913
  Beta virt. eigenvalues --   -0.00197   0.00108   0.00321   0.00648   0.00712

 Mulliken charges and spin densities:
               1          2
     1  Na  -0.364804   0.651773
     2  Na  -0.134929   0.150626
     3  Na   0.151116   0.021904
     4  Na   0.142140   0.067279
     5  Na  -0.093022   0.031578
     6  Na   0.110338   0.023977
     7  Na   0.189160   0.052865
 Sum of Mulliken charges =  -0.00000   1.00000

 Dipole moment (field-independent basis, Debye):
    X=             -0.6019    Y=             -0.5048    Z=             -0.0920  Tot=              0.7909
 Quadrupole moment (field-independent basis, Debye-Ang):
   XX=            -52.1088   YY=            -65.9420   ZZ=            -75.6570
   XY=             -0.3341   XZ=             -0.5602   YZ=             -0.5705

 Normal termination of Gaussian 16 at Fri Dec  8 03:36:24 2023.
