 Gaussian 16, Revision B.01,
 Gaussian 16:  ES64L-G16RevB.01 20-Dec-2017

 -------------------------
 #P B3LYP/6-311+g(d) force
 -------------------------

 -----
 DPGEN
 -----
 Symbolic Z-matrix:
 Charge =  0 Multiplicity = 2

                         Standard orientation:
 ---------------------------------------------------------------------
 Center     Atomic      Atomic             Coordinates (Angstroms)
 Number     Number       Type             X           Y           Z
 ---------------------------------------------------------------------
      1         11           0       -1.758261    2.401159   -0.016583
      2         11           0        1.840645    2.518133   -0.028632
      3         11           0        2.894713   -1.160865   -0.114083
      4         11           0        0.297678    0.039111   -1.454032
      5         11           0        0.128303   -0.427515    2.069250
      6         11           0       -3.213796   -0.777835   -0.143768
      7         11           0       -0.189281   -2.592188   -0.312153
 ---------------------------------------------------------------------

 SCF Done:  E(UB3LYP) =  -1136.13414186     A.U. after   20 cycles

 The electronic state is 2-A.
 Alpha  occ. eigenvalues --  -38.44033 -38.43997 -38.43685 -38.43641 -38.43491
 Alpha  occ. eigenvalues --  -38.43285 -38.43036  -2.19902  -2.19803  -2.19508
 Alpha  occ. eigenvalues --   -2.19467  -2.19393  -2.19241  -2.19097  -1.13604
 Alpha  occ. eigenvalues --   -1.13556  -1.13533  -1.13471  -1.13465  -1.13452
 Alpha  occ. eigenvalues --   -1.13198  -1.13179  -1.13165  -1.13141  -1.13122
 Alpha  occ. eigenvalues --   -1.13112  -1.13089  -1.13056  -1.13025  -1.12998
 Alpha  occ. eigenvalues --   -1.12880  -1.12825  -1.12753  -1.12700  -1.12689
 Alpha  occ. eigenvalues --   -0.18837  -0.12987  -0.12597  -0.10619
 Alpha virt. eigenvalues --   -0.05640  -0.05368  -0.04616  -0.02973  -0.02807
 Alpha virt. eigenvalues --   -0.02456  -0.01647  -0.01181  -0.00416  -0.00255
 Alpha virt. eigenvalues --   -0.00004   0.00327   0.00786   0.00861   0.00889

  Beta  occ. eigenvalues --  -38.44026 -38.43997 -38.43684 -38.43639 -38.43389
  Beta  occ. eigenvalues --  -38.43269 -38.42979  -2.19893  -2.19804  -2.19507
  Beta  occ. eigenvalues --   -2.19466  -2.19217  -2.19206  -2.18995  -1.13593
  Beta  occ. eigenvalues --   -1.13531  -1.13524  -1.13469  -1.13457  -1.13453
  Beta  occ. eigenvalues --   -1.13194  -1.13165  -1.13160  -1.13141  -1.13111
  Beta  occ. eigenvalues --   -1.13092  -1.13063  -1.12956  -1.12897  -1.12866
  Beta  occ. eigenvalues --   -1.12816  -1.12812  -1.12679  -1.12625  -1.12621
  Beta  occ. eigenvalues --   -0.18103  -0.12773  -0.12362
  Beta virt. eigenvalues --   -0.06634  -0.05596  -0.05381  -0.04573  -0.02231
  Beta virt. eigenvalues --   -0.02047  -0.01577  -0.01340  -0.01131  -0.00451
  Beta virt. eigenvalues --   -0.00301   0.00156   0.00365   0.00839   0.00858

 Mulliken charges and spin densities:
               1          2
     1  Na   0.054527  -0.056353
     2  Na   0.076280  -0.057587
     3  Na   0.482286   0.006004
     4  Na  -0.517409   0.302200
     5  Na  -0.654810   0.796047
     6  Na   0.011252  -0.039024
     7  Na   0.547873   0.048714
 Sum of Mulliken charges =  -0.00000   1.00000

 Dipole moment (field-independent basis, Debye):
    X=              0.0894    Y=              0.0945    Z=              0.2531  Tot=              0.2846
 Quadrupole moment (field-independent basis, Debye-Ang):
   XX=            -54.1773   YY=            -62.9456   ZZ=            -75.4026
   XY=              0.0262   XZ=              0.3394   YZ=              1.0079

 Normal termination of Gaussian 16 at Wed Dec  6 00:54:02 2023.
