 Gaussian 16, Revision B.01,
 Gaussian 16:  ES64L-G16RevB.01 20-Dec-2017

 -------------------------
 #P B3LYP/6-311+g(d) force
 -------------------------

 -----
 DPGEN
 -----
 Symbolic Z-matrix:
 Charge =  0 Multiplicity = 2

                         Standard orientation:
 ---------------------------------------------------------------------
 Center     Atomic      Atomic             Coordinates (Angstroms)
 Number     Number       Type             X           Y           Z
 ---------------------------------------------------------------------
      1         11           0        1.560213    1.772606    1.447832
      2         11           0        3.468029    0.018015   -1.424745
      3         11           0       -3.500865   -1.189778   -0.644971
      4         11           0       -0.052435   -0.175832   -1.474402
      5         11           0       -2.079698    2.050954   -0.464590
      6         11           0        1.881387   -1.867666    0.839118
      7         11           0       -1.276630   -0.608299    1.721758
 ---------------------------------------------------------------------

 SCF Done:  E(UB3LYP) =  -1136.12278577     A.U. after   53 cycles

 The electronic state is 2-A.
 Alpha  occ. eigenvalues --  -38.45175 -38.45046 -38.43938 -38.43827 -38.43734
 Alpha  occ. eigenvalues --  -38.43335 -38.42275  -2.21003  -2.20863  -2.19758
 Alpha  occ. eigenvalues --   -2.19690  -2.19655  -2.19202  -2.18184  -1.14673
 Alpha  occ. eigenvalues --   -1.14653  -1.14614  -1.14526  -1.14493  -1.14480
 Alpha  occ. eigenvalues --   -1.13454  -1.13431  -1.13419  -1.13400  -1.13349
 Alpha  occ. eigenvalues --   -1.13337  -1.13311  -1.13304  -1.13239  -1.12900
 Alpha  occ. eigenvalues --   -1.12854  -1.12819  -1.11888  -1.11858  -1.11804
 Alpha  occ. eigenvalues --   -0.18497  -0.14177  -0.11686  -0.10439
 Alpha virt. eigenvalues --   -0.06566  -0.05432  -0.04713  -0.03210  -0.02564
 Alpha virt. eigenvalues --   -0.02409  -0.02211  -0.01318  -0.00728  -0.00157
 Alpha virt. eigenvalues --    0.00161   0.00300   0.00383   0.00557   0.00654

  Beta  occ. eigenvalues --  -38.45140 -38.44967 -38.43929 -38.43798 -38.43712
  Beta  occ. eigenvalues --  -38.43325 -38.42268  -2.20939  -2.20717  -2.19742
  Beta  occ. eigenvalues --   -2.19638  -2.19617  -2.19185  -2.18174  -1.14628
  Beta  occ. eigenvalues --   -1.14608  -1.14572  -1.14421  -1.14390  -1.14379
  Beta  occ. eigenvalues --   -1.13416  -1.13411  -1.13402  -1.13392  -1.13322
  Beta  occ. eigenvalues --   -1.13304  -1.13268  -1.13253  -1.13212  -1.12886
  Beta  occ. eigenvalues --   -1.12843  -1.12799  -1.11887  -1.11821  -1.11796
  Beta  occ. eigenvalues --   -0.17785  -0.13888  -0.10279
  Beta virt. eigenvalues --   -0.07838  -0.06288  -0.04897  -0.04542  -0.02728
  Beta virt. eigenvalues --   -0.02310  -0.01841  -0.01809  -0.00789  -0.00647
  Beta virt. eigenvalues --   -0.00056   0.00204   0.00381   0.00423   0.00663

 Mulliken charges and spin densities:
               1          2
     1  Na  -0.250685   0.368938
     2  Na   0.436549  -0.022320
     3  Na   0.275473  -0.020346
     4  Na  -0.477320   0.173348
     5  Na   0.096307   0.245799
     6  Na  -0.083833   0.034139
     7  Na   0.003508   0.220443
 Sum of Mulliken charges =  -0.00000   1.00000

 Dipole moment (field-independent basis, Debye):
    X=             -0.3102    Y=              0.0783    Z=              0.0158  Tot=              0.3203
 Quadrupole moment (field-independent basis, Debye-Ang):
   XX=            -48.7595   YY=            -67.3726   ZZ=            -77.0209
   XY=              2.7930   XZ=              2.4407   YZ=              8.2435

 Normal termination of Gaussian 16 at Thu Dec  7 14:48:54 2023.
