 Gaussian 16, Revision B.01,
 Gaussian 16:  ES64L-G16RevB.01 20-Dec-2017

 -------------------------
 #P B3LYP/6-311+g(d) force
 -------------------------

 -----
 DPGEN
 -----
 Symbolic Z-matrix:
 Charge =  0 Multiplicity = 2

                         Standard orientation:
 ---------------------------------------------------------------------
 Center     Atomic      Atomic             Coordinates (Angstroms)
 Number     Number       Type             X           Y           Z
 ---------------------------------------------------------------------
      1         11           0       -2.967440    1.316023   -0.212425
      2         11           0        0.090678    0.037061   -1.697372
      3         11           0        3.077819    0.083761   -0.141569
      4         11           0        0.160447   -0.004828    2.143850
      5         11           0       -2.277939   -1.803478    0.083738
      6         11           0        1.095112   -2.806825   -0.179741
      7         11           0        0.821324    3.178287    0.003520
 ---------------------------------------------------------------------

 SCF Done:  E(UB3LYP) =  -1136.13761317     A.U. after   20 cycles

 The electronic state is 2-A.
 Alpha  occ. eigenvalues --  -38.44094 -38.44003 -38.43885 -38.43775 -38.43451
 Alpha  occ. eigenvalues --  -38.43344 -38.43341  -2.19924  -2.19813  -2.19657
 Alpha  occ. eigenvalues --   -2.19630  -2.19323  -2.19282  -2.19194  -1.13613
 Alpha  occ. eigenvalues --   -1.13593  -1.13548  -1.13496  -1.13480  -1.13451
 Alpha  occ. eigenvalues --   -1.13335  -1.13316  -1.13300  -1.13291  -1.13258
 Alpha  occ. eigenvalues --   -1.13247  -1.13015  -1.12986  -1.12971  -1.12962
 Alpha  occ. eigenvalues --   -1.12925  -1.12908  -1.12852  -1.12845  -1.12833
 Alpha  occ. eigenvalues --   -0.18363  -0.12946  -0.12297  -0.10750
 Alpha virt. eigenvalues --   -0.05765  -0.05089  -0.04916  -0.03176  -0.02861
 Alpha virt. eigenvalues --   -0.02687  -0.01468  -0.01269  -0.00586  -0.00389
 Alpha virt. eigenvalues --   -0.00032   0.00361   0.00799   0.00819   0.00868

  Beta  occ. eigenvalues --  -38.44089 -38.44001 -38.43886 -38.43674 -38.43446
  Beta  occ. eigenvalues --  -38.43336 -38.43281  -2.19917  -2.19812  -2.19660
  Beta  occ. eigenvalues --   -2.19444  -2.19317  -2.19188  -2.19168  -1.13602
  Beta  occ. eigenvalues --   -1.13572  -1.13546  -1.13498  -1.13464  -1.13452
  Beta  occ. eigenvalues --   -1.13322  -1.13318  -1.13304  -1.13169  -1.13128
  Beta  occ. eigenvalues --   -1.13114  -1.13002  -1.12971  -1.12952  -1.12906
  Beta  occ. eigenvalues --   -1.12864  -1.12837  -1.12827  -1.12825  -1.12799
  Beta  occ. eigenvalues --   -0.17624  -0.12732  -0.12097
  Beta virt. eigenvalues --   -0.06813  -0.05773  -0.04976  -0.04921  -0.02390
  Beta virt. eigenvalues --   -0.02121  -0.01624  -0.01378  -0.01186  -0.00638
  Beta virt. eigenvalues --   -0.00449   0.00119   0.00386   0.00804   0.00865

 Mulliken charges and spin densities:
               1          2
     1  Na   0.032481  -0.088704
     2  Na  -0.125286   0.471799
     3  Na   0.210979  -0.064790
     4  Na  -0.485909   0.780265
     5  Na   0.201600   0.027900
     6  Na   0.223001   0.001716
     7  Na  -0.056866  -0.128187
 Sum of Mulliken charges =  -0.00000   1.00000

 Dipole moment (field-independent basis, Debye):
    X=              0.1485    Y=              0.2477    Z=              0.0878  Tot=              0.3019
 Quadrupole moment (field-independent basis, Debye-Ang):
   XX=            -58.3951   YY=            -60.8028   ZZ=            -74.5611
   XY=             -0.8082   XZ=             -0.0914   YZ=              0.0502

 Normal termination of Gaussian 16 at Fri Dec  8 06:22:01 2023.
