 Gaussian 16, Revision B.01,
 Gaussian 16:  ES64L-G16RevB.01 20-Dec-2017

 -------------------------
 #P B3LYP/6-311+g(d) force
 -------------------------

 -----
 DPGEN
 -----
 Symbolic Z-matrix:
 Charge =  0 Multiplicity = 2

                         Standard orientation:
 ---------------------------------------------------------------------
 Center     Atomic      Atomic             Coordinates (Angstroms)
 Number     Number       Type             X           Y           Z
 ---------------------------------------------------------------------
      1         11           0       -0.975905    2.815339    0.022571
      2         11           0        0.180183    0.083461   -1.512975
      3         11           0       -0.726257   -2.930984   -0.225089
      4         11           0       -0.183939   -0.340291    1.515643
      5         11           0        2.755550   -1.446624    0.127116
      6         11           0        2.186308    1.920598    0.054414
      7         11           0       -3.235941   -0.101500    0.018321
 ---------------------------------------------------------------------

 SCF Done:  E(UB3LYP) =  -1136.13553406     A.U. after   20 cycles

 The electronic state is 2-A.
 Alpha  occ. eigenvalues --  -38.44203 -38.43847 -38.43844 -38.43527 -38.43519
 Alpha  occ. eigenvalues --  -38.42676 -38.42632  -2.20015  -2.19703  -2.19699
 Alpha  occ. eigenvalues --   -2.19427  -2.19395  -2.18714  -2.18684  -1.13692
 Alpha  occ. eigenvalues --   -1.13672  -1.13653  -1.13404  -1.13378  -1.13371
 Alpha  occ. eigenvalues --   -1.13367  -1.13342  -1.13309  -1.13154  -1.13102
 Alpha  occ. eigenvalues --   -1.13073  -1.13063  -1.13047  -1.13001  -1.12525
 Alpha  occ. eigenvalues --   -1.12342  -1.12323  -1.12312  -1.12297  -1.12282
 Alpha  occ. eigenvalues --   -0.19053  -0.13065  -0.12874  -0.09952
 Alpha virt. eigenvalues --   -0.05760  -0.05153  -0.05063  -0.02799  -0.02666
 Alpha virt. eigenvalues --   -0.01689  -0.01646  -0.01358  -0.00542  -0.00411
 Alpha virt. eigenvalues --    0.00069   0.00353   0.00807   0.00840   0.00897

  Beta  occ. eigenvalues --  -38.44200 -38.43840 -38.43835 -38.43522 -38.43511
  Beta  occ. eigenvalues --  -38.42609 -38.42561  -2.20012  -2.19693  -2.19687
  Beta  occ. eigenvalues --   -2.19418  -2.19389  -2.18592  -2.18555  -1.13679
  Beta  occ. eigenvalues --   -1.13664  -1.13654  -1.13396  -1.13374  -1.13342
  Beta  occ. eigenvalues --   -1.13335  -1.13330  -1.13305  -1.13149  -1.13093
  Beta  occ. eigenvalues --   -1.13056  -1.13040  -1.13023  -1.12999  -1.12435
  Beta  occ. eigenvalues --   -1.12253  -1.12231  -1.12222  -1.12201  -1.12190
  Beta  occ. eigenvalues --   -0.18351  -0.12805  -0.12609
  Beta virt. eigenvalues --   -0.06089  -0.05743  -0.05127  -0.05056  -0.02023
  Beta virt. eigenvalues --   -0.01913  -0.01592  -0.01279  -0.00733  -0.00594
  Beta virt. eigenvalues --   -0.00461   0.00207   0.00403   0.00823   0.00860

 Mulliken charges and spin densities:
               1          2
     1  Na   0.134261  -0.070878
     2  Na  -0.447814   0.621625
     3  Na   0.105971  -0.105864
     4  Na  -0.496663   0.666084
     5  Na   0.301428  -0.023617
     6  Na   0.293482   0.006194
     7  Na   0.109334  -0.093544
 Sum of Mulliken charges =  -0.00000   1.00000

 Dipole moment (field-independent basis, Debye):
    X=             -0.2307    Y=             -0.2196    Z=             -0.0003  Tot=              0.3185
 Quadrupole moment (field-independent basis, Debye-Ang):
   XX=            -53.7421   YY=            -57.5432   ZZ=            -78.4716
   XY=             -0.4840   XZ=              0.8489   YZ=              0.9354

 Normal termination of Gaussian 16 at Tue Dec  5 23:05:06 2023.
