 Gaussian 16, Revision B.01,
 Gaussian 16:  ES64L-G16RevB.01 20-Dec-2017

 -------------------------
 #P B3LYP/6-311+g(d) force
 -------------------------

 -----
 DPGEN
 -----
 Symbolic Z-matrix:
 Charge =  0 Multiplicity = 2

                         Standard orientation:
 ---------------------------------------------------------------------
 Center     Atomic      Atomic             Coordinates (Angstroms)
 Number     Number       Type             X           Y           Z
 ---------------------------------------------------------------------
      1         11           0        0.553610    2.796163    0.466890
      2         11           0       -3.024820    1.442228   -0.340312
      3         11           0       -0.069107    0.161455   -1.585346
      4         11           0        1.587763   -2.166121   -0.076952
      5         11           0       -1.720789   -2.444609   -0.206060
      6         11           0       -0.240764   -0.457624    2.125460
      7         11           0        2.914107    0.668508   -0.383680
 ---------------------------------------------------------------------

 SCF Done:  E(UB3LYP) =  -1136.13543283     A.U. after   19 cycles

 The electronic state is 2-A.
 Alpha  occ. eigenvalues --  -38.44057 -38.43778 -38.43748 -38.43667 -38.43397
 Alpha  occ. eigenvalues --  -38.43236 -38.43123  -2.19834  -2.19671  -2.19608
 Alpha  occ. eigenvalues --   -2.19511  -2.19298  -2.19182  -2.19131  -1.13516
 Alpha  occ. eigenvalues --   -1.13482  -1.13476  -1.13352  -1.13316  -1.13295
 Alpha  occ. eigenvalues --   -1.13295  -1.13246  -1.13237  -1.13204  -1.13177
 Alpha  occ. eigenvalues --   -1.13145  -1.13035  -1.12966  -1.12931  -1.12889
 Alpha  occ. eigenvalues --   -1.12839  -1.12799  -1.12783  -1.12756  -1.12737
 Alpha  occ. eigenvalues --   -0.18851  -0.12865  -0.12604  -0.10978
 Alpha virt. eigenvalues --   -0.05628  -0.05044  -0.04570  -0.03211  -0.03015
 Alpha virt. eigenvalues --   -0.02672  -0.01428  -0.01179  -0.00255  -0.00135
 Alpha virt. eigenvalues --   -0.00000   0.00350   0.00815   0.00878   0.00950

  Beta  occ. eigenvalues --  -38.44053 -38.43743 -38.43681 -38.43657 -38.43390
  Beta  occ. eigenvalues --  -38.43226 -38.43064  -2.19830  -2.19602  -2.19496
  Beta  occ. eigenvalues --   -2.19490  -2.19290  -2.19168  -2.19025  -1.13501
  Beta  occ. eigenvalues --   -1.13481  -1.13473  -1.13303  -1.13262  -1.13233
  Beta  occ. eigenvalues --   -1.13217  -1.13196  -1.13171  -1.13155  -1.13138
  Beta  occ. eigenvalues --   -1.13136  -1.13024  -1.12955  -1.12910  -1.12869
  Beta  occ. eigenvalues --   -1.12803  -1.12770  -1.12732  -1.12684  -1.12659
  Beta  occ. eigenvalues --   -0.18111  -0.12627  -0.12358
  Beta virt. eigenvalues --   -0.07041  -0.05594  -0.04970  -0.04529  -0.02434
  Beta virt. eigenvalues --   -0.02278  -0.01632  -0.01328  -0.01117  -0.00239
  Beta virt. eigenvalues --   -0.00175   0.00125   0.00378   0.00846   0.00891

 Mulliken charges and spin densities:
               1          2
     1  Na   0.078868   0.083078
     2  Na  -0.031192  -0.073168
     3  Na  -0.348395   0.313735
     4  Na   0.477722   0.112438
     5  Na   0.189368  -0.075363
     6  Na  -0.577154   0.610947
     7  Na   0.210782   0.028334
 Sum of Mulliken charges =  -0.00000   1.00000

 Dipole moment (field-independent basis, Debye):
    X=             -0.4317    Y=              0.0609    Z=              0.2124  Tot=              0.4849
 Quadrupole moment (field-independent basis, Debye-Ang):
   XX=            -58.6142   YY=            -62.1901   ZZ=            -73.0741
   XY=              0.6360   XZ=              0.1624   YZ=              1.3538

 Normal termination of Gaussian 16 at Thu Dec  7 14:28:00 2023.
