 Gaussian 16, Revision B.01,
 Gaussian 16:  ES64L-G16RevB.01 20-Dec-2017

 -------------------------
 #P B3LYP/6-311+g(d) force
 -------------------------

 -----
 DPGEN
 -----
 Symbolic Z-matrix:
 Charge =  0 Multiplicity = 2

                         Standard orientation:
 ---------------------------------------------------------------------
 Center     Atomic      Atomic             Coordinates (Angstroms)
 Number     Number       Type             X           Y           Z
 ---------------------------------------------------------------------
      1         11           0        3.209349   -0.684586    0.004495
      2         11           0       -0.116556    0.192047    2.186556
      3         11           0        0.585167   -2.539067   -0.028101
      4         11           0       -3.007021   -1.585987   -0.246191
      5         11           0        0.148481    0.186146   -1.674352
      6         11           0       -2.422269    2.035827   -0.038191
      7         11           0        1.602850    2.395621   -0.204216
 ---------------------------------------------------------------------

 SCF Done:  E(UB3LYP) =  -1136.13344501     A.U. after   19 cycles

 The electronic state is 2-A.
 Alpha  occ. eigenvalues --  -38.44279 -38.44247 -38.44095 -38.43856 -38.43467
 Alpha  occ. eigenvalues --  -38.43403 -38.42920  -2.20123  -2.20022  -2.19890
 Alpha  occ. eigenvalues --   -2.19713  -2.19441  -2.19272  -2.18809  -1.13799
 Alpha  occ. eigenvalues --   -1.13781  -1.13769  -1.13697  -1.13675  -1.13668
 Alpha  occ. eigenvalues --   -1.13571  -1.13554  -1.13520  -1.13374  -1.13339
 Alpha  occ. eigenvalues --   -1.13329  -1.13193  -1.13124  -1.13046  -1.12925
 Alpha  occ. eigenvalues --   -1.12918  -1.12880  -1.12508  -1.12471  -1.12429
 Alpha  occ. eigenvalues --   -0.18505  -0.13125  -0.12095  -0.10841
 Alpha virt. eigenvalues --   -0.05926  -0.05609  -0.04095  -0.03284  -0.02772
 Alpha virt. eigenvalues --   -0.02744  -0.01821  -0.01296  -0.00425  -0.00153
 Alpha virt. eigenvalues --   -0.00063   0.00317   0.00695   0.00821   0.00914

  Beta  occ. eigenvalues --  -38.44277 -38.44246 -38.44093 -38.43752 -38.43405
  Beta  occ. eigenvalues --  -38.43395 -38.42912  -2.20123  -2.20021  -2.19889
  Beta  occ. eigenvalues --   -2.19521  -2.19329  -2.19260  -2.18799  -1.13802
  Beta  occ. eigenvalues --   -1.13773  -1.13759  -1.13684  -1.13677  -1.13669
  Beta  occ. eigenvalues --   -1.13557  -1.13549  -1.13524  -1.13247  -1.13204
  Beta  occ. eigenvalues --   -1.13192  -1.13132  -1.13044  -1.12967  -1.12902
  Beta  occ. eigenvalues --   -1.12880  -1.12871  -1.12501  -1.12435  -1.12427
  Beta  occ. eigenvalues --   -0.17768  -0.12937  -0.11853
  Beta virt. eigenvalues --   -0.06889  -0.05844  -0.05623  -0.04078  -0.02522
  Beta virt. eigenvalues --   -0.01992  -0.01752  -0.01628  -0.01246  -0.00489
  Beta virt. eigenvalues --   -0.00182   0.00096   0.00345   0.00764   0.00814

 Mulliken charges and spin densities:
               1          2
     1  Na   0.220012   0.010936
     2  Na  -0.568895   0.754277
     3  Na   0.125612  -0.014921
     4  Na   0.005559  -0.055438
     5  Na  -0.274065   0.440273
     6  Na   0.134984  -0.088024
     7  Na   0.356794  -0.047103
 Sum of Mulliken charges =  -0.00000   1.00000

 Dipole moment (field-independent basis, Debye):
    X=             -0.1743    Y=              0.1574    Z=              0.1656  Tot=              0.2874
 Quadrupole moment (field-independent basis, Debye-Ang):
   XX=            -52.6080   YY=            -66.6621   ZZ=            -74.0620
   XY=             -0.0948   XZ=              0.6988   YZ=              0.1811

 Normal termination of Gaussian 16 at Thu Dec  7 12:01:37 2023.
