 Gaussian 16, Revision B.01,
 Gaussian 16:  ES64L-G16RevB.01 20-Dec-2017

 -------------------------
 #P B3LYP/6-311+g(d) force
 -------------------------

 -----
 DPGEN
 -----
 Symbolic Z-matrix:
 Charge =  0 Multiplicity = 2

                         Standard orientation:
 ---------------------------------------------------------------------
 Center     Atomic      Atomic             Coordinates (Angstroms)
 Number     Number       Type             X           Y           Z
 ---------------------------------------------------------------------
      1         11           0       -4.215429    0.265431   -1.239233
      2         11           0       -0.788099    1.771246   -0.193404
      3         11           0        2.551648    2.460975    0.119328
      4         11           0        0.277144   -1.833939   -0.905400
      5         11           0       -2.594028   -0.728015    1.483752
      6         11           0        1.067512   -0.766805    1.633132
      7         11           0        3.701253   -1.168894   -0.898175
 ---------------------------------------------------------------------

 SCF Done:  E(UB3LYP) =  -1136.12040050     A.U. after   22 cycles

 The electronic state is 2-A.
 Alpha  occ. eigenvalues --  -38.44567 -38.44464 -38.44457 -38.44286 -38.44144
 Alpha  occ. eigenvalues --  -38.43493 -38.42743  -2.20415  -2.20276  -2.20273
 Alpha  occ. eigenvalues --   -2.20160  -2.20079  -2.19334  -2.18539  -1.14103
 Alpha  occ. eigenvalues --   -1.14082  -1.14069  -1.14053  -1.13947  -1.13923
 Alpha  occ. eigenvalues --   -1.13911  -1.13905  -1.13896  -1.13877  -1.13824
 Alpha  occ. eigenvalues --   -1.13745  -1.13717  -1.13676  -1.13652  -1.13050
 Alpha  occ. eigenvalues --   -1.13026  -1.12923  -1.12217  -1.12191  -1.12190
 Alpha  occ. eigenvalues --   -0.18027  -0.14186  -0.11213  -0.11016
 Alpha virt. eigenvalues --   -0.06762  -0.05221  -0.04916  -0.03232  -0.02882
 Alpha virt. eigenvalues --   -0.02355  -0.02006  -0.01342  -0.01164  -0.00215
 Alpha virt. eigenvalues --   -0.00016   0.00137   0.00338   0.00470   0.00604

  Beta  occ. eigenvalues --  -38.44548 -38.44404 -38.44382 -38.44292 -38.44101
  Beta  occ. eigenvalues --  -38.43485 -38.42745  -2.20386  -2.20173  -2.20161
  Beta  occ. eigenvalues --   -2.20133  -2.20007  -2.19324  -2.18545  -1.14076
  Beta  occ. eigenvalues --   -1.14066  -1.14051  -1.14001  -1.13868  -1.13838
  Beta  occ. eigenvalues --   -1.13832  -1.13827  -1.13820  -1.13815  -1.13790
  Beta  occ. eigenvalues --   -1.13732  -1.13672  -1.13616  -1.13602  -1.13046
  Beta  occ. eigenvalues --   -1.12999  -1.12917  -1.12221  -1.12195  -1.12185
  Beta  occ. eigenvalues --   -0.17422  -0.13574  -0.11028
  Beta virt. eigenvalues --   -0.07492  -0.06537  -0.04808  -0.04514  -0.03113
  Beta virt. eigenvalues --   -0.02565  -0.01810  -0.01588  -0.01150  -0.00795
  Beta virt. eigenvalues --   -0.00037   0.00107   0.00190   0.00434   0.00624

 Mulliken charges and spin densities:
               1          2
     1  Na   0.414065   0.429175
     2  Na  -0.869449  -0.017230
     3  Na   0.041729  -0.046378
     4  Na  -0.227736  -0.055204
     5  Na   0.405017   0.057007
     6  Na  -0.075654   0.317397
     7  Na   0.312029   0.315232
 Sum of Mulliken charges =  -0.00000   1.00000

 Dipole moment (field-independent basis, Debye):
    X=             -0.3753    Y=             -0.8928    Z=              0.2338  Tot=              0.9963
 Quadrupole moment (field-independent basis, Debye-Ang):
   XX=            -55.2788   YY=            -79.8608   ZZ=            -63.4777
   XY=              1.0144   XZ=             -0.1137   YZ=             -0.6953

 Normal termination of Gaussian 16 at Tue Dec  5 18:07:05 2023.
