 Gaussian 16, Revision B.01,
 Gaussian 16:  ES64L-G16RevB.01 20-Dec-2017

 -------------------------
 #P B3LYP/6-311+g(d) force
 -------------------------

 -----
 DPGEN
 -----
 Symbolic Z-matrix:
 Charge =  0 Multiplicity = 2

                         Standard orientation:
 ---------------------------------------------------------------------
 Center     Atomic      Atomic             Coordinates (Angstroms)
 Number     Number       Type             X           Y           Z
 ---------------------------------------------------------------------
      1         11           0       -1.394254    2.972896    0.275118
      2         11           0        3.483727    1.163422   -0.014786
      3         11           0        0.543995   -0.273771    1.996946
      4         11           0       -1.660173   -2.603641    0.186755
      5         11           0        2.166277   -1.750829   -0.515567
      6         11           0       -3.235648    0.100884   -0.288425
      7         11           0        0.096077    0.391038   -1.640041
 ---------------------------------------------------------------------

 SCF Done:  E(UB3LYP) =  -1136.12832061     A.U. after   21 cycles

 The electronic state is 2-A.
 Alpha  occ. eigenvalues --  -38.45184 -38.44422 -38.43920 -38.43715 -38.43693
 Alpha  occ. eigenvalues --  -38.43264 -38.43064  -2.20975  -2.20262  -2.19824
 Alpha  occ. eigenvalues --   -2.19620  -2.19563  -2.19061  -2.18898  -1.14649
 Alpha  occ. eigenvalues --   -1.14634  -1.14616  -1.13942  -1.13933  -1.13894
 Alpha  occ. eigenvalues --   -1.13553  -1.13495  -1.13434  -1.13311  -1.13257
 Alpha  occ. eigenvalues --   -1.13233  -1.13229  -1.13193  -1.13169  -1.12729
 Alpha  occ. eigenvalues --   -1.12720  -1.12709  -1.12585  -1.12555  -1.12536
 Alpha  occ. eigenvalues --   -0.18245  -0.13677  -0.11696  -0.10549
 Alpha virt. eigenvalues --   -0.06643  -0.05246  -0.04408  -0.03441  -0.02567
 Alpha virt. eigenvalues --   -0.02466  -0.02198  -0.01190  -0.00604  -0.00337
 Alpha virt. eigenvalues --   -0.00062   0.00289   0.00632   0.00691   0.00756

  Beta  occ. eigenvalues --  -38.45183 -38.44420 -38.43900 -38.43658 -38.43599
  Beta  occ. eigenvalues --  -38.43264 -38.43064  -2.20976  -2.20259  -2.19793
  Beta  occ. eigenvalues --   -2.19516  -2.19389  -2.19061  -2.18900  -1.14653
  Beta  occ. eigenvalues --   -1.14619  -1.14612  -1.13941  -1.13920  -1.13897
  Beta  occ. eigenvalues --   -1.13527  -1.13442  -1.13411  -1.13241  -1.13177
  Beta  occ. eigenvalues --   -1.13156  -1.13115  -1.13071  -1.13043  -1.12726
  Beta  occ. eigenvalues --   -1.12719  -1.12704  -1.12590  -1.12540  -1.12535
  Beta  occ. eigenvalues --   -0.17517  -0.13492  -0.11531
  Beta virt. eigenvalues --   -0.06662  -0.06537  -0.05167  -0.04345  -0.02755
  Beta virt. eigenvalues --   -0.02139  -0.01882  -0.01430  -0.01119  -0.00596
  Beta virt. eigenvalues --   -0.00334   0.00103   0.00322   0.00744   0.00783

 Mulliken charges and spin densities:
               1          2
     1  Na  -0.130250  -0.072611
     2  Na   0.031194  -0.051360
     3  Na  -0.349977   0.755850
     4  Na  -0.027865  -0.051672
     5  Na   0.320792   0.135425
     6  Na   0.092113  -0.013073
     7  Na   0.063993   0.297441
 Sum of Mulliken charges =  -0.00000   1.00000

 Dipole moment (field-independent basis, Debye):
    X=              0.8198    Y=              0.3137    Z=              0.0151  Tot=              0.8779
 Quadrupole moment (field-independent basis, Debye-Ang):
   XX=            -51.5224   YY=            -66.3447   ZZ=            -75.5963
   XY=              2.6567   XZ=             -0.2576   YZ=              1.6326

 Normal termination of Gaussian 16 at Thu Dec  7 21:43:29 2023.
