 Gaussian 16, Revision B.01,
 Gaussian 16:  ES64L-G16RevB.01 20-Dec-2017

 -------------------------
 #P B3LYP/6-311+g(d) force
 -------------------------

 -----
 DPGEN
 -----
 Symbolic Z-matrix:
 Charge =  0 Multiplicity = 2

                         Standard orientation:
 ---------------------------------------------------------------------
 Center     Atomic      Atomic             Coordinates (Angstroms)
 Number     Number       Type             X           Y           Z
 ---------------------------------------------------------------------
      1         11           0       -0.027156    2.806619   -0.448951
      2         11           0        2.117189   -1.859847   -0.836335
      3         11           0        3.207565    0.905819    0.450527
      4         11           0       -1.573940   -2.561148    0.377450
      5         11           0       -0.405023   -0.197574   -1.590296
      6         11           0        0.015172    0.005417    2.116971
      7         11           0       -3.333807    0.900714   -0.069365
 ---------------------------------------------------------------------

 SCF Done:  E(UB3LYP) =  -1136.13215615     A.U. after   20 cycles

 The electronic state is 2-A.
 Alpha  occ. eigenvalues --  -38.44768 -38.44148 -38.44029 -38.43553 -38.43384
 Alpha  occ. eigenvalues --  -38.43335 -38.43232  -2.20545  -2.19958  -2.19887
 Alpha  occ. eigenvalues --   -2.19423  -2.19223  -2.19218  -2.19156  -1.14230
 Alpha  occ. eigenvalues --   -1.14194  -1.14179  -1.13641  -1.13626  -1.13595
 Alpha  occ. eigenvalues --   -1.13553  -1.13518  -1.13501  -1.13162  -1.13064
 Alpha  occ. eigenvalues --   -1.13040  -1.12946  -1.12930  -1.12893  -1.12860
 Alpha  occ. eigenvalues --   -1.12842  -1.12835  -1.12818  -1.12794  -1.12761
 Alpha  occ. eigenvalues --   -0.18336  -0.13062  -0.12010  -0.10997
 Alpha virt. eigenvalues --   -0.06203  -0.05028  -0.04280  -0.03348  -0.02906
 Alpha virt. eigenvalues --   -0.02726  -0.01930  -0.01072  -0.00462  -0.00144
 Alpha virt. eigenvalues --   -0.00012   0.00325   0.00723   0.00753   0.00849

  Beta  occ. eigenvalues --  -38.44768 -38.44144 -38.43936 -38.43530 -38.43377
  Beta  occ. eigenvalues --  -38.43328 -38.43172  -2.20546  -2.19953  -2.19714
  Beta  occ. eigenvalues --   -2.19383  -2.19208  -2.19147  -2.19114  -1.14222
  Beta  occ. eigenvalues --   -1.14196  -1.14178  -1.13640  -1.13604  -1.13593
  Beta  occ. eigenvalues --   -1.13439  -1.13400  -1.13373  -1.13119  -1.13031
  Beta  occ. eigenvalues --   -1.13013  -1.12919  -1.12894  -1.12866  -1.12833
  Beta  occ. eigenvalues --   -1.12808  -1.12799  -1.12765  -1.12758  -1.12731
  Beta  occ. eigenvalues --   -0.17616  -0.12865  -0.11738
  Beta virt. eigenvalues --   -0.07090  -0.06156  -0.04944  -0.04201  -0.02671
  Beta virt. eigenvalues --   -0.02167  -0.01846  -0.01693  -0.00973  -0.00444
  Beta virt. eigenvalues --   -0.00148   0.00090   0.00352   0.00802   0.00858

 Mulliken charges and spin densities:
               1          2
     1  Na  -0.084307  -0.023580
     2  Na   0.189642   0.037476
     3  Na  -0.012126   0.057097
     4  Na  -0.013938   0.053946
     5  Na   0.228149   0.240844
     6  Na  -0.319705   0.700822
     7  Na   0.012286  -0.066605
 Sum of Mulliken charges =  -0.00000   1.00000

 Dipole moment (field-independent basis, Debye):
    X=             -0.4482    Y=              0.1652    Z=              0.3397  Tot=              0.5861
 Quadrupole moment (field-independent basis, Debye-Ang):
   XX=            -52.9453   YY=            -66.7951   ZZ=            -73.3373
   XY=              0.3931   XZ=             -0.5166   YZ=              0.1308

 Normal termination of Gaussian 16 at Fri Dec  8 05:46:28 2023.
