 Gaussian 16, Revision B.01,
 Gaussian 16:  ES64L-G16RevB.01 20-Dec-2017

 -------------------------
 #P B3LYP/6-311+g(d) force
 -------------------------

 -----
 DPGEN
 -----
 Symbolic Z-matrix:
 Charge =  0 Multiplicity = 2

                         Standard orientation:
 ---------------------------------------------------------------------
 Center     Atomic      Atomic             Coordinates (Angstroms)
 Number     Number       Type             X           Y           Z
 ---------------------------------------------------------------------
      1         11           0       -2.794580    1.709218    0.129045
      2         11           0        1.326649    2.628955    0.115871
      3         11           0        0.912588   -2.628452   -0.356924
      4         11           0       -0.333132    0.320881   -1.406424
      5         11           0       -2.715191   -1.495830   -0.156736
      6         11           0        0.587759   -0.554246    2.229521
      7         11           0        3.015909    0.019476   -0.554354
 ---------------------------------------------------------------------

 SCF Done:  E(UB3LYP) =  -1136.13352116     A.U. after   19 cycles

 The electronic state is 2-A.
 Alpha  occ. eigenvalues --  -38.44145 -38.44113 -38.44086 -38.43690 -38.43326
 Alpha  occ. eigenvalues --  -38.43106 -38.42956  -2.19982  -2.19971  -2.19963
 Alpha  occ. eigenvalues --   -2.19553  -2.19185  -2.19125  -2.18837  -1.13715
 Alpha  occ. eigenvalues --   -1.13658  -1.13647  -1.13644  -1.13635  -1.13624
 Alpha  occ. eigenvalues --   -1.13612  -1.13606  -1.13552  -1.13205  -1.13185
 Alpha  occ. eigenvalues --   -1.13171  -1.12910  -1.12834  -1.12829  -1.12805
 Alpha  occ. eigenvalues --   -1.12768  -1.12742  -1.12513  -1.12499  -1.12470
 Alpha  occ. eigenvalues --   -0.18638  -0.13530  -0.12160  -0.10723
 Alpha virt. eigenvalues --   -0.05776  -0.05443  -0.04344  -0.03340  -0.02869
 Alpha virt. eigenvalues --   -0.02479  -0.01656  -0.01089  -0.00418  -0.00298
 Alpha virt. eigenvalues --   -0.00031   0.00341   0.00736   0.00855   0.00901

  Beta  occ. eigenvalues --  -38.44146 -38.44111 -38.44071 -38.43587 -38.43321
  Beta  occ. eigenvalues --  -38.43062 -38.42946  -2.19983  -2.19961  -2.19947
  Beta  occ. eigenvalues --   -2.19362  -2.19180  -2.19047  -2.18823  -1.13716
  Beta  occ. eigenvalues --   -1.13654  -1.13635  -1.13633  -1.13620  -1.13608
  Beta  occ. eigenvalues --   -1.13598  -1.13582  -1.13555  -1.13079  -1.13051
  Beta  occ. eigenvalues --   -1.13035  -1.12896  -1.12829  -1.12807  -1.12753
  Beta  occ. eigenvalues --   -1.12706  -1.12692  -1.12506  -1.12466  -1.12453
  Beta  occ. eigenvalues --   -0.17939  -0.13325  -0.11947
  Beta virt. eigenvalues --   -0.06755  -0.05687  -0.05442  -0.04290  -0.02641
  Beta virt. eigenvalues --   -0.02072  -0.01574  -0.01419  -0.01032  -0.00439
  Beta virt. eigenvalues --   -0.00323   0.00157   0.00393   0.00822   0.00864

 Mulliken charges and spin densities:
               1          2
     1  Na   0.097652   0.019891
     2  Na   0.042662   0.044013
     3  Na   0.265845   0.031951
     4  Na  -0.153683   0.152487
     5  Na   0.163943  -0.043611
     6  Na  -0.779354   0.735299
     7  Na   0.362934   0.059970
 Sum of Mulliken charges =  -0.00000   1.00000

 Dipole moment (field-independent basis, Debye):
    X=             -0.3780    Y=              0.0700    Z=              0.2012  Tot=              0.4339
 Quadrupole moment (field-independent basis, Debye-Ang):
   XX=            -55.0996   YY=            -64.6573   ZZ=            -74.2326
   XY=             -0.1824   XZ=             -1.9433   YZ=              2.0186

 Normal termination of Gaussian 16 at Thu Dec  7 18:31:48 2023.
