 Gaussian 16, Revision B.01,
 Gaussian 16:  ES64L-G16RevB.01 20-Dec-2017

 -------------------------
 #P B3LYP/6-311+g(d) force
 -------------------------

 -----
 DPGEN
 -----
 Symbolic Z-matrix:
 Charge =  0 Multiplicity = 2

                         Standard orientation:
 ---------------------------------------------------------------------
 Center     Atomic      Atomic             Coordinates (Angstroms)
 Number     Number       Type             X           Y           Z
 ---------------------------------------------------------------------
      1         11           0        3.516457   -0.211641   -0.467745
      2         11           0       -3.331232   -2.151737   -0.425105
      3         11           0       -1.487614    1.678483    0.303974
      4         11           0       -3.934263    0.847542    2.005547
      5         11           0        1.370609    2.437961   -1.610323
      6         11           0       -0.508522   -1.524183   -2.033797
      7         11           0        4.374564   -1.076426    2.227449
 ---------------------------------------------------------------------

 SCF Done:  E(UB3LYP) =  -1136.10861404     A.U. after   38 cycles

 The electronic state is 2-A.
 Alpha  occ. eigenvalues --  -38.46254 -38.45495 -38.44855 -38.44738 -38.43686
 Alpha  occ. eigenvalues --  -38.42882 -38.42625  -2.22041  -2.21286  -2.20683
 Alpha  occ. eigenvalues --   -2.20582  -2.19477  -2.18726  -2.18436  -1.15711
 Alpha  occ. eigenvalues --   -1.15703  -1.15634  -1.14961  -1.14955  -1.14891
 Alpha  occ. eigenvalues --   -1.14424  -1.14325  -1.14283  -1.14262  -1.14235
 Alpha  occ. eigenvalues --   -1.14163  -1.13148  -1.13143  -1.13103  -1.12467
 Alpha  occ. eigenvalues --   -1.12401  -1.12366  -1.12082  -1.12080  -1.12062
 Alpha  occ. eigenvalues --   -0.16877  -0.13676  -0.13070  -0.11001
 Alpha virt. eigenvalues --   -0.06261  -0.05877  -0.04281  -0.03932  -0.03342
 Alpha virt. eigenvalues --   -0.02379  -0.02107  -0.01500  -0.00979  -0.00692
 Alpha virt. eigenvalues --   -0.00620  -0.00197  -0.00021   0.00223   0.00536

  Beta  occ. eigenvalues --  -38.46171 -38.45451 -38.44797 -38.44690 -38.43675
  Beta  occ. eigenvalues --  -38.42881 -38.42628  -2.21891  -2.21208  -2.20576
  Beta  occ. eigenvalues --   -2.20497  -2.19457  -2.18724  -2.18443  -1.15611
  Beta  occ. eigenvalues --   -1.15602  -1.15511  -1.14909  -1.14895  -1.14825
  Beta  occ. eigenvalues --   -1.14334  -1.14254  -1.14219  -1.14208  -1.14176
  Beta  occ. eigenvalues --   -1.14087  -1.13132  -1.13127  -1.13093  -1.12468
  Beta  occ. eigenvalues --   -1.12397  -1.12365  -1.12086  -1.12084  -1.12065
  Beta  occ. eigenvalues --   -0.15942  -0.13464  -0.10940
  Beta virt. eigenvalues --   -0.08885  -0.06030  -0.05427  -0.03955  -0.03385
  Beta virt. eigenvalues --   -0.02942  -0.02112  -0.02001  -0.01055  -0.00816
  Beta virt. eigenvalues --   -0.00464  -0.00389  -0.00073   0.00115   0.00261

 Mulliken charges and spin densities:
               1          2
     1  Na  -0.823326   0.071607
     2  Na   0.206207   0.081290
     3  Na  -2.099930   0.618254
     4  Na   1.282079  -0.197803
     5  Na   1.049491   0.059670
     6  Na  -0.055938   0.416553
     7  Na   0.441417  -0.049570
 Sum of Mulliken charges =  -0.00000   1.00000

 Dipole moment (field-independent basis, Debye):
    X=             -3.2534    Y=             -0.3609    Z=             -0.5427  Tot=              3.3181
 Quadrupole moment (field-independent basis, Debye-Ang):
   XX=            -73.0935   YY=            -66.2730   ZZ=            -63.8791
   XY=              5.9735   XZ=             -6.3360   YZ=              3.3603

 Normal termination of Gaussian 16 at Sun Dec  3 16:27:04 2023.
