 Gaussian 16, Revision B.01,
 Gaussian 16:  ES64L-G16RevB.01 20-Dec-2017

 -------------------------
 #P B3LYP/6-311+g(d) force
 -------------------------

 -----
 DPGEN
 -----
 Symbolic Z-matrix:
 Charge =  0 Multiplicity = 2

                         Standard orientation:
 ---------------------------------------------------------------------
 Center     Atomic      Atomic             Coordinates (Angstroms)
 Number     Number       Type             X           Y           Z
 ---------------------------------------------------------------------
      1         11           0        0.897610    1.052411   -1.377986
      2         11           0        3.607758   -0.486170   -1.712245
      3         11           0       -3.286854   -1.722580   -0.857467
      4         11           0       -2.247963    2.062688   -0.594046
      5         11           0       -0.092555    2.374551    1.677872
      6         11           0       -0.682061   -2.382437    0.704235
      7         11           0        1.804063   -0.898463    2.159638
 ---------------------------------------------------------------------

 SCF Done:  E(UB3LYP) =  -1136.12083056     A.U. after   21 cycles

 The electronic state is 2-A.
 Alpha  occ. eigenvalues --  -38.44715 -38.44477 -38.44326 -38.44098 -38.43745
 Alpha  occ. eigenvalues --  -38.43559 -38.43318  -2.20525  -2.20298  -2.20175
 Alpha  occ. eigenvalues --   -2.19978  -2.19586  -2.19364  -2.19153  -1.14216
 Alpha  occ. eigenvalues --   -1.14163  -1.14129  -1.13982  -1.13944  -1.13904
 Alpha  occ. eigenvalues --   -1.13850  -1.13832  -1.13804  -1.13652  -1.13641
 Alpha  occ. eigenvalues --   -1.13606  -1.13274  -1.13250  -1.13196  -1.13076
 Alpha  occ. eigenvalues --   -1.13021  -1.12997  -1.12824  -1.12811  -1.12780
 Alpha  occ. eigenvalues --   -0.17432  -0.13036  -0.12384  -0.11898
 Alpha virt. eigenvalues --   -0.05787  -0.05327  -0.04722  -0.03560  -0.03241
 Alpha virt. eigenvalues --   -0.02682  -0.01789  -0.00973  -0.00809  -0.00165
 Alpha virt. eigenvalues --   -0.00004   0.00190   0.00273   0.00342   0.00750

  Beta  occ. eigenvalues --  -38.44650 -38.44412 -38.44286 -38.44065 -38.43745
  Beta  occ. eigenvalues --  -38.43550 -38.43312  -2.20407  -2.20180  -2.20101
  Beta  occ. eigenvalues --   -2.19920  -2.19586  -2.19347  -2.19145  -1.14124
  Beta  occ. eigenvalues --   -1.14085  -1.14054  -1.13899  -1.13856  -1.13826
  Beta  occ. eigenvalues --   -1.13803  -1.13786  -1.13742  -1.13614  -1.13601
  Beta  occ. eigenvalues --   -1.13548  -1.13268  -1.13251  -1.13194  -1.13068
  Beta  occ. eigenvalues --   -1.13009  -1.12983  -1.12813  -1.12806  -1.12766
  Beta  occ. eigenvalues --   -0.16801  -0.12475  -0.12140
  Beta virt. eigenvalues --   -0.08315  -0.05354  -0.05056  -0.04327  -0.03379
  Beta virt. eigenvalues --   -0.02617  -0.02237  -0.01559  -0.00873  -0.00493
  Beta virt. eigenvalues --    0.00027   0.00175   0.00281   0.00342   0.00505

 Mulliken charges and spin densities:
               1          2
     1  Na  -1.190065   0.370825
     2  Na   0.547967   0.062525
     3  Na   0.174665   0.027109
     4  Na   0.647446   0.046401
     5  Na   0.118512   0.222159
     6  Na  -0.405641   0.042832
     7  Na   0.107117   0.228148
 Sum of Mulliken charges =  -0.00000   1.00000

 Dipole moment (field-independent basis, Debye):
    X=              0.7306    Y=              0.5693    Z=              0.1619  Tot=              0.9402
 Quadrupole moment (field-independent basis, Debye-Ang):
   XX=            -59.0891   YY=            -72.5823   ZZ=            -65.3956
   XY=             -4.5758   XZ=              2.5466   YZ=              2.6446

 Normal termination of Gaussian 16 at Sun Dec  3 14:22:40 2023.
