 Gaussian 16, Revision B.01,
 Gaussian 16:  ES64L-G16RevB.01 20-Dec-2017

 -------------------------
 #P B3LYP/6-311+g(d) force
 -------------------------

 -----
 DPGEN
 -----
 Symbolic Z-matrix:
 Charge =  0 Multiplicity = 2

                         Standard orientation:
 ---------------------------------------------------------------------
 Center     Atomic      Atomic             Coordinates (Angstroms)
 Number     Number       Type             X           Y           Z
 ---------------------------------------------------------------------
      1         11           0        3.030819   -1.127046   -0.066054
      2         11           0        1.563605    2.367183   -0.278308
      3         11           0        0.049444   -2.390320   -0.340144
      4         11           0       -3.047637   -1.148155    0.049161
      5         11           0        0.251467    0.046890    2.325638
      6         11           0       -1.737820    2.107473   -0.019321
      7         11           0       -0.109878    0.143975   -1.670972
 ---------------------------------------------------------------------

 SCF Done:  E(UB3LYP) =  -1136.13221623     A.U. after   19 cycles

 The electronic state is 2-A.
 Alpha  occ. eigenvalues --  -38.44269 -38.43901 -38.43759 -38.43569 -38.43363
 Alpha  occ. eigenvalues --  -38.43309 -38.43065  -2.20121  -2.19726  -2.19629
 Alpha  occ. eigenvalues --   -2.19587  -2.19269  -2.19191  -2.19018  -1.13773
 Alpha  occ. eigenvalues --   -1.13748  -1.13737  -1.13417  -1.13396  -1.13387
 Alpha  occ. eigenvalues --   -1.13370  -1.13333  -1.13258  -1.13253  -1.13245
 Alpha  occ. eigenvalues --   -1.13219  -1.12956  -1.12927  -1.12898  -1.12872
 Alpha  occ. eigenvalues --   -1.12835  -1.12794  -1.12720  -1.12659  -1.12602
 Alpha  occ. eigenvalues --   -0.18972  -0.12885  -0.12491  -0.11313
 Alpha virt. eigenvalues --   -0.05526  -0.05042  -0.04163  -0.03299  -0.03115
 Alpha virt. eigenvalues --   -0.03025  -0.01567  -0.00995  -0.00095  -0.00008
 Alpha virt. eigenvalues --    0.00125   0.00337   0.00771   0.00918   0.00966

  Beta  occ. eigenvalues --  -38.44162 -38.43901 -38.43760 -38.43503 -38.43357
  Beta  occ. eigenvalues --  -38.43302 -38.43052  -2.19921  -2.19729  -2.19591
  Beta  occ. eigenvalues --   -2.19510  -2.19261  -2.19182  -2.18999  -1.13641
  Beta  occ. eigenvalues --   -1.13608  -1.13595  -1.13409  -1.13376  -1.13370
  Beta  occ. eigenvalues --   -1.13322  -1.13269  -1.13258  -1.13238  -1.13234
  Beta  occ. eigenvalues --   -1.13152  -1.12941  -1.12903  -1.12887  -1.12854
  Beta  occ. eigenvalues --   -1.12814  -1.12792  -1.12695  -1.12619  -1.12595
  Beta  occ. eigenvalues --   -0.18213  -0.12694  -0.12236
  Beta virt. eigenvalues --   -0.07280  -0.05454  -0.05056  -0.04154  -0.02486
  Beta virt. eigenvalues --   -0.02225  -0.01977  -0.01481  -0.00947  -0.00074
  Beta virt. eigenvalues --    0.00064   0.00109   0.00357   0.00839   0.00902

 Mulliken charges and spin densities:
               1          2
     1  Na   0.141924  -0.039060
     2  Na   0.310848  -0.000427
     3  Na   0.454057   0.078419
     4  Na   0.076915  -0.006288
     5  Na  -0.841635   0.721860
     6  Na   0.313883   0.066594
     7  Na  -0.455991   0.178902
 Sum of Mulliken charges =  -0.00000   1.00000

 Dipole moment (field-independent basis, Debye):
    X=              0.1095    Y=              0.0718    Z=              0.4501  Tot=              0.4687
 Quadrupole moment (field-independent basis, Debye-Ang):
   XX=            -55.6146   YY=            -67.4424   ZZ=            -71.3814
   XY=              0.4290   XZ=             -0.7867   YZ=              0.0082

 Normal termination of Gaussian 16 at Thu Dec  7 12:17:31 2023.
