 Gaussian 16, Revision B.01,
 Gaussian 16:  ES64L-G16RevB.01 20-Dec-2017

 -------------------------
 #P B3LYP/6-311+g(d) force
 -------------------------

 -----
 DPGEN
 -----
 Symbolic Z-matrix:
 Charge =  0 Multiplicity = 2

                         Standard orientation:
 ---------------------------------------------------------------------
 Center     Atomic      Atomic             Coordinates (Angstroms)
 Number     Number       Type             X           Y           Z
 ---------------------------------------------------------------------
      1         11           0       -2.234889   -2.005122   -0.464825
      2         11           0       -3.078332    0.936933   -0.064787
      3         11           0        0.147809    3.091466    0.406905
      4         11           0        0.152517    0.300927   -1.219725
      5         11           0        3.249964    0.755007   -0.406481
      6         11           0       -0.113915   -0.615635    1.544020
      7         11           0        1.876846   -2.463576    0.204892
 ---------------------------------------------------------------------

 SCF Done:  E(UB3LYP) =  -1136.12717438     A.U. after   21 cycles

 The electronic state is 2-A.
 Alpha  occ. eigenvalues --  -38.44298 -38.44254 -38.43714 -38.43646 -38.43381
 Alpha  occ. eigenvalues --  -38.43195 -38.42949  -2.20158  -2.20081  -2.19584
 Alpha  occ. eigenvalues --   -2.19553  -2.19255  -2.19200  -2.18983  -1.13855
 Alpha  occ. eigenvalues --   -1.13824  -1.13791  -1.13767  -1.13728  -1.13707
 Alpha  occ. eigenvalues --   -1.13317  -1.13243  -1.13232  -1.13212  -1.13204
 Alpha  occ. eigenvalues --   -1.13179  -1.13084  -1.12943  -1.12863  -1.12858
 Alpha  occ. eigenvalues --   -1.12826  -1.12816  -1.12648  -1.12584  -1.12564
 Alpha  occ. eigenvalues --   -0.18843  -0.13609  -0.12420  -0.09909
 Alpha virt. eigenvalues --   -0.06038  -0.05311  -0.04844  -0.03015  -0.02535
 Alpha virt. eigenvalues --   -0.02032  -0.01485  -0.01353  -0.00591  -0.00494
 Alpha virt. eigenvalues --    0.00041   0.00292   0.00705   0.00793   0.00828

  Beta  occ. eigenvalues --  -38.44291 -38.44229 -38.43705 -38.43627 -38.43370
  Beta  occ. eigenvalues --  -38.43164 -38.42875  -2.20148  -2.20036  -2.19570
  Beta  occ. eigenvalues --   -2.19521  -2.19201  -2.19182  -2.18846  -1.13850
  Beta  occ. eigenvalues --   -1.13812  -1.13764  -1.13729  -1.13691  -1.13679
  Beta  occ. eigenvalues --   -1.13296  -1.13225  -1.13217  -1.13186  -1.13184
  Beta  occ. eigenvalues --   -1.13137  -1.13023  -1.12923  -1.12841  -1.12820
  Beta  occ. eigenvalues --   -1.12806  -1.12788  -1.12561  -1.12494  -1.12459
  Beta  occ. eigenvalues --   -0.18241  -0.13214  -0.12155
  Beta virt. eigenvalues --   -0.06320  -0.05818  -0.05249  -0.04746  -0.02328
  Beta virt. eigenvalues --   -0.01913  -0.01847  -0.01268  -0.00757  -0.00517
  Beta virt. eigenvalues --   -0.00494   0.00190   0.00381   0.00771   0.00821

 Mulliken charges and spin densities:
               1          2
     1  Na   0.213114   0.119046
     2  Na   0.218868   0.070775
     3  Na  -0.145665   0.075497
     4  Na  -0.539194   0.075933
     5  Na   0.074940   0.113557
     6  Na  -0.104316   0.548018
     7  Na   0.282254  -0.002826
 Sum of Mulliken charges =  -0.00000   1.00000

 Dipole moment (field-independent basis, Debye):
    X=              0.0293    Y=              0.0460    Z=              0.2186  Tot=              0.2253
 Quadrupole moment (field-independent basis, Debye-Ang):
   XX=            -53.5598   YY=            -60.7508   ZZ=            -76.9375
   XY=             -1.2952   XZ=              0.2367   YZ=              2.1249

 Normal termination of Gaussian 16 at Tue Nov 28 21:58:29 2023.
