 Gaussian 16, Revision B.01,
 Gaussian 16:  ES64L-G16RevB.01 20-Dec-2017

 -------------------------
 #P B3LYP/6-311+g(d) force
 -------------------------

 -----
 DPGEN
 -----
 Symbolic Z-matrix:
 Charge =  0 Multiplicity = 2

                         Standard orientation:
 ---------------------------------------------------------------------
 Center     Atomic      Atomic             Coordinates (Angstroms)
 Number     Number       Type             X           Y           Z
 ---------------------------------------------------------------------
      1         11           0        0.433243   -0.760516   -1.555861
      2         11           0        0.017240   -0.517980    1.713619
      3         11           0       -2.422028   -2.238758    0.252713
      4         11           0        2.859867   -2.071942   -0.057434
      5         11           0        2.576417    1.947470   -0.026796
      6         11           0       -0.620254    2.779791    0.252630
      7         11           0       -2.844485    0.861934   -0.578870
 ---------------------------------------------------------------------

 SCF Done:  E(UB3LYP) =  -1136.12881284     A.U. after   21 cycles

 The electronic state is 2-A.
 Alpha  occ. eigenvalues --  -38.44612 -38.44393 -38.44171 -38.43869 -38.43445
 Alpha  occ. eigenvalues --  -38.43211 -38.43103  -2.20405  -2.20205  -2.20015
 Alpha  occ. eigenvalues --   -2.19756  -2.19366  -2.19135  -2.18976  -1.14086
 Alpha  occ. eigenvalues --   -1.14070  -1.14036  -1.13901  -1.13856  -1.13839
 Alpha  occ. eigenvalues --   -1.13693  -1.13680  -1.13662  -1.13463  -1.13400
 Alpha  occ. eigenvalues --   -1.13379  -1.13077  -1.13006  -1.12979  -1.12821
 Alpha  occ. eigenvalues --   -1.12759  -1.12747  -1.12657  -1.12624  -1.12622
 Alpha  occ. eigenvalues --   -0.18424  -0.13397  -0.12463  -0.10189
 Alpha virt. eigenvalues --   -0.06312  -0.05747  -0.04392  -0.03235  -0.02682
 Alpha virt. eigenvalues --   -0.02100  -0.01903  -0.01606  -0.00662  -0.00228
 Alpha virt. eigenvalues --    0.00003   0.00300   0.00666   0.00715   0.00752

  Beta  occ. eigenvalues --  -38.44611 -38.44388 -38.44160 -38.43848 -38.43393
  Beta  occ. eigenvalues --  -38.43130 -38.43098  -2.20405  -2.20200  -2.20000
  Beta  occ. eigenvalues --   -2.19719  -2.19272  -2.18986  -2.18971  -1.14084
  Beta  occ. eigenvalues --   -1.14058  -1.14038  -1.13889  -1.13840  -1.13838
  Beta  occ. eigenvalues --   -1.13686  -1.13660  -1.13635  -1.13441  -1.13364
  Beta  occ. eigenvalues --   -1.13349  -1.13004  -1.12939  -1.12911  -1.12720
  Beta  occ. eigenvalues --   -1.12664  -1.12648  -1.12638  -1.12621  -1.12593
  Beta  occ. eigenvalues --   -0.17770  -0.13140  -0.12214
  Beta virt. eigenvalues --   -0.06504  -0.06198  -0.05623  -0.04320  -0.02528
  Beta virt. eigenvalues --   -0.02005  -0.01802  -0.01601  -0.01074  -0.00691
  Beta virt. eigenvalues --   -0.00209   0.00166   0.00359   0.00680   0.00796

 Mulliken charges and spin densities:
               1          2
     1  Na  -0.164224   0.301906
     2  Na  -0.218031   0.446054
     3  Na   0.341939   0.126823
     4  Na   0.127722   0.010547
     5  Na  -0.026272  -0.056904
     6  Na  -0.129461   0.048918
     7  Na   0.068328   0.122656
 Sum of Mulliken charges =  -0.00000   1.00000

 Dipole moment (field-independent basis, Debye):
    X=              0.6441    Y=             -0.5274    Z=              0.0459  Tot=              0.8337
 Quadrupole moment (field-independent basis, Debye-Ang):
   XX=            -52.9339   YY=            -63.2570   ZZ=            -76.7272
   XY=              1.3750   XZ=              1.1139   YZ=             -0.6743

 Normal termination of Gaussian 16 at Sun Dec  3 21:58:29 2023.
