 Gaussian 16, Revision B.01,
 Gaussian 16:  ES64L-G16RevB.01 20-Dec-2017

 -------------------------
 #P B3LYP/6-311+g(d) force
 -------------------------

 -----
 DPGEN
 -----
 Symbolic Z-matrix:
 Charge =  0 Multiplicity = 2

                         Standard orientation:
 ---------------------------------------------------------------------
 Center     Atomic      Atomic             Coordinates (Angstroms)
 Number     Number       Type             X           Y           Z
 ---------------------------------------------------------------------
      1         11           0       -3.819901    0.518332    0.931154
      2         11           0        1.214490   -1.710017   -1.467014
      3         11           0        2.317528    1.824606   -0.222405
      4         11           0        3.594185   -1.127518    1.029815
      5         11           0       -0.101381   -0.025358    1.476065
      6         11           0       -2.724235   -1.839974   -0.651765
      7         11           0       -0.480685    2.359929   -1.095850
 ---------------------------------------------------------------------

 SCF Done:  E(UB3LYP) =  -1136.12223838     A.U. after   22 cycles

 The electronic state is 2-A.
 Alpha  occ. eigenvalues --  -38.45325 -38.44540 -38.44398 -38.43747 -38.43685
 Alpha  occ. eigenvalues --  -38.43652 -38.42712  -2.21158  -2.20374  -2.20220
 Alpha  occ. eigenvalues --   -2.19594  -2.19574  -2.19484  -2.18578  -1.14871
 Alpha  occ. eigenvalues --   -1.14816  -1.14774  -1.14111  -1.14022  -1.13997
 Alpha  occ. eigenvalues --   -1.13886  -1.13864  -1.13832  -1.13305  -1.13263
 Alpha  occ. eigenvalues --   -1.13252  -1.13236  -1.13222  -1.13196  -1.13147
 Alpha  occ. eigenvalues --   -1.13130  -1.13099  -1.12258  -1.12217  -1.12213
 Alpha  occ. eigenvalues --   -0.17920  -0.14184  -0.11572  -0.10591
 Alpha virt. eigenvalues --   -0.06792  -0.05538  -0.04469  -0.03393  -0.02845
 Alpha virt. eigenvalues --   -0.02678  -0.01873  -0.01268  -0.00826  -0.00507
 Alpha virt. eigenvalues --    0.00051   0.00175   0.00371   0.00420   0.00689

  Beta  occ. eigenvalues --  -38.45310 -38.44509 -38.44388 -38.43689 -38.43677
  Beta  occ. eigenvalues --  -38.43620 -38.42697  -2.21132  -2.20315  -2.20203
  Beta  occ. eigenvalues --   -2.19581  -2.19469  -2.19424  -2.18553  -1.14834
  Beta  occ. eigenvalues --   -1.14804  -1.14754  -1.14079  -1.13978  -1.13957
  Beta  occ. eigenvalues --   -1.13878  -1.13850  -1.13794  -1.13285  -1.13242
  Beta  occ. eigenvalues --   -1.13223  -1.13182  -1.13151  -1.13123  -1.13106
  Beta  occ. eigenvalues --   -1.13080  -1.13056  -1.12241  -1.12199  -1.12188
  Beta  occ. eigenvalues --   -0.17353  -0.13872  -0.11297
  Beta virt. eigenvalues --   -0.07030  -0.06566  -0.05314  -0.03995  -0.03185
  Beta virt. eigenvalues --   -0.02547  -0.02164  -0.01359  -0.01048  -0.00501
  Beta virt. eigenvalues --   -0.00422   0.00144   0.00252   0.00507   0.00563

 Mulliken charges and spin densities:
               1          2
     1  Na   0.682531   0.168044
     2  Na  -0.372254   0.314642
     3  Na   0.205200   0.079520
     4  Na   0.828600   0.181100
     5  Na  -0.954600  -0.017043
     6  Na  -0.174015   0.131033
     7  Na  -0.215462   0.142704
 Sum of Mulliken charges =  -0.00000   1.00000

 Dipole moment (field-independent basis, Debye):
    X=             -0.5986    Y=             -0.0113    Z=              0.1287  Tot=              0.6124
 Quadrupole moment (field-independent basis, Debye-Ang):
   XX=            -54.3776   YY=            -74.5033   ZZ=            -69.2476
   XY=             -0.6262   XZ=              0.2963   YZ=              0.7410

 Normal termination of Gaussian 16 at Tue Dec  5 13:15:41 2023.
