 Gaussian 16, Revision B.01,
 Gaussian 16:  ES64L-G16RevB.01 20-Dec-2017

 -------------------------
 #P B3LYP/6-311+g(d) force
 -------------------------

 -----
 DPGEN
 -----
 Symbolic Z-matrix:
 Charge =  0 Multiplicity = 2

                         Standard orientation:
 ---------------------------------------------------------------------
 Center     Atomic      Atomic             Coordinates (Angstroms)
 Number     Number       Type             X           Y           Z
 ---------------------------------------------------------------------
      1         11           0        0.054388   -0.428632   -1.398701
      2         11           0       -0.246863   -0.218795    1.435112
      3         11           0        3.157858    1.036870   -0.495257
      4         11           0        2.596466   -2.203221    0.315729
      5         11           0       -2.940850    1.325289   -0.427161
      6         11           0       -2.619583   -2.411522    0.030895
      7         11           0       -0.001416    2.900011    0.539384
 ---------------------------------------------------------------------

 SCF Done:  E(UB3LYP) =  -1136.12655644     A.U. after   22 cycles

 The electronic state is 2-A.
 Alpha  occ. eigenvalues --  -38.44462 -38.44396 -38.44304 -38.44167 -38.43739
 Alpha  occ. eigenvalues --  -38.42835 -38.42795  -2.20285  -2.20205  -2.20122
 Alpha  occ. eigenvalues --   -2.19955  -2.19699  -2.18806  -2.18689  -1.13966
 Alpha  occ. eigenvalues --   -1.13945  -1.13910  -1.13878  -1.13870  -1.13858
 Alpha  occ. eigenvalues --   -1.13794  -1.13766  -1.13748  -1.13633  -1.13612
 Alpha  occ. eigenvalues --   -1.13597  -1.13529  -1.13314  -1.13277  -1.12543
 Alpha  occ. eigenvalues --   -1.12448  -1.12393  -1.12338  -1.12329  -1.12324
 Alpha  occ. eigenvalues --   -0.18393  -0.13535  -0.12062  -0.09721
 Alpha virt. eigenvalues --   -0.06179  -0.06071  -0.04417  -0.03097  -0.02394
 Alpha virt. eigenvalues --   -0.02194  -0.01770  -0.01495  -0.00830  -0.00403
 Alpha virt. eigenvalues --    0.00026   0.00262   0.00634   0.00651   0.00785

  Beta  occ. eigenvalues --  -38.44448 -38.44390 -38.44283 -38.44169 -38.43700
  Beta  occ. eigenvalues --  -38.42821 -38.42720  -2.20260  -2.20198  -2.20085
  Beta  occ. eigenvalues --   -2.19961  -2.19630  -2.18671  -2.18666  -1.13941
  Beta  occ. eigenvalues --   -1.13925  -1.13889  -1.13874  -1.13864  -1.13833
  Beta  occ. eigenvalues --   -1.13759  -1.13735  -1.13728  -1.13632  -1.13613
  Beta  occ. eigenvalues --   -1.13594  -1.13464  -1.13264  -1.13224  -1.12450
  Beta  occ. eigenvalues --   -1.12383  -1.12323  -1.12307  -1.12298  -1.12256
  Beta  occ. eigenvalues --   -0.17751  -0.13246  -0.11829
  Beta virt. eigenvalues --   -0.06146  -0.06108  -0.05836  -0.04367  -0.02421
  Beta virt. eigenvalues --   -0.02062  -0.01748  -0.01652  -0.00859  -0.00732
  Beta virt. eigenvalues --   -0.00334   0.00169   0.00341   0.00659   0.00727

 Mulliken charges and spin densities:
               1          2
     1  Na  -0.221212   0.305188
     2  Na   0.039380   0.306158
     3  Na   0.061585   0.147175
     4  Na   0.131490   0.052789
     5  Na   0.080750   0.118763
     6  Na   0.001830   0.019172
     7  Na  -0.093822   0.050755
 Sum of Mulliken charges =  -0.00000   1.00000

 Dipole moment (field-independent basis, Debye):
    X=             -0.0260    Y=             -0.4603    Z=              0.0367  Tot=              0.4625
 Quadrupole moment (field-independent basis, Debye-Ang):
   XX=            -50.6992   YY=            -60.6411   ZZ=            -78.2858
   XY=             -0.2132   XZ=              0.8707   YZ=             -0.8377

 Normal termination of Gaussian 16 at Thu Dec  7 18:02:48 2023.
