 Gaussian 16, Revision B.01,
 Gaussian 16:  ES64L-G16RevB.01 20-Dec-2017

 -------------------------
 #P B3LYP/6-311+g(d) force
 -------------------------

 -----
 DPGEN
 -----
 Symbolic Z-matrix:
 Charge =  0 Multiplicity = 2

                         Standard orientation:
 ---------------------------------------------------------------------
 Center     Atomic      Atomic             Coordinates (Angstroms)
 Number     Number       Type             X           Y           Z
 ---------------------------------------------------------------------
      1         11           0        1.895733    2.300355    0.370757
      2         11           0       -0.110253    0.020137   -1.794808
      3         11           0       -1.828829    2.033660   -0.715156
      4         11           0       -3.236510   -0.955978    0.583298
      5         11           0        0.020677    0.284824    1.871468
      6         11           0        0.160692   -2.611613   -0.210456
      7         11           0        3.098491   -1.071385   -0.105104
 ---------------------------------------------------------------------

 SCF Done:  E(UB3LYP) =  -1136.13140980     A.U. after   19 cycles

 The electronic state is 2-A.
 Alpha  occ. eigenvalues --  -38.44314 -38.44201 -38.43753 -38.43680 -38.43643
 Alpha  occ. eigenvalues --  -38.43301 -38.42974  -2.20109  -2.20021  -2.19683
 Alpha  occ. eigenvalues --   -2.19677  -2.19543  -2.19154  -2.18862  -1.13779
 Alpha  occ. eigenvalues --   -1.13765  -1.13744  -1.13697  -1.13680  -1.13663
 Alpha  occ. eigenvalues --   -1.13547  -1.13377  -1.13344  -1.13326  -1.13296
 Alpha  occ. eigenvalues --   -1.13272  -1.13168  -1.13140  -1.13126  -1.12845
 Alpha  occ. eigenvalues --   -1.12806  -1.12773  -1.12572  -1.12527  -1.12463
 Alpha  occ. eigenvalues --   -0.18757  -0.13160  -0.12184  -0.11122
 Alpha virt. eigenvalues --   -0.05940  -0.05057  -0.04104  -0.03409  -0.02918
 Alpha virt. eigenvalues --   -0.02724  -0.01856  -0.01071  -0.00246  -0.00029
 Alpha virt. eigenvalues --    0.00033   0.00308   0.00759   0.00858   0.00903

  Beta  occ. eigenvalues --  -38.44298 -38.44202 -38.43681 -38.43616 -38.43597
  Beta  occ. eigenvalues --  -38.43294 -38.42967  -2.20082  -2.20024  -2.19546
  Beta  occ. eigenvalues --   -2.19537  -2.19492  -2.19145  -2.18854  -1.13752
  Beta  occ. eigenvalues --   -1.13741  -1.13729  -1.13697  -1.13680  -1.13659
  Beta  occ. eigenvalues --   -1.13459  -1.13286  -1.13243  -1.13230  -1.13200
  Beta  occ. eigenvalues --   -1.13176  -1.13121  -1.13099  -1.13066  -1.12825
  Beta  occ. eigenvalues --   -1.12796  -1.12764  -1.12561  -1.12508  -1.12453
  Beta  occ. eigenvalues --   -0.18052  -0.12898  -0.11885
  Beta virt. eigenvalues --   -0.07228  -0.05860  -0.04999  -0.04086  -0.02701
  Beta virt. eigenvalues --   -0.02169  -0.01746  -0.01654  -0.00983  -0.00203
  Beta virt. eigenvalues --   -0.00048   0.00105   0.00338   0.00831   0.00875

 Mulliken charges and spin densities:
               1          2
     1  Na   0.164744  -0.046318
     2  Na  -0.037218   0.404321
     3  Na   0.271082   0.020038
     4  Na  -0.078385   0.059685
     5  Na  -0.381615   0.680203
     6  Na   0.124721  -0.024322
     7  Na  -0.063330  -0.093608
 Sum of Mulliken charges =  -0.00000   1.00000

 Dipole moment (field-independent basis, Debye):
    X=             -0.0063    Y=             -0.0498    Z=              0.2239  Tot=              0.2295
 Quadrupole moment (field-independent basis, Debye-Ang):
   XX=            -53.1789   YY=            -67.4511   ZZ=            -72.9609
   XY=              0.4458   XZ=             -1.1178   YZ=             -1.1212

 Normal termination of Gaussian 16 at Sat Dec  9 06:09:12 2023.
