 Gaussian 16, Revision B.01,
 Gaussian 16:  ES64L-G16RevB.01 20-Dec-2017

 -------------------------
 #P B3LYP/6-311+g(d) force
 -------------------------

 -----
 DPGEN
 -----
 Symbolic Z-matrix:
 Charge =  0 Multiplicity = 2

                         Standard orientation:
 ---------------------------------------------------------------------
 Center     Atomic      Atomic             Coordinates (Angstroms)
 Number     Number       Type             X           Y           Z
 ---------------------------------------------------------------------
      1         11           0       -0.538710   -0.472332   -1.422385
      2         11           0       -2.750997    1.005480    0.964080
      3         11           0        3.578421    1.082318   -0.863289
      4         11           0        2.957750   -1.982491    0.052209
      5         11           0        0.405739    2.347144    0.208895
      6         11           0       -4.068662   -0.975371   -0.957458
      7         11           0        0.416459   -1.004748    2.017948
 ---------------------------------------------------------------------

 SCF Done:  E(UB3LYP) =  -1136.11742709     A.U. after   27 cycles

 The electronic state is 2-A.
 Alpha  occ. eigenvalues --  -38.45868 -38.44942 -38.44591 -38.44536 -38.43726
 Alpha  occ. eigenvalues --  -38.43295 -38.42033  -2.21688  -2.20762  -2.20449
 Alpha  occ. eigenvalues --   -2.20416  -2.19566  -2.19130  -2.17891  -1.15401
 Alpha  occ. eigenvalues --   -1.15355  -1.15294  -1.14423  -1.14403  -1.14382
 Alpha  occ. eigenvalues --   -1.14114  -1.14103  -1.14093  -1.14087  -1.14055
 Alpha  occ. eigenvalues --   -1.14041  -1.13246  -1.13208  -1.13194  -1.12803
 Alpha  occ. eigenvalues --   -1.12799  -1.12781  -1.11593  -1.11559  -1.11528
 Alpha  occ. eigenvalues --   -0.18080  -0.14308  -0.11425  -0.11003
 Alpha virt. eigenvalues --   -0.07252  -0.05325  -0.04550  -0.03153  -0.03072
 Alpha virt. eigenvalues --   -0.02596  -0.02387  -0.01336  -0.00897  -0.00172
 Alpha virt. eigenvalues --   -0.00091   0.00112   0.00311   0.00439   0.00724

  Beta  occ. eigenvalues --  -38.45858 -38.44879 -38.44530 -38.44486 -38.43709
  Beta  occ. eigenvalues --  -38.43295 -38.42039  -2.21670  -2.20645  -2.20408
  Beta  occ. eigenvalues --   -2.20255  -2.19535  -2.19134  -2.17904  -1.15370
  Beta  occ. eigenvalues --   -1.15349  -1.15281  -1.14342  -1.14326  -1.14304
  Beta  occ. eigenvalues --   -1.14091  -1.14081  -1.14043  -1.13983  -1.13963
  Beta  occ. eigenvalues --   -1.13895  -1.13229  -1.13184  -1.13171  -1.12810
  Beta  occ. eigenvalues --   -1.12788  -1.12768  -1.11607  -1.11570  -1.11512
  Beta  occ. eigenvalues --   -0.17473  -0.13928  -0.10772
  Beta virt. eigenvalues --   -0.07746  -0.07021  -0.04977  -0.03986  -0.02938
  Beta virt. eigenvalues --   -0.02804  -0.02080  -0.01850  -0.01181  -0.00619
  Beta virt. eigenvalues --   -0.00119  -0.00028   0.00187   0.00405   0.00621

 Mulliken charges and spin densities:
               1          2
     1  Na  -0.527062   0.240712
     2  Na   0.411194   0.012093
     3  Na   0.029518   0.317363
     4  Na   0.312344  -0.042820
     5  Na  -0.235091  -0.010337
     6  Na   0.205721   0.045677
     7  Na  -0.196624   0.437312
 Sum of Mulliken charges =  -0.00000   1.00000

 Dipole moment (field-independent basis, Debye):
    X=             -0.2180    Y=              0.1227    Z=              0.2105  Tot=              0.3269
 Quadrupole moment (field-independent basis, Debye-Ang):
   XX=            -57.5987   YY=            -75.9976   ZZ=            -66.9434
   XY=              0.6456   XZ=             -3.7011   YZ=              0.7251

 Normal termination of Gaussian 16 at Thu Dec  7 02:07:28 2023.
