 Gaussian 16, Revision B.01,
 Gaussian 16:  ES64L-G16RevB.01 20-Dec-2017

 -------------------------
 #P B3LYP/6-311+g(d) force
 -------------------------

 -----
 DPGEN
 -----
 Symbolic Z-matrix:
 Charge =  0 Multiplicity = 2

                         Standard orientation:
 ---------------------------------------------------------------------
 Center     Atomic      Atomic             Coordinates (Angstroms)
 Number     Number       Type             X           Y           Z
 ---------------------------------------------------------------------
      1         11           0        3.288475    0.211675    0.200134
      2         11           0       -2.730848    1.490505   -0.146499
      3         11           0        0.100346   -0.596238    2.216217
      4         11           0       -0.163192    0.065696   -1.483457
      5         11           0        1.808510   -2.252010   -0.777411
      6         11           0        0.768150    2.822148   -0.037586
      7         11           0       -3.071442   -1.741774    0.028603
 ---------------------------------------------------------------------

 SCF Done:  E(UB3LYP) =  -1136.12728423     A.U. after   21 cycles

 The electronic state is 2-A.
 Alpha  occ. eigenvalues --  -38.44850 -38.44292 -38.44200 -38.44195 -38.43487
 Alpha  occ. eigenvalues --  -38.43422 -38.42654  -2.20694  -2.20088  -2.20052
 Alpha  occ. eigenvalues --   -2.20015  -2.19405  -2.19380  -2.18487  -1.14393
 Alpha  occ. eigenvalues --   -1.14350  -1.14329  -1.13802  -1.13756  -1.13743
 Alpha  occ. eigenvalues --   -1.13731  -1.13706  -1.13674  -1.13648  -1.13644
 Alpha  occ. eigenvalues --   -1.13625  -1.13168  -1.13088  -1.13040  -1.13017
 Alpha  occ. eigenvalues --   -1.12995  -1.12982  -1.12178  -1.12146  -1.12121
 Alpha  occ. eigenvalues --   -0.18341  -0.13719  -0.11691  -0.10812
 Alpha virt. eigenvalues --   -0.06420  -0.05428  -0.04149  -0.03478  -0.02788
 Alpha virt. eigenvalues --   -0.02453  -0.02087  -0.01228  -0.00514  -0.00233
 Alpha virt. eigenvalues --   -0.00081   0.00293   0.00628   0.00706   0.00809

  Beta  occ. eigenvalues --  -38.44848 -38.44296 -38.44196 -38.44092 -38.43463
  Beta  occ. eigenvalues --  -38.43369 -38.42653  -2.20693  -2.20097  -2.20046
  Beta  occ. eigenvalues --   -2.19826  -2.19340  -2.19309  -2.18488  -1.14391
  Beta  occ. eigenvalues --   -1.14333  -1.14325  -1.13808  -1.13752  -1.13738
  Beta  occ. eigenvalues --   -1.13727  -1.13696  -1.13647  -1.13547  -1.13517
  Beta  occ. eigenvalues --   -1.13489  -1.13114  -1.13017  -1.13010  -1.12958
  Beta  occ. eigenvalues --   -1.12951  -1.12925  -1.12177  -1.12139  -1.12118
  Beta  occ. eigenvalues --   -0.17644  -0.13552  -0.11484
  Beta virt. eigenvalues --   -0.06865  -0.06263  -0.05426  -0.04029  -0.02824
  Beta virt. eigenvalues --   -0.01986  -0.01935  -0.01575  -0.01118  -0.00533
  Beta virt. eigenvalues --   -0.00227   0.00100   0.00332   0.00725   0.00815

 Mulliken charges and spin densities:
               1          2
     1  Na   0.170114   0.106438
     2  Na   0.129607   0.038630
     3  Na  -0.584620   0.687513
     4  Na   0.034825   0.004668
     5  Na   0.281707   0.117391
     6  Na  -0.110911   0.050359
     7  Na   0.079278  -0.004999
 Sum of Mulliken charges =  -0.00000   1.00000

 Dipole moment (field-independent basis, Debye):
    X=             -0.1526    Y=             -0.2236    Z=              0.3168  Tot=              0.4167
 Quadrupole moment (field-independent basis, Debye-Ang):
   XX=            -51.6520   YY=            -67.8626   ZZ=            -74.6813
   XY=              1.1092   XZ=              0.3970   YZ=              1.4545

 Normal termination of Gaussian 16 at Tue Dec  5 16:10:57 2023.
