 Gaussian 16, Revision B.01,
 Gaussian 16:  ES64L-G16RevB.01 20-Dec-2017

 -------------------------
 #P B3LYP/6-311+g(d) force
 -------------------------

 -----
 DPGEN
 -----
 Symbolic Z-matrix:
 Charge =  0 Multiplicity = 2

                         Standard orientation:
 ---------------------------------------------------------------------
 Center     Atomic      Atomic             Coordinates (Angstroms)
 Number     Number       Type             X           Y           Z
 ---------------------------------------------------------------------
      1         11           0        1.283506    0.544477    1.766337
      2         11           0       -1.972797    0.311156    2.221127
      3         11           0        0.303210   -1.705293   -0.640850
      4         11           0       -1.283361    1.697577   -0.613680
      5         11           0        3.296718   -1.652502   -0.005062
      6         11           0        1.383515    2.385119   -1.518988
      7         11           0       -3.010790   -1.580535   -1.208885
 ---------------------------------------------------------------------

 SCF Done:  E(UB3LYP) =  -1136.12515361     A.U. after   21 cycles

 The electronic state is 2-A.
 Alpha  occ. eigenvalues --  -38.44831 -38.44147 -38.43765 -38.43761 -38.43640
 Alpha  occ. eigenvalues --  -38.43211 -38.43161  -2.20696  -2.20047  -2.19621
 Alpha  occ. eigenvalues --   -2.19572  -2.19478  -2.19161  -2.19068  -1.14374
 Alpha  occ. eigenvalues --   -1.14356  -1.14282  -1.13758  -1.13691  -1.13651
 Alpha  occ. eigenvalues --   -1.13396  -1.13247  -1.13245  -1.13232  -1.13225
 Alpha  occ. eigenvalues --   -1.13195  -1.13187  -1.13127  -1.13111  -1.12852
 Alpha  occ. eigenvalues --   -1.12826  -1.12758  -1.12748  -1.12736  -1.12675
 Alpha  occ. eigenvalues --   -0.18390  -0.13068  -0.12096  -0.11959
 Alpha virt. eigenvalues --   -0.05495  -0.05166  -0.04553  -0.03487  -0.03077
 Alpha virt. eigenvalues --   -0.02733  -0.01620  -0.01043  -0.00771   0.00123
 Alpha virt. eigenvalues --    0.00239   0.00331   0.00414   0.00675   0.00788

  Beta  occ. eigenvalues --  -38.44752 -38.44098 -38.43742 -38.43717 -38.43644
  Beta  occ. eigenvalues --  -38.43192 -38.43149  -2.20551  -2.19961  -2.19540
  Beta  occ. eigenvalues --   -2.19529  -2.19485  -2.19133  -2.19047  -1.14273
  Beta  occ. eigenvalues --   -1.14254  -1.14176  -1.13700  -1.13614  -1.13589
  Beta  occ. eigenvalues --   -1.13336  -1.13214  -1.13200  -1.13191  -1.13190
  Beta  occ. eigenvalues --   -1.13171  -1.13168  -1.13127  -1.13117  -1.12818
  Beta  occ. eigenvalues --   -1.12785  -1.12743  -1.12730  -1.12717  -1.12658
  Beta  occ. eigenvalues --   -0.17659  -0.12929  -0.11564
  Beta virt. eigenvalues --   -0.08102  -0.05335  -0.04967  -0.04001  -0.03172
  Beta virt. eigenvalues --   -0.02555  -0.02037  -0.01544  -0.00818  -0.00430
  Beta virt. eigenvalues --    0.00219   0.00289   0.00406   0.00537   0.00753

 Mulliken charges and spin densities:
               1          2
     1  Na  -0.140282   0.199244
     2  Na   0.235425   0.254614
     3  Na  -1.970255   0.280268
     4  Na  -0.164936   0.446397
     5  Na   1.127127   0.037798
     6  Na   0.108495   0.042861
     7  Na   0.804426  -0.261182
 Sum of Mulliken charges =  -0.00000   1.00000

 Dipole moment (field-independent basis, Debye):
    X=              0.0470    Y=              0.0382    Z=              0.3765  Tot=              0.3814
 Quadrupole moment (field-independent basis, Debye-Ang):
   XX=            -55.1046   YY=            -74.8877   ZZ=            -65.0697
   XY=              1.0320   XZ=             -1.7088   YZ=              0.4111

 Normal termination of Gaussian 16 at Wed Nov 29 02:18:58 2023.
