 Gaussian 16, Revision B.01,
 Gaussian 16:  ES64L-G16RevB.01 20-Dec-2017

 -------------------------
 #P B3LYP/6-311+g(d) force
 -------------------------

 -----
 DPGEN
 -----
 Symbolic Z-matrix:
 Charge =  0 Multiplicity = 2

                         Standard orientation:
 ---------------------------------------------------------------------
 Center     Atomic      Atomic             Coordinates (Angstroms)
 Number     Number       Type             X           Y           Z
 ---------------------------------------------------------------------
      1         11           0        0.417782   -0.175348   -1.633835
      2         11           0        2.607543    1.620109    0.104568
      3         11           0        2.590065   -1.735445   -0.188585
      4         11           0       -1.674534   -2.384489   -0.179069
      5         11           0        0.186062   -0.266766    2.142694
      6         11           0       -0.892803    2.526348   -0.254141
      7         11           0       -3.234114    0.415592    0.008367
 ---------------------------------------------------------------------

 SCF Done:  E(UB3LYP) =  -1136.13266821     A.U. after   21 cycles

 The electronic state is 2-A.
 Alpha  occ. eigenvalues --  -38.44357 -38.44100 -38.44034 -38.43863 -38.43428
 Alpha  occ. eigenvalues --  -38.43365 -38.42824  -2.20207  -2.19969  -2.19893
 Alpha  occ. eigenvalues --   -2.19730  -2.19367  -2.19277  -2.18700  -1.13886
 Alpha  occ. eigenvalues --   -1.13866  -1.13859  -1.13705  -1.13629  -1.13602
 Alpha  occ. eigenvalues --   -1.13567  -1.13553  -1.13515  -1.13391  -1.13355
 Alpha  occ. eigenvalues --   -1.13349  -1.13042  -1.13016  -1.13010  -1.12938
 Alpha  occ. eigenvalues --   -1.12934  -1.12908  -1.12390  -1.12358  -1.12336
 Alpha  occ. eigenvalues --   -0.18784  -0.13610  -0.11986  -0.10916
 Alpha virt. eigenvalues --   -0.05996  -0.05534  -0.03988  -0.03503  -0.02765
 Alpha virt. eigenvalues --   -0.02646  -0.01749  -0.01165  -0.00381  -0.00102
 Alpha virt. eigenvalues --   -0.00032   0.00334   0.00724   0.00847   0.00922

  Beta  occ. eigenvalues --  -38.44359 -38.44092 -38.44029 -38.43762 -38.43425
  Beta  occ. eigenvalues --  -38.43301 -38.42819  -2.20211  -2.19958  -2.19886
  Beta  occ. eigenvalues --   -2.19544  -2.19275  -2.19251  -2.18694  -1.13894
  Beta  occ. eigenvalues --   -1.13869  -1.13847  -1.13690  -1.13613  -1.13584
  Beta  occ. eigenvalues --   -1.13558  -1.13525  -1.13514  -1.13268  -1.13224
  Beta  occ. eigenvalues --   -1.13215  -1.12983  -1.12951  -1.12931  -1.12923
  Beta  occ. eigenvalues --   -1.12911  -1.12876  -1.12385  -1.12344  -1.12325
  Beta  occ. eigenvalues --   -0.18051  -0.13405  -0.11747
  Beta virt. eigenvalues --   -0.06952  -0.05914  -0.05536  -0.03984  -0.02700
  Beta virt. eigenvalues --   -0.01915  -0.01660  -0.01631  -0.01103  -0.00437
  Beta virt. eigenvalues --   -0.00126   0.00118   0.00364   0.00797   0.00843

 Mulliken charges and spin densities:
               1          2
     1  Na  -0.337102   0.329197
     2  Na   0.180675   0.072233
     3  Na   0.398329  -0.036773
     4  Na   0.314897  -0.038472
     5  Na  -0.622672   0.690322
     6  Na   0.157333   0.002389
     7  Na  -0.091459  -0.018895
 Sum of Mulliken charges =  -0.00000   1.00000

 Dipole moment (field-independent basis, Debye):
    X=              0.2600    Y=             -0.1795    Z=              0.2634  Tot=              0.4113
 Quadrupole moment (field-independent basis, Debye-Ang):
   XX=            -53.0941   YY=            -67.4260   ZZ=            -73.8058
   XY=              0.1588   XZ=              0.2998   YZ=              0.3944

 Normal termination of Gaussian 16 at Thu Dec  7 23:16:16 2023.
