 Gaussian 16, Revision B.01,
 Gaussian 16:  ES64L-G16RevB.01 20-Dec-2017

 -------------------------
 #P B3LYP/6-311+g(d) force
 -------------------------

 -----
 DPGEN
 -----
 Symbolic Z-matrix:
 Charge =  0 Multiplicity = 2

                         Standard orientation:
 ---------------------------------------------------------------------
 Center     Atomic      Atomic             Coordinates (Angstroms)
 Number     Number       Type             X           Y           Z
 ---------------------------------------------------------------------
      1         11           0        0.511515    0.135009    1.346553
      2         11           0       -1.357711    2.495935   -0.019748
      3         11           0        3.553344   -0.567735   -0.166561
      4         11           0       -2.159381   -2.039319    0.633984
      5         11           0        1.477983   -2.764441   -0.738102
      6         11           0        2.218998    2.576237   -0.332133
      7         11           0       -4.244748    0.164314   -0.723994
 ---------------------------------------------------------------------

 SCF Done:  E(UB3LYP) =  -1136.12483425     A.U. after   19 cycles

 The electronic state is 2-A.
 Alpha  occ. eigenvalues --  -38.44493 -38.44391 -38.44218 -38.44174 -38.43717
 Alpha  occ. eigenvalues --  -38.43605 -38.43537  -2.20294  -2.20206  -2.20042
 Alpha  occ. eigenvalues --   -2.19980  -2.19648  -2.19496  -2.19363  -1.13993
 Alpha  occ. eigenvalues --   -1.13981  -1.13909  -1.13901  -1.13876  -1.13837
 Alpha  occ. eigenvalues --   -1.13721  -1.13717  -1.13672  -1.13669  -1.13650
 Alpha  occ. eigenvalues --   -1.13621  -1.13339  -1.13316  -1.13246  -1.13153
 Alpha  occ. eigenvalues --   -1.13139  -1.13124  -1.13008  -1.13006  -1.12980
 Alpha  occ. eigenvalues --   -0.17550  -0.13988  -0.12695  -0.10214
 Alpha virt. eigenvalues --   -0.06696  -0.05875  -0.04030  -0.03806  -0.02895
 Alpha virt. eigenvalues --   -0.02150  -0.01940  -0.01330  -0.01082  -0.00769
 Alpha virt. eigenvalues --   -0.00116   0.00310   0.00485   0.00594   0.00699

  Beta  occ. eigenvalues --  -38.44487 -38.44391 -38.44213 -38.44163 -38.43663
  Beta  occ. eigenvalues --  -38.43562 -38.43455  -2.20286  -2.20208  -2.20036
  Beta  occ. eigenvalues --   -2.19966  -2.19552  -2.19415  -2.19210  -1.13979
  Beta  occ. eigenvalues --   -1.13976  -1.13910  -1.13884  -1.13881  -1.13815
  Beta  occ. eigenvalues --   -1.13720  -1.13715  -1.13656  -1.13645  -1.13643
  Beta  occ. eigenvalues --   -1.13579  -1.13276  -1.13250  -1.13170  -1.13098
  Beta  occ. eigenvalues --   -1.13084  -1.13068  -1.12905  -1.12901  -1.12880
  Beta  occ. eigenvalues --   -0.17033  -0.13274  -0.12467
  Beta virt. eigenvalues --   -0.06781  -0.06550  -0.05722  -0.03926  -0.03077
  Beta virt. eigenvalues --   -0.02394  -0.01844  -0.01759  -0.01165  -0.00794
  Beta virt. eigenvalues --   -0.00652   0.00173   0.00483   0.00564   0.00667

 Mulliken charges and spin densities:
               1          2
     1  Na   0.325159   0.142917
     2  Na  -0.394639  -0.008371
     3  Na   0.110645   0.338902
     4  Na  -0.203186   0.009158
     5  Na  -0.154034   0.000085
     6  Na   0.170119   0.025991
     7  Na   0.145938   0.491319
 Sum of Mulliken charges =  -0.00000   1.00000

 Dipole moment (field-independent basis, Debye):
    X=              0.6779    Y=              0.1821    Z=             -0.1360  Tot=              0.7150
 Quadrupole moment (field-independent basis, Debye-Ang):
   XX=            -70.8680   YY=            -61.0620   ZZ=            -70.0915
   XY=              2.2305   XZ=             -0.6956   YZ=             -0.3833

 Normal termination of Gaussian 16 at Tue Nov 28 21:33:57 2023.
