 Gaussian 16, Revision B.01,
 Gaussian 16:  ES64L-G16RevB.01 20-Dec-2017

 -------------------------
 #P B3LYP/6-311+g(d) force
 -------------------------

 -----
 DPGEN
 -----
 Symbolic Z-matrix:
 Charge =  0 Multiplicity = 2

                         Standard orientation:
 ---------------------------------------------------------------------
 Center     Atomic      Atomic             Coordinates (Angstroms)
 Number     Number       Type             X           Y           Z
 ---------------------------------------------------------------------
      1         11           0        1.215033   -2.228876    0.432035
      2         11           0        4.393251   -1.367730    0.560237
      3         11           0        5.355502    2.494626   -0.111472
      4         11           0        2.458215    0.840631   -0.267136
      5         11           0       -1.164960   -0.825484   -0.768255
      6         11           0       -5.379669   -0.131251   -1.044486
      7         11           0       -6.877372    1.218085    1.199078
 ---------------------------------------------------------------------

 SCF Done:  E(UB3LYP) =  -1136.11329211     A.U. after   21 cycles

 The electronic state is 2-A.
 Alpha  occ. eigenvalues --  -38.44494 -38.44479 -38.44338 -38.44076 -38.44039
 Alpha  occ. eigenvalues --  -38.43703 -38.43634  -2.20384  -2.20370  -2.20138
 Alpha  occ. eigenvalues --   -2.19876  -2.19834  -2.19621  -2.19474  -1.14204
 Alpha  occ. eigenvalues --   -1.14070  -1.14026  -1.14007  -1.13980  -1.13928
 Alpha  occ. eigenvalues --   -1.13849  -1.13784  -1.13782  -1.13534  -1.13531
 Alpha  occ. eigenvalues --   -1.13492  -1.13485  -1.13484  -1.13467  -1.13362
 Alpha  occ. eigenvalues --   -1.13287  -1.13278  -1.13118  -1.13117  -1.13058
 Alpha  occ. eigenvalues --   -0.17011  -0.13776  -0.12548  -0.10977
 Alpha virt. eigenvalues --   -0.06427  -0.05409  -0.04156  -0.03905  -0.02826
 Alpha virt. eigenvalues --   -0.02464  -0.02074  -0.01802  -0.01409  -0.00976
 Alpha virt. eigenvalues --   -0.00232  -0.00197   0.00203   0.00490   0.00641

  Beta  occ. eigenvalues --  -38.44469 -38.44422 -38.44319 -38.44044 -38.44030
  Beta  occ. eigenvalues --  -38.43683 -38.43590  -2.20359  -2.20251  -2.20104
  Beta  occ. eigenvalues --   -2.19846  -2.19791  -2.19591  -2.19391  -1.14151
  Beta  occ. eigenvalues --   -1.14060  -1.13951  -1.13944  -1.13924  -1.13847
  Beta  occ. eigenvalues --   -1.13830  -1.13760  -1.13758  -1.13501  -1.13492
  Beta  occ. eigenvalues --   -1.13473  -1.13469  -1.13460  -1.13435  -1.13305
  Beta  occ. eigenvalues --   -1.13269  -1.13256  -1.13060  -1.13058  -1.13005
  Beta  occ. eigenvalues --   -0.16325  -0.13486  -0.12171
  Beta virt. eigenvalues --   -0.07483  -0.05950  -0.05184  -0.03929  -0.03576
  Beta virt. eigenvalues --   -0.02556  -0.02185  -0.01754  -0.01575  -0.01155
  Beta virt. eigenvalues --   -0.00715  -0.00022   0.00078   0.00398   0.00543

 Mulliken charges and spin densities:
               1          2
     1  Na   0.050358   0.327214
     2  Na   0.607538   0.149127
     3  Na   1.426675   0.267627
     4  Na  -1.925552   0.283957
     5  Na  -0.004966  -0.060921
     6  Na  -0.332036  -0.045296
     7  Na   0.177984   0.078292
 Sum of Mulliken charges =  -0.00000   1.00000

 Dipole moment (field-independent basis, Debye):
    X=              0.9083    Y=              0.1184    Z=              0.4866  Tot=              1.0372
 Quadrupole moment (field-independent basis, Debye-Ang):
   XX=            -57.8265   YY=            -67.1165   ZZ=            -68.2006
   XY=             -1.3353   XZ=             -2.7874   YZ=              2.0907

 Normal termination of Gaussian 16 at Tue Nov 28 20:48:12 2023.
