 Gaussian 16, Revision B.01,
 Gaussian 16:  ES64L-G16RevB.01 20-Dec-2017

 -------------------------
 #P B3LYP/6-311+g(d) force
 -------------------------

 -----
 DPGEN
 -----
 Symbolic Z-matrix:
 Charge =  0 Multiplicity = 2

                         Standard orientation:
 ---------------------------------------------------------------------
 Center     Atomic      Atomic             Coordinates (Angstroms)
 Number     Number       Type             X           Y           Z
 ---------------------------------------------------------------------
      1         11           0        0.313487    0.300958    2.052924
      2         11           0        0.971570    2.769290   -0.096181
      3         11           0       -2.305176    2.245695   -0.198909
      4         11           0       -3.008728   -2.155423    0.206821
      5         11           0       -0.394737   -0.104292   -1.588664
      6         11           0        3.306347   -0.328856   -0.271071
      7         11           0        1.117237   -2.727372   -0.104921
 ---------------------------------------------------------------------

 SCF Done:  E(UB3LYP) =  -1136.13161226     A.U. after   20 cycles

 The electronic state is 2-A.
 Alpha  occ. eigenvalues --  -38.44292 -38.44284 -38.43938 -38.43926 -38.43601
 Alpha  occ. eigenvalues --  -38.43568 -38.43342  -2.20106  -2.20026  -2.19762
 Alpha  occ. eigenvalues --   -2.19753  -2.19466  -2.19437  -2.19259  -1.13791
 Alpha  occ. eigenvalues --   -1.13762  -1.13744  -1.13703  -1.13686  -1.13664
 Alpha  occ. eigenvalues --   -1.13486  -1.13444  -1.13424  -1.13413  -1.13395
 Alpha  occ. eigenvalues --   -1.13344  -1.13177  -1.13138  -1.13097  -1.13091
 Alpha  occ. eigenvalues --   -1.13050  -1.13048  -1.12950  -1.12904  -1.12872
 Alpha  occ. eigenvalues --   -0.18140  -0.13012  -0.12215  -0.10378
 Alpha virt. eigenvalues --   -0.05936  -0.05569  -0.04881  -0.03077  -0.02800
 Alpha virt. eigenvalues --   -0.02324  -0.01697  -0.01535  -0.00665  -0.00566
 Alpha virt. eigenvalues --   -0.00038   0.00308   0.00727   0.00750   0.00839

  Beta  occ. eigenvalues --  -38.44293 -38.44278 -38.43933 -38.43920 -38.43593
  Beta  occ. eigenvalues --  -38.43470 -38.43289  -2.20098  -2.20029  -2.19754
  Beta  occ. eigenvalues --   -2.19747  -2.19456  -2.19256  -2.19162  -1.13778
  Beta  occ. eigenvalues --   -1.13746  -1.13738  -1.13697  -1.13689  -1.13666
  Beta  occ. eigenvalues --   -1.13483  -1.13435  -1.13404  -1.13398  -1.13383
  Beta  occ. eigenvalues --   -1.13341  -1.13154  -1.13104  -1.13088  -1.12977
  Beta  occ. eigenvalues --   -1.12929  -1.12923  -1.12882  -1.12831  -1.12801
  Beta  occ. eigenvalues --   -0.17427  -0.12763  -0.12052
  Beta virt. eigenvalues --   -0.06547  -0.05877  -0.05465  -0.04839  -0.02318
  Beta virt. eigenvalues --   -0.02166  -0.01602  -0.01445  -0.01298  -0.00716
  Beta virt. eigenvalues --   -0.00588   0.00126   0.00352   0.00756   0.00797

 Mulliken charges and spin densities:
               1          2
     1  Na  -0.390793   0.806164
     2  Na   0.233048  -0.004844
     3  Na   0.124228  -0.088031
     4  Na  -0.113822  -0.065288
     5  Na   0.041021   0.412977
     6  Na   0.045153  -0.012707
     7  Na   0.061165  -0.048271
 Sum of Mulliken charges =  -0.00000   1.00000

 Dipole moment (field-independent basis, Debye):
    X=             -0.1719    Y=              0.1333    Z=              0.0534  Tot=              0.2239
 Quadrupole moment (field-independent basis, Debye-Ang):
   XX=            -55.8685   YY=            -60.6428   ZZ=            -76.4380
   XY=             -0.4070   XZ=             -1.8096   YZ=             -1.1776

 Normal termination of Gaussian 16 at Fri Dec  8 03:53:22 2023.
