 Gaussian 16, Revision B.01,
 Gaussian 16:  ES64L-G16RevB.01 20-Dec-2017

 -------------------------
 #P B3LYP/6-311+g(d) force
 -------------------------

 -----
 DPGEN
 -----
 Symbolic Z-matrix:
 Charge =  0 Multiplicity = 2

                         Standard orientation:
 ---------------------------------------------------------------------
 Center     Atomic      Atomic             Coordinates (Angstroms)
 Number     Number       Type             X           Y           Z
 ---------------------------------------------------------------------
      1         11           0       -3.131643   -0.711271   -0.363253
      2         11           0        0.099710   -0.345456    2.063262
      3         11           0       -0.433124   -2.799274   -0.049901
      4         11           0        2.273554    1.977099   -0.197427
      5         11           0       -0.212090    0.391517   -1.626578
      6         11           0        2.949856   -1.227181   -0.220668
      7         11           0       -1.546262    2.714566    0.394566
 ---------------------------------------------------------------------

 SCF Done:  E(UB3LYP) =  -1136.13781026     A.U. after   19 cycles

 The electronic state is 2-A.
 Alpha  occ. eigenvalues --  -38.44142 -38.43911 -38.43743 -38.43663 -38.43594
 Alpha  occ. eigenvalues --  -38.43265 -38.43218  -2.19967  -2.19737  -2.19591
 Alpha  occ. eigenvalues --   -2.19477  -2.19470  -2.19219  -2.19082  -1.13650
 Alpha  occ. eigenvalues --   -1.13620  -1.13602  -1.13425  -1.13405  -1.13380
 Alpha  occ. eigenvalues --   -1.13286  -1.13247  -1.13210  -1.13153  -1.13148
 Alpha  occ. eigenvalues --   -1.13138  -1.13108  -1.13105  -1.13087  -1.12902
 Alpha  occ. eigenvalues --   -1.12858  -1.12843  -1.12763  -1.12748  -1.12706
 Alpha  occ. eigenvalues --   -0.18452  -0.13062  -0.12359  -0.10679
 Alpha virt. eigenvalues --   -0.05654  -0.05337  -0.04673  -0.03146  -0.02972
 Alpha virt. eigenvalues --   -0.02488  -0.01607  -0.01193  -0.00442  -0.00375
 Alpha virt. eigenvalues --   -0.00021   0.00348   0.00773   0.00845   0.00887

  Beta  occ. eigenvalues --  -38.44133 -38.43908 -38.43737 -38.43655 -38.43498
  Beta  occ. eigenvalues --  -38.43212 -38.43212  -2.19952  -2.19733  -2.19584
  Beta  occ. eigenvalues --   -2.19457  -2.19300  -2.19121  -2.19076  -1.13630
  Beta  occ. eigenvalues --   -1.13605  -1.13593  -1.13426  -1.13392  -1.13370
  Beta  occ. eigenvalues --   -1.13274  -1.13232  -1.13202  -1.13139  -1.13112
  Beta  occ. eigenvalues --   -1.13099  -1.13034  -1.12986  -1.12962  -1.12836
  Beta  occ. eigenvalues --   -1.12790  -1.12771  -1.12750  -1.12723  -1.12697
  Beta  occ. eigenvalues --   -0.17744  -0.12806  -0.12140
  Beta virt. eigenvalues --   -0.06818  -0.05586  -0.05324  -0.04593  -0.02423
  Beta virt. eigenvalues --   -0.02209  -0.01506  -0.01460  -0.01107  -0.00482
  Beta virt. eigenvalues --   -0.00413   0.00125   0.00385   0.00840   0.00854

 Mulliken charges and spin densities:
               1          2
     1  Na   0.184259  -0.029538
     2  Na  -0.441712   0.760403
     3  Na   0.174915  -0.053266
     4  Na   0.205462  -0.012902
     5  Na  -0.137735   0.397864
     6  Na   0.042618  -0.057239
     7  Na  -0.027808  -0.005323
 Sum of Mulliken charges =  -0.00000   1.00000

 Dipole moment (field-independent basis, Debye):
    X=             -0.1026    Y=              0.0665    Z=              0.0834  Tot=              0.1480
 Quadrupole moment (field-independent basis, Debye-Ang):
   XX=            -55.9835   YY=            -62.9996   ZZ=            -74.4606
   XY=             -0.5813   XZ=             -0.5317   YZ=              1.8205

 Normal termination of Gaussian 16 at Thu Dec  7 17:30:03 2023.
