 Gaussian 16, Revision B.01,
 Gaussian 16:  ES64L-G16RevB.01 20-Dec-2017

 -------------------------
 #P B3LYP/6-311+g(d) force
 -------------------------

 -----
 DPGEN
 -----
 Symbolic Z-matrix:
 Charge =  0 Multiplicity = 2

                         Standard orientation:
 ---------------------------------------------------------------------
 Center     Atomic      Atomic             Coordinates (Angstroms)
 Number     Number       Type             X           Y           Z
 ---------------------------------------------------------------------
      1         11           0       -3.495271   -0.594376   -1.086387
      2         11           0       -2.217269   -2.381125    1.554542
      3         11           0        0.691956    3.723467    0.545047
      4         11           0        3.259348   -1.602487   -0.994956
      5         11           0       -2.676555    3.038584   -0.399958
      6         11           0        0.694772   -3.804616   -0.005288
      7         11           0        3.743019    1.620553    0.386999
 ---------------------------------------------------------------------

 SCF Done:  E(UB3LYP) =  -1136.10613458     A.U. after   23 cycles

 The electronic state is 2-A.
 Alpha  occ. eigenvalues --  -38.45516 -38.45242 -38.44731 -38.44694 -38.44471
 Alpha  occ. eigenvalues --  -38.43758 -38.43644  -2.21268  -2.20982  -2.20514
 Alpha  occ. eigenvalues --   -2.20460  -2.20251  -2.19540  -2.19434  -1.14946
 Alpha  occ. eigenvalues --   -1.14932  -1.14901  -1.14674  -1.14657  -1.14609
 Alpha  occ. eigenvalues --   -1.14177  -1.14163  -1.14156  -1.14143  -1.14130
 Alpha  occ. eigenvalues --   -1.14097  -1.13924  -1.13909  -1.13872  -1.13203
 Alpha  occ. eigenvalues --   -1.13189  -1.13171  -1.13093  -1.13080  -1.13066
 Alpha  occ. eigenvalues --   -0.15432  -0.13560  -0.13420  -0.10431
 Alpha virt. eigenvalues --   -0.07869  -0.05243  -0.04408  -0.03514  -0.03355
 Alpha virt. eigenvalues --   -0.02300  -0.02147  -0.01552  -0.01477  -0.01126
 Alpha virt. eigenvalues --   -0.00804  -0.00109   0.00106   0.00246   0.00654

  Beta  occ. eigenvalues --  -38.45504 -38.45229 -38.44705 -38.44678 -38.44434
  Beta  occ. eigenvalues --  -38.43707 -38.43589  -2.21248  -2.20964  -2.20466
  Beta  occ. eigenvalues --   -2.20435  -2.20185  -2.19446  -2.19332  -1.14934
  Beta  occ. eigenvalues --   -1.14921  -1.14871  -1.14667  -1.14651  -1.14555
  Beta  occ. eigenvalues --   -1.14146  -1.14136  -1.14130  -1.14118  -1.14114
  Beta  occ. eigenvalues --   -1.14048  -1.13882  -1.13867  -1.13811  -1.13139
  Beta  occ. eigenvalues --   -1.13126  -1.13104  -1.13023  -1.13014  -1.12995
  Beta  occ. eigenvalues --   -0.14966  -0.12908  -0.12629
  Beta virt. eigenvalues --   -0.08101  -0.07299  -0.04860  -0.03900  -0.03331
  Beta virt. eigenvalues --   -0.03056  -0.02010  -0.01878  -0.01381  -0.01347
  Beta virt. eigenvalues --   -0.00928  -0.00514   0.00051   0.00181   0.00342

 Mulliken charges and spin densities:
               1          2
     1  Na  -0.007172   0.051979
     2  Na  -0.013772   0.150251
     3  Na   0.037105   0.109724
     4  Na  -0.062211   0.068950
     5  Na  -0.011448   0.223501
     6  Na  -0.025212   0.153754
     7  Na   0.082709   0.241841
 Sum of Mulliken charges =  -0.00000   1.00000

 Dipole moment (field-independent basis, Debye):
    X=             -0.9292    Y=             -0.7105    Z=             -0.0049  Tot=              1.1697
 Quadrupole moment (field-independent basis, Debye-Ang):
   XX=            -67.2982   YY=            -69.1186   ZZ=            -66.3028
   XY=              2.0071   XZ=              1.2896   YZ=              0.5554

 Normal termination of Gaussian 16 at Sun Dec  3 15:50:00 2023.
