 Gaussian 16, Revision B.01,
 Gaussian 16:  ES64L-G16RevB.01 20-Dec-2017

 -------------------------
 #P B3LYP/6-311+g(d) force
 -------------------------

 -----
 DPGEN
 -----
 Symbolic Z-matrix:
 Charge =  0 Multiplicity = 2

                         Standard orientation:
 ---------------------------------------------------------------------
 Center     Atomic      Atomic             Coordinates (Angstroms)
 Number     Number       Type             X           Y           Z
 ---------------------------------------------------------------------
      1         11           0        2.350241   -1.933227   -0.227658
      2         11           0       -2.284845   -2.094298    0.003264
      3         11           0       -0.295771    2.490367   -0.020281
      4         11           0        0.048831   -0.462877   -1.573201
      5         11           0        3.061547    1.310371   -0.136147
      6         11           0        0.289863   -0.378074    2.088067
      7         11           0       -3.169866    1.067738   -0.134044
 ---------------------------------------------------------------------

 SCF Done:  E(UB3LYP) =  -1136.12985455     A.U. after   20 cycles

 The electronic state is 2-A.
 Alpha  occ. eigenvalues --  -38.44582 -38.44456 -38.43955 -38.43846 -38.43618
 Alpha  occ. eigenvalues --  -38.43499 -38.42635  -2.20401  -2.20295  -2.19838
 Alpha  occ. eigenvalues --   -2.19688  -2.19500  -2.19478  -2.18517  -1.14067
 Alpha  occ. eigenvalues --   -1.14064  -1.14048  -1.13968  -1.13954  -1.13947
 Alpha  occ. eigenvalues --   -1.13575  -1.13490  -1.13458  -1.13384  -1.13346
 Alpha  occ. eigenvalues --   -1.13326  -1.13176  -1.13143  -1.13126  -1.13117
 Alpha  occ. eigenvalues --   -1.13109  -1.13084  -1.12213  -1.12179  -1.12150
 Alpha  occ. eigenvalues --   -0.18709  -0.13748  -0.11850  -0.10710
 Alpha virt. eigenvalues --   -0.06309  -0.05762  -0.03800  -0.03462  -0.02583
 Alpha virt. eigenvalues --   -0.02503  -0.02083  -0.01389  -0.00480  -0.00067
 Alpha virt. eigenvalues --   -0.00026   0.00285   0.00660   0.00771   0.00890

  Beta  occ. eigenvalues --  -38.44579 -38.44456 -38.43944 -38.43844 -38.43514
  Beta  occ. eigenvalues --  -38.43444 -38.42629  -2.20397  -2.20297  -2.19822
  Beta  occ. eigenvalues --   -2.19687  -2.19377  -2.19307  -2.18509  -1.14067
  Beta  occ. eigenvalues --   -1.14050  -1.14039  -1.13973  -1.13952  -1.13939
  Beta  occ. eigenvalues --   -1.13557  -1.13463  -1.13441  -1.13377  -1.13339
  Beta  occ. eigenvalues --   -1.13316  -1.13090  -1.13047  -1.13029  -1.13011
  Beta  occ. eigenvalues --   -1.12992  -1.12971  -1.12209  -1.12154  -1.12141
  Beta  occ. eigenvalues --   -0.17991  -0.13533  -0.11624
  Beta virt. eigenvalues --   -0.06761  -0.06225  -0.05767  -0.03784  -0.02698
  Beta virt. eigenvalues --   -0.01980  -0.01775  -0.01498  -0.01304  -0.00541
  Beta virt. eigenvalues --   -0.00050   0.00119   0.00321   0.00734   0.00768

 Mulliken charges and spin densities:
               1          2
     1  Na   0.637488   0.094885
     2  Na   0.529098   0.041300
     3  Na   0.080686   0.038401
     4  Na  -0.513646   0.190064
     5  Na   0.045673   0.019920
     6  Na  -0.675035   0.639096
     7  Na  -0.104263  -0.023665
 Sum of Mulliken charges =  -0.00000   1.00000

 Dipole moment (field-independent basis, Debye):
    X=              0.1458    Y=             -0.1722    Z=              0.1370  Tot=              0.2639
 Quadrupole moment (field-independent basis, Debye-Ang):
   XX=            -49.5305   YY=            -68.9135   ZZ=            -74.9121
   XY=              0.7273   XZ=             -0.3467   YZ=             -0.3578

 Normal termination of Gaussian 16 at Thu Dec  7 06:19:37 2023.
