 Gaussian 16, Revision B.01,
 Gaussian 16:  ES64L-G16RevB.01 20-Dec-2017

 -------------------------
 #P B3LYP/6-311+g(d) force
 -------------------------

 -----
 DPGEN
 -----
 Symbolic Z-matrix:
 Charge =  0 Multiplicity = 2

                         Standard orientation:
 ---------------------------------------------------------------------
 Center     Atomic      Atomic             Coordinates (Angstroms)
 Number     Number       Type             X           Y           Z
 ---------------------------------------------------------------------
      1         11           0       -1.657322   -2.229434    1.745660
      2         11           0        3.771111   -0.932117   -1.451516
      3         11           0        0.090817   -0.712200   -0.750550
      4         11           0       -2.991578   -0.860570   -1.277577
      5         11           0        2.556881    0.521673    1.272907
      6         11           0       -0.287244    1.859203    1.708260
      7         11           0       -1.482664    2.353444   -1.247184
 ---------------------------------------------------------------------

 SCF Done:  E(UB3LYP) =  -1136.12434139     A.U. after   22 cycles

 The electronic state is 2-A.
 Alpha  occ. eigenvalues --  -38.44198 -38.44188 -38.44008 -38.43967 -38.43559
 Alpha  occ. eigenvalues --  -38.43496 -38.43095  -2.20046  -2.20003  -2.19836
 Alpha  occ. eigenvalues --   -2.19814  -2.19451  -2.19414  -2.18988  -1.13763
 Alpha  occ. eigenvalues --   -1.13703  -1.13669  -1.13665  -1.13650  -1.13601
 Alpha  occ. eigenvalues --   -1.13540  -1.13516  -1.13490  -1.13465  -1.13460
 Alpha  occ. eigenvalues --   -1.13406  -1.13178  -1.13132  -1.13080  -1.13072
 Alpha  occ. eigenvalues --   -1.13061  -1.13043  -1.12663  -1.12631  -1.12613
 Alpha  occ. eigenvalues --   -0.18011  -0.13564  -0.11684  -0.11576
 Alpha virt. eigenvalues --   -0.05727  -0.05551  -0.04092  -0.03538  -0.03129
 Alpha virt. eigenvalues --   -0.02521  -0.01890  -0.00996  -0.00765  -0.00109
 Alpha virt. eigenvalues --    0.00090   0.00244   0.00501   0.00653   0.00762

  Beta  occ. eigenvalues --  -38.44187 -38.44124 -38.43969 -38.43954 -38.43534
  Beta  occ. eigenvalues --  -38.43484 -38.43062  -2.20029  -2.19884  -2.19818
  Beta  occ. eigenvalues --   -2.19742  -2.19433  -2.19369  -2.18929  -1.13751
  Beta  occ. eigenvalues --   -1.13694  -1.13631  -1.13583  -1.13567  -1.13527
  Beta  occ. eigenvalues --   -1.13522  -1.13483  -1.13476  -1.13415  -1.13410
  Beta  occ. eigenvalues --   -1.13363  -1.13130  -1.13112  -1.13064  -1.13051
  Beta  occ. eigenvalues --   -1.13041  -1.13000  -1.12619  -1.12593  -1.12564
  Beta  occ. eigenvalues --   -0.17343  -0.13129  -0.11437
  Beta virt. eigenvalues --   -0.07988  -0.05480  -0.05069  -0.03579  -0.03248
  Beta virt. eigenvalues --   -0.02798  -0.01993  -0.01785  -0.00750  -0.00552
  Beta virt. eigenvalues --    0.00103   0.00286   0.00394   0.00514   0.00764

 Mulliken charges and spin densities:
               1          2
     1  Na  -0.330975   0.434036
     2  Na   0.891487   0.053984
     3  Na  -1.354771  -0.125318
     4  Na   0.936711   0.133512
     5  Na  -0.242519   0.130902
     6  Na   0.486228   0.058282
     7  Na  -0.386162   0.314603
 Sum of Mulliken charges =  -0.00000   1.00000

 Dipole moment (field-independent basis, Debye):
    X=             -0.2988    Y=             -0.0961    Z=             -0.0592  Tot=              0.3194
 Quadrupole moment (field-independent basis, Debye-Ang):
   XX=            -58.2326   YY=            -73.5324   ZZ=            -62.5093
   XY=             -0.4338   XZ=              0.3476   YZ=             -1.8926

 Normal termination of Gaussian 16 at Tue Dec  5 22:18:58 2023.
