 Gaussian 16, Revision B.01,
 Gaussian 16:  ES64L-G16RevB.01 20-Dec-2017

 -------------------------
 #P B3LYP/6-311+g(d) force
 -------------------------

 -----
 DPGEN
 -----
 Symbolic Z-matrix:
 Charge =  0 Multiplicity = 2

                         Standard orientation:
 ---------------------------------------------------------------------
 Center     Atomic      Atomic             Coordinates (Angstroms)
 Number     Number       Type             X           Y           Z
 ---------------------------------------------------------------------
      1         11           0       -0.689262    3.107150   -0.416191
      2         11           0       -0.755375   -2.972239   -0.132894
      3         11           0       -0.737594   -0.159705   -1.560544
      4         11           0       -3.490001    0.060142    0.369737
      5         11           0        2.606204   -1.629268   -0.249549
      6         11           0        2.850814    1.476610   -0.009749
      7         11           0        0.215215    0.117311    1.999189
 ---------------------------------------------------------------------

 SCF Done:  E(UB3LYP) =  -1136.13141384     A.U. after   20 cycles

 The electronic state is 2-A.
 Alpha  occ. eigenvalues --  -38.45044 -38.43988 -38.43843 -38.43785 -38.43632
 Alpha  occ. eigenvalues --  -38.43612 -38.43151  -2.20811  -2.19814  -2.19630
 Alpha  occ. eigenvalues --   -2.19627  -2.19471  -2.19462  -2.19087  -1.14490
 Alpha  occ. eigenvalues --   -1.14462  -1.14449  -1.13539  -1.13479  -1.13449
 Alpha  occ. eigenvalues --   -1.13310  -1.13296  -1.13285  -1.13284  -1.13261
 Alpha  occ. eigenvalues --   -1.13257  -1.13181  -1.13146  -1.13121  -1.13098
 Alpha  occ. eigenvalues --   -1.13084  -1.13082  -1.12769  -1.12724  -1.12710
 Alpha  occ. eigenvalues --   -0.18081  -0.13063  -0.12293  -0.10284
 Alpha virt. eigenvalues --   -0.06376  -0.05072  -0.04962  -0.03216  -0.02712
 Alpha virt. eigenvalues --   -0.02261  -0.01948  -0.01244  -0.00737  -0.00580
 Alpha virt. eigenvalues --   -0.00030   0.00323   0.00700   0.00730   0.00838

  Beta  occ. eigenvalues --  -38.45037 -38.43987 -38.43831 -38.43781 -38.43626
  Beta  occ. eigenvalues --  -38.43523 -38.43099  -2.20801  -2.19815  -2.19625
  Beta  occ. eigenvalues --   -2.19607  -2.19456  -2.19306  -2.18992  -1.14472
  Beta  occ. eigenvalues --   -1.14450  -1.14443  -1.13543  -1.13464  -1.13447
  Beta  occ. eigenvalues --   -1.13287  -1.13287  -1.13277  -1.13265  -1.13251
  Beta  occ. eigenvalues --   -1.13247  -1.13169  -1.13104  -1.13077  -1.13032
  Beta  occ. eigenvalues --   -1.12987  -1.12962  -1.12701  -1.12657  -1.12639
  Beta  occ. eigenvalues --   -0.17406  -0.12886  -0.12032
  Beta virt. eigenvalues --   -0.06553  -0.06234  -0.05065  -0.04855  -0.02511
  Beta virt. eigenvalues --   -0.02027  -0.01813  -0.01268  -0.01148  -0.00775
  Beta virt. eigenvalues --   -0.00621   0.00127   0.00366   0.00740   0.00804

 Mulliken charges and spin densities:
               1          2
     1  Na  -0.024197  -0.059878
     2  Na   0.219041   0.001340
     3  Na  -0.024920   0.387984
     4  Na   0.037004  -0.017830
     5  Na   0.024052  -0.035137
     6  Na   0.107681  -0.011680
     7  Na  -0.338662   0.735202
 Sum of Mulliken charges =  -0.00000   1.00000

 Dipole moment (field-independent basis, Debye):
    X=             -0.5690    Y=              0.0579    Z=              0.1730  Tot=              0.5975
 Quadrupole moment (field-independent basis, Debye-Ang):
   XX=            -53.8790   YY=            -61.9912   ZZ=            -76.6691
   XY=              0.3177   XZ=             -2.1156   YZ=             -0.4965

 Normal termination of Gaussian 16 at Thu Dec  7 19:22:56 2023.
