 Gaussian 16, Revision B.01,
 Gaussian 16:  ES64L-G16RevB.01 20-Dec-2017

 -------------------------
 #P B3LYP/6-311+g(d) force
 -------------------------

 -----
 DPGEN
 -----
 Symbolic Z-matrix:
 Charge =  0 Multiplicity = 2

                         Standard orientation:
 ---------------------------------------------------------------------
 Center     Atomic      Atomic             Coordinates (Angstroms)
 Number     Number       Type             X           Y           Z
 ---------------------------------------------------------------------
      1         11           0        2.187181    1.980006    0.107126
      2         11           0       -1.202613    2.186101   -0.356350
      3         11           0        2.972387   -1.383693    0.493481
      4         11           0       -0.124346   -1.965364    0.173497
      5         11           0       -3.143099   -0.830347   -0.780359
      6         11           0       -1.361613    0.222209    2.362449
      7         11           0        0.672104   -0.208912   -1.999845
 ---------------------------------------------------------------------

 SCF Done:  E(UB3LYP) =  -1136.12898217     A.U. after   21 cycles

 The electronic state is 2-A.
 Alpha  occ. eigenvalues --  -38.44532 -38.44530 -38.44268 -38.43927 -38.43352
 Alpha  occ. eigenvalues --  -38.42774 -38.42672  -2.20385  -2.20348  -2.20219
 Alpha  occ. eigenvalues --   -2.19775  -2.19190  -2.18656  -2.18651  -1.14051
 Alpha  occ. eigenvalues --   -1.14019  -1.14013  -1.14008  -1.13999  -1.13974
 Alpha  occ. eigenvalues --   -1.13969  -1.13840  -1.13809  -1.13455  -1.13428
 Alpha  occ. eigenvalues --   -1.13412  -1.12866  -1.12856  -1.12827  -1.12386
 Alpha  occ. eigenvalues --   -1.12339  -1.12336  -1.12318  -1.12270  -1.12247
 Alpha  occ. eigenvalues --   -0.18704  -0.13397  -0.11653  -0.11533
 Alpha virt. eigenvalues --   -0.06006  -0.04940  -0.04274  -0.03375  -0.03062
 Alpha virt. eigenvalues --   -0.02862  -0.01837  -0.00767  -0.00369   0.00130
 Alpha virt. eigenvalues --    0.00298   0.00327   0.00507   0.00681   0.00897

  Beta  occ. eigenvalues --  -38.44521 -38.44440 -38.44204 -38.43921 -38.43352
  Beta  occ. eigenvalues --  -38.42765 -38.42656  -2.20330  -2.20219  -2.20102
  Beta  occ. eigenvalues --   -2.19764  -2.19192  -2.18641  -2.18630  -1.14003
  Beta  occ. eigenvalues --   -1.13988  -1.13968  -1.13936  -1.13901  -1.13894
  Beta  occ. eigenvalues --   -1.13873  -1.13758  -1.13718  -1.13446  -1.13418
  Beta  occ. eigenvalues --   -1.13402  -1.12863  -1.12849  -1.12832  -1.12354
  Beta  occ. eigenvalues --   -1.12335  -1.12292  -1.12272  -1.12269  -1.12238
  Beta  occ. eigenvalues --   -0.17937  -0.13201  -0.11439
  Beta virt. eigenvalues --   -0.07629  -0.05756  -0.04887  -0.03690  -0.03260
  Beta virt. eigenvalues --   -0.02175  -0.02067  -0.01701  -0.00721  -0.00095
  Beta virt. eigenvalues --    0.00121   0.00294   0.00379   0.00745   0.00795

 Mulliken charges and spin densities:
               1          2
     1  Na   0.046471  -0.006841
     2  Na   0.048259  -0.000265
     3  Na   0.084423  -0.054228
     4  Na   0.575539   0.237709
     5  Na   0.444024   0.068801
     6  Na  -0.509564   0.304119
     7  Na  -0.689152   0.450705
 Sum of Mulliken charges =  -0.00000   1.00000

 Dipole moment (field-independent basis, Debye):
    X=             -0.2420    Y=             -0.0679    Z=              0.1636  Tot=              0.2999
 Quadrupole moment (field-independent basis, Debye-Ang):
   XX=            -53.2766   YY=            -75.2590   ZZ=            -65.9932
   XY=              0.3414   XZ=              3.0634   YZ=              0.5792

 Normal termination of Gaussian 16 at Thu Dec  7 19:26:50 2023.
