 Gaussian 16, Revision B.01,
 Gaussian 16:  ES64L-G16RevB.01 20-Dec-2017

 -------------------------
 #P B3LYP/6-311+g(d) force
 -------------------------

 -----
 DPGEN
 -----
 Symbolic Z-matrix:
 Charge =  0 Multiplicity = 2

                         Standard orientation:
 ---------------------------------------------------------------------
 Center     Atomic      Atomic             Coordinates (Angstroms)
 Number     Number       Type             X           Y           Z
 ---------------------------------------------------------------------
      1         11           0       -3.374709   -0.185590   -0.135175
      2         11           0       -0.578712   -0.226231    2.419176
      3         11           0       -0.826870    2.496416   -0.211326
      4         11           0        2.488503    1.214112    0.692446
      5         11           0        2.135298   -1.910398    0.178413
      6         11           0        1.034746    0.598866   -2.049242
      7         11           0       -0.878256   -1.987175   -0.894293
 ---------------------------------------------------------------------

 SCF Done:  E(UB3LYP) =  -1136.13167722     A.U. after   20 cycles

 The electronic state is 2-A.
 Alpha  occ. eigenvalues --  -38.44986 -38.44204 -38.44071 -38.43901 -38.43126
 Alpha  occ. eigenvalues --  -38.42953 -38.42912  -2.20808  -2.20019  -2.20007
 Alpha  occ. eigenvalues --   -2.19790  -2.19018  -2.18864  -2.18755  -1.14465
 Alpha  occ. eigenvalues --   -1.14440  -1.14424  -1.13712  -1.13695  -1.13676
 Alpha  occ. eigenvalues --   -1.13671  -1.13653  -1.13616  -1.13465  -1.13447
 Alpha  occ. eigenvalues --   -1.13413  -1.12720  -1.12686  -1.12659  -1.12541
 Alpha  occ. eigenvalues --   -1.12510  -1.12490  -1.12458  -1.12424  -1.12369
 Alpha  occ. eigenvalues --   -0.18707  -0.13140  -0.11969  -0.11792
 Alpha virt. eigenvalues --   -0.05864  -0.04638  -0.04334  -0.03583  -0.03427
 Alpha virt. eigenvalues --   -0.03170  -0.01457  -0.00602  -0.00370   0.00029
 Alpha virt. eigenvalues --    0.00285   0.00405   0.00470   0.00774   0.00905

  Beta  occ. eigenvalues --  -38.44895 -38.44206 -38.44006 -38.43888 -38.43122
  Beta  occ. eigenvalues --  -38.42931 -38.42906  -2.20640  -2.20025  -2.19888
  Beta  occ. eigenvalues --   -2.19769  -2.19015  -2.18826  -2.18749  -1.14354
  Beta  occ. eigenvalues --   -1.14323  -1.14300  -1.13714  -1.13669  -1.13659
  Beta  occ. eigenvalues --   -1.13629  -1.13590  -1.13527  -1.13449  -1.13412
  Beta  occ. eigenvalues --   -1.13389  -1.12715  -1.12684  -1.12635  -1.12510
  Beta  occ. eigenvalues --   -1.12473  -1.12464  -1.12445  -1.12406  -1.12369
  Beta  occ. eigenvalues --   -0.17893  -0.12997  -0.11583
  Beta virt. eigenvalues --   -0.07957  -0.05644  -0.04612  -0.03779  -0.03332
  Beta virt. eigenvalues --   -0.02493  -0.02362  -0.01369  -0.00562  -0.00099
  Beta virt. eigenvalues --    0.00046   0.00284   0.00449   0.00705   0.00903

 Mulliken charges and spin densities:
               1          2
     1  Na   0.201289  -0.095374
     2  Na  -0.545222   0.528232
     3  Na  -0.059635   0.004723
     4  Na   0.243629   0.114066
     5  Na   0.222267   0.018315
     6  Na  -0.021242   0.307747
     7  Na  -0.041087   0.122291
 Sum of Mulliken charges =  -0.00000   1.00000

 Dipole moment (field-independent basis, Debye):
    X=             -0.2317    Y=              0.1444    Z=              0.4635  Tot=              0.5380
 Quadrupole moment (field-independent basis, Debye-Ang):
   XX=            -58.2070   YY=            -73.7683   ZZ=            -64.7843
   XY=             -0.4916   XZ=              1.0788   YZ=              0.3447

 Normal termination of Gaussian 16 at Thu Dec  7 23:10:34 2023.
