 Gaussian 16, Revision B.01,
 Gaussian 16:  ES64L-G16RevB.01 20-Dec-2017

 -------------------------
 #P B3LYP/6-311+g(d) force
 -------------------------

 -----
 DPGEN
 -----
 Symbolic Z-matrix:
 Charge =  0 Multiplicity = 2

                         Standard orientation:
 ---------------------------------------------------------------------
 Center     Atomic      Atomic             Coordinates (Angstroms)
 Number     Number       Type             X           Y           Z
 ---------------------------------------------------------------------
      1         11           0        3.263149    0.658120    0.193980
      2         11           0       -2.894788    1.149648   -0.037890
      3         11           0        0.639386    0.025746    2.059912
      4         11           0        1.705002   -2.175474   -0.655211
      5         11           0        0.065445    2.692749   -0.360316
      6         11           0       -0.427783   -0.430860   -1.945589
      7         11           0       -2.350411   -1.919930    0.745114
 ---------------------------------------------------------------------

 SCF Done:  E(UB3LYP) =  -1136.13222253     A.U. after   20 cycles

 The electronic state is 2-A.
 Alpha  occ. eigenvalues --  -38.44447 -38.44313 -38.43943 -38.43838 -38.43740
 Alpha  occ. eigenvalues --  -38.43396 -38.42790  -2.20277  -2.20181  -2.19803
 Alpha  occ. eigenvalues --   -2.19763  -2.19573  -2.19275  -2.18633  -1.13978
 Alpha  occ. eigenvalues --   -1.13936  -1.13914  -1.13840  -1.13811  -1.13794
 Alpha  occ. eigenvalues --   -1.13496  -1.13484  -1.13468  -1.13455  -1.13394
 Alpha  occ. eigenvalues --   -1.13377  -1.13234  -1.13224  -1.13202  -1.12967
 Alpha  occ. eigenvalues --   -1.12912  -1.12893  -1.12318  -1.12307  -1.12259
 Alpha  occ. eigenvalues --   -0.18469  -0.13501  -0.11832  -0.11370
 Alpha virt. eigenvalues --   -0.06030  -0.05027  -0.04265  -0.03574  -0.03112
 Alpha virt. eigenvalues --   -0.02847  -0.01750  -0.00885  -0.00296  -0.00081
 Alpha virt. eigenvalues --   -0.00012   0.00359   0.00620   0.00773   0.00892

  Beta  occ. eigenvalues --  -38.44445 -38.44240 -38.43941 -38.43761 -38.43719
  Beta  occ. eigenvalues --  -38.43376 -38.42783  -2.20276  -2.20046  -2.19802
  Beta  occ. eigenvalues --   -2.19623  -2.19535  -2.19242  -2.18623  -1.13961
  Beta  occ. eigenvalues --   -1.13926  -1.13917  -1.13753  -1.13721  -1.13697
  Beta  occ. eigenvalues --   -1.13493  -1.13459  -1.13450  -1.13378  -1.13294
  Beta  occ. eigenvalues --   -1.13283  -1.13205  -1.13194  -1.13173  -1.12931
  Beta  occ. eigenvalues --   -1.12877  -1.12873  -1.12311  -1.12290  -1.12247
  Beta  occ. eigenvalues --   -0.17745  -0.13272  -0.11551
  Beta virt. eigenvalues --   -0.07505  -0.05863  -0.05021  -0.04000  -0.03027
  Beta virt. eigenvalues --   -0.02311  -0.01930  -0.01634  -0.00807  -0.00242
  Beta virt. eigenvalues --   -0.00063   0.00059   0.00399   0.00793   0.00897

 Mulliken charges and spin densities:
               1          2
     1  Na   0.220860  -0.011509
     2  Na   0.109394  -0.044847
     3  Na  -0.311535   0.584014
     4  Na   0.108491  -0.027101
     5  Na  -0.133884  -0.049253
     6  Na   0.006417   0.432074
     7  Na   0.000257   0.116621
 Sum of Mulliken charges =  -0.00000   1.00000

 Dipole moment (field-independent basis, Debye):
    X=              0.2642    Y=             -0.0470    Z=              0.2571  Tot=              0.3717
 Quadrupole moment (field-independent basis, Debye-Ang):
   XX=            -55.0716   YY=            -70.2508   ZZ=            -70.5792
   XY=              0.7322   XZ=             -1.2549   YZ=             -1.3620

 Normal termination of Gaussian 16 at Tue Dec  5 10:51:39 2023.
