 Gaussian 16, Revision B.01,
 Gaussian 16:  ES64L-G16RevB.01 20-Dec-2017

 -------------------------
 #P B3LYP/6-311+g(d) force
 -------------------------

 -----
 DPGEN
 -----
 Symbolic Z-matrix:
 Charge =  0 Multiplicity = 2

                         Standard orientation:
 ---------------------------------------------------------------------
 Center     Atomic      Atomic             Coordinates (Angstroms)
 Number     Number       Type             X           Y           Z
 ---------------------------------------------------------------------
      1         11           0        0.854960    1.825876   -0.336071
      2         11           0        1.980315   -1.646198   -1.393467
      3         11           0       -1.446646   -0.914502   -0.268478
      4         11           0       -2.627129    2.235855   -0.124373
      5         11           0        4.340805    0.629259    0.336990
      6         11           0       -4.598430   -1.100252    0.295722
      7         11           0        1.496125   -1.030039    1.489678
 ---------------------------------------------------------------------

 SCF Done:  E(UB3LYP) =  -1136.11672741     A.U. after   28 cycles

 The electronic state is 2-A.
 Alpha  occ. eigenvalues --  -38.45423 -38.44908 -38.44131 -38.44023 -38.43858
 Alpha  occ. eigenvalues --  -38.42823 -38.42697  -2.21338  -2.20779  -2.19959
 Alpha  occ. eigenvalues --   -2.19865  -2.19665  -2.18689  -2.18633  -1.15060
 Alpha  occ. eigenvalues --   -1.15019  -1.14940  -1.14454  -1.14433  -1.14386
 Alpha  occ. eigenvalues --   -1.13614  -1.13596  -1.13569  -1.13529  -1.13496
 Alpha  occ. eigenvalues --   -1.13477  -1.13349  -1.13340  -1.13286  -1.12402
 Alpha  occ. eigenvalues --   -1.12383  -1.12350  -1.12320  -1.12285  -1.12241
 Alpha  occ. eigenvalues --   -0.18261  -0.14623  -0.11042  -0.10991
 Alpha virt. eigenvalues --   -0.07014  -0.05690  -0.04419  -0.03124  -0.03046
 Alpha virt. eigenvalues --   -0.02041  -0.01664  -0.01447  -0.01227  -0.00735
 Alpha virt. eigenvalues --   -0.00458   0.00130   0.00297   0.00460   0.00639

  Beta  occ. eigenvalues --  -38.45417 -38.44897 -38.44045 -38.43946 -38.43851
  Beta  occ. eigenvalues --  -38.42809 -38.42681  -2.21331  -2.20762  -2.19798
  Beta  occ. eigenvalues --   -2.19720  -2.19655  -2.18668  -2.18612  -1.15059
  Beta  occ. eigenvalues --   -1.15000  -1.14922  -1.14446  -1.14421  -1.14354
  Beta  occ. eigenvalues --   -1.13509  -1.13486  -1.13460  -1.13429  -1.13396
  Beta  occ. eigenvalues --   -1.13387  -1.13345  -1.13336  -1.13258  -1.12390
  Beta  occ. eigenvalues --   -1.12355  -1.12344  -1.12276  -1.12250  -1.12213
  Beta  occ. eigenvalues --   -0.17678  -0.13847  -0.10654
  Beta virt. eigenvalues --   -0.07527  -0.06887  -0.05565  -0.03657  -0.02935
  Beta virt. eigenvalues --   -0.02818  -0.01624  -0.01512  -0.01153  -0.00829
  Beta virt. eigenvalues --   -0.00339  -0.00295   0.00189   0.00415   0.00523

 Mulliken charges and spin densities:
               1          2
     1  Na  -0.807412  -0.053660
     2  Na   0.426055   0.053814
     3  Na  -1.516713   0.241082
     4  Na   0.276644  -0.035789
     5  Na   0.388841   0.539856
     6  Na   0.702998   0.237503
     7  Na   0.529588   0.017194
 Sum of Mulliken charges =  -0.00000   1.00000

 Dipole moment (field-independent basis, Debye):
    X=              0.6454    Y=             -0.5721    Z=              0.0409  Tot=              0.8634
 Quadrupole moment (field-independent basis, Debye-Ang):
   XX=            -60.1901   YY=            -78.1079   ZZ=            -61.7935
   XY=             -5.4699   XZ=             -2.8908   YZ=              0.0421

 Normal termination of Gaussian 16 at Tue Dec  5 17:47:11 2023.
