 Gaussian 16, Revision B.01,
 Gaussian 16:  ES64L-G16RevB.01 20-Dec-2017

 -------------------------
 #P B3LYP/6-311+g(d) force
 -------------------------

 -----
 DPGEN
 -----
 Symbolic Z-matrix:
 Charge =  0 Multiplicity = 2

                         Standard orientation:
 ---------------------------------------------------------------------
 Center     Atomic      Atomic             Coordinates (Angstroms)
 Number     Number       Type             X           Y           Z
 ---------------------------------------------------------------------
      1         11           0       -0.170862    2.654480   -1.283323
      2         11           0       -3.608527   -1.832278   -0.545010
      3         11           0        2.686630   -2.349626   -0.483628
      4         11           0       -0.452290   -0.723223   -0.574257
      5         11           0        2.665652    0.958453   -0.606094
      6         11           0        1.162200    0.064475    2.450373
      7         11           0       -2.282803    1.227719    1.041939
 ---------------------------------------------------------------------

 SCF Done:  E(UB3LYP) =  -1136.12598243     A.U. after   21 cycles

 The electronic state is 2-A.
 Alpha  occ. eigenvalues --  -38.44577 -38.44329 -38.44070 -38.43966 -38.43913
 Alpha  occ. eigenvalues --  -38.43134 -38.42827  -2.20418  -2.20183  -2.19954
 Alpha  occ. eigenvalues --   -2.19778  -2.19698  -2.19114  -2.18681  -1.14078
 Alpha  occ. eigenvalues --   -1.14057  -1.14009  -1.13907  -1.13847  -1.13781
 Alpha  occ. eigenvalues --   -1.13642  -1.13626  -1.13586  -1.13445  -1.13436
 Alpha  occ. eigenvalues --   -1.13402  -1.13373  -1.13358  -1.13331  -1.12845
 Alpha  occ. eigenvalues --   -1.12777  -1.12727  -1.12355  -1.12333  -1.12314
 Alpha  occ. eigenvalues --   -0.18212  -0.13483  -0.11588  -0.11212
 Alpha virt. eigenvalues --   -0.06166  -0.05587  -0.04316  -0.03378  -0.02642
 Alpha virt. eigenvalues --   -0.02511  -0.01916  -0.01321  -0.00615  -0.00290
 Alpha virt. eigenvalues --   -0.00026   0.00259   0.00370   0.00614   0.00760

  Beta  occ. eigenvalues --  -38.44465 -38.44318 -38.44052 -38.43958 -38.43909
  Beta  occ. eigenvalues --  -38.43118 -38.42805  -2.20210  -2.20164  -2.19924
  Beta  occ. eigenvalues --   -2.19764  -2.19693  -2.19088  -2.18642  -1.13936
  Beta  occ. eigenvalues --   -1.13919  -1.13896  -1.13860  -1.13816  -1.13768
  Beta  occ. eigenvalues --   -1.13615  -1.13594  -1.13562  -1.13435  -1.13418
  Beta  occ. eigenvalues --   -1.13394  -1.13366  -1.13354  -1.13329  -1.12796
  Beta  occ. eigenvalues --   -1.12759  -1.12714  -1.12323  -1.12303  -1.12288
  Beta  occ. eigenvalues --   -0.17516  -0.13337  -0.11333
  Beta virt. eigenvalues --   -0.07275  -0.05975  -0.05445  -0.03902  -0.02871
  Beta virt. eigenvalues --   -0.02124  -0.01902  -0.01684  -0.01190  -0.00419
  Beta virt. eigenvalues --   -0.00118   0.00086   0.00309   0.00521   0.00662

 Mulliken charges and spin densities:
               1          2
     1  Na  -0.236873  -0.042584
     2  Na   0.042206  -0.074976
     3  Na   0.422619  -0.001621
     4  Na  -2.074330   0.290823
     5  Na   1.418601   0.274621
     6  Na  -0.200492   0.372848
     7  Na   0.628268   0.180890
 Sum of Mulliken charges =  -0.00000   1.00000

 Dipole moment (field-independent basis, Debye):
    X=              0.1350    Y=             -0.0881    Z=              0.3742  Tot=              0.4075
 Quadrupole moment (field-independent basis, Debye-Ang):
   XX=            -55.4536   YY=            -67.5776   ZZ=            -70.1607
   XY=             -1.6880   XZ=             -0.6599   YZ=              1.6440

 Normal termination of Gaussian 16 at Tue Dec  5 19:01:18 2023.
