 Gaussian 16, Revision B.01,
 Gaussian 16:  ES64L-G16RevB.01 20-Dec-2017

 -------------------------
 #P B3LYP/6-311+g(d) force
 -------------------------

 -----
 DPGEN
 -----
 Symbolic Z-matrix:
 Charge =  0 Multiplicity = 2

                         Standard orientation:
 ---------------------------------------------------------------------
 Center     Atomic      Atomic             Coordinates (Angstroms)
 Number     Number       Type             X           Y           Z
 ---------------------------------------------------------------------
      1         11           0       -2.056052   -2.502557    0.102264
      2         11           0       -0.053262    2.898201   -0.174412
      3         11           0       -3.473973    0.921933   -0.189600
      4         11           0        0.114309   -0.133178   -1.701822
      5         11           0       -0.292505   -0.195784    1.950597
      6         11           0        2.526979   -1.932634   -0.375161
      7         11           0        3.234504    0.944019    0.388134
 ---------------------------------------------------------------------

 SCF Done:  E(UB3LYP) =  -1136.12780788     A.U. after   22 cycles

 The electronic state is 2-A.
 Alpha  occ. eigenvalues --  -38.45434 -38.44609 -38.43889 -38.43743 -38.43672
 Alpha  occ. eigenvalues --  -38.43537 -38.42891  -2.21183  -2.20433  -2.19744
 Alpha  occ. eigenvalues --   -2.19600  -2.19473  -2.19443  -2.18701  -1.14867
 Alpha  occ. eigenvalues --   -1.14825  -1.14822  -1.14139  -1.14091  -1.14062
 Alpha  occ. eigenvalues --   -1.13427  -1.13405  -1.13374  -1.13286  -1.13234
 Alpha  occ. eigenvalues --   -1.13222  -1.13144  -1.13136  -1.13126  -1.13112
 Alpha  occ. eigenvalues --   -1.13078  -1.13057  -1.12393  -1.12370  -1.12327
 Alpha  occ. eigenvalues --   -0.18043  -0.13464  -0.11699  -0.10412
 Alpha virt. eigenvalues --   -0.06707  -0.05503  -0.04211  -0.03421  -0.02543
 Alpha virt. eigenvalues --   -0.02400  -0.02291  -0.01351  -0.00694  -0.00383
 Alpha virt. eigenvalues --   -0.00103   0.00270   0.00630   0.00658   0.00761

  Beta  occ. eigenvalues --  -38.45432 -38.44603 -38.43880 -38.43669 -38.43659
  Beta  occ. eigenvalues --  -38.43468 -38.42889  -2.21180  -2.20424  -2.19730
  Beta  occ. eigenvalues --   -2.19471  -2.19445  -2.19318  -2.18700  -1.14854
  Beta  occ. eigenvalues --   -1.14825  -1.14821  -1.14136  -1.14067  -1.14057
  Beta  occ. eigenvalues --   -1.13414  -1.13387  -1.13356  -1.13188  -1.13149
  Beta  occ. eigenvalues --   -1.13128  -1.13121  -1.13114  -1.13082  -1.13042
  Beta  occ. eigenvalues --   -1.12988  -1.12969  -1.12390  -1.12357  -1.12324
  Beta  occ. eigenvalues --   -0.17340  -0.13290  -0.11453
  Beta virt. eigenvalues --   -0.06628  -0.06597  -0.05438  -0.04179  -0.02711
  Beta virt. eigenvalues --   -0.02203  -0.01820  -0.01448  -0.01196  -0.00746
  Beta virt. eigenvalues --   -0.00398   0.00063   0.00310   0.00720   0.00766

 Mulliken charges and spin densities:
               1          2
     1  Na   0.033400  -0.122122
     2  Na  -0.147075  -0.063144
     3  Na   0.010709  -0.071675
     4  Na   0.032654   0.536586
     5  Na  -0.211728   0.677101
     6  Na   0.271605  -0.032235
     7  Na   0.010434   0.075489
 Sum of Mulliken charges =  -0.00000   1.00000

 Dipole moment (field-independent basis, Debye):
    X=             -0.4758    Y=              0.0130    Z=              0.0911  Tot=              0.4846
 Quadrupole moment (field-independent basis, Debye-Ang):
   XX=            -48.9761   YY=            -67.0747   ZZ=            -76.3084
   XY=             -0.2560   XZ=              1.4682   YZ=              0.7848

 Normal termination of Gaussian 16 at Thu Dec  7 20:42:59 2023.
