 Gaussian 16, Revision B.01,
 Gaussian 16:  ES64L-G16RevB.01 20-Dec-2017

 -------------------------
 #P B3LYP/6-311+g(d) force
 -------------------------

 -----
 DPGEN
 -----
 Symbolic Z-matrix:
 Charge =  0 Multiplicity = 2

                         Standard orientation:
 ---------------------------------------------------------------------
 Center     Atomic      Atomic             Coordinates (Angstroms)
 Number     Number       Type             X           Y           Z
 ---------------------------------------------------------------------
      1         11           0        1.814791    0.625611    1.876122
      2         11           0       -1.136867    2.288736   -0.440036
      3         11           0       -1.979663   -0.146085    1.718247
      4         11           0       -4.101305   -1.095500   -0.694838
      5         11           0       -0.078238   -1.375324   -0.761824
      6         11           0        3.644960   -1.590673   -0.163302
      7         11           0        1.836322    1.293234   -1.534369
 ---------------------------------------------------------------------

 SCF Done:  E(UB3LYP) =  -1136.12454279     A.U. after   24 cycles

 The electronic state is 2-A.
 Alpha  occ. eigenvalues --  -38.44849 -38.44509 -38.44334 -38.44075 -38.43674
 Alpha  occ. eigenvalues --  -38.43593 -38.42802  -2.20689  -2.20286  -2.20184
 Alpha  occ. eigenvalues --   -2.19961  -2.19493  -2.19477  -2.18652  -1.14421
 Alpha  occ. eigenvalues --   -1.14370  -1.14275  -1.13961  -1.13948  -1.13915
 Alpha  occ. eigenvalues --   -1.13864  -1.13839  -1.13784  -1.13661  -1.13624
 Alpha  occ. eigenvalues --   -1.13550  -1.13190  -1.13154  -1.13147  -1.13145
 Alpha  occ. eigenvalues --   -1.13116  -1.13079  -1.12328  -1.12322  -1.12285
 Alpha  occ. eigenvalues --   -0.18257  -0.13925  -0.11165  -0.11025
 Alpha virt. eigenvalues --   -0.06777  -0.05363  -0.04676  -0.03086  -0.02770
 Alpha virt. eigenvalues --   -0.02423  -0.02271  -0.01459  -0.00837  -0.00230
 Alpha virt. eigenvalues --    0.00061   0.00240   0.00368   0.00542   0.00620

  Beta  occ. eigenvalues --  -38.44827 -38.44500 -38.44267 -38.44039 -38.43674
  Beta  occ. eigenvalues --  -38.43548 -38.42797  -2.20653  -2.20270  -2.20061
  Beta  occ. eigenvalues --   -2.19895  -2.19479  -2.19412  -2.18646  -1.14373
  Beta  occ. eigenvalues --   -1.14340  -1.14254  -1.13948  -1.13937  -1.13904
  Beta  occ. eigenvalues --   -1.13774  -1.13753  -1.13695  -1.13618  -1.13585
  Beta  occ. eigenvalues --   -1.13483  -1.13151  -1.13135  -1.13128  -1.13115
  Beta  occ. eigenvalues --   -1.13094  -1.13026  -1.12322  -1.12300  -1.12282
  Beta  occ. eigenvalues --   -0.17544  -0.13769  -0.10834
  Beta virt. eigenvalues --   -0.07269  -0.06542  -0.05229  -0.04161  -0.02844
  Beta virt. eigenvalues --   -0.02557  -0.01857  -0.01703  -0.01185  -0.00449
  Beta virt. eigenvalues --   -0.00161   0.00099   0.00316   0.00480   0.00645

 Mulliken charges and spin densities:
               1          2
     1  Na  -0.348245   0.354181
     2  Na  -0.276097   0.044543
     3  Na   0.450339   0.113044
     4  Na   0.215982   0.061414
     5  Na  -0.966885   0.322910
     6  Na   0.624044  -0.072494
     7  Na   0.300861   0.176403
 Sum of Mulliken charges =  -0.00000   1.00000

 Dipole moment (field-independent basis, Debye):
    X=             -0.2734    Y=              0.1440    Z=             -0.1176  Tot=              0.3306
 Quadrupole moment (field-independent basis, Debye-Ang):
   XX=            -52.3226   YY=            -74.6060   ZZ=            -68.7759
   XY=             -0.5823   XZ=              1.3987   YZ=              1.3935

 Normal termination of Gaussian 16 at Tue Dec  5 13:01:52 2023.
