 Gaussian 16, Revision B.01,
 Gaussian 16:  ES64L-G16RevB.01 20-Dec-2017

 -------------------------
 #P B3LYP/6-311+g(d) force
 -------------------------

 -----
 DPGEN
 -----
 Symbolic Z-matrix:
 Charge =  0 Multiplicity = 2

                         Standard orientation:
 ---------------------------------------------------------------------
 Center     Atomic      Atomic             Coordinates (Angstroms)
 Number     Number       Type             X           Y           Z
 ---------------------------------------------------------------------
      1         11           0        0.029030    0.053807   -1.792492
      2         11           0       -2.923552   -0.588857   -0.078956
      3         11           0       -1.645041    2.552427    0.060999
      4         11           0        2.375061    2.105583   -0.054201
      5         11           0        2.455642   -1.158532    0.155731
      6         11           0       -0.186940   -0.131630    1.862094
      7         11           0       -0.104200   -2.832799   -0.153175
 ---------------------------------------------------------------------

 SCF Done:  E(UB3LYP) =  -1136.13844043     A.U. after   19 cycles

 The electronic state is 2-A.
 Alpha  occ. eigenvalues --  -38.43792 -38.43784 -38.43668 -38.43370 -38.43349
 Alpha  occ. eigenvalues --  -38.43242 -38.43130  -2.19652  -2.19622  -2.19490
 Alpha  occ. eigenvalues --   -2.19320  -2.19308  -2.19214  -2.19054  -1.13347
 Alpha  occ. eigenvalues --   -1.13327  -1.13305  -1.13296  -1.13278  -1.13233
 Alpha  occ. eigenvalues --   -1.13181  -1.13157  -1.13132  -1.13072  -1.13003
 Alpha  occ. eigenvalues --   -1.12972  -1.12961  -1.12926  -1.12912  -1.12890
 Alpha  occ. eigenvalues --   -1.12844  -1.12829  -1.12707  -1.12697  -1.12679
 Alpha  occ. eigenvalues --   -0.19085  -0.13150  -0.12537  -0.10850
 Alpha virt. eigenvalues --   -0.05478  -0.05071  -0.04686  -0.03245  -0.02878
 Alpha virt. eigenvalues --   -0.02531  -0.01338  -0.01150  -0.00306  -0.00096
 Alpha virt. eigenvalues --    0.00006   0.00371   0.00869   0.00879   0.00940

  Beta  occ. eigenvalues --  -38.43789 -38.43778 -38.43668 -38.43360 -38.43265
  Beta  occ. eigenvalues --  -38.43163 -38.43122  -2.19645  -2.19619  -2.19492
  Beta  occ. eigenvalues --   -2.19307  -2.19154  -2.19069  -2.19043  -1.13345
  Beta  occ. eigenvalues --   -1.13307  -1.13290  -1.13279  -1.13270  -1.13235
  Beta  occ. eigenvalues --   -1.13184  -1.13141  -1.13134  -1.13053  -1.12963
  Beta  occ. eigenvalues --   -1.12938  -1.12880  -1.12821  -1.12811  -1.12801
  Beta  occ. eigenvalues --   -1.12747  -1.12728  -1.12692  -1.12675  -1.12647
  Beta  occ. eigenvalues --   -0.18322  -0.12892  -0.12294
  Beta virt. eigenvalues --   -0.06899  -0.05485  -0.05023  -0.04686  -0.02396
  Beta virt. eigenvalues --   -0.02108  -0.01476  -0.01260  -0.01070  -0.00362
  Beta virt. eigenvalues --   -0.00147   0.00132   0.00387   0.00868   0.00919

 Mulliken charges and spin densities:
               1          2
     1  Na  -0.384503   0.679517
     2  Na   0.215559  -0.078657
     3  Na  -0.044809  -0.153400
     4  Na  -0.033166  -0.131060
     5  Na   0.294535   0.032469
     6  Na  -0.364246   0.667532
     7  Na   0.316629  -0.016400
 Sum of Mulliken charges =  -0.00000   1.00000

 Dipole moment (field-independent basis, Debye):
    X=             -0.2850    Y=              0.3185    Z=              0.0260  Tot=              0.4282
 Quadrupole moment (field-independent basis, Debye-Ang):
   XX=            -59.0581   YY=            -60.7346   ZZ=            -73.9095
   XY=              0.6903   XZ=              0.4947   YZ=              0.4450

 Normal termination of Gaussian 16 at Thu Dec  7 06:20:22 2023.
