 Gaussian 16, Revision B.01,
 Gaussian 16:  ES64L-G16RevB.01 20-Dec-2017

 -------------------------
 #P B3LYP/6-311+g(d) force
 -------------------------

 -----
 DPGEN
 -----
 Symbolic Z-matrix:
 Charge =  0 Multiplicity = 2

                         Standard orientation:
 ---------------------------------------------------------------------
 Center     Atomic      Atomic             Coordinates (Angstroms)
 Number     Number       Type             X           Y           Z
 ---------------------------------------------------------------------
      1         11           0        2.456439    1.779897   -0.623479
      2         11           0       -0.383961   -2.458059   -0.147064
      3         11           0       -3.319029   -0.517710   -0.190106
      4         11           0        0.299500   -0.161768    2.040900
      5         11           0       -1.248380    2.493275    0.602626
      6         11           0        2.684139   -1.395684    0.051286
      7         11           0       -0.488708    0.260048   -1.734162
 ---------------------------------------------------------------------

 SCF Done:  E(UB3LYP) =  -1136.13470225     A.U. after   19 cycles

 The electronic state is 2-A.
 Alpha  occ. eigenvalues --  -38.44434 -38.43766 -38.43685 -38.43663 -38.43544
 Alpha  occ. eigenvalues --  -38.43356 -38.42807  -2.20253  -2.19694  -2.19551
 Alpha  occ. eigenvalues --   -2.19520  -2.19511  -2.19203  -2.18741  -1.13935
 Alpha  occ. eigenvalues --   -1.13905  -1.13892  -1.13375  -1.13335  -1.13321
 Alpha  occ. eigenvalues --   -1.13259  -1.13220  -1.13206  -1.13202  -1.13197
 Alpha  occ. eigenvalues --   -1.13170  -1.13152  -1.13131  -1.13110  -1.12885
 Alpha  occ. eigenvalues --   -1.12866  -1.12817  -1.12444  -1.12414  -1.12343
 Alpha  occ. eigenvalues --   -0.18861  -0.13286  -0.12138  -0.11175
 Alpha virt. eigenvalues --   -0.05929  -0.04974  -0.04118  -0.03422  -0.02979
 Alpha virt. eigenvalues --   -0.02758  -0.01811  -0.00903  -0.00236  -0.00013
 Alpha virt. eigenvalues --    0.00049   0.00338   0.00781   0.00900   0.00910

  Beta  occ. eigenvalues --  -38.44433 -38.43673 -38.43670 -38.43660 -38.43484
  Beta  occ. eigenvalues --  -38.43339 -38.42798  -2.20252  -2.19548  -2.19523
  Beta  occ. eigenvalues --   -2.19493  -2.19402  -2.19174  -2.18730  -1.13923
  Beta  occ. eigenvalues --   -1.13906  -1.13888  -1.13282  -1.13252  -1.13228
  Beta  occ. eigenvalues --   -1.13206  -1.13199  -1.13164  -1.13153  -1.13137
  Beta  occ. eigenvalues --   -1.13131  -1.13117  -1.13092  -1.13032  -1.12860
  Beta  occ. eigenvalues --   -1.12827  -1.12802  -1.12439  -1.12379  -1.12332
  Beta  occ. eigenvalues --   -0.18126  -0.13042  -0.11855
  Beta virt. eigenvalues --   -0.07257  -0.05844  -0.04938  -0.04058  -0.02712
  Beta virt. eigenvalues --   -0.02210  -0.01744  -0.01680  -0.00837  -0.00179
  Beta virt. eigenvalues --    0.00007   0.00091   0.00370   0.00862   0.00902

 Mulliken charges and spin densities:
               1          2
     1  Na   0.121300   0.022417
     2  Na   0.228410  -0.044630
     3  Na   0.218691  -0.080738
     4  Na  -0.402060   0.557297
     5  Na   0.034180   0.028184
     6  Na   0.189708   0.016381
     7  Na  -0.390229   0.501089
 Sum of Mulliken charges =  -0.00000   1.00000

 Dipole moment (field-independent basis, Debye):
    X=             -0.3691    Y=              0.0989    Z=              0.0973  Tot=              0.3943
 Quadrupole moment (field-independent basis, Debye-Ang):
   XX=            -53.9554   YY=            -68.2044   ZZ=            -71.8972
   XY=              0.0373   XZ=             -1.2158   YZ=              0.4763

 Normal termination of Gaussian 16 at Tue Dec  5 18:40:17 2023.
