 Gaussian 16, Revision B.01,
 Gaussian 16:  ES64L-G16RevB.01 20-Dec-2017

 -------------------------
 #P B3LYP/6-311+g(d) force
 -------------------------

 -----
 DPGEN
 -----
 Symbolic Z-matrix:
 Charge =  0 Multiplicity = 2

                         Standard orientation:
 ---------------------------------------------------------------------
 Center     Atomic      Atomic             Coordinates (Angstroms)
 Number     Number       Type             X           Y           Z
 ---------------------------------------------------------------------
      1         11           0        1.255142    2.797256    0.062362
      2         11           0        0.156108   -0.258900    2.519484
      3         11           0       -0.114206   -0.394006   -2.118210
      4         11           0        2.984153    0.098621   -0.163919
      5         11           0       -2.582835   -1.627898    0.294750
      6         11           0       -2.623695    2.097837   -0.306290
      7         11           0        0.925332   -2.712909   -0.288177
 ---------------------------------------------------------------------

 SCF Done:  E(UB3LYP) =  -1136.13175240     A.U. after   19 cycles

 The electronic state is 2-A.
 Alpha  occ. eigenvalues --  -38.44959 -38.44413 -38.44002 -38.43851 -38.43548
 Alpha  occ. eigenvalues --  -38.43509 -38.43310  -2.20763  -2.20283  -2.19795
 Alpha  occ. eigenvalues --   -2.19603  -2.19396  -2.19308  -2.19177  -1.14403
 Alpha  occ. eigenvalues --   -1.14395  -1.14381  -1.13970  -1.13917  -1.13900
 Alpha  occ. eigenvalues --   -1.13475  -1.13461  -1.13429  -1.13284  -1.13258
 Alpha  occ. eigenvalues --   -1.13247  -1.13108  -1.13061  -1.13051  -1.12978
 Alpha  occ. eigenvalues --   -1.12960  -1.12932  -1.12876  -1.12830  -1.12799
 Alpha  occ. eigenvalues --   -0.17935  -0.12585  -0.12129  -0.11605
 Alpha virt. eigenvalues --   -0.05509  -0.05245  -0.04757  -0.03494  -0.03468
 Alpha virt. eigenvalues --   -0.03137  -0.01162  -0.01041  -0.00411  -0.00304
 Alpha virt. eigenvalues --   -0.00209   0.00393   0.00569   0.00710   0.00823

  Beta  occ. eigenvalues --  -38.44851 -38.44342 -38.43998 -38.43850 -38.43546
  Beta  occ. eigenvalues --  -38.43510 -38.43303  -2.20561  -2.20154  -2.19791
  Beta  occ. eigenvalues --   -2.19604  -2.19395  -2.19311  -2.19169  -1.14270
  Beta  occ. eigenvalues --   -1.14255  -1.14235  -1.13886  -1.13825  -1.13805
  Beta  occ. eigenvalues --   -1.13463  -1.13448  -1.13429  -1.13276  -1.13259
  Beta  occ. eigenvalues --   -1.13250  -1.13111  -1.13056  -1.13036  -1.12968
  Beta  occ. eigenvalues --   -1.12963  -1.12936  -1.12861  -1.12811  -1.12792
  Beta  occ. eigenvalues --   -0.17158  -0.12432  -0.11953
  Beta virt. eigenvalues --   -0.07626  -0.05506  -0.05069  -0.04535  -0.02726
  Beta virt. eigenvalues --   -0.02583  -0.02415  -0.01078  -0.00974  -0.00450
  Beta virt. eigenvalues --   -0.00369   0.00009   0.00447   0.00860   0.00881

 Mulliken charges and spin densities:
               1          2
     1  Na  -0.132812  -0.053565
     2  Na  -0.368911   0.634517
     3  Na  -0.025738   0.458341
     4  Na   0.118491  -0.019414
     5  Na   0.040399  -0.003017
     6  Na  -0.055327  -0.066571
     7  Na   0.423899   0.049709
 Sum of Mulliken charges =  -0.00000   1.00000

 Dipole moment (field-independent basis, Debye):
    X=             -0.1699    Y=             -0.2447    Z=              0.1918  Tot=              0.3543
 Quadrupole moment (field-independent basis, Debye-Ang):
   XX=            -63.4388   YY=            -65.8621   ZZ=            -68.4084
   XY=             -0.1319   XZ=             -0.3164   YZ=             -0.6191

 Normal termination of Gaussian 16 at Sun Dec  3 14:56:16 2023.
