 Gaussian 16, Revision B.01,
 Gaussian 16:  ES64L-G16RevB.01 20-Dec-2017

 -------------------------
 #P B3LYP/6-311+g(d) force
 -------------------------

 -----
 DPGEN
 -----
 Symbolic Z-matrix:
 Charge =  0 Multiplicity = 2

                         Standard orientation:
 ---------------------------------------------------------------------
 Center     Atomic      Atomic             Coordinates (Angstroms)
 Number     Number       Type             X           Y           Z
 ---------------------------------------------------------------------
      1         11           0        1.443767    2.311871   -0.218553
      2         11           0       -1.203800   -0.321617   -1.584288
      3         11           0        1.325131   -1.725757   -0.464423
      4         11           0       -2.465849    2.914063   -0.186546
      5         11           0        3.879524   -0.126287    0.224336
      6         11           0       -0.969149    0.099511    2.089324
      7         11           0       -2.009623   -3.151784    0.140150
 ---------------------------------------------------------------------

 SCF Done:  E(UB3LYP) =  -1136.12746616     A.U. after   20 cycles

 The electronic state is 2-A.
 Alpha  occ. eigenvalues --  -38.44647 -38.44333 -38.44134 -38.43886 -38.43767
 Alpha  occ. eigenvalues --  -38.43660 -38.43383  -2.20425  -2.20123  -2.19894
 Alpha  occ. eigenvalues --   -2.19715  -2.19591  -2.19566  -2.19293  -1.14122
 Alpha  occ. eigenvalues --   -1.14113  -1.14027  -1.13805  -1.13779  -1.13758
 Alpha  occ. eigenvalues --   -1.13568  -1.13562  -1.13522  -1.13448  -1.13360
 Alpha  occ. eigenvalues --   -1.13351  -1.13321  -1.13261  -1.13232  -1.13229
 Alpha  occ. eigenvalues --   -1.13190  -1.13137  -1.12992  -1.12939  -1.12867
 Alpha  occ. eigenvalues --   -0.17793  -0.12998  -0.12476  -0.10294
 Alpha virt. eigenvalues --   -0.06050  -0.05910  -0.04641  -0.03001  -0.02917
 Alpha virt. eigenvalues --   -0.02342  -0.01927  -0.01825  -0.00570  -0.00402
 Alpha virt. eigenvalues --   -0.00107   0.00202   0.00667   0.00770   0.00806

  Beta  occ. eigenvalues --  -38.44642 -38.44333 -38.44134 -38.43888 -38.43670
  Beta  occ. eigenvalues --  -38.43644 -38.43325  -2.20418  -2.20128  -2.19895
  Beta  occ. eigenvalues --   -2.19719  -2.19542  -2.19412  -2.19187  -1.14111
  Beta  occ. eigenvalues --   -1.14100  -1.14026  -1.13809  -1.13763  -1.13762
  Beta  occ. eigenvalues --   -1.13570  -1.13549  -1.13525  -1.13448  -1.13358
  Beta  occ. eigenvalues --   -1.13354  -1.13296  -1.13193  -1.13136  -1.13126
  Beta  occ. eigenvalues --   -1.13109  -1.13062  -1.12924  -1.12857  -1.12791
  Beta  occ. eigenvalues --   -0.17123  -0.12854  -0.12307
  Beta virt. eigenvalues --   -0.06393  -0.05963  -0.05806  -0.04540  -0.02397
  Beta virt. eigenvalues --   -0.02273  -0.01860  -0.01794  -0.01370  -0.00584
  Beta virt. eigenvalues --   -0.00312   0.00107   0.00263   0.00687   0.00807

 Mulliken charges and spin densities:
               1          2
     1  Na  -0.143681   0.041732
     2  Na   0.259813   0.221784
     3  Na  -0.454159   0.130483
     4  Na   0.141888   0.014629
     5  Na   0.384302  -0.068242
     6  Na  -0.379191   0.666255
     7  Na   0.191027  -0.006641
 Sum of Mulliken charges =  -0.00000   1.00000

 Dipole moment (field-independent basis, Debye):
    X=             -0.1564    Y=              0.0405    Z=              0.0872  Tot=              0.1836
 Quadrupole moment (field-independent basis, Debye-Ang):
   XX=            -56.3604   YY=            -58.5593   ZZ=            -77.0220
   XY=              1.9881   XZ=              1.0296   YZ=             -1.1079

 Normal termination of Gaussian 16 at Thu Dec  7 22:49:59 2023.
