 Gaussian 16, Revision B.01,
 Gaussian 16:  ES64L-G16RevB.01 20-Dec-2017

 -------------------------
 #P B3LYP/6-311+g(d) force
 -------------------------

 -----
 DPGEN
 -----
 Symbolic Z-matrix:
 Charge =  0 Multiplicity = 2

                         Standard orientation:
 ---------------------------------------------------------------------
 Center     Atomic      Atomic             Coordinates (Angstroms)
 Number     Number       Type             X           Y           Z
 ---------------------------------------------------------------------
      1         11           0       -0.381124    0.167525   -1.336948
      2         11           0        2.938689   -0.155132   -1.215274
      3         11           0       -3.363864   -0.199364   -1.006676
      4         11           0       -1.680010    0.059748    1.569839
      5         11           0        0.558247    2.904590    0.216759
      6         11           0        1.357083   -0.109632    1.500873
      7         11           0        0.570980   -2.667735    0.271428
 ---------------------------------------------------------------------

 SCF Done:  E(UB3LYP) =  -1136.12302683     A.U. after   21 cycles

 The electronic state is 2-A.
 Alpha  occ. eigenvalues --  -38.44509 -38.44188 -38.43731 -38.43281 -38.43140
 Alpha  occ. eigenvalues --  -38.43011 -38.42752  -2.20373  -2.20067  -2.19712
 Alpha  occ. eigenvalues --   -2.19379  -2.19226  -2.18907  -2.18595  -1.14062
 Alpha  occ. eigenvalues --   -1.14046  -1.13955  -1.13780  -1.13749  -1.13669
 Alpha  occ. eigenvalues --   -1.13480  -1.13361  -1.13288  -1.13106  -1.13034
 Alpha  occ. eigenvalues --   -1.12999  -1.12916  -1.12865  -1.12846  -1.12584
 Alpha  occ. eigenvalues --   -1.12563  -1.12500  -1.12273  -1.12262  -1.12220
 Alpha  occ. eigenvalues --   -0.19317  -0.13424  -0.11734  -0.11669
 Alpha virt. eigenvalues --   -0.05781  -0.04570  -0.04087  -0.03307  -0.02924
 Alpha virt. eigenvalues --   -0.02532  -0.01714  -0.00795  -0.00636   0.00313
 Alpha virt. eigenvalues --    0.00395   0.00428   0.00493   0.00923   0.00961

  Beta  occ. eigenvalues --  -38.44470 -38.44162 -38.43683 -38.43224 -38.43095
  Beta  occ. eigenvalues --  -38.43005 -38.42751  -2.20302  -2.20019  -2.19629
  Beta  occ. eigenvalues --   -2.19282  -2.19146  -2.18899  -2.18595  -1.14014
  Beta  occ. eigenvalues --   -1.13991  -1.13909  -1.13745  -1.13709  -1.13638
  Beta  occ. eigenvalues --   -1.13410  -1.13286  -1.13230  -1.13049  -1.12943
  Beta  occ. eigenvalues --   -1.12921  -1.12848  -1.12801  -1.12793  -1.12571
  Beta  occ. eigenvalues --   -1.12542  -1.12490  -1.12273  -1.12251  -1.12217
  Beta  occ. eigenvalues --   -0.18535  -0.13142  -0.11458
  Beta virt. eigenvalues --   -0.07674  -0.05632  -0.04261  -0.03751  -0.03238
  Beta virt. eigenvalues --   -0.01963  -0.01847  -0.01504  -0.00757  -0.00285
  Beta virt. eigenvalues --    0.00340   0.00414   0.00501   0.00587   0.00932

 Mulliken charges and spin densities:
               1          2
     1  Na  -0.447188   0.253415
     2  Na   0.422449   0.149240
     3  Na   0.325544   0.181938
     4  Na   0.098207   0.055433
     5  Na  -0.189350   0.155291
     6  Na  -0.148821   0.109982
     7  Na  -0.060841   0.094701
 Sum of Mulliken charges =  -0.00000   1.00000

 Dipole moment (field-independent basis, Debye):
    X=              0.0079    Y=             -0.1023    Z=             -0.3551  Tot=              0.3697
 Quadrupole moment (field-independent basis, Debye-Ang):
   XX=            -55.5419   YY=            -69.4843   ZZ=            -67.2120
   XY=              0.3697   XZ=             -1.5920   YZ=              0.9357

 Normal termination of Gaussian 16 at Thu Dec  7 07:03:04 2023.
