 Gaussian 16, Revision B.01,
 Gaussian 16:  ES64L-G16RevB.01 20-Dec-2017

 -------------------------
 #P B3LYP/6-311+g(d) force
 -------------------------

 -----
 DPGEN
 -----
 Symbolic Z-matrix:
 Charge =  0 Multiplicity = 2

                         Standard orientation:
 ---------------------------------------------------------------------
 Center     Atomic      Atomic             Coordinates (Angstroms)
 Number     Number       Type             X           Y           Z
 ---------------------------------------------------------------------
      1         11           0        2.033708   -2.090015   -0.367405
      2         11           0       -0.302092   -0.699283    2.037441
      3         11           0       -3.172849    0.805553   -0.429600
      4         11           0        3.057885    1.185758    0.081800
      5         11           0       -1.674267   -2.108772   -0.176038
      6         11           0        0.302826    0.276149   -1.507741
      7         11           0       -0.245211    2.630610    0.361541
 ---------------------------------------------------------------------

 SCF Done:  E(UB3LYP) =  -1136.13295941     A.U. after   19 cycles

 The electronic state is 2-A.
 Alpha  occ. eigenvalues --  -38.44245 -38.44181 -38.43551 -38.43536 -38.43333
 Alpha  occ. eigenvalues --  -38.43191 -38.43137  -2.20073  -2.20013  -2.19476
 Alpha  occ. eigenvalues --   -2.19408  -2.19263  -2.19225  -2.19013  -1.13753
 Alpha  occ. eigenvalues --   -1.13732  -1.13714  -1.13687  -1.13670  -1.13654
 Alpha  occ. eigenvalues --   -1.13247  -1.13144  -1.13111  -1.13083  -1.13055
 Alpha  occ. eigenvalues --   -1.13022  -1.12963  -1.12945  -1.12904  -1.12869
 Alpha  occ. eigenvalues --   -1.12859  -1.12821  -1.12683  -1.12669  -1.12617
 Alpha  occ. eigenvalues --   -0.18921  -0.13362  -0.12324  -0.10755
 Alpha virt. eigenvalues --   -0.05935  -0.05218  -0.04190  -0.03284  -0.02888
 Alpha virt. eigenvalues --   -0.02386  -0.01818  -0.01082  -0.00231  -0.00101
 Alpha virt. eigenvalues --   -0.00018   0.00325   0.00774   0.00882   0.00918

  Beta  occ. eigenvalues --  -38.44245 -38.44171 -38.43526 -38.43457 -38.43322
  Beta  occ. eigenvalues --  -38.43140 -38.43127  -2.20076  -2.19996  -2.19393
  Beta  occ. eigenvalues --   -2.19303  -2.19248  -2.19132  -2.18997  -1.13749
  Beta  occ. eigenvalues --   -1.13732  -1.13710  -1.13674  -1.13646  -1.13643
  Beta  occ. eigenvalues --   -1.13158  -1.13119  -1.13046  -1.13015  -1.12988
  Beta  occ. eigenvalues --   -1.12948  -1.12916  -1.12900  -1.12864  -1.12834
  Beta  occ. eigenvalues --   -1.12812  -1.12754  -1.12660  -1.12633  -1.12608
  Beta  occ. eigenvalues --   -0.18207  -0.13108  -0.12084
  Beta virt. eigenvalues --   -0.06850  -0.05856  -0.05197  -0.04131  -0.02539
  Beta virt. eigenvalues --   -0.02139  -0.01714  -0.01346  -0.01038  -0.00250
  Beta virt. eigenvalues --   -0.00109   0.00133   0.00367   0.00845   0.00878

 Mulliken charges and spin densities:
               1          2
     1  Na   0.271874  -0.075414
     2  Na  -0.649209   0.650648
     3  Na   0.027420   0.019225
     4  Na   0.103567  -0.022126
     5  Na   0.592053   0.040698
     6  Na  -0.456459   0.333415
     7  Na   0.110754   0.053555
 Sum of Mulliken charges =  -0.00000   1.00000

 Dipole moment (field-independent basis, Debye):
    X=              0.1991    Y=              0.1052    Z=              0.1621  Tot=              0.2775
 Quadrupole moment (field-independent basis, Debye-Ang):
   XX=            -52.8036   YY=            -66.4861   ZZ=            -73.8009
   XY=             -0.3426   XZ=              1.6280   YZ=              1.8249

 Normal termination of Gaussian 16 at Fri Dec  8 04:27:15 2023.
