 Gaussian 16, Revision B.01,
 Gaussian 16:  ES64L-G16RevB.01 20-Dec-2017

 -------------------------
 #P B3LYP/6-311+g(d) force
 -------------------------

 -----
 DPGEN
 -----
 Symbolic Z-matrix:
 Charge =  0 Multiplicity = 2

                         Standard orientation:
 ---------------------------------------------------------------------
 Center     Atomic      Atomic             Coordinates (Angstroms)
 Number     Number       Type             X           Y           Z
 ---------------------------------------------------------------------
      1         11           0       -3.941710   -1.530689   -0.660570
      2         11           0        3.234829   -1.938947    0.661164
      3         11           0        0.994768    0.433494    1.702901
      4         11           0       -0.640533    2.341359   -0.786652
      5         11           0        0.153536   -1.105802   -1.369188
      6         11           0       -2.735758    0.671456    1.420963
      7         11           0        2.934868    1.129129   -0.968617
 ---------------------------------------------------------------------

 SCF Done:  E(UB3LYP) =  -1136.12278391     A.U. after   24 cycles

 The electronic state is 2-A.
 Alpha  occ. eigenvalues --  -38.45134 -38.44895 -38.44075 -38.43890 -38.43889
 Alpha  occ. eigenvalues --  -38.43578 -38.42881  -2.20981  -2.20722  -2.19915
 Alpha  occ. eigenvalues --   -2.19802  -2.19666  -2.19409  -2.18728  -1.14672
 Alpha  occ. eigenvalues --   -1.14643  -1.14585  -1.14426  -1.14375  -1.14319
 Alpha  occ. eigenvalues --   -1.13601  -1.13578  -1.13552  -1.13502  -1.13463
 Alpha  occ. eigenvalues --   -1.13390  -1.13331  -1.13327  -1.13303  -1.13077
 Alpha  occ. eigenvalues --   -1.13068  -1.13045  -1.12413  -1.12384  -1.12370
 Alpha  occ. eigenvalues --   -0.18210  -0.13931  -0.11163  -0.10977
 Alpha virt. eigenvalues --   -0.06884  -0.05477  -0.04821  -0.03080  -0.02713
 Alpha virt. eigenvalues --   -0.02447  -0.02256  -0.01372  -0.00890  -0.00368
 Alpha virt. eigenvalues --    0.00074   0.00105   0.00240   0.00397   0.00622

  Beta  occ. eigenvalues --  -38.45111 -38.44839 -38.44052 -38.43892 -38.43827
  Beta  occ. eigenvalues --  -38.43566 -38.42878  -2.20941  -2.20622  -2.19872
  Beta  occ. eigenvalues --   -2.19690  -2.19669  -2.19390  -2.18725  -1.14634
  Beta  occ. eigenvalues --   -1.14612  -1.14556  -1.14353  -1.14295  -1.14248
  Beta  occ. eigenvalues --   -1.13568  -1.13551  -1.13521  -1.13428  -1.13380
  Beta  occ. eigenvalues --   -1.13333  -1.13327  -1.13303  -1.13301  -1.13064
  Beta  occ. eigenvalues --   -1.13042  -1.13034  -1.12412  -1.12375  -1.12351
  Beta  occ. eigenvalues --   -0.17509  -0.13782  -0.10920
  Beta virt. eigenvalues --   -0.07240  -0.06683  -0.05301  -0.04259  -0.02795
  Beta virt. eigenvalues --   -0.02483  -0.02033  -0.01579  -0.01087  -0.00539
  Beta virt. eigenvalues --   -0.00388   0.00124   0.00153   0.00366   0.00523

 Mulliken charges and spin densities:
               1          2
     1  Na  -0.116371  -0.000481
     2  Na   0.500968  -0.064181
     3  Na  -0.568286   0.403534
     4  Na   0.047170   0.046380
     5  Na  -0.746632   0.432541
     6  Na   0.329049   0.053369
     7  Na   0.554102   0.128838
 Sum of Mulliken charges =  -0.00000   1.00000

 Dipole moment (field-independent basis, Debye):
    X=              0.9731    Y=              0.4455    Z=             -0.3779  Tot=              1.1349
 Quadrupole moment (field-independent basis, Debye-Ang):
   XX=            -55.1027   YY=            -71.2052   ZZ=            -70.5837
   XY=              0.2008   XZ=             -1.8757   YZ=             -0.3115

 Normal termination of Gaussian 16 at Thu Dec  7 12:01:17 2023.
