 Gaussian 16, Revision B.01,
 Gaussian 16:  ES64L-G16RevB.01 20-Dec-2017

 -------------------------
 #P B3LYP/6-311+g(d) force
 -------------------------

 -----
 DPGEN
 -----
 Symbolic Z-matrix:
 Charge =  0 Multiplicity = 2

                         Standard orientation:
 ---------------------------------------------------------------------
 Center     Atomic      Atomic             Coordinates (Angstroms)
 Number     Number       Type             X           Y           Z
 ---------------------------------------------------------------------
      1         11           0       -3.458980   -1.405107    0.757015
      2         11           0       -1.262325   -0.773281   -1.487253
      3         11           0       -2.216548    2.206918   -0.048684
      4         11           0        0.090632   -0.208371    1.625032
      5         11           0        4.102080    0.137367    0.628794
      6         11           0        1.791337   -1.826497   -0.819883
      7         11           0        0.953806    1.868971   -0.655021
 ---------------------------------------------------------------------

 SCF Done:  E(UB3LYP) =  -1136.12384760     A.U. after   24 cycles

 The electronic state is 2-A.
 Alpha  occ. eigenvalues --  -38.45386 -38.45031 -38.43767 -38.43526 -38.43422
 Alpha  occ. eigenvalues --  -38.43129 -38.42629  -2.21260  -2.20828  -2.19590
 Alpha  occ. eigenvalues --   -2.19418  -2.19279  -2.19106  -2.18548  -1.14991
 Alpha  occ. eigenvalues --   -1.14913  -1.14859  -1.14493  -1.14484  -1.14445
 Alpha  occ. eigenvalues --   -1.13275  -1.13231  -1.13228  -1.13119  -1.13079
 Alpha  occ. eigenvalues --   -1.13038  -1.12966  -1.12942  -1.12912  -1.12797
 Alpha  occ. eigenvalues --   -1.12744  -1.12715  -1.12268  -1.12212  -1.12144
 Alpha  occ. eigenvalues --   -0.18695  -0.14030  -0.11300  -0.10787
 Alpha virt. eigenvalues --   -0.07171  -0.05154  -0.04263  -0.03146  -0.02896
 Alpha virt. eigenvalues --   -0.02297  -0.02001  -0.01258  -0.00965  -0.00199
 Alpha virt. eigenvalues --    0.00001   0.00212   0.00368   0.00646   0.00709

  Beta  occ. eigenvalues --  -38.45365 -38.44996 -38.43741 -38.43490 -38.43420
  Beta  occ. eigenvalues --  -38.43075 -38.42615  -2.21221  -2.20762  -2.19542
  Beta  occ. eigenvalues --   -2.19357  -2.19276  -2.19012  -2.18526  -1.14951
  Beta  occ. eigenvalues --   -1.14888  -1.14830  -1.14446  -1.14438  -1.14401
  Beta  occ. eigenvalues --   -1.13245  -1.13198  -1.13188  -1.13076  -1.13023
  Beta  occ. eigenvalues --   -1.12980  -1.12958  -1.12942  -1.12902  -1.12734
  Beta  occ. eigenvalues --   -1.12656  -1.12645  -1.12258  -1.12166  -1.12134
  Beta  occ. eigenvalues --   -0.18018  -0.13700  -0.11055
  Beta virt. eigenvalues --   -0.07123  -0.06828  -0.05085  -0.03773  -0.02939
  Beta virt. eigenvalues --   -0.02616  -0.01755  -0.01338  -0.01199  -0.00556
  Beta virt. eigenvalues --   -0.00104   0.00079   0.00253   0.00514   0.00712

 Mulliken charges and spin densities:
               1          2
     1  Na  -0.065198   0.284795
     2  Na   0.497364  -0.023955
     3  Na   0.041091   0.058052
     4  Na  -0.280625   0.263565
     5  Na   0.569417   0.273450
     6  Na  -0.297228   0.113732
     7  Na  -0.464822   0.030362
 Sum of Mulliken charges =  -0.00000   1.00000

 Dipole moment (field-independent basis, Debye):
    X=              0.6895    Y=              0.1734    Z=              0.2828  Tot=              0.7652
 Quadrupole moment (field-independent basis, Debye-Ang):
   XX=            -49.9020   YY=            -75.4683   ZZ=            -69.2016
   XY=             -1.5147   XZ=              0.2188   YZ=             -0.3129

 Normal termination of Gaussian 16 at Tue Dec  5 17:43:51 2023.
