 Gaussian 16, Revision B.01,
 Gaussian 16:  ES64L-G16RevB.01 20-Dec-2017

 -------------------------
 #P B3LYP/6-311+g(d) force
 -------------------------

 -----
 DPGEN
 -----
 Symbolic Z-matrix:
 Charge =  0 Multiplicity = 2

                         Standard orientation:
 ---------------------------------------------------------------------
 Center     Atomic      Atomic             Coordinates (Angstroms)
 Number     Number       Type             X           Y           Z
 ---------------------------------------------------------------------
      1         11           0        4.111028   -0.696201   -0.960349
      2         11           0        0.511817    2.142732   -0.448629
      3         11           0       -2.808745   -2.089762    0.358755
      4         11           0       -1.412608    1.101565    1.452750
      5         11           0       -2.510353    0.855340   -1.542781
      6         11           0        0.215153   -1.243215   -0.718011
      7         11           0        1.893709   -0.070458    1.858265
 ---------------------------------------------------------------------

 SCF Done:  E(UB3LYP) =  -1136.12441921     A.U. after   22 cycles

 The electronic state is 2-A.
 Alpha  occ. eigenvalues --  -38.44684 -38.44173 -38.44064 -38.43831 -38.43410
 Alpha  occ. eigenvalues --  -38.43047 -38.42873  -2.20449  -2.20076  -2.19944
 Alpha  occ. eigenvalues --   -2.19744  -2.19406  -2.18890  -2.18825  -1.14116
 Alpha  occ. eigenvalues --   -1.14111  -1.14061  -1.13765  -1.13753  -1.13663
 Alpha  occ. eigenvalues --   -1.13660  -1.13592  -1.13544  -1.13460  -1.13443
 Alpha  occ. eigenvalues --   -1.13332  -1.13161  -1.13052  -1.13025  -1.12555
 Alpha  occ. eigenvalues --   -1.12550  -1.12527  -1.12515  -1.12474  -1.12421
 Alpha  occ. eigenvalues --   -0.18831  -0.13729  -0.11370  -0.11164
 Alpha virt. eigenvalues --   -0.06592  -0.04934  -0.04519  -0.03060  -0.02660
 Alpha virt. eigenvalues --   -0.02325  -0.02231  -0.01017  -0.00841  -0.00066
 Alpha virt. eigenvalues --    0.00143   0.00256   0.00394   0.00628   0.00797

  Beta  occ. eigenvalues --  -38.44655 -38.44126 -38.44021 -38.43821 -38.43380
  Beta  occ. eigenvalues --  -38.43037 -38.42859  -2.20394  -2.19991  -2.19867
  Beta  occ. eigenvalues --   -2.19730  -2.19356  -2.18872  -2.18802  -1.14076
  Beta  occ. eigenvalues --   -1.14072  -1.14026  -1.13711  -1.13689  -1.13613
  Beta  occ. eigenvalues --   -1.13596  -1.13544  -1.13467  -1.13439  -1.13407
  Beta  occ. eigenvalues --   -1.13327  -1.13133  -1.12994  -1.12978  -1.12545
  Beta  occ. eigenvalues --   -1.12531  -1.12512  -1.12503  -1.12442  -1.12390
  Beta  occ. eigenvalues --   -0.18106  -0.13463  -0.11142
  Beta virt. eigenvalues --   -0.07388  -0.06297  -0.04425  -0.04367  -0.02923
  Beta virt. eigenvalues --   -0.02296  -0.01954  -0.01538  -0.00806  -0.00489
  Beta virt. eigenvalues --    0.00026   0.00191   0.00377   0.00500   0.00703

 Mulliken charges and spin densities:
               1          2
     1  Na   0.146165   0.159828
     2  Na  -0.189424   0.138943
     3  Na   0.013896  -0.097207
     4  Na   0.494895   0.461555
     5  Na   0.163039   0.035489
     6  Na  -0.672461   0.386669
     7  Na   0.043890  -0.085276
 Sum of Mulliken charges =  -0.00000   1.00000

 Dipole moment (field-independent basis, Debye):
    X=              0.4556    Y=              0.3443    Z=              0.0061  Tot=              0.5711
 Quadrupole moment (field-independent basis, Debye-Ang):
   XX=            -52.3010   YY=            -75.4129   ZZ=            -65.9579
   XY=             -0.4058   XZ=             -0.7402   YZ=             -2.1623

 Normal termination of Gaussian 16 at Thu Dec  7 08:50:23 2023.
