 Gaussian 16, Revision B.01,
 Gaussian 16:  ES64L-G16RevB.01 20-Dec-2017

 -------------------------
 #P B3LYP/6-311+g(d) force
 -------------------------

 -----
 DPGEN
 -----
 Symbolic Z-matrix:
 Charge =  0 Multiplicity = 2

                         Standard orientation:
 ---------------------------------------------------------------------
 Center     Atomic      Atomic             Coordinates (Angstroms)
 Number     Number       Type             X           Y           Z
 ---------------------------------------------------------------------
      1         11           0       -1.641911    2.141818   -0.022301
      2         11           0        2.660356   -1.515217   -0.519959
      3         11           0       -3.170988   -0.597264   -0.170864
      4         11           0        0.451114    0.026814    1.866588
      5         11           0       -0.634215   -2.230738    0.423083
      6         11           0        2.162875    1.935178    0.253006
      7         11           0        0.172769    0.239409   -1.829552
 ---------------------------------------------------------------------

 SCF Done:  E(UB3LYP) =  -1136.12950440     A.U. after   21 cycles

 The electronic state is 2-A.
 Alpha  occ. eigenvalues --  -38.44212 -38.43905 -38.43708 -38.43619 -38.43611
 Alpha  occ. eigenvalues --  -38.43276 -38.42844  -2.20088  -2.19771  -2.19730
 Alpha  occ. eigenvalues --   -2.19594  -2.19516  -2.19175  -2.18815  -1.13778
 Alpha  occ. eigenvalues --   -1.13756  -1.13729  -1.13491  -1.13469  -1.13440
 Alpha  occ. eigenvalues --   -1.13408  -1.13401  -1.13312  -1.13282  -1.13236
 Alpha  occ. eigenvalues --   -1.13226  -1.13172  -1.13142  -1.13118  -1.12857
 Alpha  occ. eigenvalues --   -1.12839  -1.12793  -1.12524  -1.12461  -1.12415
 Alpha  occ. eigenvalues --   -0.19402  -0.13582  -0.12144  -0.11298
 Alpha virt. eigenvalues --   -0.05789  -0.05171  -0.03776  -0.03543  -0.02887
 Alpha virt. eigenvalues --   -0.02772  -0.01681  -0.01014  -0.00088   0.00053
 Alpha virt. eigenvalues --    0.00200   0.00348   0.00784   0.00908   0.00982

  Beta  occ. eigenvalues --  -38.44213 -38.43889 -38.43618 -38.43608 -38.43536
  Beta  occ. eigenvalues --  -38.43271 -38.42829  -2.20093  -2.19745  -2.19566
  Beta  occ. eigenvalues --   -2.19498  -2.19457  -2.19169  -2.18793  -1.13785
  Beta  occ. eigenvalues --   -1.13760  -1.13715  -1.13437  -1.13402  -1.13389
  Beta  occ. eigenvalues --   -1.13376  -1.13326  -1.13206  -1.13195  -1.13162
  Beta  occ. eigenvalues --   -1.13131  -1.13117  -1.13106  -1.13088  -1.12849
  Beta  occ. eigenvalues --   -1.12818  -1.12786  -1.12498  -1.12429  -1.12393
  Beta  occ. eigenvalues --   -0.18657  -0.13322  -0.11858
  Beta virt. eigenvalues --   -0.07311  -0.05710  -0.05169  -0.03778  -0.02755
  Beta virt. eigenvalues --   -0.02080  -0.01697  -0.01557  -0.00953   0.00002
  Beta virt. eigenvalues --    0.00050   0.00187   0.00371   0.00847   0.00911

 Mulliken charges and spin densities:
               1          2
     1  Na   0.445678  -0.005330
     2  Na   0.081202   0.016724
     3  Na  -0.299074  -0.095883
     4  Na  -0.528745   0.461938
     5  Na   0.649527   0.110032
     6  Na   0.306151  -0.062058
     7  Na  -0.654739   0.574575
 Sum of Mulliken charges =  -0.00000   1.00000

 Dipole moment (field-independent basis, Debye):
    X=              0.1571    Y=              0.1088    Z=             -0.2104  Tot=              0.2842
 Quadrupole moment (field-independent basis, Debye-Ang):
   XX=            -53.5212   YY=            -68.8863   ZZ=            -71.9074
   XY=             -0.1972   XZ=             -0.4212   YZ=              1.2288

 Normal termination of Gaussian 16 at Thu Dec  7 02:59:44 2023.
