 Gaussian 16, Revision B.01,
 Gaussian 16:  ES64L-G16RevB.01 20-Dec-2017

 -------------------------
 #P B3LYP/6-311+g(d) force
 -------------------------

 -----
 DPGEN
 -----
 Symbolic Z-matrix:
 Charge =  0 Multiplicity = 2

                         Standard orientation:
 ---------------------------------------------------------------------
 Center     Atomic      Atomic             Coordinates (Angstroms)
 Number     Number       Type             X           Y           Z
 ---------------------------------------------------------------------
      1         11           0       -1.061360    2.787961   -0.716048
      2         11           0       -0.090795   -0.397484   -1.199124
      3         11           0       -0.422499    0.027755    2.247428
      4         11           0        2.027349    2.050217    0.298449
      5         11           0       -0.459568   -2.988496   -0.135205
      6         11           0        3.187584   -1.146706   -0.339582
      7         11           0       -3.180710   -0.333247   -0.155918
 ---------------------------------------------------------------------

 SCF Done:  E(UB3LYP) =  -1136.13128860     A.U. after   19 cycles

 The electronic state is 2-A.
 Alpha  occ. eigenvalues --  -38.44317 -38.44060 -38.44058 -38.43724 -38.43473
 Alpha  occ. eigenvalues --  -38.43425 -38.42888  -2.20140  -2.19918  -2.19853
 Alpha  occ. eigenvalues --   -2.19587  -2.19325  -2.19266  -2.18960  -1.13828
 Alpha  occ. eigenvalues --   -1.13804  -1.13766  -1.13725  -1.13559  -1.13530
 Alpha  occ. eigenvalues --   -1.13512  -1.13503  -1.13489  -1.13249  -1.13208
 Alpha  occ. eigenvalues --   -1.13198  -1.13021  -1.12992  -1.12976  -1.12948
 Alpha  occ. eigenvalues --   -1.12906  -1.12886  -1.12648  -1.12616  -1.12558
 Alpha  occ. eigenvalues --   -0.18471  -0.12903  -0.12486  -0.10657
 Alpha virt. eigenvalues --   -0.05935  -0.05014  -0.04816  -0.03047  -0.02759
 Alpha virt. eigenvalues --   -0.02515  -0.01726  -0.01191  -0.00524  -0.00356
 Alpha virt. eigenvalues --   -0.00025   0.00320   0.00778   0.00846   0.00889

  Beta  occ. eigenvalues --  -38.44311 -38.44060 -38.44052 -38.43612 -38.43469
  Beta  occ. eigenvalues --  -38.43408 -38.42849  -2.20133  -2.19911  -2.19853
  Beta  occ. eigenvalues --   -2.19380  -2.19320  -2.19238  -2.18894  -1.13818
  Beta  occ. eigenvalues --   -1.13785  -1.13759  -1.13716  -1.13537  -1.13525
  Beta  occ. eigenvalues --   -1.13509  -1.13501  -1.13490  -1.13111  -1.13066
  Beta  occ. eigenvalues --   -1.13051  -1.13015  -1.12978  -1.12963  -1.12921
  Beta  occ. eigenvalues --   -1.12883  -1.12870  -1.12590  -1.12564  -1.12510
  Beta  occ. eigenvalues --   -0.17778  -0.12724  -0.12233
  Beta virt. eigenvalues --   -0.06701  -0.05916  -0.04946  -0.04715  -0.02296
  Beta virt. eigenvalues --   -0.02099  -0.01677  -0.01427  -0.01115  -0.00536
  Beta virt. eigenvalues --   -0.00348   0.00146   0.00374   0.00785   0.00897

 Mulliken charges and spin densities:
               1          2
     1  Na   0.111200   0.105061
     2  Na  -0.513662  -0.077173
     3  Na  -0.428147   0.697346
     4  Na   0.235601   0.094579
     5  Na   0.223478   0.084046
     6  Na   0.065014   0.027311
     7  Na   0.306516   0.068832
 Sum of Mulliken charges =  -0.00000   1.00000

 Dipole moment (field-independent basis, Debye):
    X=             -0.2433    Y=             -0.3099    Z=              0.2370  Tot=              0.4598
 Quadrupole moment (field-independent basis, Debye-Ang):
   XX=            -55.4818   YY=            -61.5540   ZZ=            -75.2657
   XY=             -0.1552   XZ=              0.6048   YZ=             -0.7691

 Normal termination of Gaussian 16 at Thu Dec  7 10:02:21 2023.
