 Gaussian 16, Revision B.01,
 Gaussian 16:  ES64L-G16RevB.01 20-Dec-2017

 -------------------------
 #P B3LYP/6-311+g(d) force
 -------------------------

 -----
 DPGEN
 -----
 Symbolic Z-matrix:
 Charge =  0 Multiplicity = 2

                         Standard orientation:
 ---------------------------------------------------------------------
 Center     Atomic      Atomic             Coordinates (Angstroms)
 Number     Number       Type             X           Y           Z
 ---------------------------------------------------------------------
      1         11           0        2.984880   -1.415604   -0.400520
      2         11           0        1.816478    2.641316   -0.150170
      3         11           0       -1.279319    2.147320    0.414595
      4         11           0       -0.022346   -0.295289    2.320553
      5         11           0       -0.399322   -2.912804    0.128322
      6         11           0        0.149643    0.137904   -1.592745
      7         11           0       -3.250014   -0.302842   -0.720035
 ---------------------------------------------------------------------

 SCF Done:  E(UB3LYP) =  -1136.13339490     A.U. after   19 cycles

 The electronic state is 2-A.
 Alpha  occ. eigenvalues --  -38.44249 -38.44114 -38.43834 -38.43636 -38.43608
 Alpha  occ. eigenvalues --  -38.43350 -38.43107  -2.20109  -2.19895  -2.19649
 Alpha  occ. eigenvalues --   -2.19455  -2.19444  -2.19320  -2.19053  -1.13767
 Alpha  occ. eigenvalues --   -1.13737  -1.13724  -1.13580  -1.13551  -1.13527
 Alpha  occ. eigenvalues --   -1.13335  -1.13324  -1.13264  -1.13153  -1.13130
 Alpha  occ. eigenvalues --   -1.13121  -1.13108  -1.13087  -1.13085  -1.13025
 Alpha  occ. eigenvalues --   -1.12964  -1.12929  -1.12736  -1.12715  -1.12659
 Alpha  occ. eigenvalues --   -0.18406  -0.12660  -0.12412  -0.11225
 Alpha virt. eigenvalues --   -0.05634  -0.05073  -0.04541  -0.03300  -0.03008
 Alpha virt. eigenvalues --   -0.02887  -0.01516  -0.01220  -0.00357  -0.00153
 Alpha virt. eigenvalues --    0.00001   0.00334   0.00770   0.00868   0.00903

  Beta  occ. eigenvalues --  -38.44138 -38.44109 -38.43829 -38.43620 -38.43609
  Beta  occ. eigenvalues --  -38.43300 -38.43093  -2.19906  -2.19888  -2.19643
  Beta  occ. eigenvalues --   -2.19449  -2.19426  -2.19229  -2.19034  -1.13631
  Beta  occ. eigenvalues --   -1.13590  -1.13586  -1.13564  -1.13547  -1.13523
  Beta  occ. eigenvalues --   -1.13325  -1.13302  -1.13265  -1.13154  -1.13110
  Beta  occ. eigenvalues --   -1.13096  -1.13090  -1.13089  -1.13069  -1.12970
  Beta  occ. eigenvalues --   -1.12902  -1.12860  -1.12722  -1.12670  -1.12645
  Beta  occ. eigenvalues --   -0.17676  -0.12451  -0.12162
  Beta virt. eigenvalues --   -0.07267  -0.05586  -0.04971  -0.04456  -0.02496
  Beta virt. eigenvalues --   -0.02349  -0.01894  -0.01389  -0.01175  -0.00352
  Beta virt. eigenvalues --   -0.00112   0.00092   0.00369   0.00792   0.00926

 Mulliken charges and spin densities:
               1          2
     1  Na  -0.008838  -0.048339
     2  Na   0.021750  -0.065627
     3  Na   0.398469   0.260655
     4  Na  -0.331851   0.496702
     5  Na   0.066113   0.022868
     6  Na  -0.202225   0.302009
     7  Na   0.056583   0.031731
 Sum of Mulliken charges =  -0.00000   1.00000

 Dipole moment (field-independent basis, Debye):
    X=              0.3588    Y=             -0.3504    Z=              0.1721  Tot=              0.5302
 Quadrupole moment (field-independent basis, Debye-Ang):
   XX=            -58.7164   YY=            -63.4179   ZZ=            -72.0049
   XY=              1.3942   XZ=              0.7893   YZ=              0.7774

 Normal termination of Gaussian 16 at Thu Dec  7 19:41:23 2023.
