 Gaussian 16, Revision B.01,
 Gaussian 16:  ES64L-G16RevB.01 20-Dec-2017

 -------------------------
 #P B3LYP/6-311+g(d) force
 -------------------------

 -----
 DPGEN
 -----
 Symbolic Z-matrix:
 Charge =  0 Multiplicity = 2

                         Standard orientation:
 ---------------------------------------------------------------------
 Center     Atomic      Atomic             Coordinates (Angstroms)
 Number     Number       Type             X           Y           Z
 ---------------------------------------------------------------------
      1         11           0        2.582513    2.522363    0.806892
      2         11           0       -3.374961   -1.822072   -0.333146
      3         11           0       -3.794176    1.330366   -0.517275
      4         11           0        1.956737   -2.365282   -1.154513
      5         11           0        4.371190    0.169464   -0.495387
      6         11           0       -0.346000   -3.333535    1.540597
      7         11           0       -1.395304    3.498696    0.152831
 ---------------------------------------------------------------------

 SCF Done:  E(UB3LYP) =  -1136.10528089     A.U. after   25 cycles

 The electronic state is 2-A.
 Alpha  occ. eigenvalues --  -38.45776 -38.45549 -38.44605 -38.44399 -38.43911
 Alpha  occ. eigenvalues --  -38.43882 -38.43755  -2.21514  -2.21298  -2.20408
 Alpha  occ. eigenvalues --   -2.20162  -2.19733  -2.19706  -2.19545  -1.15201
 Alpha  occ. eigenvalues --   -1.15184  -1.15136  -1.14983  -1.14969  -1.14941
 Alpha  occ. eigenvalues --   -1.14083  -1.14072  -1.14025  -1.13829  -1.13810
 Alpha  occ. eigenvalues --   -1.13794  -1.13388  -1.13383  -1.13378  -1.13373
 Alpha  occ. eigenvalues --   -1.13373  -1.13371  -1.13203  -1.13191  -1.13165
 Alpha  occ. eigenvalues --   -0.15551  -0.14036  -0.13032  -0.10488
 Alpha virt. eigenvalues --   -0.07817  -0.05303  -0.04241  -0.03483  -0.03289
 Alpha virt. eigenvalues --   -0.02496  -0.02301  -0.01778  -0.01203  -0.00986
 Alpha virt. eigenvalues --   -0.00617  -0.00059  -0.00019   0.00346   0.00588

  Beta  occ. eigenvalues --  -38.45766 -38.45547 -38.44548 -38.44365 -38.43874
  Beta  occ. eigenvalues --  -38.43869 -38.43700  -2.21498  -2.21298  -2.20307
  Beta  occ. eigenvalues --   -2.20099  -2.19688  -2.19663  -2.19441  -1.15193
  Beta  occ. eigenvalues --   -1.15176  -1.15106  -1.14987  -1.14973  -1.14910
  Beta  occ. eigenvalues --   -1.14012  -1.14006  -1.13939  -1.13786  -1.13768
  Beta  occ. eigenvalues --   -1.13748  -1.13368  -1.13365  -1.13343  -1.13335
  Beta  occ. eigenvalues --   -1.13327  -1.13322  -1.13131  -1.13122  -1.13098
  Beta  occ. eigenvalues --   -0.15086  -0.13403  -0.12391
  Beta virt. eigenvalues --   -0.07930  -0.07262  -0.04894  -0.03768  -0.03320
  Beta virt. eigenvalues --   -0.02973  -0.02237  -0.02020  -0.01619  -0.01018
  Beta virt. eigenvalues --   -0.00837  -0.00341   0.00094   0.00177   0.00392

 Mulliken charges and spin densities:
               1          2
     1  Na  -0.121055   0.034182
     2  Na  -0.274668   0.235633
     3  Na   0.262346   0.044712
     4  Na  -0.174210   0.063070
     5  Na   0.327327   0.164015
     6  Na   0.062633   0.177388
     7  Na  -0.082372   0.281001
 Sum of Mulliken charges =  -0.00000   1.00000

 Dipole moment (field-independent basis, Debye):
    X=              1.0501    Y=             -0.8803    Z=              0.0210  Tot=              1.3704
 Quadrupole moment (field-independent basis, Debye-Ang):
   XX=            -67.0968   YY=            -69.0830   ZZ=            -66.9346
   XY=              0.9518   XZ=             -1.1765   YZ=              1.8778

 Normal termination of Gaussian 16 at Sun Dec  3 14:32:44 2023.
