 Gaussian 16, Revision B.01,
 Gaussian 16:  ES64L-G16RevB.01 20-Dec-2017

 -------------------------
 #P B3LYP/6-311+g(d) force
 -------------------------

 -----
 DPGEN
 -----
 Symbolic Z-matrix:
 Charge =  0 Multiplicity = 2

                         Standard orientation:
 ---------------------------------------------------------------------
 Center     Atomic      Atomic             Coordinates (Angstroms)
 Number     Number       Type             X           Y           Z
 ---------------------------------------------------------------------
      1         11           0        1.655339    3.715582    0.059811
      2         11           0       -1.947331    2.535275    0.772830
      3         11           0       -4.392138    0.545912   -0.540547
      4         11           0       -2.572007   -2.812754    0.205032
      5         11           0        0.758972   -2.822040   -0.441794
      6         11           0        3.292340   -2.107721    0.820118
      7         11           0        3.204823    0.945747   -0.875450
 ---------------------------------------------------------------------

 SCF Done:  E(UB3LYP) =  -1136.11137084     A.U. after   21 cycles

 The electronic state is 2-A.
 Alpha  occ. eigenvalues --  -38.45138 -38.45074 -38.44482 -38.44370 -38.44088
 Alpha  occ. eigenvalues --  -38.44029 -38.43516  -2.20922  -2.20827  -2.20257
 Alpha  occ. eigenvalues --   -2.20219  -2.19900  -2.19887  -2.19316  -1.14614
 Alpha  occ. eigenvalues --   -1.14594  -1.14549  -1.14512  -1.14500  -1.14445
 Alpha  occ. eigenvalues --   -1.13993  -1.13926  -1.13907  -1.13895  -1.13882
 Alpha  occ. eigenvalues --   -1.13869  -1.13549  -1.13542  -1.13528  -1.13523
 Alpha  occ. eigenvalues --   -1.13507  -1.13497  -1.12973  -1.12973  -1.12954
 Alpha  occ. eigenvalues --   -0.15955  -0.13878  -0.13393  -0.10639
 Alpha virt. eigenvalues --   -0.07187  -0.04944  -0.04493  -0.03431  -0.03090
 Alpha virt. eigenvalues --   -0.02441  -0.02335  -0.01935  -0.01328  -0.00559
 Alpha virt. eigenvalues --   -0.00314  -0.00067   0.00157   0.00451   0.00665

  Beta  occ. eigenvalues --  -38.45123 -38.45049 -38.44457 -38.44353 -38.44016
  Beta  occ. eigenvalues --  -38.43985 -38.43484  -2.20900  -2.20785  -2.20213
  Beta  occ. eigenvalues --   -2.20196  -2.19817  -2.19757  -2.19256  -1.14603
  Beta  occ. eigenvalues --   -1.14584  -1.14500  -1.14484  -1.14474  -1.14397
  Beta  occ. eigenvalues --   -1.13951  -1.13898  -1.13876  -1.13869  -1.13852
  Beta  occ. eigenvalues --   -1.13837  -1.13485  -1.13466  -1.13456  -1.13452
  Beta  occ. eigenvalues --   -1.13443  -1.13406  -1.12933  -1.12929  -1.12916
  Beta  occ. eigenvalues --   -0.15446  -0.13223  -0.12584
  Beta virt. eigenvalues --   -0.07405  -0.07316  -0.04638  -0.04196  -0.03134
  Beta virt. eigenvalues --   -0.02666  -0.02249  -0.01952  -0.01714  -0.01186
  Beta virt. eigenvalues --   -0.00364   0.00023   0.00164   0.00218   0.00446

 Mulliken charges and spin densities:
               1          2
     1  Na   0.224281   0.162352
     2  Na  -0.311160   0.147465
     3  Na   0.157768   0.056516
     4  Na  -0.005740   0.239337
     5  Na  -0.508069   0.101645
     6  Na   0.606633   0.226440
     7  Na  -0.163712   0.066245
 Sum of Mulliken charges =  -0.00000   1.00000

 Dipole moment (field-independent basis, Debye):
    X=              0.1440    Y=              0.0148    Z=              0.1001  Tot=              0.1760
 Quadrupole moment (field-independent basis, Debye-Ang):
   XX=            -60.3972   YY=            -71.3756   ZZ=            -68.7932
   XY=              0.0633   XZ=              1.3860   YZ=              0.5573

 Normal termination of Gaussian 16 at Sun Dec  3 18:29:17 2023.
