 Gaussian 16, Revision B.01,
 Gaussian 16:  ES64L-G16RevB.01 20-Dec-2017

 -------------------------
 #P B3LYP/6-311+g(d) force
 -------------------------

 -----
 DPGEN
 -----
 Symbolic Z-matrix:
 Charge =  0 Multiplicity = 2

                         Standard orientation:
 ---------------------------------------------------------------------
 Center     Atomic      Atomic             Coordinates (Angstroms)
 Number     Number       Type             X           Y           Z
 ---------------------------------------------------------------------
      1         11           0       -1.977528    1.760126   -0.102578
      2         11           0        1.201255    1.813079   -1.528990
      3         11           0       -0.016891   -1.334304   -0.581874
      4         11           0        1.695133    0.852262    1.498078
      5         11           0       -3.030016   -1.392968   -0.878541
      6         11           0       -1.506076   -0.347501    1.822858
      7         11           0        3.634123   -1.350694   -0.228953
 ---------------------------------------------------------------------

 SCF Done:  E(UB3LYP) =  -1136.11940730     A.U. after   25 cycles

 The electronic state is 2-A.
 Alpha  occ. eigenvalues --  -38.44336 -38.44105 -38.43860 -38.43818 -38.43587
 Alpha  occ. eigenvalues --  -38.43509 -38.43463  -2.20133  -2.20119  -2.19771
 Alpha  occ. eigenvalues --   -2.19738  -2.19512  -2.19460  -2.19380  -1.13886
 Alpha  occ. eigenvalues --   -1.13845  -1.13801  -1.13778  -1.13756  -1.13713
 Alpha  occ. eigenvalues --   -1.13492  -1.13438  -1.13422  -1.13407  -1.13395
 Alpha  occ. eigenvalues --   -1.13328  -1.13204  -1.13185  -1.13171  -1.13115
 Alpha  occ. eigenvalues --   -1.13104  -1.13052  -1.13038  -1.13027  -1.12972
 Alpha  occ. eigenvalues --   -0.19194  -0.14084  -0.11412  -0.11204
 Alpha virt. eigenvalues --   -0.06475  -0.05180  -0.04465  -0.03220  -0.02522
 Alpha virt. eigenvalues --   -0.02353  -0.02132  -0.01145  -0.00486   0.00015
 Alpha virt. eigenvalues --    0.00189   0.00340   0.00486   0.00682   0.00794

  Beta  occ. eigenvalues --  -38.44342 -38.44033 -38.43841 -38.43782 -38.43575
  Beta  occ. eigenvalues --  -38.43466 -38.43439  -2.20132  -2.20003  -2.19735
  Beta  occ. eigenvalues --   -2.19675  -2.19496  -2.19423  -2.19300  -1.13812
  Beta  occ. eigenvalues --   -1.13807  -1.13785  -1.13764  -1.13754  -1.13607
  Beta  occ. eigenvalues --   -1.13461  -1.13399  -1.13383  -1.13364  -1.13350
  Beta  occ. eigenvalues --   -1.13286  -1.13176  -1.13141  -1.13128  -1.13098
  Beta  occ. eigenvalues --   -1.13076  -1.13016  -1.12988  -1.12979  -1.12917
  Beta  occ. eigenvalues --   -0.18417  -0.13952  -0.10971
  Beta virt. eigenvalues --   -0.07379  -0.06302  -0.05068  -0.03815  -0.02940
  Beta virt. eigenvalues --   -0.02199  -0.01925  -0.01485  -0.01004  -0.00151
  Beta virt. eigenvalues --    0.00036   0.00247   0.00373   0.00647   0.00756

 Mulliken charges and spin densities:
               1          2
     1  Na  -0.260787   0.374453
     2  Na  -0.048260  -0.001125
     3  Na  -1.819480   0.747215
     4  Na   0.099910   0.148970
     5  Na   1.070310  -0.183382
     6  Na   0.446365   0.032831
     7  Na   0.511943  -0.118961
 Sum of Mulliken charges =  -0.00000   1.00000

 Dipole moment (field-independent basis, Debye):
    X=              0.1417    Y=              0.1831    Z=             -0.1314  Tot=              0.2662
 Quadrupole moment (field-independent basis, Debye-Ang):
   XX=            -50.4795   YY=            -75.5610   ZZ=            -67.7271
   XY=             -0.2057   XZ=              0.3549   YZ=              0.3744

 Normal termination of Gaussian 16 at Tue Nov 28 23:12:30 2023.
