 Gaussian 16, Revision B.01,
 Gaussian 16:  ES64L-G16RevB.01 20-Dec-2017

 -------------------------
 #P B3LYP/6-311+g(d) force
 -------------------------

 -----
 DPGEN
 -----
 Symbolic Z-matrix:
 Charge =  0 Multiplicity = 2

                         Standard orientation:
 ---------------------------------------------------------------------
 Center     Atomic      Atomic             Coordinates (Angstroms)
 Number     Number       Type             X           Y           Z
 ---------------------------------------------------------------------
      1         11           0        1.355355    3.016885    0.196893
      2         11           0       -0.999868    1.018231    1.612206
      3         11           0       -3.811680    0.534773   -1.607734
      4         11           0       -3.568613   -1.720540    1.006502
      5         11           0        2.791154   -2.802388   -0.058017
      6         11           0        0.338402   -0.234030   -0.969867
      7         11           0        3.895249    0.187069   -0.179983
 ---------------------------------------------------------------------

 SCF Done:  E(UB3LYP) =  -1136.11540814     A.U. after   25 cycles

 The electronic state is 2-A.
 Alpha  occ. eigenvalues --  -38.45406 -38.45021 -38.44848 -38.43732 -38.43615
 Alpha  occ. eigenvalues --  -38.43590 -38.43116  -2.21242  -2.20776  -2.20667
 Alpha  occ. eigenvalues --   -2.19544  -2.19487  -2.19404  -2.18940  -1.14977
 Alpha  occ. eigenvalues --   -1.14884  -1.14865  -1.14460  -1.14441  -1.14418
 Alpha  occ. eigenvalues --   -1.14348  -1.14322  -1.14296  -1.13198  -1.13197
 Alpha  occ. eigenvalues --   -1.13185  -1.13151  -1.13140  -1.13072  -1.13068
 Alpha  occ. eigenvalues --   -1.13057  -1.13047  -1.12610  -1.12598  -1.12580
 Alpha  occ. eigenvalues --   -0.17159  -0.14092  -0.11793  -0.09907
 Alpha virt. eigenvalues --   -0.07137  -0.05724  -0.04689  -0.03593  -0.02909
 Alpha virt. eigenvalues --   -0.02228  -0.02021  -0.01779  -0.00963  -0.00487
 Alpha virt. eigenvalues --   -0.00382  -0.00074   0.00248   0.00400   0.00577

  Beta  occ. eigenvalues --  -38.45400 -38.45031 -38.44834 -38.43640 -38.43584
  Beta  occ. eigenvalues --  -38.43563 -38.43108  -2.21234  -2.20797  -2.20641
  Beta  occ. eigenvalues --   -2.19393  -2.19390  -2.19371  -2.18926  -1.14951
  Beta  occ. eigenvalues --   -1.14876  -1.14864  -1.14478  -1.14437  -1.14422
  Beta  occ. eigenvalues --   -1.14329  -1.14305  -1.14274  -1.13134  -1.13078
  Beta  occ. eigenvalues --   -1.13071  -1.13067  -1.13065  -1.13045  -1.13039
  Beta  occ. eigenvalues --   -1.13037  -1.13003  -1.12600  -1.12581  -1.12571
  Beta  occ. eigenvalues --   -0.16731  -0.13672  -0.11670
  Beta virt. eigenvalues --   -0.06934  -0.06382  -0.05346  -0.04469  -0.03239
  Beta virt. eigenvalues --   -0.02677  -0.01990  -0.01609  -0.01419  -0.00867
  Beta virt. eigenvalues --   -0.00279  -0.00095   0.00126   0.00418   0.00554

 Mulliken charges and spin densities:
               1          2
     1  Na   0.126324  -0.003524
     2  Na  -0.167064   0.179005
     3  Na  -0.039704   0.564156
     4  Na   0.210123  -0.035357
     5  Na   0.425279  -0.042481
     6  Na  -0.924556   0.311309
     7  Na   0.369598   0.026892
 Sum of Mulliken charges =  -0.00000   1.00000

 Dipole moment (field-independent basis, Debye):
    X=              0.8329    Y=             -0.3887    Z=              0.8887  Tot=              1.2785
 Quadrupole moment (field-independent basis, Debye-Ang):
   XX=            -63.7601   YY=            -64.5810   ZZ=            -72.6438
   XY=              5.7813   XZ=             -4.2055   YZ=             -1.7605

 Normal termination of Gaussian 16 at Tue Dec  5 18:53:05 2023.
