 Gaussian 16, Revision B.01,
 Gaussian 16:  ES64L-G16RevB.01 20-Dec-2017

 -------------------------
 #P B3LYP/6-311+g(d) force
 -------------------------

 -----
 DPGEN
 -----
 Symbolic Z-matrix:
 Charge =  0 Multiplicity = 2

                         Standard orientation:
 ---------------------------------------------------------------------
 Center     Atomic      Atomic             Coordinates (Angstroms)
 Number     Number       Type             X           Y           Z
 ---------------------------------------------------------------------
      1         11           0        0.061427   -0.064542    1.881018
      2         11           0       -0.909239    2.756981    0.220356
      3         11           0        2.348249    1.683698   -0.062540
      4         11           0        2.734606   -1.749330   -0.160180
      5         11           0       -1.077040   -2.589346    0.178663
      6         11           0       -0.003778    0.137670   -1.786131
      7         11           0       -3.154225   -0.175130   -0.271185
 ---------------------------------------------------------------------

 SCF Done:  E(UB3LYP) =  -1136.13978172     A.U. after   19 cycles

 The electronic state is 2-A.
 Alpha  occ. eigenvalues --  -38.43989 -38.43812 -38.43642 -38.43356 -38.43355
 Alpha  occ. eigenvalues --  -38.43349 -38.43165  -2.19834  -2.19620  -2.19526
 Alpha  occ. eigenvalues --   -2.19309  -2.19292  -2.19234  -2.19031  -1.13513
 Alpha  occ. eigenvalues --   -1.13497  -1.13476  -1.13293  -1.13290  -1.13266
 Alpha  occ. eigenvalues --   -1.13224  -1.13200  -1.13141  -1.13016  -1.12983
 Alpha  occ. eigenvalues --   -1.12950  -1.12949  -1.12924  -1.12906  -1.12887
 Alpha  occ. eigenvalues --   -1.12873  -1.12852  -1.12700  -1.12693  -1.12662
 Alpha  occ. eigenvalues --   -0.18836  -0.13139  -0.12407  -0.10787
 Alpha virt. eigenvalues --   -0.05559  -0.05198  -0.04590  -0.03228  -0.02874
 Alpha virt. eigenvalues --   -0.02522  -0.01553  -0.01118  -0.00301  -0.00203
 Alpha virt. eigenvalues --   -0.00003   0.00362   0.00803   0.00898   0.00907

  Beta  occ. eigenvalues --  -38.43984 -38.43811 -38.43635 -38.43347 -38.43283
  Beta  occ. eigenvalues --  -38.43261 -38.43158  -2.19827  -2.19620  -2.19517
  Beta  occ. eigenvalues --   -2.19224  -2.19174  -2.19132  -2.19022  -1.13510
  Beta  occ. eigenvalues --   -1.13478  -1.13468  -1.13295  -1.13277  -1.13263
  Beta  occ. eigenvalues --   -1.13215  -1.13168  -1.13137  -1.12956  -1.12903
  Beta  occ. eigenvalues --   -1.12879  -1.12857  -1.12847  -1.12836  -1.12824
  Beta  occ. eigenvalues --   -1.12793  -1.12788  -1.12690  -1.12666  -1.12653
  Beta  occ. eigenvalues --   -0.18093  -0.12888  -0.12157
  Beta virt. eigenvalues --   -0.06876  -0.05505  -0.05211  -0.04561  -0.02425
  Beta virt. eigenvalues --   -0.02094  -0.01489  -0.01441  -0.01055  -0.00346
  Beta virt. eigenvalues --   -0.00254   0.00122   0.00379   0.00867   0.00882

 Mulliken charges and spin densities:
               1          2
     1  Na  -0.270183   0.703436
     2  Na   0.127646  -0.067734
     3  Na   0.209673  -0.070155
     4  Na  -0.009893  -0.113779
     5  Na   0.131617  -0.096232
     6  Na  -0.293382   0.683768
     7  Na   0.104522  -0.039303
 Sum of Mulliken charges =  -0.00000   1.00000

 Dipole moment (field-independent basis, Debye):
    X=              0.0020    Y=             -0.0406    Z=             -0.0304  Tot=              0.0508
 Quadrupole moment (field-independent basis, Debye-Ang):
   XX=            -56.0392   YY=            -63.1065   ZZ=            -74.1800
   XY=             -0.9229   XZ=              0.0298   YZ=              0.5053

 Normal termination of Gaussian 16 at Thu Dec  7 05:55:21 2023.
