 Gaussian 16, Revision B.01,
 Gaussian 16:  ES64L-G16RevB.01 20-Dec-2017

 -------------------------
 #P B3LYP/6-311+g(d) force
 -------------------------

 -----
 DPGEN
 -----
 Symbolic Z-matrix:
 Charge =  0 Multiplicity = 2

                         Standard orientation:
 ---------------------------------------------------------------------
 Center     Atomic      Atomic             Coordinates (Angstroms)
 Number     Number       Type             X           Y           Z
 ---------------------------------------------------------------------
      1         11           0        1.563711    2.514548   -0.041516
      2         11           0        1.172235   -0.748160    1.684504
      3         11           0        4.090366   -0.792362   -0.728184
      4         11           0       -1.658808    1.701092    0.585421
      5         11           0        0.440267   -1.142289   -1.258287
      6         11           0       -3.445567   -0.153080   -1.613563
      7         11           0       -2.162204   -1.379748    1.371625
 ---------------------------------------------------------------------

 SCF Done:  E(UB3LYP) =  -1136.12283156     A.U. after   25 cycles

 The electronic state is 2-A.
 Alpha  occ. eigenvalues --  -38.44930 -38.44724 -38.44491 -38.44226 -38.44097
 Alpha  occ. eigenvalues --  -38.42751 -38.42506  -2.20696  -2.20561  -2.20327
 Alpha  occ. eigenvalues --   -2.20137  -2.19996  -2.18648  -2.18317  -1.14372
 Alpha  occ. eigenvalues --   -1.14349  -1.14340  -1.14311  -1.14222  -1.14146
 Alpha  occ. eigenvalues --   -1.13979  -1.13976  -1.13945  -1.13858  -1.13761
 Alpha  occ. eigenvalues --   -1.13737  -1.13679  -1.13641  -1.13611  -1.12345
 Alpha  occ. eigenvalues --   -1.12330  -1.12269  -1.12000  -1.11976  -1.11948
 Alpha  occ. eigenvalues --   -0.18360  -0.13972  -0.11508  -0.10808
 Alpha virt. eigenvalues --   -0.06790  -0.05127  -0.04784  -0.03154  -0.02755
 Alpha virt. eigenvalues --   -0.02517  -0.02193  -0.01195  -0.00815  -0.00213
 Alpha virt. eigenvalues --    0.00055   0.00238   0.00296   0.00544   0.00656

  Beta  occ. eigenvalues --  -38.44906 -38.44719 -38.44429 -38.44168 -38.44054
  Beta  occ. eigenvalues --  -38.42745 -38.42505  -2.20652  -2.20556  -2.20209
  Beta  occ. eigenvalues --   -2.20034  -2.19922  -2.18639  -2.18317  -1.14340
  Beta  occ. eigenvalues --   -1.14318  -1.14317  -1.14284  -1.14215  -1.14144
  Beta  occ. eigenvalues --   -1.13897  -1.13893  -1.13871  -1.13792  -1.13670
  Beta  occ. eigenvalues --   -1.13662  -1.13629  -1.13591  -1.13524  -1.12328
  Beta  occ. eigenvalues --   -1.12318  -1.12257  -1.11997  -1.11976  -1.11947
  Beta  occ. eigenvalues --   -0.17644  -0.13628  -0.10693
  Beta virt. eigenvalues --   -0.07658  -0.06531  -0.04712  -0.04457  -0.02945
  Beta virt. eigenvalues --   -0.02535  -0.01839  -0.01681  -0.00893  -0.00618
  Beta virt. eigenvalues --   -0.00106   0.00139   0.00339   0.00394   0.00646

 Mulliken charges and spin densities:
               1          2
     1  Na  -0.204977  -0.120279
     2  Na   0.121777   0.173123
     3  Na   0.473909   0.170455
     4  Na  -0.589295   0.298889
     5  Na  -0.741952   0.202835
     6  Na   0.567548   0.188450
     7  Na   0.372989   0.086526
 Sum of Mulliken charges =  -0.00000   1.00000

 Dipole moment (field-independent basis, Debye):
    X=              0.4032    Y=             -0.6989    Z=             -0.2464  Tot=              0.8437
 Quadrupole moment (field-independent basis, Debye-Ang):
   XX=            -49.0041   YY=            -79.9618   ZZ=            -65.5125
   XY=              1.1945   XZ=             -0.0714   YZ=             -2.9011

 Normal termination of Gaussian 16 at Tue Dec  5 21:08:29 2023.
