 Gaussian 16, Revision B.01,
 Gaussian 16:  ES64L-G16RevB.01 20-Dec-2017

 -------------------------
 #P B3LYP/6-311+g(d) force
 -------------------------

 -----
 DPGEN
 -----
 Symbolic Z-matrix:
 Charge =  0 Multiplicity = 2

                         Standard orientation:
 ---------------------------------------------------------------------
 Center     Atomic      Atomic             Coordinates (Angstroms)
 Number     Number       Type             X           Y           Z
 ---------------------------------------------------------------------
      1         11           0       -2.737432   -1.178876   -1.206218
      2         11           0        2.647400   -0.679363    1.553220
      3         11           0       -1.085218   -1.049623    1.581499
      4         11           0       -3.643140    1.690514    0.479323
      5         11           0        3.811777    1.034378   -0.792676
      6         11           0        0.637085   -1.567036   -1.244886
      7         11           0        0.369528    1.750005   -0.370262
 ---------------------------------------------------------------------

 SCF Done:  E(UB3LYP) =  -1136.12069919     A.U. after   25 cycles

 The electronic state is 2-A.
 Alpha  occ. eigenvalues --  -38.45192 -38.44568 -38.44489 -38.44449 -38.43609
 Alpha  occ. eigenvalues --  -38.43411 -38.42856  -2.20998  -2.20438  -2.20325
 Alpha  occ. eigenvalues --   -2.20315  -2.19506  -2.19196  -2.18768  -1.14702
 Alpha  occ. eigenvalues --   -1.14693  -1.14581  -1.14131  -1.14099  -1.14079
 Alpha  occ. eigenvalues --   -1.14043  -1.13992  -1.13971  -1.13963  -1.13945
 Alpha  occ. eigenvalues --   -1.13890  -1.13207  -1.13170  -1.13103  -1.12874
 Alpha  occ. eigenvalues --   -1.12863  -1.12837  -1.12476  -1.12413  -1.12380
 Alpha  occ. eigenvalues --   -0.18392  -0.14369  -0.11074  -0.10850
 Alpha virt. eigenvalues --   -0.07220  -0.05356  -0.04883  -0.03127  -0.02912
 Alpha virt. eigenvalues --   -0.02408  -0.02019  -0.01413  -0.01024  -0.00217
 Alpha virt. eigenvalues --    0.00016   0.00223   0.00316   0.00425   0.00640

  Beta  occ. eigenvalues --  -38.45161 -38.44540 -38.44488 -38.44404 -38.43572
  Beta  occ. eigenvalues --  -38.43417 -38.42825  -2.20944  -2.20387  -2.20317
  Beta  occ. eigenvalues --   -2.20238  -2.19439  -2.19208  -2.18713  -1.14665
  Beta  occ. eigenvalues --   -1.14635  -1.14541  -1.14095  -1.14062  -1.14058
  Beta  occ. eigenvalues --   -1.14004  -1.13969  -1.13950  -1.13923  -1.13903
  Beta  occ. eigenvalues --   -1.13847  -1.13165  -1.13107  -1.13053  -1.12882
  Beta  occ. eigenvalues --   -1.12869  -1.12843  -1.12442  -1.12351  -1.12340
  Beta  occ. eigenvalues --   -0.17738  -0.14270  -0.10749
  Beta virt. eigenvalues --   -0.07099  -0.07062  -0.05228  -0.04253  -0.02858
  Beta virt. eigenvalues --   -0.02819  -0.01864  -0.01433  -0.01138  -0.00560
  Beta virt. eigenvalues --   -0.00183   0.00027   0.00237   0.00434   0.00555

 Mulliken charges and spin densities:
               1          2
     1  Na   0.246564   0.062956
     2  Na   0.031360   0.138942
     3  Na  -0.253312   0.401004
     4  Na   0.368767  -0.164335
     5  Na   0.919921  -0.006333
     6  Na  -0.254394   0.291310
     7  Na  -1.058906   0.276456
 Sum of Mulliken charges =  -0.00000   1.00000

 Dipole moment (field-independent basis, Debye):
    X=              0.7545    Y=             -0.4104    Z=             -0.2011  Tot=              0.8821
 Quadrupole moment (field-independent basis, Debye-Ang):
   XX=            -51.1762   YY=            -75.5921   ZZ=            -70.2832
   XY=              1.8584   XZ=              0.6468   YZ=              0.0745

 Normal termination of Gaussian 16 at Thu Dec  7 08:46:54 2023.
