 Gaussian 16, Revision B.01,
 Gaussian 16:  ES64L-G16RevB.01 20-Dec-2017

 -------------------------
 #P B3LYP/6-311+g(d) force
 -------------------------

 -----
 DPGEN
 -----
 Symbolic Z-matrix:
 Charge =  0 Multiplicity = 2

                         Standard orientation:
 ---------------------------------------------------------------------
 Center     Atomic      Atomic             Coordinates (Angstroms)
 Number     Number       Type             X           Y           Z
 ---------------------------------------------------------------------
      1         11           0        3.423055   -0.647221   -0.286752
      2         11           0        0.045320    0.106768    2.108816
      3         11           0        0.390656   -2.450291    0.012448
      4         11           0       -2.102791    2.135693   -0.124115
      5         11           0        1.669010    2.196971   -0.076757
      6         11           0       -3.002886   -1.327337   -0.022576
      7         11           0       -0.422365   -0.014583   -1.611064
 ---------------------------------------------------------------------

 SCF Done:  E(UB3LYP) =  -1136.13325021     A.U. after   19 cycles

 The electronic state is 2-A.
 Alpha  occ. eigenvalues --  -38.44515 -38.44310 -38.43629 -38.43499 -38.43414
 Alpha  occ. eigenvalues --  -38.43294 -38.42903  -2.20315  -2.20142  -2.19532
 Alpha  occ. eigenvalues --   -2.19432  -2.19360  -2.19158  -2.18813  -1.13984
 Alpha  occ. eigenvalues --   -1.13978  -1.13954  -1.13823  -1.13798  -1.13780
 Alpha  occ. eigenvalues --   -1.13209  -1.13181  -1.13160  -1.13146  -1.13133
 Alpha  occ. eigenvalues --   -1.13050  -1.13015  -1.12981  -1.12976  -1.12837
 Alpha  occ. eigenvalues --   -1.12832  -1.12777  -1.12523  -1.12484  -1.12400
 Alpha  occ. eigenvalues --   -0.18829  -0.13336  -0.12074  -0.10837
 Alpha virt. eigenvalues --   -0.06185  -0.05260  -0.03933  -0.03287  -0.02716
 Alpha virt. eigenvalues --   -0.02622  -0.02006  -0.01184  -0.00245  -0.00074
 Alpha virt. eigenvalues --   -0.00030   0.00294   0.00733   0.00867   0.00913

  Beta  occ. eigenvalues --  -38.44512 -38.44308 -38.43524 -38.43494 -38.43356
  Beta  occ. eigenvalues --  -38.43288 -38.42893  -2.20311  -2.20141  -2.19355
  Beta  occ. eigenvalues --   -2.19337  -2.19326  -2.19150  -2.18798  -1.13983
  Beta  occ. eigenvalues --   -1.13963  -1.13953  -1.13814  -1.13792  -1.13777
  Beta  occ. eigenvalues --   -1.13137  -1.13091  -1.13054  -1.13022  -1.13013
  Beta  occ. eigenvalues --   -1.12994  -1.12980  -1.12965  -1.12936  -1.12831
  Beta  occ. eigenvalues --   -1.12799  -1.12775  -1.12513  -1.12437  -1.12395
  Beta  occ. eigenvalues --   -0.18092  -0.13115  -0.11819
  Beta virt. eigenvalues --   -0.06894  -0.06095  -0.05269  -0.03934  -0.02538
  Beta virt. eigenvalues --   -0.01939  -0.01880  -0.01529  -0.01145  -0.00290
  Beta virt. eigenvalues --   -0.00068   0.00090   0.00325   0.00797   0.00858

 Mulliken charges and spin densities:
               1          2
     1  Na  -0.060478  -0.026956
     2  Na  -0.594744   0.714560
     3  Na   0.319921  -0.001885
     4  Na   0.273172  -0.077366
     5  Na   0.281827  -0.023586
     6  Na   0.317753  -0.054168
     7  Na  -0.537449   0.469401
 Sum of Mulliken charges =  -0.00000   1.00000

 Dipole moment (field-independent basis, Debye):
    X=             -0.0883    Y=             -0.0657    Z=              0.1819  Tot=              0.2126
 Quadrupole moment (field-independent basis, Debye-Ang):
   XX=            -50.6111   YY=            -68.1349   ZZ=            -73.8704
   XY=              0.0437   XZ=             -1.2726   YZ=             -0.1146

 Normal termination of Gaussian 16 at Fri Dec  8 01:38:37 2023.
