 Gaussian 16, Revision B.01,
 Gaussian 16:  ES64L-G16RevB.01 20-Dec-2017

 -------------------------
 #P B3LYP/6-311+g(d) force
 -------------------------

 -----
 DPGEN
 -----
 Symbolic Z-matrix:
 Charge =  0 Multiplicity = 2

                         Standard orientation:
 ---------------------------------------------------------------------
 Center     Atomic      Atomic             Coordinates (Angstroms)
 Number     Number       Type             X           Y           Z
 ---------------------------------------------------------------------
      1         11           0       -2.942691   -1.049628    0.227852
      2         11           0       -1.997646    2.400631   -0.269724
      3         11           0       -0.142913   -0.333641   -1.905024
      4         11           0        2.887657   -0.772300   -0.130447
      5         11           0        0.192015   -2.629898   -0.139073
      6         11           0        1.830433    2.402353   -0.072977
      7         11           0        0.173146   -0.017517    2.289392
 ---------------------------------------------------------------------

 SCF Done:  E(UB3LYP) =  -1136.13539202     A.U. after   19 cycles

 The electronic state is 2-A.
 Alpha  occ. eigenvalues --  -38.44324 -38.43942 -38.43879 -38.43692 -38.43650
 Alpha  occ. eigenvalues --  -38.43500 -38.43047  -2.20169  -2.19824  -2.19759
 Alpha  occ. eigenvalues --   -2.19523  -2.19479  -2.19313  -2.18986  -1.13825
 Alpha  occ. eigenvalues --   -1.13797  -1.13787  -1.13571  -1.13456  -1.13446
 Alpha  occ. eigenvalues --   -1.13428  -1.13403  -1.13402  -1.13196  -1.13191
 Alpha  occ. eigenvalues --   -1.13176  -1.13159  -1.13138  -1.13117  -1.12985
 Alpha  occ. eigenvalues --   -1.12975  -1.12949  -1.12693  -1.12630  -1.12590
 Alpha  occ. eigenvalues --   -0.18548  -0.12881  -0.12279  -0.11310
 Alpha virt. eigenvalues --   -0.05446  -0.05263  -0.04467  -0.03390  -0.03240
 Alpha virt. eigenvalues --   -0.02984  -0.01356  -0.00961  -0.00322  -0.00143
 Alpha virt. eigenvalues --   -0.00093   0.00385   0.00778   0.00867   0.00904

  Beta  occ. eigenvalues --  -38.44223 -38.43939 -38.43807 -38.43690 -38.43646
  Beta  occ. eigenvalues --  -38.43499 -38.43036  -2.19982  -2.19756  -2.19694
  Beta  occ. eigenvalues --   -2.19519  -2.19477  -2.19313  -2.18973  -1.13702
  Beta  occ. eigenvalues --   -1.13665  -1.13652  -1.13487  -1.13423  -1.13409
  Beta  occ. eigenvalues --   -1.13404  -1.13363  -1.13327  -1.13194  -1.13190
  Beta  occ. eigenvalues --   -1.13149  -1.13144  -1.13137  -1.13119  -1.12978
  Beta  occ. eigenvalues --   -1.12968  -1.12951  -1.12675  -1.12598  -1.12578
  Beta  occ. eigenvalues --   -0.17770  -0.12691  -0.12055
  Beta virt. eigenvalues --   -0.07342  -0.05411  -0.05221  -0.04376  -0.02605
  Beta virt. eigenvalues --   -0.02342  -0.02055  -0.01265  -0.00897  -0.00372
  Beta virt. eigenvalues --   -0.00197   0.00070   0.00409   0.00877   0.00897

 Mulliken charges and spin densities:
               1          2
     1  Na   0.110451  -0.029907
     2  Na  -0.045029  -0.092962
     3  Na  -0.237578   0.454411
     4  Na   0.247370  -0.024917
     5  Na   0.552760   0.086187
     6  Na  -0.033502  -0.081004
     7  Na  -0.594472   0.688193
 Sum of Mulliken charges =  -0.00000   1.00000

 Dipole moment (field-independent basis, Debye):
    X=             -0.1707    Y=              0.0713    Z=              0.2196  Tot=              0.2872
 Quadrupole moment (field-independent basis, Debye-Ang):
   XX=            -59.1116   YY=            -65.9555   ZZ=            -70.7108
   XY=              0.1913   XZ=             -0.7611   YZ=             -0.8563

 Normal termination of Gaussian 16 at Thu Dec  7 03:09:11 2023.
