 Gaussian 16, Revision B.01,
 Gaussian 16:  ES64L-G16RevB.01 20-Dec-2017

 -------------------------
 #P B3LYP/6-311+g(d) force
 -------------------------

 -----
 DPGEN
 -----
 Symbolic Z-matrix:
 Charge =  0 Multiplicity = 2

                         Standard orientation:
 ---------------------------------------------------------------------
 Center     Atomic      Atomic             Coordinates (Angstroms)
 Number     Number       Type             X           Y           Z
 ---------------------------------------------------------------------
      1         11           0        2.824256    1.831594   -0.223675
      2         11           0       -0.729845    1.681469   -1.539025
      3         11           0       -0.922734    0.237512    1.872032
      4         11           0       -4.055350    0.479072    0.876714
      5         11           0        0.949735   -1.594172   -0.883959
      6         11           0       -2.361723   -1.660027   -0.911663
      7         11           0        4.295660   -0.975448    0.809577
 ---------------------------------------------------------------------

 SCF Done:  E(UB3LYP) =  -1136.11481970     A.U. after   32 cycles

 The electronic state is 2-A.
 Alpha  occ. eigenvalues --  -38.45793 -38.44673 -38.44235 -38.44141 -38.43997
 Alpha  occ. eigenvalues --  -38.43296 -38.43003  -2.21597  -2.20472  -2.20068
 Alpha  occ. eigenvalues --   -2.20032  -2.19798  -2.19139  -2.18869  -1.15293
 Alpha  occ. eigenvalues --   -1.15254  -1.15212  -1.14157  -1.14129  -1.14108
 Alpha  occ. eigenvalues --   -1.13743  -1.13727  -1.13715  -1.13688  -1.13669
 Alpha  occ. eigenvalues --   -1.13641  -1.13456  -1.13452  -1.13429  -1.12820
 Alpha  occ. eigenvalues --   -1.12792  -1.12781  -1.12582  -1.12521  -1.12475
 Alpha  occ. eigenvalues --   -0.17935  -0.14178  -0.11584  -0.10612
 Alpha virt. eigenvalues --   -0.07292  -0.05703  -0.04397  -0.03313  -0.02969
 Alpha virt. eigenvalues --   -0.02598  -0.02131  -0.01532  -0.01173  -0.00479
 Alpha virt. eigenvalues --   -0.00226   0.00142   0.00279   0.00443   0.00614

  Beta  occ. eigenvalues --  -38.45784 -38.44653 -38.44169 -38.44108 -38.43967
  Beta  occ. eigenvalues --  -38.43299 -38.42971  -2.21582  -2.20437  -2.19972
  Beta  occ. eigenvalues --   -2.19947  -2.19742  -2.19146  -2.18813  -1.15260
  Beta  occ. eigenvalues --   -1.15250  -1.15205  -1.14136  -1.14112  -1.14056
  Beta  occ. eigenvalues --   -1.13674  -1.13658  -1.13645  -1.13625  -1.13608
  Beta  occ. eigenvalues --   -1.13584  -1.13418  -1.13410  -1.13394  -1.12822
  Beta  occ. eigenvalues --   -1.12794  -1.12784  -1.12545  -1.12472  -1.12431
  Beta  occ. eigenvalues --   -0.17334  -0.13896  -0.10416
  Beta virt. eigenvalues --   -0.07757  -0.07158  -0.05014  -0.04264  -0.02919
  Beta virt. eigenvalues --   -0.02768  -0.02092  -0.01716  -0.01140  -0.00915
  Beta virt. eigenvalues --   -0.00276  -0.00196   0.00244   0.00311   0.00566

 Mulliken charges and spin densities:
               1          2
     1  Na   0.099868   0.073559
     2  Na  -0.193277   0.356269
     3  Na  -0.390435   0.101676
     4  Na   0.501239  -0.027609
     5  Na  -0.368711   0.280643
     6  Na  -0.036518   0.151847
     7  Na   0.387833   0.063614
 Sum of Mulliken charges =  -0.00000   1.00000

 Dipole moment (field-independent basis, Debye):
    X=             -0.1304    Y=              0.2057    Z=             -0.3988  Tot=              0.4673
 Quadrupole moment (field-independent basis, Debye-Ang):
   XX=            -62.2369   YY=            -67.3817   ZZ=            -73.8395
   XY=              0.4937   XZ=              6.3734   YZ=             -4.0130

 Normal termination of Gaussian 16 at Thu Dec  7 12:25:15 2023.
