 Gaussian 16, Revision B.01,
 Gaussian 16:  ES64L-G16RevB.01 20-Dec-2017

 -------------------------
 #P B3LYP/6-311+g(d) force
 -------------------------

 -----
 DPGEN
 -----
 Symbolic Z-matrix:
 Charge =  0 Multiplicity = 2

                         Standard orientation:
 ---------------------------------------------------------------------
 Center     Atomic      Atomic             Coordinates (Angstroms)
 Number     Number       Type             X           Y           Z
 ---------------------------------------------------------------------
      1         11           0        0.837558    2.660671    0.886917
      2         11           0        2.505178   -2.170960    0.023239
      3         11           0       -3.669763   -0.790871    0.643573
      4         11           0       -1.152384   -1.590788   -1.949373
      5         11           0        3.693168    0.592416   -0.550743
      6         11           0       -0.382283   -0.919941    2.126388
      7         11           0       -1.831473    2.219472   -1.180001
 ---------------------------------------------------------------------

 SCF Done:  E(UB3LYP) =  -1136.11550540     A.U. after   22 cycles

 The electronic state is 2-A.
 Alpha  occ. eigenvalues --  -38.45393 -38.45108 -38.44798 -38.44457 -38.43991
 Alpha  occ. eigenvalues --  -38.43824 -38.43029  -2.21149  -2.20897  -2.20567
 Alpha  occ. eigenvalues --   -2.20263  -2.19771  -2.19635  -2.18813  -1.14821
 Alpha  occ. eigenvalues --   -1.14814  -1.14791  -1.14586  -1.14558  -1.14526
 Alpha  occ. eigenvalues --   -1.14235  -1.14211  -1.14186  -1.13911  -1.13901
 Alpha  occ. eigenvalues --   -1.13886  -1.13452  -1.13432  -1.13396  -1.13318
 Alpha  occ. eigenvalues --   -1.13292  -1.13279  -1.12488  -1.12480  -1.12456
 Alpha  occ. eigenvalues --   -0.16943  -0.13452  -0.11596  -0.11038
 Alpha virt. eigenvalues --   -0.07054  -0.05778  -0.03986  -0.03731  -0.03241
 Alpha virt. eigenvalues --   -0.02950  -0.02194  -0.01122  -0.00732  -0.00416
 Alpha virt. eigenvalues --   -0.00246   0.00006   0.00166   0.00417   0.00619

  Beta  occ. eigenvalues --  -38.45395 -38.45103 -38.44739 -38.44364 -38.43969
  Beta  occ. eigenvalues --  -38.43824 -38.43025  -2.21157  -2.20888  -2.20457
  Beta  occ. eigenvalues --   -2.20090  -2.19732  -2.19637  -2.18808  -1.14826
  Beta  occ. eigenvalues --   -1.14808  -1.14788  -1.14582  -1.14550  -1.14519
  Beta  occ. eigenvalues --   -1.14160  -1.14133  -1.14109  -1.13795  -1.13779
  Beta  occ. eigenvalues --   -1.13766  -1.13423  -1.13406  -1.13366  -1.13317
  Beta  occ. eigenvalues --   -1.13283  -1.13281  -1.12483  -1.12469  -1.12453
  Beta  occ. eigenvalues --   -0.16276  -0.13271  -0.11456
  Beta virt. eigenvalues --   -0.07292  -0.06842  -0.05584  -0.03710  -0.03189
  Beta virt. eigenvalues --   -0.02730  -0.02345  -0.01928  -0.01036  -0.00648
  Beta virt. eigenvalues --   -0.00230  -0.00162   0.00206   0.00278   0.00536

 Mulliken charges and spin densities:
               1          2
     1  Na  -0.016544   0.014392
     2  Na   0.005904   0.108611
     3  Na   0.402073  -0.072108
     4  Na  -0.233958   0.421422
     5  Na   0.137374  -0.065728
     6  Na  -0.271850   0.513955
     7  Na  -0.022999   0.079456
 Sum of Mulliken charges =  -0.00000   1.00000

 Dipole moment (field-independent basis, Debye):
    X=             -0.5457    Y=             -0.4966    Z=             -0.3058  Tot=              0.7987
 Quadrupole moment (field-independent basis, Debye-Ang):
   XX=            -52.3907   YY=            -74.3744   ZZ=            -70.8801
   XY=              1.5473   XZ=             -1.7781   YZ=             -0.3669

 Normal termination of Gaussian 16 at Sun Dec  3 20:14:49 2023.
