 Gaussian 16, Revision B.01,
 Gaussian 16:  ES64L-G16RevB.01 20-Dec-2017

 -------------------------
 #P B3LYP/6-311+g(d) force
 -------------------------

 -----
 DPGEN
 -----
 Symbolic Z-matrix:
 Charge =  0 Multiplicity = 2

                         Standard orientation:
 ---------------------------------------------------------------------
 Center     Atomic      Atomic             Coordinates (Angstroms)
 Number     Number       Type             X           Y           Z
 ---------------------------------------------------------------------
      1         11           0        1.565817    3.501141    0.200337
      2         11           0        4.077697    0.818182   -0.417485
      3         11           0        3.343992   -2.368132    0.445288
      4         11           0       -0.128414   -2.885443   -0.267540
      5         11           0       -0.861842    1.359210    0.000044
      6         11           0       -3.454770   -1.865294    0.040551
      7         11           0       -4.542479    1.440337   -0.001194
 ---------------------------------------------------------------------

 SCF Done:  E(UB3LYP) =  -1136.11877936     A.U. after   21 cycles

 The electronic state is 2-A.
 Alpha  occ. eigenvalues --  -38.45083 -38.45045 -38.44729 -38.44272 -38.43945
 Alpha  occ. eigenvalues --  -38.43668 -38.43563  -2.20872  -2.20818  -2.20516
 Alpha  occ. eigenvalues --   -2.20088  -2.19733  -2.19465  -2.19371  -1.14559
 Alpha  occ. eigenvalues --   -1.14535  -1.14508  -1.14498  -1.14481  -1.14436
 Alpha  occ. eigenvalues --   -1.14220  -1.14198  -1.14128  -1.13733  -1.13733
 Alpha  occ. eigenvalues --   -1.13700  -1.13405  -1.13399  -1.13374  -1.13138
 Alpha  occ. eigenvalues --   -1.13132  -1.13085  -1.13040  -1.13027  -1.13003
 Alpha  occ. eigenvalues --   -0.16203  -0.14117  -0.12757  -0.10866
 Alpha virt. eigenvalues --   -0.07061  -0.05180  -0.04308  -0.03593  -0.03219
 Alpha virt. eigenvalues --   -0.02504  -0.02217  -0.01721  -0.01159  -0.00522
 Alpha virt. eigenvalues --   -0.00320  -0.00025   0.00274   0.00538   0.00630

  Beta  occ. eigenvalues --  -38.45066 -38.45008 -38.44710 -38.44192 -38.43933
  Beta  occ. eigenvalues --  -38.43630 -38.43542  -2.20849  -2.20753  -2.20483
  Beta  occ. eigenvalues --   -2.19939  -2.19713  -2.19396  -2.19335  -1.14550
  Beta  occ. eigenvalues --   -1.14519  -1.14456  -1.14448  -1.14438  -1.14376
  Beta  occ. eigenvalues --   -1.14200  -1.14170  -1.14093  -1.13631  -1.13628
  Beta  occ. eigenvalues --   -1.13605  -1.13394  -1.13386  -1.13346  -1.13092
  Beta  occ. eigenvalues --   -1.13085  -1.13035  -1.13006  -1.13002  -1.12984
  Beta  occ. eigenvalues --   -0.15661  -0.13396  -0.12295
  Beta virt. eigenvalues --   -0.07515  -0.07054  -0.04887  -0.03956  -0.03210
  Beta virt. eigenvalues --   -0.02744  -0.02295  -0.01967  -0.01596  -0.00995
  Beta virt. eigenvalues --   -0.00223  -0.00052   0.00243   0.00430   0.00585

 Mulliken charges and spin densities:
               1          2
     1  Na   0.753935  -0.118786
     2  Na  -0.094365   0.245207
     3  Na  -0.001746   0.133055
     4  Na  -0.338087   0.069643
     5  Na  -1.951730   0.141500
     6  Na   0.922667   0.087653
     7  Na   0.709326   0.441729
 Sum of Mulliken charges =  -0.00000   1.00000

 Dipole moment (field-independent basis, Debye):
    X=             -0.4782    Y=              0.3013    Z=              0.0046  Tot=              0.5652
 Quadrupole moment (field-independent basis, Debye-Ang):
   XX=            -58.8146   YY=            -64.5290   ZZ=            -73.2075
   XY=              5.1627   XZ=             -0.5116   YZ=             -0.8084

 Normal termination of Gaussian 16 at Sun Dec  3 13:53:09 2023.
