 Gaussian 16, Revision B.01,
 Gaussian 16:  ES64L-G16RevB.01 20-Dec-2017

 -------------------------
 #P B3LYP/6-311+g(d) force
 -------------------------

 -----
 DPGEN
 -----
 Symbolic Z-matrix:
 Charge =  0 Multiplicity = 2

                         Standard orientation:
 ---------------------------------------------------------------------
 Center     Atomic      Atomic             Coordinates (Angstroms)
 Number     Number       Type             X           Y           Z
 ---------------------------------------------------------------------
      1         11           0       -1.565184    1.149377   -0.498432
      2         11           0        0.488165    0.957961    1.948011
      3         11           0       -3.705195   -0.839956   -0.812066
      4         11           0       -1.389410   -1.505829    1.094065
      5         11           0        1.264904    2.618083   -0.595066
      6         11           0        1.123030   -0.683707   -0.688951
      7         11           0        3.783689   -1.695929   -0.447562
 ---------------------------------------------------------------------

 SCF Done:  E(UB3LYP) =  -1136.11008874     A.U. after   24 cycles

 The electronic state is 2-A.
 Alpha  occ. eigenvalues --  -38.44471 -38.44027 -38.43978 -38.43648 -38.43622
 Alpha  occ. eigenvalues --  -38.43463 -38.43011  -2.20375  -2.20036  -2.19983
 Alpha  occ. eigenvalues --   -2.19554  -2.19541  -2.19474  -2.19069  -1.14106
 Alpha  occ. eigenvalues --   -1.14038  -1.13989  -1.13802  -1.13698  -1.13677
 Alpha  occ. eigenvalues --   -1.13649  -1.13607  -1.13570  -1.13294  -1.13255
 Alpha  occ. eigenvalues --   -1.13230  -1.13206  -1.13190  -1.13177  -1.13105
 Alpha  occ. eigenvalues --   -1.13098  -1.13092  -1.12745  -1.12698  -1.12670
 Alpha  occ. eigenvalues --   -0.19565  -0.13975  -0.11922  -0.11383
 Alpha virt. eigenvalues --   -0.06399  -0.05174  -0.04193  -0.03135  -0.02649
 Alpha virt. eigenvalues --   -0.02174  -0.01958  -0.01331  -0.00706   0.00046
 Alpha virt. eigenvalues --    0.00115   0.00290   0.00653   0.00742   0.00811

  Beta  occ. eigenvalues --  -38.44443 -38.43956 -38.43929 -38.43638 -38.43601
  Beta  occ. eigenvalues --  -38.43436 -38.42996  -2.20323  -2.19910  -2.19899
  Beta  occ. eigenvalues --   -2.19510  -2.19502  -2.19457  -2.19047  -1.14070
  Beta  occ. eigenvalues --   -1.13998  -1.13952  -1.13716  -1.13626  -1.13600
  Beta  occ. eigenvalues --   -1.13559  -1.13551  -1.13470  -1.13272  -1.13234
  Beta  occ. eigenvalues --   -1.13198  -1.13165  -1.13143  -1.13139  -1.13093
  Beta  occ. eigenvalues --   -1.13085  -1.13064  -1.12698  -1.12685  -1.12652
  Beta  occ. eigenvalues --   -0.18788  -0.13686  -0.11653
  Beta virt. eigenvalues --   -0.07473  -0.06107  -0.04968  -0.03758  -0.02848
  Beta virt. eigenvalues --   -0.02092  -0.01859  -0.01531  -0.01138  -0.00298
  Beta virt. eigenvalues --    0.00112   0.00168   0.00433   0.00741   0.00818

 Mulliken charges and spin densities:
               1          2
     1  Na  -0.003586   0.398686
     2  Na  -0.052111   0.152619
     3  Na   0.713231   0.057089
     4  Na   0.364624   0.127208
     5  Na   0.192715   0.100128
     6  Na  -0.954009   0.294801
     7  Na  -0.260863  -0.130530
 Sum of Mulliken charges =  -0.00000   1.00000

 Dipole moment (field-independent basis, Debye):
    X=             -0.6462    Y=              0.6027    Z=              0.6180  Tot=              1.0783
 Quadrupole moment (field-independent basis, Debye-Ang):
   XX=            -56.2267   YY=            -69.0149   ZZ=            -68.8969
   XY=              6.0736   XZ=              2.8771   YZ=             -1.1631

 Normal termination of Gaussian 16 at Fri Dec  8 20:20:00 2023.
