 Gaussian 16, Revision B.01,
 Gaussian 16:  ES64L-G16RevB.01 20-Dec-2017

 -------------------------
 #P B3LYP/6-311+g(d) force
 -------------------------

 -----
 DPGEN
 -----
 Symbolic Z-matrix:
 Charge =  0 Multiplicity = 2

                         Standard orientation:
 ---------------------------------------------------------------------
 Center     Atomic      Atomic             Coordinates (Angstroms)
 Number     Number       Type             X           Y           Z
 ---------------------------------------------------------------------
      1         11           0        2.664645    0.233879   -1.452592
      2         11           0       -2.838154   -0.098235    1.847319
      3         11           0       -1.632858    1.726877   -1.869727
      4         11           0        1.760782   -1.796408    1.734284
      5         11           0        1.061717    2.506588    1.285873
      6         11           0        0.028549   -0.249826    0.025619
      7         11           0       -1.044681   -2.322875   -1.570777
 ---------------------------------------------------------------------

 SCF Done:  E(UB3LYP) =  -1136.10808282     A.U. after   24 cycles

 The electronic state is 2-A.
 Alpha  occ. eigenvalues --  -38.45015 -38.44732 -38.44211 -38.44205 -38.43915
 Alpha  occ. eigenvalues --  -38.43617 -38.41669  -2.20781  -2.20541  -2.20037
 Alpha  occ. eigenvalues --   -2.20001  -2.19750  -2.19412  -2.17937  -1.14446
 Alpha  occ. eigenvalues --   -1.14409  -1.14400  -1.14257  -1.14170  -1.14149
 Alpha  occ. eigenvalues --   -1.13790  -1.13696  -1.13651  -1.13639  -1.13630
 Alpha  occ. eigenvalues --   -1.13617  -1.13526  -1.13370  -1.13337  -1.13115
 Alpha  occ. eigenvalues --   -1.13053  -1.13032  -1.11707  -1.11574  -1.11556
 Alpha  occ. eigenvalues --   -0.17978  -0.12107  -0.11669  -0.11175
 Alpha virt. eigenvalues --   -0.05917  -0.05224  -0.04192  -0.02923  -0.02732
 Alpha virt. eigenvalues --   -0.02607  -0.01623  -0.01216  -0.00957   0.00197
 Alpha virt. eigenvalues --    0.00207   0.00267   0.00418   0.00792   0.00844

  Beta  occ. eigenvalues --  -38.44959 -38.44713 -38.44185 -38.44176 -38.43892
  Beta  occ. eigenvalues --  -38.43606 -38.41641  -2.20676  -2.20508  -2.19985
  Beta  occ. eigenvalues --   -2.19954  -2.19708  -2.19393  -2.17899  -1.14366
  Beta  occ. eigenvalues --   -1.14337  -1.14332  -1.14231  -1.14140  -1.14127
  Beta  occ. eigenvalues --   -1.13753  -1.13660  -1.13609  -1.13601  -1.13597
  Beta  occ. eigenvalues --   -1.13585  -1.13498  -1.13329  -1.13310  -1.13099
  Beta  occ. eigenvalues --   -1.13033  -1.13021  -1.11597  -1.11557  -1.11531
  Beta  occ. eigenvalues --   -0.17155  -0.11852  -0.11025
  Beta virt. eigenvalues --   -0.07937  -0.05312  -0.04981  -0.03971  -0.02667
  Beta virt. eigenvalues --   -0.02328  -0.01928  -0.01395  -0.00936  -0.00738
  Beta virt. eigenvalues --    0.00298   0.00321   0.00358   0.00467   0.00838

 Mulliken charges and spin densities:
               1          2
     1  Na  -0.105321  -0.246776
     2  Na   0.500925  -0.075130
     3  Na  -0.069802  -0.239214
     4  Na   0.096855  -0.033438
     5  Na   0.609969  -0.324573
     6  Na  -0.691797   2.157248
     7  Na  -0.340829  -0.238117
 Sum of Mulliken charges =  -0.00000   1.00000

 Dipole moment (field-independent basis, Debye):
    X=             -0.0080    Y=              0.0824    Z=             -0.0192  Tot=              0.0850
 Quadrupole moment (field-independent basis, Debye-Ang):
   XX=            -61.0203   YY=            -70.3640   ZZ=            -57.6130
   XY=             -0.4102   XZ=             -2.3703   YZ=             -0.5514

 Normal termination of Gaussian 16 at Tue Dec  5 17:43:02 2023.
