 Gaussian 16, Revision B.01,
 Gaussian 16:  ES64L-G16RevB.01 20-Dec-2017

 -------------------------
 #P B3LYP/6-311+g(d) force
 -------------------------

 -----
 DPGEN
 -----
 Symbolic Z-matrix:
 Charge =  0 Multiplicity = 2

                         Standard orientation:
 ---------------------------------------------------------------------
 Center     Atomic      Atomic             Coordinates (Angstroms)
 Number     Number       Type             X           Y           Z
 ---------------------------------------------------------------------
      1         11           0       -2.976985   -1.366838   -0.069596
      2         11           0        0.360951   -0.337986   -1.833746
      3         11           0       -2.351928    2.237436    0.121137
      4         11           0        0.086258   -0.028158    1.878520
      5         11           0        2.885218   -0.423125    0.435651
      6         11           0        0.496023   -2.648739   -0.118299
      7         11           0        1.500462    2.567410   -0.413668
 ---------------------------------------------------------------------

 SCF Done:  E(UB3LYP) =  -1136.13309959     A.U. after   20 cycles

 The electronic state is 2-A.
 Alpha  occ. eigenvalues --  -38.44147 -38.43987 -38.43736 -38.43626 -38.43611
 Alpha  occ. eigenvalues --  -38.43426 -38.43188  -2.19930  -2.19758  -2.19662
 Alpha  occ. eigenvalues --   -2.19586  -2.19562  -2.19263  -2.19138  -1.13611
 Alpha  occ. eigenvalues --   -1.13585  -1.13572  -1.13441  -1.13415  -1.13409
 Alpha  occ. eigenvalues --   -1.13395  -1.13368  -1.13316  -1.13297  -1.13236
 Alpha  occ. eigenvalues --   -1.13215  -1.13185  -1.13173  -1.13166  -1.12940
 Alpha  occ. eigenvalues --   -1.12919  -1.12895  -1.12811  -1.12784  -1.12729
 Alpha  occ. eigenvalues --   -0.18810  -0.12969  -0.12408  -0.10969
 Alpha virt. eigenvalues --   -0.05575  -0.05393  -0.04516  -0.03185  -0.02971
 Alpha virt. eigenvalues --   -0.02646  -0.01478  -0.01077  -0.00434  -0.00257
 Alpha virt. eigenvalues --   -0.00002   0.00351   0.00815   0.00860   0.00913

  Beta  occ. eigenvalues --  -38.44148 -38.43989 -38.43719 -38.43544 -38.43529
  Beta  occ. eigenvalues --  -38.43416 -38.43175  -2.19934  -2.19763  -2.19636
  Beta  occ. eigenvalues --   -2.19437  -2.19413  -2.19247  -2.19120  -1.13604
  Beta  occ. eigenvalues --   -1.13589  -1.13575  -1.13434  -1.13419  -1.13401
  Beta  occ. eigenvalues --   -1.13371  -1.13300  -1.13274  -1.13252  -1.13143
  Beta  occ. eigenvalues --   -1.13112  -1.13083  -1.13071  -1.13055  -1.12920
  Beta  occ. eigenvalues --   -1.12898  -1.12886  -1.12790  -1.12736  -1.12715
  Beta  occ. eigenvalues --   -0.18046  -0.12762  -0.12146
  Beta virt. eigenvalues --   -0.06991  -0.05585  -0.05320  -0.04474  -0.02448
  Beta virt. eigenvalues --   -0.02191  -0.01619  -0.01369  -0.01010  -0.00451
  Beta virt. eigenvalues --   -0.00303   0.00125   0.00385   0.00851   0.00884

 Mulliken charges and spin densities:
               1          2
     1  Na  -0.157135  -0.140862
     2  Na  -0.161099   0.659068
     3  Na  -0.150759  -0.116148
     4  Na  -0.250848   0.625733
     5  Na   0.535859   0.111963
     6  Na   0.370213  -0.056446
     7  Na  -0.186231  -0.083308
 Sum of Mulliken charges =  -0.00000   1.00000

 Dipole moment (field-independent basis, Debye):
    X=             -0.2760    Y=              0.0761    Z=              0.0663  Tot=              0.2938
 Quadrupole moment (field-independent basis, Debye-Ang):
   XX=            -57.1037   YY=            -63.5612   ZZ=            -73.4952
   XY=              0.4558   XZ=              0.7178   YZ=             -0.7443

 Normal termination of Gaussian 16 at Thu Dec  7 15:14:25 2023.
