 Gaussian 16, Revision B.01,
 Gaussian 16:  ES64L-G16RevB.01 20-Dec-2017

 -------------------------
 #P B3LYP/6-311+g(d) force
 -------------------------

 -----
 DPGEN
 -----
 Symbolic Z-matrix:
 Charge =  0 Multiplicity = 2

                         Standard orientation:
 ---------------------------------------------------------------------
 Center     Atomic      Atomic             Coordinates (Angstroms)
 Number     Number       Type             X           Y           Z
 ---------------------------------------------------------------------
      1         11           0       -1.007126   -1.841978    0.937805
      2         11           0        2.228491    1.772497   -0.435636
      3         11           0        1.970983   -0.766532    1.599540
      4         11           0       -0.840922    1.734383    1.874576
      5         11           0       -0.766592    1.275514   -1.876008
      6         11           0       -3.701908   -0.471609   -0.575240
      7         11           0        2.117075   -1.702276   -1.525036
 ---------------------------------------------------------------------

 SCF Done:  E(UB3LYP) =  -1136.12881519     A.U. after   22 cycles

 The electronic state is 2-A.
 Alpha  occ. eigenvalues --  -38.44919 -38.44516 -38.44354 -38.43544 -38.43517
 Alpha  occ. eigenvalues --  -38.43249 -38.42887  -2.20728  -2.20343  -2.20142
 Alpha  occ. eigenvalues --   -2.19432  -2.19367  -2.19110  -2.18741  -1.14398
 Alpha  occ. eigenvalues --   -1.14357  -1.14345  -1.14004  -1.13994  -1.13962
 Alpha  occ. eigenvalues --   -1.13810  -1.13801  -1.13777  -1.13120  -1.13105
 Alpha  occ. eigenvalues --   -1.13063  -1.13053  -1.13027  -1.12996  -1.12788
 Alpha  occ. eigenvalues --   -1.12775  -1.12733  -1.12443  -1.12416  -1.12357
 Alpha  occ. eigenvalues --   -0.18198  -0.13204  -0.11930  -0.11334
 Alpha virt. eigenvalues --   -0.05950  -0.05162  -0.04540  -0.03317  -0.03167
 Alpha virt. eigenvalues --   -0.02992  -0.01645  -0.00974  -0.00535  -0.00051
 Alpha virt. eigenvalues --    0.00231   0.00281   0.00362   0.00598   0.00831

  Beta  occ. eigenvalues --  -38.44845 -38.44467 -38.44343 -38.43517 -38.43496
  Beta  occ. eigenvalues --  -38.43247 -38.42879  -2.20593  -2.20252  -2.20123
  Beta  occ. eigenvalues --   -2.19396  -2.19317  -2.19110  -2.18730  -1.14301
  Beta  occ. eigenvalues --   -1.14257  -1.14253  -1.13943  -1.13934  -1.13894
  Beta  occ. eigenvalues --   -1.13793  -1.13786  -1.13766  -1.13097  -1.13085
  Beta  occ. eigenvalues --   -1.13021  -1.13008  -1.12985  -1.12961  -1.12785
  Beta  occ. eigenvalues --   -1.12766  -1.12723  -1.12429  -1.12389  -1.12357
  Beta  occ. eigenvalues --   -0.17400  -0.12978  -0.11176
  Beta virt. eigenvalues --   -0.08070  -0.05717  -0.04620  -0.04272  -0.03155
  Beta virt. eigenvalues --   -0.02557  -0.02189  -0.01563  -0.00624  -0.00434
  Beta virt. eigenvalues --    0.00077   0.00292   0.00376   0.00410   0.00716

 Mulliken charges and spin densities:
               1          2
     1  Na  -0.354826   0.158745
     2  Na   0.152678   0.036086
     3  Na   0.516130   0.203144
     4  Na  -0.175643   0.241664
     5  Na  -0.302338   0.286704
     6  Na   0.240589  -0.117846
     7  Na  -0.076590   0.191504
 Sum of Mulliken charges =  -0.00000   1.00000

 Dipole moment (field-independent basis, Debye):
    X=             -0.3640    Y=              0.1673    Z=             -0.1908  Tot=              0.4438
 Quadrupole moment (field-independent basis, Debye-Ang):
   XX=            -57.0196   YY=            -74.6337   ZZ=            -64.1389
   XY=             -0.8156   XZ=             -0.3432   YZ=              6.5466

 Normal termination of Gaussian 16 at Thu Dec  7 07:39:53 2023.
