 Gaussian 16, Revision B.01,
 Gaussian 16:  ES64L-G16RevB.01 20-Dec-2017

 -------------------------
 #P B3LYP/6-311+g(d) force
 -------------------------

 -----
 DPGEN
 -----
 Symbolic Z-matrix:
 Charge =  0 Multiplicity = 2

                         Standard orientation:
 ---------------------------------------------------------------------
 Center     Atomic      Atomic             Coordinates (Angstroms)
 Number     Number       Type             X           Y           Z
 ---------------------------------------------------------------------
      1         11           0       -3.676070   -1.837956    0.263192
      2         11           0        3.648174    0.244866   -0.766138
      3         11           0       -0.079662   -2.249187    1.687284
      4         11           0       -3.006266    0.769734   -1.375185
      5         11           0       -1.287855    3.190118    0.072987
      6         11           0        1.992021    2.689402    1.023014
      7         11           0        2.409657   -2.806977   -0.905154
 ---------------------------------------------------------------------

 SCF Done:  E(UB3LYP) =  -1136.10835982     A.U. after   24 cycles

 The electronic state is 2-A.
 Alpha  occ. eigenvalues --  -38.45208 -38.44870 -38.44774 -38.44576 -38.44368
 Alpha  occ. eigenvalues --  -38.43792 -38.43771  -2.20978  -2.20668  -2.20553
 Alpha  occ. eigenvalues --   -2.20343  -2.20163  -2.19633  -2.19572  -1.14670
 Alpha  occ. eigenvalues --   -1.14649  -1.14616  -1.14340  -1.14323  -1.14314
 Alpha  occ. eigenvalues --   -1.14238  -1.14228  -1.14196  -1.14005  -1.13995
 Alpha  occ. eigenvalues --   -1.13959  -1.13828  -1.13814  -1.13804  -1.13288
 Alpha  occ. eigenvalues --   -1.13280  -1.13271  -1.13232  -1.13222  -1.13211
 Alpha  occ. eigenvalues --   -0.15998  -0.13916  -0.12950  -0.10370
 Alpha virt. eigenvalues --   -0.07695  -0.05035  -0.04430  -0.03835  -0.03476
 Alpha virt. eigenvalues --   -0.02156  -0.01733  -0.01511  -0.01280  -0.01029
 Alpha virt. eigenvalues --   -0.00612   0.00016   0.00113   0.00337   0.00596

  Beta  occ. eigenvalues --  -38.45217 -38.44838 -38.44771 -38.44509 -38.44344
  Beta  occ. eigenvalues --  -38.43747 -38.43735  -2.20997  -2.20613  -2.20551
  Beta  occ. eigenvalues --   -2.20219  -2.20123  -2.19549  -2.19504  -1.14680
  Beta  occ. eigenvalues --   -1.14665  -1.14608  -1.14303  -1.14291  -1.14252
  Beta  occ. eigenvalues --   -1.14235  -1.14231  -1.14167  -1.13921  -1.13912
  Beta  occ. eigenvalues --   -1.13871  -1.13803  -1.13790  -1.13754  -1.13236
  Beta  occ. eigenvalues --   -1.13224  -1.13212  -1.13185  -1.13177  -1.13166
  Beta  occ. eigenvalues --   -0.15511  -0.13386  -0.12410
  Beta virt. eigenvalues --   -0.07766  -0.07141  -0.04575  -0.03914  -0.03591
  Beta virt. eigenvalues --   -0.03096  -0.02079  -0.01447  -0.01254  -0.01143
  Beta virt. eigenvalues --   -0.00868  -0.00429   0.00236   0.00288   0.00465

 Mulliken charges and spin densities:
               1          2
     1  Na   0.435973  -0.071930
     2  Na  -0.238805   0.164031
     3  Na  -0.506703   0.425304
     4  Na  -0.256633   0.239074
     5  Na   0.085310   0.015279
     6  Na   0.129493   0.140494
     7  Na   0.351364   0.087747
 Sum of Mulliken charges =  -0.00000   1.00000

 Dipole moment (field-independent basis, Debye):
    X=             -0.2619    Y=             -0.4510    Z=             -0.1198  Tot=              0.5351
 Quadrupole moment (field-independent basis, Debye-Ang):
   XX=            -62.6383   YY=            -66.7097   ZZ=            -71.3222
   XY=              3.8076   XZ=             -0.5751   YZ=              1.5170

 Normal termination of Gaussian 16 at Sun Dec  3 18:49:13 2023.
