 Gaussian 16, Revision B.01,
 Gaussian 16:  ES64L-G16RevB.01 20-Dec-2017

 -------------------------
 #P B3LYP/6-311+g(d) force
 -------------------------

 -----
 DPGEN
 -----
 Symbolic Z-matrix:
 Charge =  0 Multiplicity = 2

                         Standard orientation:
 ---------------------------------------------------------------------
 Center     Atomic      Atomic             Coordinates (Angstroms)
 Number     Number       Type             X           Y           Z
 ---------------------------------------------------------------------
      1         11           0       -1.673344   -0.052424    1.901356
      2         11           0        4.775873   -0.539761   -0.760986
      3         11           0       -2.596232   -2.283046    0.216734
      4         11           0        2.321563    1.670774    1.067145
      5         11           0        1.375292   -2.270909   -0.411912
      6         11           0       -0.686508    2.836884   -0.568500
      7         11           0       -3.516645    0.638481   -1.443837
 ---------------------------------------------------------------------

 SCF Done:  E(UB3LYP) =  -1136.11524729     A.U. after   22 cycles

 The electronic state is 2-A.
 Alpha  occ. eigenvalues --  -38.45361 -38.44896 -38.44545 -38.44413 -38.44089
 Alpha  occ. eigenvalues --  -38.43913 -38.43480  -2.21068  -2.20744  -2.20312
 Alpha  occ. eigenvalues --   -2.20174  -2.19917  -2.19773  -2.19253  -1.14779
 Alpha  occ. eigenvalues --   -1.14755  -1.14672  -1.14460  -1.14392  -1.14364
 Alpha  occ. eigenvalues --   -1.13976  -1.13965  -1.13928  -1.13863  -1.13849
 Alpha  occ. eigenvalues --   -1.13787  -1.13575  -1.13550  -1.13539  -1.13477
 Alpha  occ. eigenvalues --   -1.13415  -1.13388  -1.12942  -1.12916  -1.12893
 Alpha  occ. eigenvalues --   -0.16882  -0.13821  -0.11944  -0.10673
 Alpha virt. eigenvalues --   -0.06858  -0.05849  -0.04678  -0.03462  -0.03025
 Alpha virt. eigenvalues --   -0.02533  -0.02157  -0.01541  -0.00887  -0.00787
 Alpha virt. eigenvalues --   -0.00371   0.00013   0.00241   0.00286   0.00520

  Beta  occ. eigenvalues --  -38.45372 -38.44853 -38.44502 -38.44399 -38.43998
  Beta  occ. eigenvalues --  -38.43906 -38.43479  -2.21091  -2.20666  -2.20229
  Beta  occ. eigenvalues --   -2.20150  -2.19764  -2.19747  -2.19255  -1.14796
  Beta  occ. eigenvalues --   -1.14769  -1.14678  -1.14407  -1.14331  -1.14305
  Beta  occ. eigenvalues --   -1.13919  -1.13908  -1.13876  -1.13848  -1.13833
  Beta  occ. eigenvalues --   -1.13758  -1.13470  -1.13460  -1.13439  -1.13426
  Beta  occ. eigenvalues --   -1.13406  -1.13355  -1.12947  -1.12922  -1.12869
  Beta  occ. eigenvalues --   -0.16307  -0.13348  -0.11656
  Beta virt. eigenvalues --   -0.07256  -0.06769  -0.05530  -0.04182  -0.03282
  Beta virt. eigenvalues --   -0.02512  -0.02301  -0.01612  -0.01357  -0.00726
  Beta virt. eigenvalues --   -0.00433  -0.00338   0.00211   0.00346   0.00437

 Mulliken charges and spin densities:
               1          2
     1  Na  -0.096492   0.343486
     2  Na   0.446848   0.282558
     3  Na   0.111343   0.031422
     4  Na  -0.237309  -0.017581
     5  Na  -0.237150  -0.087685
     6  Na  -0.069167  -0.000150
     7  Na   0.081927   0.447950
 Sum of Mulliken charges =  -0.00000   1.00000

 Dipole moment (field-independent basis, Debye):
    X=              0.5428    Y=             -0.4902    Z=              0.1128  Tot=              0.7401
 Quadrupole moment (field-independent basis, Debye-Ang):
   XX=            -59.8245   YY=            -71.4407   ZZ=            -68.9873
   XY=              4.1375   XZ=             -1.7428   YZ=              2.1029

 Normal termination of Gaussian 16 at Sun Dec  3 16:40:55 2023.
