 Gaussian 16, Revision B.01,
 Gaussian 16:  ES64L-G16RevB.01 20-Dec-2017

 -------------------------
 #P B3LYP/6-311+g(d) force
 -------------------------

 -----
 DPGEN
 -----
 Symbolic Z-matrix:
 Charge =  0 Multiplicity = 2

                         Standard orientation:
 ---------------------------------------------------------------------
 Center     Atomic      Atomic             Coordinates (Angstroms)
 Number     Number       Type             X           Y           Z
 ---------------------------------------------------------------------
      1         11           0        0.619540   -3.029614   -0.568527
      2         11           0       -3.435563    1.227113    0.483817
      3         11           0        2.462372    1.968531   -0.405805
      4         11           0       -0.190949    3.049287   -0.442324
      5         11           0       -2.825144   -2.020897   -0.287516
      6         11           0        3.339865   -1.161891    0.628538
      7         11           0        0.029879   -0.032530    0.591817
 ---------------------------------------------------------------------

 SCF Done:  E(UB3LYP) =  -1136.12590345     A.U. after   23 cycles

 The electronic state is 2-A.
 Alpha  occ. eigenvalues --  -38.44417 -38.44243 -38.43970 -38.43733 -38.43684
 Alpha  occ. eigenvalues --  -38.43339 -38.43220  -2.20234  -2.20172  -2.19930
 Alpha  occ. eigenvalues --   -2.19599  -2.19582  -2.19179  -2.19090  -1.13947
 Alpha  occ. eigenvalues --   -1.13917  -1.13901  -1.13872  -1.13822  -1.13815
 Alpha  occ. eigenvalues --   -1.13659  -1.13610  -1.13548  -1.13262  -1.13252
 Alpha  occ. eigenvalues --   -1.13246  -1.13229  -1.13215  -1.13197  -1.12834
 Alpha  occ. eigenvalues --   -1.12821  -1.12804  -1.12744  -1.12740  -1.12711
 Alpha  occ. eigenvalues --   -0.17822  -0.13963  -0.13469  -0.09725
 Alpha virt. eigenvalues --   -0.06414  -0.05712  -0.04405  -0.03225  -0.02786
 Alpha virt. eigenvalues --   -0.02336  -0.01832  -0.01295  -0.01049  -0.00391
 Alpha virt. eigenvalues --   -0.00020   0.00248   0.00619   0.00700   0.00758

  Beta  occ. eigenvalues --  -38.44404 -38.44223 -38.43981 -38.43703 -38.43655
  Beta  occ. eigenvalues --  -38.43277 -38.43161  -2.20216  -2.20142  -2.19948
  Beta  occ. eigenvalues --   -2.19549  -2.19531  -2.19062  -2.18979  -1.13911
  Beta  occ. eigenvalues --   -1.13904  -1.13895  -1.13810  -1.13802  -1.13778
  Beta  occ. eigenvalues --   -1.13660  -1.13629  -1.13568  -1.13232  -1.13219
  Beta  occ. eigenvalues --   -1.13215  -1.13198  -1.13161  -1.13135  -1.12754
  Beta  occ. eigenvalues --   -1.12744  -1.12728  -1.12667  -1.12663  -1.12641
  Beta  occ. eigenvalues --   -0.17543  -0.13243  -0.12865
  Beta virt. eigenvalues --   -0.06461  -0.06394  -0.05476  -0.04223  -0.02616
  Beta virt. eigenvalues --   -0.02323  -0.02078  -0.01596  -0.01088  -0.00872
  Beta virt. eigenvalues --   -0.00199   0.00271   0.00455   0.00628   0.00807

 Mulliken charges and spin densities:
               1          2
     1  Na   0.393823   0.131417
     2  Na   0.926600   0.392434
     3  Na   0.347187   0.080668
     4  Na   0.414893   0.104425
     5  Na   0.259208   0.077491
     6  Na   1.207268   0.382255
     7  Na  -3.548979  -0.168690
 Sum of Mulliken charges =  -0.00000   1.00000

 Dipole moment (field-independent basis, Debye):
    X=              0.0565    Y=             -0.1032    Z=             -0.5473  Tot=              0.5598
 Quadrupole moment (field-independent basis, Debye-Ang):
   XX=            -63.3128   YY=            -63.8410   ZZ=            -71.5126
   XY=              1.7398   XZ=             -0.1303   YZ=              0.4464

 Normal termination of Gaussian 16 at Wed Nov 29 16:14:30 2023.
