 Gaussian 16, Revision B.01,
 Gaussian 16:  ES64L-G16RevB.01 20-Dec-2017

 -------------------------
 #P B3LYP/6-311+g(d) force
 -------------------------

 -----
 DPGEN
 -----
 Symbolic Z-matrix:
 Charge =  0 Multiplicity = 2

                         Standard orientation:
 ---------------------------------------------------------------------
 Center     Atomic      Atomic             Coordinates (Angstroms)
 Number     Number       Type             X           Y           Z
 ---------------------------------------------------------------------
      1         11           0        2.861930    1.447199    0.256018
      2         11           0       -1.308896    3.116246   -0.038649
      3         11           0       -1.460449   -2.789714   -0.182086
      4         11           0       -2.988472    0.039749   -0.071665
      5         11           0        0.181696    0.231468   -1.563034
      6         11           0        0.080430   -0.519111    2.033372
      7         11           0        2.633760   -1.525838   -0.433956
 ---------------------------------------------------------------------

 SCF Done:  E(UB3LYP) =  -1136.13311317     A.U. after   20 cycles

 The electronic state is 2-A.
 Alpha  occ. eigenvalues --  -38.44479 -38.44059 -38.44014 -38.43607 -38.43391
 Alpha  occ. eigenvalues --  -38.43361 -38.43284  -2.20323  -2.19944  -2.19875
 Alpha  occ. eigenvalues --   -2.19475  -2.19235  -2.19230  -2.19147  -1.14032
 Alpha  occ. eigenvalues --   -1.13975  -1.13968  -1.13630  -1.13586  -1.13569
 Alpha  occ. eigenvalues --   -1.13563  -1.13545  -1.13508  -1.13146  -1.13109
 Alpha  occ. eigenvalues --   -1.13088  -1.12926  -1.12904  -1.12888  -1.12882
 Alpha  occ. eigenvalues --   -1.12870  -1.12856  -1.12815  -1.12801  -1.12793
 Alpha  occ. eigenvalues --   -0.18414  -0.13555  -0.11990  -0.10519
 Alpha virt. eigenvalues --   -0.05863  -0.05370  -0.04797  -0.03442  -0.02602
 Alpha virt. eigenvalues --   -0.02365  -0.01684  -0.01238  -0.00633  -0.00451
 Alpha virt. eigenvalues --   -0.00017   0.00346   0.00738   0.00784   0.00865

  Beta  occ. eigenvalues --  -38.44474 -38.44045 -38.44010 -38.43513 -38.43388
  Beta  occ. eigenvalues --  -38.43364 -38.43226  -2.20316  -2.19923  -2.19871
  Beta  occ. eigenvalues --   -2.19303  -2.19231  -2.19154  -2.19128  -1.14030
  Beta  occ. eigenvalues --   -1.13968  -1.13943  -1.13610  -1.13563  -1.13558
  Beta  occ. eigenvalues --   -1.13544  -1.13526  -1.13509  -1.13032  -1.12989
  Beta  occ. eigenvalues --   -1.12966  -1.12903  -1.12879  -1.12862  -1.12850
  Beta  occ. eigenvalues --   -1.12822  -1.12812  -1.12803  -1.12789  -1.12763
  Beta  occ. eigenvalues --   -0.17691  -0.13340  -0.11824
  Beta virt. eigenvalues --   -0.06607  -0.05779  -0.05323  -0.04771  -0.02634
  Beta virt. eigenvalues --   -0.01938  -0.01585  -0.01370  -0.01141  -0.00676
  Beta virt. eigenvalues --   -0.00457   0.00149   0.00385   0.00794   0.00821

 Mulliken charges and spin densities:
               1          2
     1  Na  -0.013505   0.040602
     2  Na  -0.076578  -0.057229
     3  Na   0.164056  -0.042092
     4  Na   0.058089  -0.022316
     5  Na  -0.065034   0.387386
     6  Na  -0.422131   0.688218
     7  Na   0.355103   0.005432
 Sum of Mulliken charges =  -0.00000   1.00000

 Dipole moment (field-independent basis, Debye):
    X=              0.4588    Y=             -0.0531    Z=              0.1335  Tot=              0.4808
 Quadrupole moment (field-independent basis, Debye-Ang):
   XX=            -56.2084   YY=            -61.7827   ZZ=            -75.8202
   XY=              1.4052   XZ=              0.1976   YZ=              2.1442

 Normal termination of Gaussian 16 at Thu Dec  7 05:47:17 2023.
