 Gaussian 16, Revision B.01,
 Gaussian 16:  ES64L-G16RevB.01 20-Dec-2017

 -------------------------
 #P B3LYP/6-311+g(d) force
 -------------------------

 -----
 DPGEN
 -----
 Symbolic Z-matrix:
 Charge =  0 Multiplicity = 2

                         Standard orientation:
 ---------------------------------------------------------------------
 Center     Atomic      Atomic             Coordinates (Angstroms)
 Number     Number       Type             X           Y           Z
 ---------------------------------------------------------------------
      1         11           0       -1.996357   -0.414517    1.948634
      2         11           0       -3.327711   -0.351033   -1.249481
      3         11           0        1.705446    3.407230   -0.793837
      4         11           0       -1.740019    2.976475    0.328240
      5         11           0        3.868830    0.295296    0.414805
      6         11           0       -0.976074   -3.141252   -0.479731
      7         11           0        2.465885   -2.772199   -0.168629
 ---------------------------------------------------------------------

 SCF Done:  E(UB3LYP) =  -1136.10874088     A.U. after   28 cycles

 The electronic state is 2-A.
 Alpha  occ. eigenvalues --  -38.45886 -38.44818 -38.44782 -38.44741 -38.44207
 Alpha  occ. eigenvalues --  -38.43778 -38.43684  -2.21649  -2.20627  -2.20531
 Alpha  occ. eigenvalues --   -2.20498  -2.19986  -2.19581  -2.19452  -1.15335
 Alpha  occ. eigenvalues --   -1.15306  -1.15282  -1.14291  -1.14264  -1.14254
 Alpha  occ. eigenvalues --   -1.14210  -1.14196  -1.14190  -1.14173  -1.14167
 Alpha  occ. eigenvalues --   -1.14120  -1.13661  -1.13651  -1.13631  -1.13257
 Alpha  occ. eigenvalues --   -1.13243  -1.13204  -1.13115  -1.13099  -1.13083
 Alpha  occ. eigenvalues --   -0.16307  -0.13419  -0.12941  -0.09839
 Alpha virt. eigenvalues --   -0.07354  -0.06793  -0.03724  -0.03640  -0.03045
 Alpha virt. eigenvalues --   -0.02404  -0.02251  -0.01788  -0.01411  -0.01190
 Alpha virt. eigenvalues --   -0.00223  -0.00085   0.00143   0.00443   0.00463

  Beta  occ. eigenvalues --  -38.45879 -38.44769 -38.44756 -38.44731 -38.44199
  Beta  occ. eigenvalues --  -38.43744 -38.43630  -2.21640  -2.20515  -2.20511
  Beta  occ. eigenvalues --   -2.20484  -2.19973  -2.19519  -2.19352  -1.15329
  Beta  occ. eigenvalues --   -1.15301  -1.15251  -1.14216  -1.14198  -1.14190
  Beta  occ. eigenvalues --   -1.14185  -1.14184  -1.14171  -1.14160  -1.14138
  Beta  occ. eigenvalues --   -1.14077  -1.13653  -1.13645  -1.13606  -1.13212
  Beta  occ. eigenvalues --   -1.13202  -1.13161  -1.13047  -1.13033  -1.13014
  Beta  occ. eigenvalues --   -0.15844  -0.13030  -0.12354
  Beta virt. eigenvalues --   -0.07258  -0.06711  -0.06509  -0.03550  -0.03129
  Beta virt. eigenvalues --   -0.02627  -0.02157  -0.02023  -0.01545  -0.01265
  Beta virt. eigenvalues --   -0.01053   0.00072   0.00177   0.00272   0.00480

 Mulliken charges and spin densities:
               1          2
     1  Na   0.182997   0.323915
     2  Na   0.172285   0.074883
     3  Na  -0.012113   0.264122
     4  Na  -0.169115   0.033060
     5  Na  -0.160050   0.033038
     6  Na  -0.076936   0.236836
     7  Na   0.062931   0.034145
 Sum of Mulliken charges =  -0.00000   1.00000

 Dipole moment (field-independent basis, Debye):
    X=             -1.2034    Y=             -0.2317    Z=             -0.0363  Tot=              1.2260
 Quadrupole moment (field-independent basis, Debye-Ang):
   XX=            -60.2840   YY=            -71.5324   ZZ=            -70.6903
   XY=             -2.4543   XZ=              4.2890   YZ=             -1.7366

 Normal termination of Gaussian 16 at Mon Dec  4 02:12:26 2023.
