 Gaussian 16, Revision B.01,
 Gaussian 16:  ES64L-G16RevB.01 20-Dec-2017

 -------------------------
 #P B3LYP/6-311+g(d) force
 -------------------------

 -----
 DPGEN
 -----
 Symbolic Z-matrix:
 Charge =  0 Multiplicity = 2

                         Standard orientation:
 ---------------------------------------------------------------------
 Center     Atomic      Atomic             Coordinates (Angstroms)
 Number     Number       Type             X           Y           Z
 ---------------------------------------------------------------------
      1         11           0        0.013393    0.170293   -1.674389
      2         11           0        1.222621    1.750371    0.115481
      3         11           0        2.464179   -0.628550   -0.016319
      4         11           0        0.062089   -0.050908    1.739481
      5         11           0        0.123056   -1.924659   -0.207919
      6         11           0       -2.324586   -0.933767    0.121381
      7         11           0       -1.560752    1.617220   -0.077719
 ---------------------------------------------------------------------

 SCF Done:  E(UB3LYP) =  -1136.04002992     A.U. after   19 cycles

 The electronic state is 2-A.
 Alpha  occ. eigenvalues --  -38.44961 -38.44567 -38.44262 -38.44259 -38.44142
 Alpha  occ. eigenvalues --  -38.43983 -38.43947  -2.21377  -2.20918  -2.20508
 Alpha  occ. eigenvalues --   -2.20437  -2.20393  -2.20258  -2.20169  -1.15340
 Alpha  occ. eigenvalues --   -1.15252  -1.15033  -1.14811  -1.14762  -1.14621
 Alpha  occ. eigenvalues --   -1.14517  -1.14376  -1.14273  -1.14216  -1.14037
 Alpha  occ. eigenvalues --   -1.14003  -1.13981  -1.13941  -1.13888  -1.13805
 Alpha  occ. eigenvalues --   -1.13769  -1.13738  -1.13708  -1.13660  -1.13540
 Alpha  occ. eigenvalues --   -0.22497  -0.14313  -0.12993  -0.12646
 Alpha virt. eigenvalues --   -0.05338  -0.04172  -0.03969  -0.03916  -0.03201
 Alpha virt. eigenvalues --   -0.02752  -0.01104  -0.00364  -0.00086   0.00310
 Alpha virt. eigenvalues --    0.00850   0.00940   0.01083   0.01209   0.01296

  Beta  occ. eigenvalues --  -38.44861 -38.44468 -38.44250 -38.44247 -38.44118
  Beta  occ. eigenvalues --  -38.43964 -38.43931  -2.21200  -2.20741  -2.20479
  Beta  occ. eigenvalues --   -2.20422  -2.20372  -2.20232  -2.20147  -1.15242
  Beta  occ. eigenvalues --   -1.15135  -1.14915  -1.14714  -1.14650  -1.14567
  Beta  occ. eigenvalues --   -1.14455  -1.14371  -1.14232  -1.14187  -1.13978
  Beta  occ. eigenvalues --   -1.13959  -1.13915  -1.13877  -1.13839  -1.13751
  Beta  occ. eigenvalues --   -1.13705  -1.13702  -1.13674  -1.13643  -1.13534
  Beta  occ. eigenvalues --   -0.21657  -0.13889  -0.12593
  Beta virt. eigenvalues --   -0.08355  -0.05387  -0.04147  -0.03884  -0.02883
  Beta virt. eigenvalues --   -0.02244  -0.01710  -0.01025  -0.00331   0.00056
  Beta virt. eigenvalues --    0.00335   0.00861   0.00937   0.01101   0.01226

 Mulliken charges and spin densities:
               1          2
     1  Na  -0.308730   0.430812
     2  Na   0.190789   0.041011
     3  Na  -0.112713  -0.070672
     4  Na  -0.223324   0.499124
     5  Na   0.349249   0.086827
     6  Na  -0.070358  -0.027437
     7  Na   0.175087   0.040335
 Sum of Mulliken charges =  -0.00000   1.00000

 Dipole moment (field-independent basis, Debye):
    X=             -0.0250    Y=             -0.0094    Z=              0.1872  Tot=              0.1891
 Quadrupole moment (field-independent basis, Debye-Ang):
   XX=            -59.5876   YY=            -71.3601   ZZ=            -68.2787
   XY=             -0.1119   XZ=             -0.1928   YZ=              0.2030

 Normal termination of Gaussian 16 at Fri Dec  8 19:57:11 2023.
