 Gaussian 16, Revision B.01,
 Gaussian 16:  ES64L-G16RevB.01 20-Dec-2017

 -------------------------
 #P B3LYP/6-311+g(d) force
 -------------------------

 -----
 DPGEN
 -----
 Symbolic Z-matrix:
 Charge =  0 Multiplicity = 2

                         Standard orientation:
 ---------------------------------------------------------------------
 Center     Atomic      Atomic             Coordinates (Angstroms)
 Number     Number       Type             X           Y           Z
 ---------------------------------------------------------------------
      1         11           0       -0.314315    0.062657    2.259628
      2         11           0       -0.294436    2.814808   -0.163623
      3         11           0        2.715496    1.424703   -0.110921
      4         11           0       -2.720869    0.855535   -0.540418
      5         11           0        2.669620   -2.187919   -0.063979
      6         11           0        0.185059   -0.620691   -1.414012
      7         11           0       -2.240555   -2.349094    0.033325
 ---------------------------------------------------------------------

 SCF Done:  E(UB3LYP) =  -1136.13328126     A.U. after   20 cycles

 The electronic state is 2-A.
 Alpha  occ. eigenvalues --  -38.44188 -38.44143 -38.43997 -38.43839 -38.43776
 Alpha  occ. eigenvalues --  -38.43150 -38.42890  -2.20015  -2.19940  -2.19831
 Alpha  occ. eigenvalues --   -2.19688  -2.19681  -2.19118  -2.18777  -1.13703
 Alpha  occ. eigenvalues --   -1.13681  -1.13652  -1.13626  -1.13593  -1.13571
 Alpha  occ. eigenvalues --   -1.13517  -1.13492  -1.13480  -1.13377  -1.13343
 Alpha  occ. eigenvalues --   -1.13332  -1.13314  -1.13305  -1.13299  -1.12807
 Alpha  occ. eigenvalues --   -1.12768  -1.12747  -1.12454  -1.12435  -1.12422
 Alpha  occ. eigenvalues --   -0.18491  -0.13243  -0.12280  -0.10741
 Alpha virt. eigenvalues --   -0.05971  -0.05419  -0.04444  -0.03202  -0.02768
 Alpha virt. eigenvalues --   -0.02684  -0.01618  -0.01333  -0.00591  -0.00229
 Alpha virt. eigenvalues --   -0.00025   0.00320   0.00742   0.00777   0.00902

  Beta  occ. eigenvalues --  -38.44187 -38.44145 -38.43994 -38.43759 -38.43727
  Beta  occ. eigenvalues --  -38.43110 -38.42883  -2.20014  -2.19945  -2.19828
  Beta  occ. eigenvalues --   -2.19654  -2.19480  -2.19046  -2.18769  -1.13699
  Beta  occ. eigenvalues --   -1.13669  -1.13654  -1.13625  -1.13590  -1.13576
  Beta  occ. eigenvalues --   -1.13514  -1.13492  -1.13458  -1.13356  -1.13299
  Beta  occ. eigenvalues --   -1.13283  -1.13200  -1.13170  -1.13152  -1.12753
  Beta  occ. eigenvalues --   -1.12712  -1.12693  -1.12450  -1.12432  -1.12389
  Beta  occ. eigenvalues --   -0.17778  -0.13047  -0.12088
  Beta virt. eigenvalues --   -0.06737  -0.05961  -0.05319  -0.04430  -0.02482
  Beta virt. eigenvalues --   -0.02043  -0.01617  -0.01504  -0.01220  -0.00624
  Beta virt. eigenvalues --   -0.00249   0.00156   0.00374   0.00773   0.00841

 Mulliken charges and spin densities:
               1          2
     1  Na  -0.613153   0.710275
     2  Na  -0.012479   0.067057
     3  Na   0.076031   0.001818
     4  Na   0.387202   0.138709
     5  Na   0.147803  -0.009048
     6  Na  -0.161368   0.033460
     7  Na   0.175965   0.057730
 Sum of Mulliken charges =  -0.00000   1.00000

 Dipole moment (field-independent basis, Debye):
    X=              0.2791    Y=             -0.4971    Z=              0.2145  Tot=              0.6091
 Quadrupole moment (field-independent basis, Debye-Ang):
   XX=            -56.4693   YY=            -62.5854   ZZ=            -74.8731
   XY=              0.7990   XZ=              1.1756   YZ=             -1.4631

 Normal termination of Gaussian 16 at Fri Dec  8 00:57:28 2023.
