 Gaussian 16, Revision B.01,
 Gaussian 16:  ES64L-G16RevB.01 20-Dec-2017

 -------------------------
 #P B3LYP/6-311+g(d) force
 -------------------------

 -----
 DPGEN
 -----
 Symbolic Z-matrix:
 Charge =  0 Multiplicity = 2

                         Standard orientation:
 ---------------------------------------------------------------------
 Center     Atomic      Atomic             Coordinates (Angstroms)
 Number     Number       Type             X           Y           Z
 ---------------------------------------------------------------------
      1         11           0        1.765492   -0.034065    1.650967
      2         11           0        0.000581   -1.149803   -1.209946
      3         11           0       -1.879961   -1.535971    1.110554
      4         11           0        1.662931    2.436481   -0.550493
      5         11           0       -3.892127    0.163389   -0.919507
      6         11           0       -1.237060    1.385042    0.663792
      7         11           0        3.580145   -1.265072   -0.745367
 ---------------------------------------------------------------------

 SCF Done:  E(UB3LYP) =  -1136.11897413     A.U. after   24 cycles

 The electronic state is 2-A.
 Alpha  occ. eigenvalues --  -38.44839 -38.44654 -38.44079 -38.43935 -38.43783
 Alpha  occ. eigenvalues --  -38.43053 -38.42632  -2.20683  -2.20545  -2.20002
 Alpha  occ. eigenvalues --   -2.19903  -2.19601  -2.18899  -2.18631  -1.14341
 Alpha  occ. eigenvalues --   -1.14334  -1.14308  -1.14297  -1.14219  -1.14135
 Alpha  occ. eigenvalues --   -1.13687  -1.13678  -1.13622  -1.13612  -1.13564
 Alpha  occ. eigenvalues --   -1.13484  -1.13279  -1.13240  -1.13231  -1.12580
 Alpha  occ. eigenvalues --   -1.12562  -1.12531  -1.12344  -1.12310  -1.12228
 Alpha  occ. eigenvalues --   -0.18885  -0.14385  -0.11059  -0.10854
 Alpha virt. eigenvalues --   -0.07037  -0.05023  -0.04775  -0.03040  -0.02850
 Alpha virt. eigenvalues --   -0.02190  -0.01898  -0.01202  -0.00871  -0.00170
 Alpha virt. eigenvalues --    0.00050   0.00190   0.00332   0.00637   0.00767

  Beta  occ. eigenvalues --  -38.44784 -38.44642 -38.44048 -38.43890 -38.43766
  Beta  occ. eigenvalues --  -38.43046 -38.42613  -2.20581  -2.20526  -2.19950
  Beta  occ. eigenvalues --   -2.19826  -2.19569  -2.18886  -2.18605  -1.14273
  Beta  occ. eigenvalues --   -1.14263  -1.14259  -1.14232  -1.14208  -1.14126
  Beta  occ. eigenvalues --   -1.13654  -1.13608  -1.13590  -1.13561  -1.13514
  Beta  occ. eigenvalues --   -1.13397  -1.13258  -1.13214  -1.13210  -1.12572
  Beta  occ. eigenvalues --   -1.12553  -1.12517  -1.12328  -1.12257  -1.12202
  Beta  occ. eigenvalues --   -0.18161  -0.14063  -0.10908
  Beta virt. eigenvalues --   -0.07119  -0.06770  -0.04823  -0.04202  -0.02854
  Beta virt. eigenvalues --   -0.02605  -0.01787  -0.01275  -0.00950  -0.00578
  Beta virt. eigenvalues --   -0.00003   0.00127   0.00299   0.00446   0.00712

 Mulliken charges and spin densities:
               1          2
     1  Na   0.301542   0.048210
     2  Na  -0.622710   0.096883
     3  Na   0.819964   0.233223
     4  Na  -0.314508   0.085967
     5  Na   0.369493   0.188372
     6  Na  -0.660663   0.198652
     7  Na   0.106883   0.148692
 Sum of Mulliken charges =  -0.00000   1.00000

 Dipole moment (field-independent basis, Debye):
    X=             -0.5214    Y=             -0.2554    Z=              0.0719  Tot=              0.5850
 Quadrupole moment (field-independent basis, Debye-Ang):
   XX=            -51.7951   YY=            -77.3922   ZZ=            -66.1796
   XY=              2.1579   XZ=              1.2711   YZ=             -2.9906

 Normal termination of Gaussian 16 at Thu Dec  7 22:34:38 2023.
