 Gaussian 16, Revision B.01,
 Gaussian 16:  ES64L-G16RevB.01 20-Dec-2017

 -------------------------
 #P B3LYP/6-311+g(d) force
 -------------------------

 -----
 DPGEN
 -----
 Symbolic Z-matrix:
 Charge =  0 Multiplicity = 2

                         Standard orientation:
 ---------------------------------------------------------------------
 Center     Atomic      Atomic             Coordinates (Angstroms)
 Number     Number       Type             X           Y           Z
 ---------------------------------------------------------------------
      1         11           0        0.910975   -1.359888    1.431901
      2         11           0        3.611400   -2.347522   -0.374866
      3         11           0       -1.670224    1.454352    0.291217
      4         11           0        2.947055    1.370386   -1.419144
      5         11           0        1.373737    2.821236    0.844535
      6         11           0       -4.986015    0.002852   -0.666643
      7         11           0       -2.186928   -1.941416   -0.107000
 ---------------------------------------------------------------------

 SCF Done:  E(UB3LYP) =  -1136.12174926     A.U. after   21 cycles

 The electronic state is 2-A.
 Alpha  occ. eigenvalues --  -38.44780 -38.44707 -38.44391 -38.44356 -38.43847
 Alpha  occ. eigenvalues --  -38.43570 -38.43164  -2.20584  -2.20525  -2.20213
 Alpha  occ. eigenvalues --   -2.20170  -2.19618  -2.19400  -2.19008  -1.14269
 Alpha  occ. eigenvalues --   -1.14239  -1.14217  -1.14205  -1.14193  -1.14148
 Alpha  occ. eigenvalues --   -1.13914  -1.13900  -1.13828  -1.13818  -1.13813
 Alpha  occ. eigenvalues --   -1.13770  -1.13292  -1.13276  -1.13264  -1.13081
 Alpha  occ. eigenvalues --   -1.13050  -1.13024  -1.12689  -1.12658  -1.12656
 Alpha  occ. eigenvalues --   -0.16948  -0.14130  -0.11919  -0.10899
 Alpha virt. eigenvalues --   -0.06583  -0.05460  -0.04310  -0.03747  -0.03178
 Alpha virt. eigenvalues --   -0.02508  -0.01685  -0.01510  -0.01079  -0.00622
 Alpha virt. eigenvalues --   -0.00256   0.00108   0.00256   0.00462   0.00605

  Beta  occ. eigenvalues --  -38.44735 -38.44695 -38.44375 -38.44283 -38.43839
  Beta  occ. eigenvalues --  -38.43531 -38.43163  -2.20509  -2.20499  -2.20187
  Beta  occ. eigenvalues --   -2.20033  -2.19603  -2.19330  -2.19007  -1.14213
  Beta  occ. eigenvalues --   -1.14210  -1.14189  -1.14181  -1.14131  -1.14105
  Beta  occ. eigenvalues --   -1.13900  -1.13863  -1.13795  -1.13725  -1.13723
  Beta  occ. eigenvalues --   -1.13686  -1.13284  -1.13269  -1.13243  -1.13032
  Beta  occ. eigenvalues --   -1.13003  -1.12965  -1.12684  -1.12661  -1.12644
  Beta  occ. eigenvalues --   -0.16296  -0.13542  -0.11787
  Beta virt. eigenvalues --   -0.07497  -0.06250  -0.05037  -0.04037  -0.03381
  Beta virt. eigenvalues --   -0.02814  -0.02207  -0.01404  -0.01245  -0.00809
  Beta virt. eigenvalues --   -0.00356  -0.00154   0.00257   0.00407   0.00598

 Mulliken charges and spin densities:
               1          2
     1  Na  -0.226592   0.084076
     2  Na   0.141961   0.080800
     3  Na  -1.157400   0.059590
     4  Na  -0.038123   0.274616
     5  Na   0.277007  -0.018872
     6  Na   0.967328   0.439129
     7  Na   0.035819   0.080663
 Sum of Mulliken charges =  -0.00000   1.00000

 Dipole moment (field-independent basis, Debye):
    X=             -0.7742    Y=             -0.1314    Z=             -0.3381  Tot=              0.8550
 Quadrupole moment (field-independent basis, Debye-Ang):
   XX=            -61.3729   YY=            -69.2101   ZZ=            -67.9304
   XY=              0.1176   XZ=             -0.4928   YZ=              2.0711

 Normal termination of Gaussian 16 at Sun Dec  3 14:58:19 2023.
