 Gaussian 16, Revision B.01,
 Gaussian 16:  ES64L-G16RevB.01 20-Dec-2017

 -------------------------
 #P B3LYP/6-311+g(d) force
 -------------------------

 -----
 DPGEN
 -----
 Symbolic Z-matrix:
 Charge =  0 Multiplicity = 2

                         Standard orientation:
 ---------------------------------------------------------------------
 Center     Atomic      Atomic             Coordinates (Angstroms)
 Number     Number       Type             X           Y           Z
 ---------------------------------------------------------------------
      1         11           0        2.445091    1.865976    0.095390
      2         11           0       -0.425992   -0.601822   -1.750341
      3         11           0       -2.076625   -2.238345    0.752458
      4         11           0       -0.682704    1.989885    1.022670
      5         11           0        3.576102   -1.159802   -1.038152
      6         11           0       -3.454137    0.994519   -1.087042
      7         11           0        0.618265   -0.850413    2.005016
 ---------------------------------------------------------------------

 SCF Done:  E(UB3LYP) =  -1136.12394866     A.U. after   24 cycles

 The electronic state is 2-A.
 Alpha  occ. eigenvalues --  -38.44749 -38.44573 -38.44494 -38.44307 -38.43692
 Alpha  occ. eigenvalues --  -38.43518 -38.42637  -2.20579  -2.20372  -2.20276
 Alpha  occ. eigenvalues --   -2.20194  -2.19528  -2.19351  -2.18520  -1.14270
 Alpha  occ. eigenvalues --   -1.14236  -1.14203  -1.14043  -1.14008  -1.14000
 Alpha  occ. eigenvalues --   -1.13937  -1.13931  -1.13902  -1.13888  -1.13819
 Alpha  occ. eigenvalues --   -1.13808  -1.13210  -1.13199  -1.13166  -1.13031
 Alpha  occ. eigenvalues --   -1.13009  -1.12980  -1.12217  -1.12189  -1.12134
 Alpha  occ. eigenvalues --   -0.18029  -0.13576  -0.11773  -0.11237
 Alpha virt. eigenvalues --   -0.06339  -0.05270  -0.04503  -0.03207  -0.03103
 Alpha virt. eigenvalues --   -0.02715  -0.02229  -0.01058  -0.00773  -0.00188
 Alpha virt. eigenvalues --    0.00146   0.00217   0.00491   0.00600   0.00632

  Beta  occ. eigenvalues --  -38.44719 -38.44542 -38.44456 -38.44224 -38.43690
  Beta  occ. eigenvalues --  -38.43502 -38.42617  -2.20524  -2.20314  -2.20205
  Beta  occ. eigenvalues --   -2.20045  -2.19528  -2.19325  -2.18488  -1.14230
  Beta  occ. eigenvalues --   -1.14201  -1.14155  -1.13997  -1.13973  -1.13962
  Beta  occ. eigenvalues --   -1.13885  -1.13882  -1.13858  -1.13784  -1.13714
  Beta  occ. eigenvalues --   -1.13693  -1.13213  -1.13192  -1.13153  -1.13005
  Beta  occ. eigenvalues --   -1.12991  -1.12954  -1.12192  -1.12161  -1.12103
  Beta  occ. eigenvalues --   -0.17333  -0.13144  -0.10948
  Beta virt. eigenvalues --   -0.08082  -0.06034  -0.05190  -0.03999  -0.02992
  Beta virt. eigenvalues --   -0.02518  -0.02020  -0.01884  -0.01020  -0.00537
  Beta virt. eigenvalues --   -0.00091   0.00218   0.00230   0.00536   0.00714

 Mulliken charges and spin densities:
               1          2
     1  Na   0.162144  -0.022442
     2  Na  -0.448787   0.330748
     3  Na  -0.101499   0.019211
     4  Na  -0.437392   0.095489
     5  Na   0.040234   0.259220
     6  Na   0.495868   0.019571
     7  Na   0.289433   0.298204
 Sum of Mulliken charges =  -0.00000   1.00000

 Dipole moment (field-independent basis, Debye):
    X=             -0.1439    Y=             -0.3363    Z=             -0.3929  Tot=              0.5368
 Quadrupole moment (field-independent basis, Debye-Ang):
   XX=            -52.7682   YY=            -75.1852   ZZ=            -67.7632
   XY=             -0.4849   XZ=              0.2723   YZ=             -1.1136

 Normal termination of Gaussian 16 at Sun Dec  3 14:18:59 2023.
