 Gaussian 16, Revision B.01,
 Gaussian 16:  ES64L-G16RevB.01 20-Dec-2017

 -------------------------
 #P B3LYP/6-311+g(d) force
 -------------------------

 -----
 DPGEN
 -----
 Symbolic Z-matrix:
 Charge =  0 Multiplicity = 2

                         Standard orientation:
 ---------------------------------------------------------------------
 Center     Atomic      Atomic             Coordinates (Angstroms)
 Number     Number       Type             X           Y           Z
 ---------------------------------------------------------------------
      1         11           0       -0.069145    1.555251   -1.565485
      2         11           0        3.111222    1.285238   -0.910662
      3         11           0       -1.577205   -0.830248    1.794467
      4         11           0       -2.957884    2.525020    0.646429
      5         11           0        2.809770   -0.396087    2.100708
      6         11           0        1.167405   -1.889968   -0.976596
      7         11           0       -2.484162   -2.249206   -1.088861
 ---------------------------------------------------------------------

 SCF Done:  E(UB3LYP) =  -1136.12140332     A.U. after   22 cycles

 The electronic state is 2-A.
 Alpha  occ. eigenvalues --  -38.44706 -38.44612 -38.44271 -38.44264 -38.44253
 Alpha  occ. eigenvalues --  -38.43679 -38.43478  -2.20508  -2.20404  -2.20095
 Alpha  occ. eigenvalues --   -2.20080  -2.20043  -2.19498  -2.19232  -1.14159
 Alpha  occ. eigenvalues --   -1.14150  -1.14127  -1.14087  -1.14072  -1.14019
 Alpha  occ. eigenvalues --   -1.13787  -1.13775  -1.13762  -1.13760  -1.13727
 Alpha  occ. eigenvalues --   -1.13713  -1.13695  -1.13689  -1.13659  -1.13179
 Alpha  occ. eigenvalues --   -1.13167  -1.13111  -1.12907  -1.12889  -1.12872
 Alpha  occ. eigenvalues --   -0.17312  -0.13415  -0.11600  -0.11274
 Alpha virt. eigenvalues --   -0.05984  -0.05734  -0.05142  -0.03345  -0.03040
 Alpha virt. eigenvalues --   -0.02685  -0.01881  -0.01114  -0.00885  -0.00332
 Alpha virt. eigenvalues --   -0.00048   0.00149   0.00218   0.00281   0.00435

  Beta  occ. eigenvalues --  -38.44627 -38.44584 -38.44254 -38.44248 -38.44242
  Beta  occ. eigenvalues --  -38.43645 -38.43473  -2.20360  -2.20352  -2.20081
  Beta  occ. eigenvalues --   -2.20042  -2.20023  -2.19439  -2.19223  -1.14057
  Beta  occ. eigenvalues --   -1.14051  -1.14045  -1.14036  -1.14033  -1.13980
  Beta  occ. eigenvalues --   -1.13767  -1.13755  -1.13738  -1.13713  -1.13710
  Beta  occ. eigenvalues --   -1.13694  -1.13682  -1.13671  -1.13638  -1.13144
  Beta  occ. eigenvalues --   -1.13125  -1.13057  -1.12900  -1.12880  -1.12868
  Beta  occ. eigenvalues --   -0.16636  -0.13138  -0.11212
  Beta virt. eigenvalues --   -0.07831  -0.05897  -0.05239  -0.04559  -0.03111
  Beta virt. eigenvalues --   -0.02619  -0.02078  -0.01760  -0.01004  -0.00477
  Beta virt. eigenvalues --   -0.00092  -0.00002   0.00221   0.00320   0.00466

 Mulliken charges and spin densities:
               1          2
     1  Na  -0.467226   0.104764
     2  Na   0.394220   0.014744
     3  Na  -0.064830   0.205513
     4  Na   0.143963  -0.034035
     5  Na  -0.062427   0.395745
     6  Na  -0.153223   0.245836
     7  Na   0.209523   0.067434
 Sum of Mulliken charges =  -0.00000   1.00000

 Dipole moment (field-independent basis, Debye):
    X=              0.4736    Y=             -0.5675    Z=              0.0369  Tot=              0.7400
 Quadrupole moment (field-independent basis, Debye-Ang):
   XX=            -57.5743   YY=            -73.9102   ZZ=            -66.1362
   XY=              3.3274   XZ=              0.9358   YZ=              1.6681

 Normal termination of Gaussian 16 at Mon Dec  4 02:03:51 2023.
