 Gaussian 16, Revision B.01,
 Gaussian 16:  ES64L-G16RevB.01 20-Dec-2017

 -------------------------
 #P B3LYP/6-311+g(d) force
 -------------------------

 -----
 DPGEN
 -----
 Symbolic Z-matrix:
 Charge =  0 Multiplicity = 2

                         Standard orientation:
 ---------------------------------------------------------------------
 Center     Atomic      Atomic             Coordinates (Angstroms)
 Number     Number       Type             X           Y           Z
 ---------------------------------------------------------------------
      1         11           0        3.283860   -1.894894    0.355118
      2         11           0        0.526039    3.347912   -0.540372
      3         11           0       -0.377857   -3.277559   -0.939648
      4         11           0        3.841923    1.362988   -0.306093
      5         11           0       -0.209189   -0.351754    1.487585
      6         11           0       -3.764890   -1.283267   -0.136512
      7         11           0       -3.299887    2.096573    0.079921
 ---------------------------------------------------------------------

 SCF Done:  E(UB3LYP) =  -1136.11284125     A.U. after   22 cycles

 The electronic state is 2-A.
 Alpha  occ. eigenvalues --  -38.46003 -38.44436 -38.44349 -38.44267 -38.44246
 Alpha  occ. eigenvalues --  -38.44185 -38.43728  -2.21737  -2.20193  -2.20121
 Alpha  occ. eigenvalues --   -2.20062  -2.20035  -2.19967  -2.19489  -1.15433
 Alpha  occ. eigenvalues --   -1.15383  -1.15358  -1.13869  -1.13837  -1.13825
 Alpha  occ. eigenvalues --   -1.13809  -1.13794  -1.13757  -1.13739  -1.13720
 Alpha  occ. eigenvalues --   -1.13714  -1.13699  -1.13677  -1.13663  -1.13643
 Alpha  occ. eigenvalues --   -1.13608  -1.13588  -1.13161  -1.13132  -1.13119
 Alpha  occ. eigenvalues --   -0.16221  -0.13658  -0.12443  -0.09975
 Alpha virt. eigenvalues --   -0.07067  -0.06352  -0.03868  -0.03555  -0.02979
 Alpha virt. eigenvalues --   -0.02778  -0.02370  -0.01508  -0.01095  -0.00926
 Alpha virt. eigenvalues --   -0.00223   0.00183   0.00273   0.00434   0.00574

  Beta  occ. eigenvalues --  -38.45989 -38.44411 -38.44329 -38.44223 -38.44215
  Beta  occ. eigenvalues --  -38.44152 -38.43683  -2.21711  -2.20146  -2.20090
  Beta  occ. eigenvalues --   -2.19983  -2.19981  -2.19911  -2.19404  -1.15413
  Beta  occ. eigenvalues --   -1.15376  -1.15337  -1.13837  -1.13810  -1.13792
  Beta  occ. eigenvalues --   -1.13791  -1.13772  -1.13705  -1.13688  -1.13687
  Beta  occ. eigenvalues --   -1.13678  -1.13652  -1.13609  -1.13605  -1.13603
  Beta  occ. eigenvalues --   -1.13570  -1.13523  -1.13103  -1.13076  -1.13064
  Beta  occ. eigenvalues --   -0.15835  -0.12783  -0.12018
  Beta virt. eigenvalues --   -0.07057  -0.06739  -0.06275  -0.03551  -0.03263
  Beta virt. eigenvalues --   -0.02657  -0.02299  -0.02078  -0.01328  -0.00988
  Beta virt. eigenvalues --   -0.00831   0.00076   0.00332   0.00420   0.00494

 Mulliken charges and spin densities:
               1          2
     1  Na   0.160090   0.213247
     2  Na  -0.146201   0.227217
     3  Na  -0.140303   0.129864
     4  Na  -0.080365   0.179069
     5  Na   0.131825  -0.155960
     6  Na   0.008360   0.281746
     7  Na   0.066593   0.124817
 Sum of Mulliken charges =  -0.00000   1.00000

 Dipole moment (field-independent basis, Debye):
    X=             -0.3068    Y=             -0.7957    Z=             -0.0446  Tot=              0.8539
 Quadrupole moment (field-independent basis, Debye-Ang):
   XX=            -73.4421   YY=            -63.0274   ZZ=            -67.2786
   XY=              1.1944   XZ=              0.1264   YZ=              0.8798

 Normal termination of Gaussian 16 at Mon Dec  4 00:02:07 2023.
