 Gaussian 16, Revision B.01,
 Gaussian 16:  ES64L-G16RevB.01 20-Dec-2017

 -------------------------
 #P B3LYP/6-311+g(d) force
 -------------------------

 -----
 DPGEN
 -----
 Symbolic Z-matrix:
 Charge =  0 Multiplicity = 2

                         Standard orientation:
 ---------------------------------------------------------------------
 Center     Atomic      Atomic             Coordinates (Angstroms)
 Number     Number       Type             X           Y           Z
 ---------------------------------------------------------------------
      1         11           0       -1.398978   -0.244608    1.472531
      2         11           0       -3.943312   -1.372971   -0.597875
      3         11           0       -2.296308    2.513546   -0.659138
      4         11           0        3.320357   -2.187473    0.066984
      5         11           0        3.246588    0.976433   -0.835832
      6         11           0        1.139755    3.419435    0.594208
      7         11           0       -0.068103   -3.104362   -0.040879
 ---------------------------------------------------------------------

 SCF Done:  E(UB3LYP) =  -1136.11505857     A.U. after   23 cycles

 The electronic state is 2-A.
 Alpha  occ. eigenvalues --  -38.45713 -38.44882 -38.44297 -38.44282 -38.43877
 Alpha  occ. eigenvalues --  -38.43869 -38.43636  -2.21458  -2.20683  -2.20087
 Alpha  occ. eigenvalues --   -2.20045  -2.19684  -2.19670  -2.19446  -1.15150
 Alpha  occ. eigenvalues --   -1.15128  -1.15071  -1.14374  -1.14340  -1.14321
 Alpha  occ. eigenvalues --   -1.13765  -1.13762  -1.13731  -1.13725  -1.13716
 Alpha  occ. eigenvalues --   -1.13678  -1.13344  -1.13335  -1.13329  -1.13318
 Alpha  occ. eigenvalues --   -1.13304  -1.13289  -1.13108  -1.13098  -1.13074
 Alpha  occ. eigenvalues --   -0.16403  -0.13595  -0.12951  -0.09782
 Alpha virt. eigenvalues --   -0.07053  -0.06102  -0.04622  -0.03295  -0.02836
 Alpha virt. eigenvalues --   -0.02197  -0.02000  -0.01850  -0.01483  -0.01059
 Alpha virt. eigenvalues --   -0.00039   0.00198   0.00359   0.00449   0.00529

  Beta  occ. eigenvalues --  -38.45705 -38.44874 -38.44293 -38.44281 -38.43829
  Beta  occ. eigenvalues --  -38.43798 -38.43588  -2.21447  -2.20670  -2.20084
  Beta  occ. eigenvalues --   -2.20044  -2.19597  -2.19536  -2.19356  -1.15144
  Beta  occ. eigenvalues --   -1.15124  -1.15040  -1.14367  -1.14315  -1.14308
  Beta  occ. eigenvalues --   -1.13766  -1.13761  -1.13726  -1.13716  -1.13698
  Beta  occ. eigenvalues --   -1.13666  -1.13282  -1.13277  -1.13245  -1.13243
  Beta  occ. eigenvalues --   -1.13211  -1.13207  -1.13048  -1.13039  -1.13008
  Beta  occ. eigenvalues --   -0.15986  -0.12918  -0.12590
  Beta virt. eigenvalues --   -0.07106  -0.06544  -0.05741  -0.04309  -0.02858
  Beta virt. eigenvalues --   -0.02504  -0.01881  -0.01773  -0.01640  -0.01356
  Beta virt. eigenvalues --   -0.00773   0.00161   0.00329   0.00490   0.00584

 Mulliken charges and spin densities:
               1          2
     1  Na  -0.006906  -0.137982
     2  Na   0.068080   0.538874
     3  Na   0.048442   0.132160
     4  Na   0.144844   0.012219
     5  Na  -0.278474   0.286667
     6  Na   0.064023  -0.012552
     7  Na  -0.040008   0.180614
 Sum of Mulliken charges =  -0.00000   1.00000

 Dipole moment (field-independent basis, Debye):
    X=             -0.6156    Y=              0.5260    Z=              0.0801  Tot=              0.8137
 Quadrupole moment (field-independent basis, Debye-Ang):
   XX=            -72.9999   YY=            -61.2241   ZZ=            -68.8713
   XY=             -3.6600   XZ=              2.9301   YZ=              0.3522

 Normal termination of Gaussian 16 at Sun Dec  3 13:47:37 2023.
