 Gaussian 16, Revision B.01,
 Gaussian 16:  ES64L-G16RevB.01 20-Dec-2017

 -------------------------
 #P B3LYP/6-311+g(d) force
 -------------------------

 -----
 DPGEN
 -----
 Symbolic Z-matrix:
 Charge =  0 Multiplicity = 2

                         Standard orientation:
 ---------------------------------------------------------------------
 Center     Atomic      Atomic             Coordinates (Angstroms)
 Number     Number       Type             X           Y           Z
 ---------------------------------------------------------------------
      1         11           0        3.945194   -0.446660   -0.829058
      2         11           0       -0.062745   -0.179696    2.083513
      3         11           0       -3.123567    0.598657   -1.344908
      4         11           0        1.029819   -2.194979   -0.221191
      5         11           0       -1.230960    3.077267    0.210889
      6         11           0       -2.456955   -2.592256    0.115550
      7         11           0        1.899214    1.737665   -0.014795
 ---------------------------------------------------------------------

 SCF Done:  E(UB3LYP) =  -1136.12737362     A.U. after   20 cycles

 The electronic state is 2-A.
 Alpha  occ. eigenvalues --  -38.44519 -38.44301 -38.44114 -38.44013 -38.43885
 Alpha  occ. eigenvalues --  -38.43853 -38.43479  -2.20380  -2.20096  -2.19954
 Alpha  occ. eigenvalues --   -2.19801  -2.19757  -2.19707  -2.19283  -1.14073
 Alpha  occ. eigenvalues --   -1.14009  -1.13982  -1.13761  -1.13736  -1.13723
 Alpha  occ. eigenvalues --   -1.13658  -1.13640  -1.13565  -1.13490  -1.13480
 Alpha  occ. eigenvalues --   -1.13461  -1.13440  -1.13437  -1.13433  -1.13343
 Alpha  occ. eigenvalues --   -1.13332  -1.13287  -1.12961  -1.12943  -1.12931
 Alpha  occ. eigenvalues --   -0.17532  -0.13661  -0.12520  -0.10871
 Alpha virt. eigenvalues --   -0.06028  -0.05666  -0.04787  -0.03525  -0.03147
 Alpha virt. eigenvalues --   -0.02137  -0.01792  -0.01229  -0.00871  -0.00704
 Alpha virt. eigenvalues --   -0.00249   0.00307   0.00509   0.00634   0.00681

  Beta  occ. eigenvalues --  -38.44428 -38.44237 -38.44110 -38.44014 -38.43877
  Beta  occ. eigenvalues --  -38.43806 -38.43483  -2.20213  -2.19976  -2.19950
  Beta  occ. eigenvalues --   -2.19807  -2.19748  -2.19620  -2.19293  -1.13964
  Beta  occ. eigenvalues --   -1.13901  -1.13858  -1.13680  -1.13658  -1.13643
  Beta  occ. eigenvalues --   -1.13638  -1.13631  -1.13559  -1.13485  -1.13462
  Beta  occ. eigenvalues --   -1.13459  -1.13433  -1.13424  -1.13412  -1.13282
  Beta  occ. eigenvalues --   -1.13274  -1.13246  -1.12970  -1.12952  -1.12917
  Beta  occ. eigenvalues --   -0.16925  -0.12997  -0.12398
  Beta virt. eigenvalues --   -0.07438  -0.05854  -0.05279  -0.04502  -0.03100
  Beta virt. eigenvalues --   -0.02496  -0.01761  -0.01485  -0.01176  -0.00738
  Beta virt. eigenvalues --   -0.00607   0.00039   0.00406   0.00642   0.00781

 Mulliken charges and spin densities:
               1          2
     1  Na   1.012884   0.040736
     2  Na   0.282046   0.076526
     3  Na  -0.172735   0.248019
     4  Na  -0.549167   0.138969
     5  Na  -0.039085   0.137216
     6  Na   0.071026   0.189535
     7  Na  -0.604969   0.168998
 Sum of Mulliken charges =  -0.00000   1.00000

 Dipole moment (field-independent basis, Debye):
    X=              0.0984    Y=             -0.4088    Z=              0.3216  Tot=              0.5293
 Quadrupole moment (field-independent basis, Debye-Ang):
   XX=            -63.6199   YY=            -65.2469   ZZ=            -70.0395
   XY=              0.9772   XZ=             -1.2270   YZ=              0.5746

 Normal termination of Gaussian 16 at Sun Dec  3 13:32:38 2023.
