 Gaussian 16, Revision B.01,
 Gaussian 16:  ES64L-G16RevB.01 20-Dec-2017

 -------------------------
 #P B3LYP/6-311+g(d) force
 -------------------------

 -----
 DPGEN
 -----
 Symbolic Z-matrix:
 Charge =  0 Multiplicity = 2

                         Standard orientation:
 ---------------------------------------------------------------------
 Center     Atomic      Atomic             Coordinates (Angstroms)
 Number     Number       Type             X           Y           Z
 ---------------------------------------------------------------------
      1         11           0        3.936393    1.945179   -0.454078
      2         11           0       -1.672015   -1.580454   -0.832891
      3         11           0        0.092561    2.312178   -0.022865
      4         11           0        4.660700   -1.814487   -0.066040
      5         11           0        1.442355   -1.638903    0.982648
      6         11           0       -5.565167   -0.956770   -0.159426
      7         11           0       -2.894828    1.733256    0.552651
 ---------------------------------------------------------------------

 SCF Done:  E(UB3LYP) =  -1136.11038528     A.U. after   27 cycles

 The electronic state is 2-A.
 Alpha  occ. eigenvalues --  -38.45183 -38.44922 -38.44761 -38.44745 -38.44533
 Alpha  occ. eigenvalues --  -38.44323 -38.42883  -2.20922  -2.20693  -2.20569
 Alpha  occ. eigenvalues --   -2.20519  -2.20314  -2.20121  -2.18697  -1.14608
 Alpha  occ. eigenvalues --   -1.14573  -1.14541  -1.14380  -1.14360  -1.14312
 Alpha  occ. eigenvalues --   -1.14255  -1.14242  -1.14199  -1.14188  -1.14184
 Alpha  occ. eigenvalues --   -1.14164  -1.13964  -1.13960  -1.13916  -1.13798
 Alpha  occ. eigenvalues --   -1.13776  -1.13743  -1.12373  -1.12357  -1.12354
 Alpha  occ. eigenvalues --   -0.16432  -0.14079  -0.11648  -0.11385
 Alpha virt. eigenvalues --   -0.07246  -0.05573  -0.04365  -0.03377  -0.03242
 Alpha virt. eigenvalues --   -0.02812  -0.01915  -0.01768  -0.01226  -0.00895
 Alpha virt. eigenvalues --   -0.00282  -0.00200   0.00054   0.00323   0.00556

  Beta  occ. eigenvalues --  -38.45158 -38.44886 -38.44777 -38.44714 -38.44445
  Beta  occ. eigenvalues --  -38.44284 -38.42875  -2.20875  -2.20632  -2.20550
  Beta  occ. eigenvalues --   -2.20515  -2.20149  -2.20051  -2.18686  -1.14575
  Beta  occ. eigenvalues --   -1.14545  -1.14510  -1.14342  -1.14316  -1.14242
  Beta  occ. eigenvalues --   -1.14222  -1.14214  -1.14213  -1.14199  -1.14174
  Beta  occ. eigenvalues --   -1.14135  -1.13852  -1.13844  -1.13811  -1.13750
  Beta  occ. eigenvalues --   -1.13736  -1.13679  -1.12367  -1.12344  -1.12341
  Beta  occ. eigenvalues --   -0.15745  -0.13657  -0.11293
  Beta virt. eigenvalues --   -0.07888  -0.07077  -0.05082  -0.04027  -0.03129
  Beta virt. eigenvalues --   -0.02888  -0.02614  -0.01747  -0.01342  -0.00912
  Beta virt. eigenvalues --   -0.00560  -0.00231   0.00003   0.00108   0.00423

 Mulliken charges and spin densities:
               1          2
     1  Na   0.007602   0.361329
     2  Na  -0.181068   0.193272
     3  Na  -0.283333   0.141703
     4  Na   0.277153  -0.050106
     5  Na  -0.338680   0.047524
     6  Na   0.331689   0.452636
     7  Na   0.186638  -0.146358
 Sum of Mulliken charges =  -0.00000   1.00000

 Dipole moment (field-independent basis, Debye):
    X=              0.4774    Y=             -0.5310    Z=             -0.1939  Tot=              0.7399
 Quadrupole moment (field-independent basis, Debye-Ang):
   XX=            -53.1205   YY=            -72.6716   ZZ=            -70.2324
   XY=             -1.3030   XZ=             -2.5505   YZ=              1.5237

 Normal termination of Gaussian 16 at Sun Dec  3 22:53:14 2023.
