 Gaussian 16, Revision B.01,
 Gaussian 16:  ES64L-G16RevB.01 20-Dec-2017

 -------------------------
 #P B3LYP/6-311+g(d) force
 -------------------------

 -----
 DPGEN
 -----
 Symbolic Z-matrix:
 Charge =  0 Multiplicity = 2

                         Standard orientation:
 ---------------------------------------------------------------------
 Center     Atomic      Atomic             Coordinates (Angstroms)
 Number     Number       Type             X           Y           Z
 ---------------------------------------------------------------------
      1         11           0       -0.499231   -2.726673   -0.373048
      2         11           0        2.655073   -1.472283   -0.201699
      3         11           0        0.304851   -0.423737    1.891823
      4         11           0       -1.230326    2.870950   -0.088128
      5         11           0       -0.249970    0.244431   -1.798832
      6         11           0        2.177282    2.067469    0.190067
      7         11           0       -3.157679   -0.560157    0.379818
 ---------------------------------------------------------------------

 SCF Done:  E(UB3LYP) =  -1136.13969542     A.U. after   19 cycles

 The electronic state is 2-A.
 Alpha  occ. eigenvalues --  -38.43887 -38.43761 -38.43667 -38.43557 -38.43473
 Alpha  occ. eigenvalues --  -38.43393 -38.43301  -2.19689  -2.19579  -2.19502
 Alpha  occ. eigenvalues --   -2.19419  -2.19393  -2.19292  -2.19239  -1.13360
 Alpha  occ. eigenvalues --   -1.13346  -1.13335  -1.13278  -1.13242  -1.13215
 Alpha  occ. eigenvalues --   -1.13183  -1.13177  -1.13138  -1.13128  -1.13086
 Alpha  occ. eigenvalues --   -1.13061  -1.13060  -1.13034  -1.13001  -1.12991
 Alpha  occ. eigenvalues --   -1.12942  -1.12905  -1.12902  -1.12860  -1.12852
 Alpha  occ. eigenvalues --   -0.18618  -0.12789  -0.12674  -0.10728
 Alpha virt. eigenvalues --   -0.05448  -0.05161  -0.04913  -0.03091  -0.03081
 Alpha virt. eigenvalues --   -0.02483  -0.01381  -0.01188  -0.00448  -0.00282
 Alpha virt. eigenvalues --   -0.00007   0.00369   0.00834   0.00866   0.00906

  Beta  occ. eigenvalues --  -38.43880 -38.43759 -38.43662 -38.43551 -38.43396
  Beta  occ. eigenvalues --  -38.43380 -38.43227  -2.19678  -2.19578  -2.19496
  Beta  occ. eigenvalues --   -2.19412  -2.19273  -2.19251  -2.19104  -1.13341
  Beta  occ. eigenvalues --   -1.13337  -1.13326  -1.13268  -1.13234  -1.13216
  Beta  occ. eigenvalues --   -1.13175  -1.13157  -1.13126  -1.13115  -1.13062
  Beta  occ. eigenvalues --   -1.13049  -1.13004  -1.12954  -1.12944  -1.12901
  Beta  occ. eigenvalues --   -1.12894  -1.12879  -1.12818  -1.12763  -1.12760
  Beta  occ. eigenvalues --   -0.17884  -0.12549  -0.12448
  Beta virt. eigenvalues --   -0.06844  -0.05430  -0.05122  -0.04831  -0.02342
  Beta virt. eigenvalues --   -0.02319  -0.01468  -0.01281  -0.01104  -0.00484
  Beta virt. eigenvalues --   -0.00332   0.00127   0.00393   0.00855   0.00881

 Mulliken charges and spin densities:
               1          2
     1  Na   0.316080   0.024132
     2  Na   0.194023  -0.054322
     3  Na  -0.350759   0.727811
     4  Na   0.012289  -0.114536
     5  Na  -0.140463   0.557989
     6  Na   0.024510  -0.101084
     7  Na  -0.055680  -0.039989
 Sum of Mulliken charges =  -0.00000   1.00000

 Dipole moment (field-independent basis, Debye):
    X=             -0.0771    Y=              0.1406    Z=              0.0846  Tot=              0.1813
 Quadrupole moment (field-independent basis, Debye-Ang):
   XX=            -58.1581   YY=            -61.2910   ZZ=            -74.0661
   XY=             -0.4839   XZ=             -1.4167   YZ=              1.4490

 Normal termination of Gaussian 16 at Thu Dec  7 11:57:17 2023.
