 Gaussian 16, Revision B.01,
 Gaussian 16:  ES64L-G16RevB.01 20-Dec-2017

 -------------------------
 #P B3LYP/6-311+g(d) force
 -------------------------

 -----
 DPGEN
 -----
 Symbolic Z-matrix:
 Charge =  0 Multiplicity = 2

                         Standard orientation:
 ---------------------------------------------------------------------
 Center     Atomic      Atomic             Coordinates (Angstroms)
 Number     Number       Type             X           Y           Z
 ---------------------------------------------------------------------
      1         11           0       -0.203289   -2.652625   -0.009268
      2         11           0       -0.240832    0.058857    1.983069
      3         11           0       -0.168652   -0.114293   -1.700649
      4         11           0        2.971600   -1.303147   -0.017728
      5         11           0        2.193961    2.090309   -0.070497
      6         11           0       -3.343763   -0.498629   -0.080878
      7         11           0       -1.209026    2.419527   -0.104048
 ---------------------------------------------------------------------

 SCF Done:  E(UB3LYP) =  -1136.13674489     A.U. after   19 cycles

 The electronic state is 2-A.
 Alpha  occ. eigenvalues --  -38.44490 -38.44036 -38.43491 -38.43485 -38.43299
 Alpha  occ. eigenvalues --  -38.43169 -38.43158  -2.20292  -2.19850  -2.19404
 Alpha  occ. eigenvalues --   -2.19329  -2.19289  -2.19075  -2.19056  -1.13964
 Alpha  occ. eigenvalues --   -1.13946  -1.13935  -1.13518  -1.13510  -1.13501
 Alpha  occ. eigenvalues --   -1.13092  -1.13056  -1.13027  -1.13013  -1.13006
 Alpha  occ. eigenvalues --   -1.12988  -1.12980  -1.12971  -1.12880  -1.12755
 Alpha  occ. eigenvalues --   -1.12743  -1.12726  -1.12716  -1.12676  -1.12649
 Alpha  occ. eigenvalues --   -0.18823  -0.13038  -0.12424  -0.10734
 Alpha virt. eigenvalues --   -0.06018  -0.05064  -0.04365  -0.03101  -0.02857
 Alpha virt. eigenvalues --   -0.02539  -0.01912  -0.01035  -0.00226  -0.00195
 Alpha virt. eigenvalues --   -0.00035   0.00326   0.00780   0.00890   0.00901

  Beta  occ. eigenvalues --  -38.44488 -38.44037 -38.43489 -38.43391 -38.43227
  Beta  occ. eigenvalues --  -38.43159 -38.43148  -2.20291  -2.19853  -2.19329
  Beta  occ. eigenvalues --   -2.19231  -2.19159  -2.19062  -2.19043  -1.13949
  Beta  occ. eigenvalues --   -1.13941  -1.13936  -1.13516  -1.13505  -1.13503
  Beta  occ. eigenvalues --   -1.13008  -1.12984  -1.12983  -1.12974  -1.12947
  Beta  occ. eigenvalues --   -1.12925  -1.12898  -1.12883  -1.12788  -1.12736
  Beta  occ. eigenvalues --   -1.12709  -1.12693  -1.12673  -1.12665  -1.12646
  Beta  occ. eigenvalues --   -0.18074  -0.12834  -0.12157
  Beta virt. eigenvalues --   -0.06786  -0.05980  -0.05077  -0.04349  -0.02355
  Beta virt. eigenvalues --   -0.02024  -0.01827  -0.01450  -0.00990  -0.00267
  Beta virt. eigenvalues --   -0.00254   0.00108   0.00344   0.00827   0.00870

 Mulliken charges and spin densities:
               1          2
     1  Na   0.221644  -0.118215
     2  Na  -0.487528   0.798137
     3  Na  -0.334377   0.642374
     4  Na   0.029003  -0.075400
     5  Na   0.059275  -0.083612
     6  Na   0.266376  -0.087349
     7  Na   0.245608  -0.075934
 Sum of Mulliken charges =  -0.00000   1.00000

 Dipole moment (field-independent basis, Debye):
    X=             -0.2257    Y=             -0.1155    Z=              0.1136  Tot=              0.2779
 Quadrupole moment (field-independent basis, Debye-Ang):
   XX=            -52.1585   YY=            -65.8567   ZZ=            -74.5437
   XY=              0.3607   XZ=              0.1997   YZ=             -0.3608

 Normal termination of Gaussian 16 at Thu Dec  7 12:55:43 2023.
