 Gaussian 16, Revision B.01,
 Gaussian 16:  ES64L-G16RevB.01 20-Dec-2017

 -------------------------
 #P B3LYP/6-311+g(d) force
 -------------------------

 -----
 DPGEN
 -----
 Symbolic Z-matrix:
 Charge =  0 Multiplicity = 2

                         Standard orientation:
 ---------------------------------------------------------------------
 Center     Atomic      Atomic             Coordinates (Angstroms)
 Number     Number       Type             X           Y           Z
 ---------------------------------------------------------------------
      1         11           0        3.148537   -1.039653   -0.416570
      2         11           0       -1.246994    2.499060   -0.221071
      3         11           0        0.530057   -0.771192    1.914622
      4         11           0       -0.187616    0.019059   -1.815900
      5         11           0       -3.439522    0.003216    0.414416
      6         11           0        2.091197    2.067980    0.407540
      7         11           0       -0.895658   -2.778470   -0.283038
 ---------------------------------------------------------------------

 SCF Done:  E(UB3LYP) =  -1136.13225455     A.U. after   19 cycles

 The electronic state is 2-A.
 Alpha  occ. eigenvalues --  -38.44836 -38.44703 -38.43662 -38.43549 -38.43399
 Alpha  occ. eigenvalues --  -38.43384 -38.42997  -2.20615  -2.20507  -2.19538
 Alpha  occ. eigenvalues --   -2.19398  -2.19321  -2.19241  -2.18869  -1.14290
 Alpha  occ. eigenvalues --   -1.14273  -1.14247  -1.14178  -1.14169  -1.14149
 Alpha  occ. eigenvalues --   -1.13215  -1.13193  -1.13159  -1.13075  -1.13061
 Alpha  occ. eigenvalues --   -1.13038  -1.13018  -1.13008  -1.12935  -1.12908
 Alpha  occ. eigenvalues --   -1.12887  -1.12854  -1.12560  -1.12522  -1.12496
 Alpha  occ. eigenvalues --   -0.18323  -0.13177  -0.12206  -0.10634
 Alpha virt. eigenvalues --   -0.06429  -0.05109  -0.04311  -0.03394  -0.02907
 Alpha virt. eigenvalues --   -0.02486  -0.02015  -0.01013  -0.00514  -0.00220
 Alpha virt. eigenvalues --   -0.00030   0.00332   0.00664   0.00780   0.00794

  Beta  occ. eigenvalues --  -38.44829 -38.44699 -38.43594 -38.43541 -38.43391
  Beta  occ. eigenvalues --  -38.43303 -38.42992  -2.20603  -2.20503  -2.19413
  Beta  occ. eigenvalues --   -2.19387  -2.19230  -2.19173  -2.18864  -1.14276
  Beta  occ. eigenvalues --   -1.14260  -1.14241  -1.14171  -1.14156  -1.14141
  Beta  occ. eigenvalues --   -1.13134  -1.13108  -1.13074  -1.13057  -1.13045
  Beta  occ. eigenvalues --   -1.13019  -1.12955  -1.12908  -1.12883  -1.12854
  Beta  occ. eigenvalues --   -1.12838  -1.12816  -1.12546  -1.12503  -1.12497
  Beta  occ. eigenvalues --   -0.17614  -0.12976  -0.11972
  Beta virt. eigenvalues --   -0.06832  -0.06306  -0.05073  -0.04249  -0.02681
  Beta virt. eigenvalues --   -0.02168  -0.01918  -0.01468  -0.00943  -0.00548
  Beta virt. eigenvalues --   -0.00211   0.00106   0.00366   0.00774   0.00811

 Mulliken charges and spin densities:
               1          2
     1  Na   0.244839  -0.054689
     2  Na   0.105001  -0.000259
     3  Na  -0.271454   0.521005
     4  Na  -0.017658   0.564930
     5  Na  -0.092831   0.011886
     6  Na  -0.064480   0.020093
     7  Na   0.096582  -0.062965
 Sum of Mulliken charges =  -0.00000   1.00000

 Dipole moment (field-independent basis, Debye):
    X=              0.0777    Y=             -0.3814    Z=              0.1308  Tot=              0.4106
 Quadrupole moment (field-independent basis, Debye-Ang):
   XX=            -52.2950   YY=            -66.8584   ZZ=            -74.1427
   XY=             -0.1754   XZ=             -2.2024   YZ=              1.7069

 Normal termination of Gaussian 16 at Tue Dec  5 22:26:44 2023.
