 Gaussian 16, Revision B.01,
 Gaussian 16:  ES64L-G16RevB.01 20-Dec-2017

 -------------------------
 #P B3LYP/6-311+g(d) force
 -------------------------

 -----
 DPGEN
 -----
 Symbolic Z-matrix:
 Charge =  0 Multiplicity = 2

                         Standard orientation:
 ---------------------------------------------------------------------
 Center     Atomic      Atomic             Coordinates (Angstroms)
 Number     Number       Type             X           Y           Z
 ---------------------------------------------------------------------
      1         11           0        2.768547   -0.019802    0.164813
      2         11           0        3.210782   -3.254758    0.624886
      3         11           0       -3.240172   -0.276614   -1.198869
      4         11           0        1.863663    3.957113    0.544910
      5         11           0       -4.611200   -0.421636    1.597531
      6         11           0       -0.078146   -1.752177   -0.933795
      7         11           0        0.086527    1.767873   -0.799476
 ---------------------------------------------------------------------

 SCF Done:  E(UB3LYP) =  -1136.12425077     A.U. after   19 cycles

 The electronic state is 2-A.
 Alpha  occ. eigenvalues --  -38.44293 -38.44268 -38.44183 -38.44028 -38.43895
 Alpha  occ. eigenvalues --  -38.43597 -38.43583  -2.20117  -2.20116  -2.20029
 Alpha  occ. eigenvalues --   -2.19827  -2.19705  -2.19487  -2.19421  -1.13843
 Alpha  occ. eigenvalues --   -1.13815  -1.13771  -1.13744  -1.13740  -1.13728
 Alpha  occ. eigenvalues --   -1.13708  -1.13705  -1.13608  -1.13488  -1.13485
 Alpha  occ. eigenvalues --   -1.13439  -1.13401  -1.13358  -1.13336  -1.13188
 Alpha  occ. eigenvalues --   -1.13163  -1.13100  -1.13097  -1.13076  -1.13060
 Alpha  occ. eigenvalues --   -0.16980  -0.13852  -0.12655  -0.10817
 Alpha virt. eigenvalues --   -0.06003  -0.05180  -0.04696  -0.03940  -0.02520
 Alpha virt. eigenvalues --   -0.02306  -0.01725  -0.01654  -0.01298  -0.00883
 Alpha virt. eigenvalues --   -0.00091   0.00057   0.00194   0.00437   0.00602

  Beta  occ. eigenvalues --  -38.44262 -38.44197 -38.44135 -38.44002 -38.43877
  Beta  occ. eigenvalues --  -38.43583 -38.43579  -2.20107  -2.19944  -2.19938
  Beta  occ. eigenvalues --   -2.19779  -2.19671  -2.19458  -2.19431  -1.13822
  Beta  occ. eigenvalues --   -1.13809  -1.13704  -1.13663  -1.13656  -1.13650
  Beta  occ. eigenvalues --   -1.13622  -1.13618  -1.13541  -1.13452  -1.13450
  Beta  occ. eigenvalues --   -1.13411  -1.13379  -1.13335  -1.13312  -1.13171
  Beta  occ. eigenvalues --   -1.13147  -1.13114  -1.13103  -1.13026  -1.13012
  Beta  occ. eigenvalues --   -0.16410  -0.13128  -0.12450
  Beta virt. eigenvalues --   -0.07391  -0.05679  -0.04876  -0.04422  -0.03675
  Beta virt. eigenvalues --   -0.02386  -0.01922  -0.01524  -0.01315  -0.01109
  Beta virt. eigenvalues --   -0.00492   0.00157   0.00207   0.00373   0.00575

 Mulliken charges and spin densities:
               1          2
     1  Na  -0.102763   0.191148
     2  Na   0.758911   0.164583
     3  Na  -0.186163  -0.139949
     4  Na   0.977408   0.123577
     5  Na   0.174331   0.503892
     6  Na  -0.643094   0.077411
     7  Na  -0.978630   0.079338
 Sum of Mulliken charges =  -0.00000   1.00000

 Dipole moment (field-independent basis, Debye):
    X=              0.7146    Y=             -0.2432    Z=              0.3600  Tot=              0.8363
 Quadrupole moment (field-independent basis, Debye-Ang):
   XX=            -69.4465   YY=            -59.4126   ZZ=            -67.9195
   XY=             -0.8531   XZ=              1.9006   YZ=              0.5301

 Normal termination of Gaussian 16 at Wed Nov 29 03:03:36 2023.
