 Gaussian 16, Revision B.01,
 Gaussian 16:  ES64L-G16RevB.01 20-Dec-2017

 -------------------------
 #P B3LYP/6-311+g(d) force
 -------------------------

 -----
 DPGEN
 -----
 Symbolic Z-matrix:
 Charge =  0 Multiplicity = 2

                         Standard orientation:
 ---------------------------------------------------------------------
 Center     Atomic      Atomic             Coordinates (Angstroms)
 Number     Number       Type             X           Y           Z
 ---------------------------------------------------------------------
      1         11           0       -4.159277   -1.909665    0.014672
      2         11           0       -1.032910   -1.915094   -0.354511
      3         11           0       -1.279312    3.676324   -0.366854
      4         11           0       -2.578409    0.906659    0.807398
      5         11           0        2.857083   -2.299739   -0.104898
      6         11           0        1.336913    1.078421   -0.450886
      7         11           0        4.855913    0.463094    0.455079
 ---------------------------------------------------------------------

 SCF Done:  E(UB3LYP) =  -1136.12793894     A.U. after   20 cycles

 The electronic state is 2-A.
 Alpha  occ. eigenvalues --  -38.44681 -38.44513 -38.44106 -38.43839 -38.43517
 Alpha  occ. eigenvalues --  -38.43500 -38.43455  -2.20471  -2.20307  -2.19975
 Alpha  occ. eigenvalues --   -2.19665  -2.19381  -2.19374  -2.19258  -1.14159
 Alpha  occ. eigenvalues --   -1.14125  -1.14112  -1.14027  -1.14014  -1.13883
 Alpha  occ. eigenvalues --   -1.13683  -1.13664  -1.13583  -1.13314  -1.13308
 Alpha  occ. eigenvalues --   -1.13271  -1.13099  -1.13067  -1.13058  -1.13023
 Alpha  occ. eigenvalues --   -1.13016  -1.12933  -1.12919  -1.12919  -1.12888
 Alpha  occ. eigenvalues --   -0.16937  -0.14322  -0.12375  -0.10576
 Alpha virt. eigenvalues --   -0.06319  -0.05327  -0.04373  -0.03918  -0.02708
 Alpha virt. eigenvalues --   -0.02325  -0.01821  -0.01611  -0.01207  -0.00693
 Alpha virt. eigenvalues --   -0.00219   0.00052   0.00489   0.00563   0.00578

  Beta  occ. eigenvalues --  -38.44666 -38.44501 -38.44095 -38.43753 -38.43486
  Beta  occ. eigenvalues --  -38.43464 -38.43459  -2.20451  -2.20290  -2.19956
  Beta  occ. eigenvalues --   -2.19503  -2.19321  -2.19312  -2.19265  -1.14151
  Beta  occ. eigenvalues --   -1.14116  -1.14052  -1.14019  -1.13970  -1.13878
  Beta  occ. eigenvalues --   -1.13667  -1.13654  -1.13559  -1.13202  -1.13197
  Beta  occ. eigenvalues --   -1.13170  -1.13052  -1.13030  -1.13021  -1.12978
  Beta  occ. eigenvalues --   -1.12974  -1.12939  -1.12925  -1.12891  -1.12855
  Beta  occ. eigenvalues --   -0.16379  -0.13758  -0.12216
  Beta virt. eigenvalues --   -0.06915  -0.06141  -0.05225  -0.03818  -0.03573
  Beta virt. eigenvalues --   -0.02390  -0.02143  -0.01764  -0.01181  -0.00882
  Beta virt. eigenvalues --   -0.00427   0.00070   0.00296   0.00546   0.00658

 Mulliken charges and spin densities:
               1          2
     1  Na   1.565961   0.400053
     2  Na  -0.890313   0.271141
     3  Na   0.671452   0.032353
     4  Na  -0.596578   0.079859
     5  Na   0.144623  -0.263287
     6  Na  -1.301482  -0.034780
     7  Na   0.406337   0.514662
 Sum of Mulliken charges =  -0.00000   1.00000

 Dipole moment (field-independent basis, Debye):
    X=             -0.1621    Y=             -0.3661    Z=             -0.1096  Tot=              0.4151
 Quadrupole moment (field-independent basis, Debye-Ang):
   XX=            -63.2479   YY=            -61.6856   ZZ=            -71.3627
   XY=             -2.8797   XZ=              0.1443   YZ=             -0.5000

 Normal termination of Gaussian 16 at Sun Dec  3 12:20:36 2023.
