 Gaussian 16, Revision B.01,
 Gaussian 16:  ES64L-G16RevB.01 20-Dec-2017

 -------------------------
 #P B3LYP/6-311+g(d) force
 -------------------------

 -----
 DPGEN
 -----
 Symbolic Z-matrix:
 Charge =  0 Multiplicity = 2

                         Standard orientation:
 ---------------------------------------------------------------------
 Center     Atomic      Atomic             Coordinates (Angstroms)
 Number     Number       Type             X           Y           Z
 ---------------------------------------------------------------------
      1         11           0        1.368614    1.576499    0.532608
      2         11           0       -4.568132   -0.162341   -1.027310
      3         11           0        5.085026    0.402193   -1.101861
      4         11           0       -0.196299   -0.348105    2.466331
      5         11           0       -2.239079   -2.185735   -0.304464
      6         11           0        2.323132   -2.107816   -0.248718
      7         11           0       -1.773261    2.825305   -0.316587
 ---------------------------------------------------------------------

 SCF Done:  E(UB3LYP) =  -1136.11032725     A.U. after   23 cycles

 The electronic state is 2-A.
 Alpha  occ. eigenvalues --  -38.45300 -38.44989 -38.44850 -38.44424 -38.43934
 Alpha  occ. eigenvalues --  -38.43772 -38.43561  -2.21113  -2.20715  -2.20613
 Alpha  occ. eigenvalues --   -2.20191  -2.19729  -2.19560  -2.19401  -1.14793
 Alpha  occ. eigenvalues --   -1.14758  -1.14724  -1.14420  -1.14390  -1.14346
 Alpha  occ. eigenvalues --   -1.14269  -1.14264  -1.14214  -1.13871  -1.13832
 Alpha  occ. eigenvalues --   -1.13809  -1.13418  -1.13387  -1.13369  -1.13239
 Alpha  occ. eigenvalues --   -1.13221  -1.13180  -1.13115  -1.13091  -1.12989
 Alpha  occ. eigenvalues --   -0.16594  -0.13481  -0.11664  -0.11494
 Alpha virt. eigenvalues --   -0.06565  -0.05538  -0.05319  -0.03320  -0.03000
 Alpha virt. eigenvalues --   -0.02342  -0.02236  -0.01603  -0.01234  -0.00920
 Alpha virt. eigenvalues --   -0.00235  -0.00052   0.00163   0.00251   0.00517

  Beta  occ. eigenvalues --  -38.45242 -38.45010 -38.44777 -38.44375 -38.43910
  Beta  occ. eigenvalues --  -38.43768 -38.43562  -2.21007  -2.20756  -2.20476
  Beta  occ. eigenvalues --   -2.20100  -2.19683  -2.19555  -2.19405  -1.14723
  Beta  occ. eigenvalues --   -1.14686  -1.14643  -1.14452  -1.14420  -1.14350
  Beta  occ. eigenvalues --   -1.14175  -1.14170  -1.14127  -1.13808  -1.13771
  Beta  occ. eigenvalues --   -1.13745  -1.13394  -1.13356  -1.13332  -1.13236
  Beta  occ. eigenvalues --   -1.13218  -1.13158  -1.13099  -1.13095  -1.12998
  Beta  occ. eigenvalues --   -0.15997  -0.12956  -0.11337
  Beta virt. eigenvalues --   -0.08319  -0.06132  -0.05102  -0.04763  -0.03193
  Beta virt. eigenvalues --   -0.02545  -0.02153  -0.01968  -0.01269  -0.00988
  Beta virt. eigenvalues --   -0.00720  -0.00128   0.00149   0.00274   0.00352

 Mulliken charges and spin densities:
               1          2
     1  Na  -0.691155   0.053522
     2  Na   0.119170   0.167611
     3  Na   0.390960   0.356107
     4  Na   0.286976   0.293811
     5  Na  -0.231137  -0.014940
     6  Na  -0.009427  -0.129306
     7  Na   0.134613   0.273196
 Sum of Mulliken charges =  -0.00000   1.00000

 Dipole moment (field-independent basis, Debye):
    X=              0.5039    Y=              0.2132    Z=              0.5162  Tot=              0.7522
 Quadrupole moment (field-independent basis, Debye-Ang):
   XX=            -62.0431   YY=            -69.7465   ZZ=            -68.1587
   XY=             -2.6201   XZ=             -1.3660   YZ=             -4.2237

 Normal termination of Gaussian 16 at Sun Dec  3 15:13:16 2023.
