 Gaussian 16, Revision B.01,
 Gaussian 16:  ES64L-G16RevB.01 20-Dec-2017

 -------------------------
 #P B3LYP/6-311+g(d) force
 -------------------------

 -----
 DPGEN
 -----
 Symbolic Z-matrix:
 Charge =  0 Multiplicity = 2

                         Standard orientation:
 ---------------------------------------------------------------------
 Center     Atomic      Atomic             Coordinates (Angstroms)
 Number     Number       Type             X           Y           Z
 ---------------------------------------------------------------------
      1         11           0        3.740824   -0.805555    0.786764
      2         11           0        0.930324   -1.188384   -1.383430
      3         11           0       -2.228642   -2.091740   -0.584362
      4         11           0       -0.006828   -0.213189    2.145222
      5         11           0        2.262026    2.049167   -0.612405
      6         11           0       -1.347643    1.177174   -1.366864
      7         11           0       -3.350061    1.072528    1.015075
 ---------------------------------------------------------------------

 SCF Done:  E(UB3LYP) =  -1136.12092807     A.U. after   31 cycles

 The electronic state is 2-A.
 Alpha  occ. eigenvalues --  -38.45272 -38.45236 -38.44546 -38.44035 -38.43624
 Alpha  occ. eigenvalues --  -38.43296 -38.42342  -2.21058  -2.21025  -2.20361
 Alpha  occ. eigenvalues --   -2.19961  -2.19447  -2.19139  -2.18251  -1.14735
 Alpha  occ. eigenvalues --   -1.14716  -1.14689  -1.14684  -1.14662  -1.14651
 Alpha  occ. eigenvalues --   -1.14029  -1.14018  -1.13984  -1.13655  -1.13633
 Alpha  occ. eigenvalues --   -1.13572  -1.13137  -1.13100  -1.13087  -1.12815
 Alpha  occ. eigenvalues --   -1.12794  -1.12770  -1.11971  -1.11933  -1.11847
 Alpha  occ. eigenvalues --   -0.18278  -0.14003  -0.11695  -0.10603
 Alpha virt. eigenvalues --   -0.06906  -0.05555  -0.04613  -0.03292  -0.02638
 Alpha virt. eigenvalues --   -0.02558  -0.02265  -0.01314  -0.00878  -0.00253
 Alpha virt. eigenvalues --    0.00091   0.00154   0.00291   0.00538   0.00677

  Beta  occ. eigenvalues --  -38.45217 -38.45204 -38.44501 -38.43985 -38.43643
  Beta  occ. eigenvalues --  -38.43289 -38.42331  -2.20991  -2.20932  -2.20280
  Beta  occ. eigenvalues --   -2.19868  -2.19485  -2.19126  -2.18235  -1.14662
  Beta  occ. eigenvalues --   -1.14655  -1.14651  -1.14635  -1.14625  -1.14563
  Beta  occ. eigenvalues --   -1.13968  -1.13961  -1.13920  -1.13593  -1.13571
  Beta  occ. eigenvalues --   -1.13499  -1.13158  -1.13124  -1.13106  -1.12800
  Beta  occ. eigenvalues --   -1.12787  -1.12763  -1.11957  -1.11890  -1.11846
  Beta  occ. eigenvalues --   -0.17510  -0.13925  -0.10468
  Beta virt. eigenvalues --   -0.07768  -0.06596  -0.05188  -0.04244  -0.02817
  Beta virt. eigenvalues --   -0.02404  -0.01970  -0.01824  -0.00950  -0.00718
  Beta virt. eigenvalues --   -0.00154   0.00160   0.00212   0.00346   0.00608

 Mulliken charges and spin densities:
               1          2
     1  Na   0.487175   0.044209
     2  Na  -0.410987   0.213752
     3  Na   0.122882   0.025556
     4  Na  -0.521692   0.492236
     5  Na   0.056331   0.101893
     6  Na  -0.091244   0.199123
     7  Na   0.357535  -0.076769
 Sum of Mulliken charges =  -0.00000   1.00000

 Dipole moment (field-independent basis, Debye):
    X=              1.0653    Y=             -0.2432    Z=              0.5706  Tot=              1.2327
 Quadrupole moment (field-independent basis, Debye-Ang):
   XX=            -50.0861   YY=            -73.1614   ZZ=            -72.4133
   XY=              1.0844   XZ=              1.3311   YZ=             -7.1900

 Normal termination of Gaussian 16 at Fri Dec  8 05:39:13 2023.
