 Gaussian 16, Revision B.01,
 Gaussian 16:  ES64L-G16RevB.01 20-Dec-2017

 -------------------------
 #P B3LYP/6-311+g(d) force
 -------------------------

 -----
 DPGEN
 -----
 Symbolic Z-matrix:
 Charge =  0 Multiplicity = 2

                         Standard orientation:
 ---------------------------------------------------------------------
 Center     Atomic      Atomic             Coordinates (Angstroms)
 Number     Number       Type             X           Y           Z
 ---------------------------------------------------------------------
      1         11           0        3.621972   -0.087572   -0.697701
      2         11           0       -2.849497   -1.805447   -0.413324
      3         11           0       -0.802911   -0.041762    1.997433
      4         11           0        1.118557    2.320666    0.466112
      5         11           0        1.424568   -1.958702    0.804843
      6         11           0       -0.113281   -0.390453   -1.702123
      7         11           0       -2.399408    1.963270   -0.455240
 ---------------------------------------------------------------------

 SCF Done:  E(UB3LYP) =  -1136.13223430     A.U. after   19 cycles

 The electronic state is 2-A.
 Alpha  occ. eigenvalues --  -38.44469 -38.43961 -38.43934 -38.43790 -38.43628
 Alpha  occ. eigenvalues --  -38.43462 -38.42966  -2.20282  -2.19875  -2.19746
 Alpha  occ. eigenvalues --   -2.19618  -2.19568  -2.19356  -2.18803  -1.13955
 Alpha  occ. eigenvalues --   -1.13935  -1.13918  -1.13579  -1.13525  -1.13515
 Alpha  occ. eigenvalues --   -1.13418  -1.13390  -1.13381  -1.13305  -1.13289
 Alpha  occ. eigenvalues --   -1.13282  -1.13237  -1.13183  -1.13175  -1.13035
 Alpha  occ. eigenvalues --   -1.13014  -1.12962  -1.12498  -1.12480  -1.12415
 Alpha  occ. eigenvalues --   -0.18565  -0.13466  -0.11569  -0.11262
 Alpha virt. eigenvalues --   -0.06165  -0.05313  -0.04018  -0.03286  -0.02859
 Alpha virt. eigenvalues --   -0.02745  -0.02032  -0.01090  -0.00537  -0.00037
 Alpha virt. eigenvalues --    0.00183   0.00261   0.00559   0.00761   0.00810

  Beta  occ. eigenvalues --  -38.44456 -38.43929 -38.43911 -38.43782 -38.43534
  Beta  occ. eigenvalues --  -38.43436 -38.42959  -2.20259  -2.19784  -2.19739
  Beta  occ. eigenvalues --   -2.19605  -2.19398  -2.19313  -2.18794  -1.13939
  Beta  occ. eigenvalues --   -1.13916  -1.13901  -1.13516  -1.13465  -1.13454
  Beta  occ. eigenvalues --   -1.13405  -1.13372  -1.13367  -1.13283  -1.13274
  Beta  occ. eigenvalues --   -1.13223  -1.13175  -1.13067  -1.13057  -1.13001
  Beta  occ. eigenvalues --   -1.12953  -1.12927  -1.12488  -1.12456  -1.12411
  Beta  occ. eigenvalues --   -0.17820  -0.13216  -0.11340
  Beta virt. eigenvalues --   -0.07336  -0.05986  -0.05295  -0.03709  -0.02937
  Beta virt. eigenvalues --   -0.02062  -0.01929  -0.01752  -0.01053  -0.00354
  Beta virt. eigenvalues --    0.00044   0.00176   0.00299   0.00731   0.00819

 Mulliken charges and spin densities:
               1          2
     1  Na   0.173685   0.098295
     2  Na   0.029252  -0.097601
     3  Na   0.271787   0.573373
     4  Na  -0.271106  -0.062928
     5  Na   0.013674  -0.080991
     6  Na  -0.227333   0.601201
     7  Na   0.010041  -0.031351
 Sum of Mulliken charges =  -0.00000   1.00000

 Dipole moment (field-independent basis, Debye):
    X=             -0.0328    Y=             -0.0377    Z=             -0.2772  Tot=              0.2816
 Quadrupole moment (field-independent basis, Debye-Ang):
   XX=            -51.0854   YY=            -71.5328   ZZ=            -70.7593
   XY=              0.4621   XZ=             -0.7646   YZ=             -1.0772

 Normal termination of Gaussian 16 at Fri Dec  8 01:19:47 2023.
