 Gaussian 16, Revision B.01,
 Gaussian 16:  ES64L-G16RevB.01 20-Dec-2017

 -------------------------
 #P B3LYP/6-311+g(d) force
 -------------------------

 -----
 DPGEN
 -----
 Symbolic Z-matrix:
 Charge =  0 Multiplicity = 2

                         Standard orientation:
 ---------------------------------------------------------------------
 Center     Atomic      Atomic             Coordinates (Angstroms)
 Number     Number       Type             X           Y           Z
 ---------------------------------------------------------------------
      1         11           0        0.055200    2.897130    0.011021
      2         11           0       -2.690439    1.148593   -0.290779
      3         11           0        1.501959   -2.385166    0.023617
      4         11           0       -2.021687   -2.260823   -0.027482
      5         11           0        3.045671    0.652715    0.093953
      6         11           0       -0.269400    0.040194    1.900860
      7         11           0        0.378696   -0.092643   -1.711190
 ---------------------------------------------------------------------

 SCF Done:  E(UB3LYP) =  -1136.14059078     A.U. after   19 cycles

 The electronic state is 2-A.
 Alpha  occ. eigenvalues --  -38.43831 -38.43617 -38.43504 -38.43472 -38.43362
 Alpha  occ. eigenvalues --  -38.43285 -38.43159  -2.19676  -2.19492  -2.19403
 Alpha  occ. eigenvalues --   -2.19322  -2.19233  -2.19224  -2.19150  -1.13362
 Alpha  occ. eigenvalues --   -1.13339  -1.13316  -1.13179  -1.13158  -1.13147
 Alpha  occ. eigenvalues --   -1.13145  -1.13068  -1.13025  -1.12993  -1.12982
 Alpha  occ. eigenvalues --   -1.12955  -1.12931  -1.12906  -1.12884  -1.12861
 Alpha  occ. eigenvalues --   -1.12843  -1.12829  -1.12815  -1.12771  -1.12758
 Alpha  occ. eigenvalues --   -0.18983  -0.13062  -0.12662  -0.10715
 Alpha virt. eigenvalues --   -0.05375  -0.05106  -0.04838  -0.03184  -0.02916
 Alpha virt. eigenvalues --   -0.02434  -0.01380  -0.01109  -0.00257  -0.00237
 Alpha virt. eigenvalues --    0.00005   0.00374   0.00856   0.00910   0.00925

  Beta  occ. eigenvalues --  -38.43828 -38.43609 -38.43497 -38.43469 -38.43357
  Beta  occ. eigenvalues --  -38.43198 -38.43089  -2.19674  -2.19481  -2.19394
  Beta  occ. eigenvalues --   -2.19319  -2.19227  -2.19065  -2.19021  -1.13357
  Beta  occ. eigenvalues --   -1.13327  -1.13310  -1.13173  -1.13143  -1.13130
  Beta  occ. eigenvalues --   -1.13122  -1.13034  -1.13024  -1.12984  -1.12961
  Beta  occ. eigenvalues --   -1.12956  -1.12913  -1.12871  -1.12861  -1.12791
  Beta  occ. eigenvalues --   -1.12732  -1.12730  -1.12721  -1.12681  -1.12665
  Beta  occ. eigenvalues --   -0.18241  -0.12817  -0.12414
  Beta virt. eigenvalues --   -0.06795  -0.05356  -0.05106  -0.04798  -0.02367
  Beta virt. eigenvalues --   -0.02127  -0.01384  -0.01303  -0.01038  -0.00314
  Beta virt. eigenvalues --   -0.00293   0.00137   0.00390   0.00893   0.00907

 Mulliken charges and spin densities:
               1          2
     1  Na   0.129763  -0.091936
     2  Na   0.115203  -0.039896
     3  Na   0.256500  -0.082225
     4  Na   0.132562  -0.078326
     5  Na   0.140619  -0.090101
     6  Na  -0.448682   0.767991
     7  Na  -0.325964   0.614492
 Sum of Mulliken charges =  -0.00000   1.00000

 Dipole moment (field-independent basis, Debye):
    X=              0.1049    Y=              0.0171    Z=              0.0802  Tot=              0.1331
 Quadrupole moment (field-independent basis, Debye-Ang):
   XX=            -57.6058   YY=            -61.3609   ZZ=            -74.3699
   XY=              0.8115   XZ=              1.5047   YZ=             -0.2458

 Normal termination of Gaussian 16 at Thu Dec  7 18:02:26 2023.
