 Gaussian 16, Revision B.01,
 Gaussian 16:  ES64L-G16RevB.01 20-Dec-2017

 -------------------------
 #P B3LYP/6-311+g(d) force
 -------------------------

 -----
 DPGEN
 -----
 Symbolic Z-matrix:
 Charge =  0 Multiplicity = 2

                         Standard orientation:
 ---------------------------------------------------------------------
 Center     Atomic      Atomic             Coordinates (Angstroms)
 Number     Number       Type             X           Y           Z
 ---------------------------------------------------------------------
      1         11           0       -0.612909    0.075218   -1.819745
      2         11           0        3.451395   -0.523854   -0.063639
      3         11           0       -0.344878   -0.229425    1.931805
      4         11           0       -1.894804    2.223759    0.287425
      5         11           0        1.702589    2.415307   -0.148176
      6         11           0       -3.257161   -1.343988   -0.177266
      7         11           0        0.955769   -2.617018   -0.010404
 ---------------------------------------------------------------------

 SCF Done:  E(UB3LYP) =  -1136.13257771     A.U. after   20 cycles

 The electronic state is 2-A.
 Alpha  occ. eigenvalues --  -38.44741 -38.44417 -38.43686 -38.43636 -38.43536
 Alpha  occ. eigenvalues --  -38.43394 -38.43321  -2.20527  -2.20224  -2.19552
 Alpha  occ. eigenvalues --   -2.19546  -2.19438  -2.19241  -2.19137  -1.14203
 Alpha  occ. eigenvalues --   -1.14177  -1.14170  -1.13895  -1.13884  -1.13877
 Alpha  occ. eigenvalues --   -1.13288  -1.13246  -1.13212  -1.13170  -1.13158
 Alpha  occ. eigenvalues --   -1.13152  -1.13111  -1.13072  -1.13048  -1.12917
 Alpha  occ. eigenvalues --   -1.12909  -1.12864  -1.12812  -1.12808  -1.12774
 Alpha  occ. eigenvalues --   -0.18327  -0.13291  -0.12060  -0.10660
 Alpha virt. eigenvalues --   -0.06360  -0.05439  -0.04219  -0.03290  -0.02725
 Alpha virt. eigenvalues --   -0.02570  -0.02041  -0.01221  -0.00539  -0.00230
 Alpha virt. eigenvalues --   -0.00076   0.00278   0.00717   0.00754   0.00822

  Beta  occ. eigenvalues --  -38.44735 -38.44420 -38.43674 -38.43565 -38.43446
  Beta  occ. eigenvalues --  -38.43388 -38.43319  -2.20519  -2.20230  -2.19533
  Beta  occ. eigenvalues --   -2.19417  -2.19272  -2.19234  -2.19137  -1.14178
  Beta  occ. eigenvalues --   -1.14174  -1.14163  -1.13901  -1.13881  -1.13878
  Beta  occ. eigenvalues --   -1.13258  -1.13193  -1.13157  -1.13127  -1.13086
  Beta  occ. eigenvalues --   -1.13060  -1.13006  -1.12964  -1.12935  -1.12905
  Beta  occ. eigenvalues --   -1.12872  -1.12863  -1.12810  -1.12796  -1.12774
  Beta  occ. eigenvalues --   -0.17608  -0.13098  -0.11825
  Beta virt. eigenvalues --   -0.06773  -0.06261  -0.05411  -0.04198  -0.02574
  Beta virt. eigenvalues --   -0.02006  -0.01934  -0.01501  -0.01173  -0.00560
  Beta virt. eigenvalues --   -0.00264   0.00082   0.00317   0.00783   0.00837

 Mulliken charges and spin densities:
               1          2
     1  Na  -0.244743   0.757729
     2  Na  -0.133584  -0.048242
     3  Na  -0.193469   0.662089
     4  Na   0.180592  -0.061243
     5  Na  -0.003293  -0.065880
     6  Na   0.211595  -0.134122
     7  Na   0.182902  -0.110330
 Sum of Mulliken charges =  -0.00000   1.00000

 Dipole moment (field-independent basis, Debye):
    X=             -0.4065    Y=             -0.2007    Z=              0.0226  Tot=              0.4539
 Quadrupole moment (field-independent basis, Debye-Ang):
   XX=            -51.5837   YY=            -66.8699   ZZ=            -74.9675
   XY=              0.9292   XZ=             -0.6475   YZ=              0.6927

 Normal termination of Gaussian 16 at Thu Dec  7 17:31:44 2023.
