 Gaussian 16, Revision B.01,
 Gaussian 16:  ES64L-G16RevB.01 20-Dec-2017

 -------------------------
 #P B3LYP/6-311+g(d) force
 -------------------------

 -----
 DPGEN
 -----
 Symbolic Z-matrix:
 Charge =  0 Multiplicity = 2

                         Standard orientation:
 ---------------------------------------------------------------------
 Center     Atomic      Atomic             Coordinates (Angstroms)
 Number     Number       Type             X           Y           Z
 ---------------------------------------------------------------------
      1         11           0        4.249562    0.341668    0.767193
      2         11           0       -1.423301   -1.266214   -1.114163
      3         11           0        2.336678   -1.656105   -0.637929
      4         11           0        0.131217   -0.044833    1.979940
      5         11           0       -4.274741   -0.881212    0.573333
      6         11           0        0.963333    1.292382   -1.450751
      7         11           0       -1.982747    2.214314   -0.117622
 ---------------------------------------------------------------------

 SCF Done:  E(UB3LYP) =  -1136.11417778     A.U. after   27 cycles

 The electronic state is 2-A.
 Alpha  occ. eigenvalues --  -38.46669 -38.45081 -38.44110 -38.43660 -38.43638
 Alpha  occ. eigenvalues --  -38.43464 -38.42523  -2.22436  -2.20889  -2.20001
 Alpha  occ. eigenvalues --   -2.19530  -2.19497  -2.19249  -2.18423  -1.16140
 Alpha  occ. eigenvalues --   -1.16076  -1.16044  -1.14570  -1.14538  -1.14517
 Alpha  occ. eigenvalues --   -1.13676  -1.13665  -1.13632  -1.13233  -1.13193
 Alpha  occ. eigenvalues --   -1.13175  -1.13150  -1.13143  -1.13120  -1.12922
 Alpha  occ. eigenvalues --   -1.12915  -1.12883  -1.12111  -1.12083  -1.12055
 Alpha  occ. eigenvalues --   -0.18285  -0.14086  -0.11239  -0.10571
 Alpha virt. eigenvalues --   -0.07823  -0.05134  -0.04644  -0.03312  -0.03021
 Alpha virt. eigenvalues --   -0.02299  -0.02255  -0.01586  -0.01198  -0.00320
 Alpha virt. eigenvalues --   -0.00248   0.00137   0.00280   0.00569   0.00600

  Beta  occ. eigenvalues --  -38.46627 -38.45055 -38.44080 -38.43644 -38.43585
  Beta  occ. eigenvalues --  -38.43468 -38.42507  -2.22359  -2.20840  -2.19950
  Beta  occ. eigenvalues --   -2.19469  -2.19435  -2.19256  -2.18398  -1.16074
  Beta  occ. eigenvalues --   -1.16021  -1.15988  -1.14541  -1.14503  -1.14480
  Beta  occ. eigenvalues --   -1.13646  -1.13636  -1.13556  -1.13173  -1.13155
  Beta  occ. eigenvalues --   -1.13141  -1.13108  -1.13100  -1.13065  -1.12927
  Beta  occ. eigenvalues --   -1.12913  -1.12885  -1.12087  -1.12062  -1.12026
  Beta  occ. eigenvalues --   -0.17519  -0.13917  -0.10485
  Beta virt. eigenvalues --   -0.07535  -0.07353  -0.04839  -0.04288  -0.03064
  Beta virt. eigenvalues --   -0.02712  -0.01797  -0.01665  -0.01173  -0.01065
  Beta virt. eigenvalues --   -0.00243  -0.00171   0.00254   0.00347   0.00635

 Mulliken charges and spin densities:
               1          2
     1  Na   0.225680   0.153762
     2  Na  -0.302481   0.208837
     3  Na   0.140262   0.076198
     4  Na  -0.293667   0.393177
     5  Na   0.219628  -0.004320
     6  Na  -0.105832   0.085749
     7  Na   0.116410   0.086597
 Sum of Mulliken charges =  -0.00000   1.00000

 Dipole moment (field-independent basis, Debye):
    X=              1.1842    Y=              0.8212    Z=              0.6573  Tot=              1.5839
 Quadrupole moment (field-independent basis, Debye-Ang):
   XX=            -57.4480   YY=            -74.3239   ZZ=            -68.7955
   XY=             -2.4741   XZ=             -0.8654   YZ=              1.9792

 Normal termination of Gaussian 16 at Thu Dec  7 19:42:52 2023.
