 Gaussian 16, Revision B.01,
 Gaussian 16:  ES64L-G16RevB.01 20-Dec-2017

 -------------------------
 #P B3LYP/6-311+g(d) force
 -------------------------

 -----
 DPGEN
 -----
 Symbolic Z-matrix:
 Charge =  0 Multiplicity = 2

                         Standard orientation:
 ---------------------------------------------------------------------
 Center     Atomic      Atomic             Coordinates (Angstroms)
 Number     Number       Type             X           Y           Z
 ---------------------------------------------------------------------
      1         11           0        1.296369    2.645754   -0.198727
      2         11           0        3.423611   -0.529438   -0.109034
      3         11           0        0.011142    0.258398   -1.630990
      4         11           0        0.360115   -0.420373    2.191394
      5         11           0       -2.887240   -1.033579   -0.182273
      6         11           0       -2.232968    1.956858    0.293685
      7         11           0        0.028971   -2.877619   -0.364055
 ---------------------------------------------------------------------

 SCF Done:  E(UB3LYP) =  -1136.13397174     A.U. after   19 cycles

 The electronic state is 2-A.
 Alpha  occ. eigenvalues --  -38.44792 -38.43874 -38.43807 -38.43557 -38.43499
 Alpha  occ. eigenvalues --  -38.43349 -38.43257  -2.20550  -2.19715  -2.19676
 Alpha  occ. eigenvalues --   -2.19403  -2.19367  -2.19233  -2.19189  -1.14229
 Alpha  occ. eigenvalues --   -1.14198  -1.14194  -1.13393  -1.13373  -1.13348
 Alpha  occ. eigenvalues --   -1.13338  -1.13331  -1.13314  -1.13170  -1.13061
 Alpha  occ. eigenvalues --   -1.13040  -1.13022  -1.13017  -1.12989  -1.12923
 Alpha  occ. eigenvalues --   -1.12888  -1.12853  -1.12843  -1.12827  -1.12811
 Alpha  occ. eigenvalues --   -0.18417  -0.12984  -0.12335  -0.10773
 Alpha virt. eigenvalues --   -0.06151  -0.04920  -0.04586  -0.03261  -0.02971
 Alpha virt. eigenvalues --   -0.02612  -0.01835  -0.01023  -0.00396  -0.00338
 Alpha virt. eigenvalues --   -0.00047   0.00340   0.00746   0.00817   0.00883

  Beta  occ. eigenvalues --  -38.44793 -38.43803 -38.43777 -38.43551 -38.43493
  Beta  occ. eigenvalues --  -38.43340 -38.43197  -2.20555  -2.19672  -2.19535
  Beta  occ. eigenvalues --   -2.19395  -2.19357  -2.19175  -2.19124  -1.14218
  Beta  occ. eigenvalues --   -1.14202  -1.14199  -1.13392  -1.13321  -1.13307
  Beta  occ. eigenvalues --   -1.13253  -1.13222  -1.13202  -1.13149  -1.13041
  Beta  occ. eigenvalues --   -1.13033  -1.13021  -1.12990  -1.12985  -1.12883
  Beta  occ. eigenvalues --   -1.12829  -1.12824  -1.12803  -1.12769  -1.12763
  Beta  occ. eigenvalues --   -0.17702  -0.12787  -0.12099
  Beta virt. eigenvalues --   -0.06859  -0.06110  -0.04911  -0.04507  -0.02504
  Beta virt. eigenvalues --   -0.02186  -0.01772  -0.01553  -0.00949  -0.00453
  Beta virt. eigenvalues --   -0.00370   0.00113   0.00368   0.00788   0.00883

 Mulliken charges and spin densities:
               1          2
     1  Na   0.219943  -0.010818
     2  Na   0.075560  -0.103950
     3  Na  -0.149951   0.320504
     4  Na  -0.632792   0.763330
     5  Na   0.173284   0.006695
     6  Na   0.126464   0.086690
     7  Na   0.187493  -0.062451
 Sum of Mulliken charges =  -0.00000   1.00000

 Dipole moment (field-independent basis, Debye):
    X=              0.5668    Y=             -0.1096    Z=              0.1490  Tot=              0.5962
 Quadrupole moment (field-independent basis, Debye-Ang):
   XX=            -54.7896   YY=            -64.5962   ZZ=            -74.2222
   XY=             -0.3818   XZ=             -0.7291   YZ=              1.5510

 Normal termination of Gaussian 16 at Sun Dec  3 21:02:10 2023.
