 Gaussian 16, Revision B.01,
 Gaussian 16:  ES64L-G16RevB.01 20-Dec-2017

 -------------------------
 #P B3LYP/6-311+g(d) force
 -------------------------

 -----
 DPGEN
 -----
 Symbolic Z-matrix:
 Charge =  0 Multiplicity = 2

                         Standard orientation:
 ---------------------------------------------------------------------
 Center     Atomic      Atomic             Coordinates (Angstroms)
 Number     Number       Type             X           Y           Z
 ---------------------------------------------------------------------
      1         11           0        0.190165    0.554553    2.051343
      2         11           0        3.325400   -1.111180   -0.183472
      3         11           0       -0.352917   -2.323895    0.319334
      4         11           0       -3.118056   -0.838629    0.138414
      5         11           0       -2.024296    1.993505   -0.564024
      6         11           0        0.104092   -0.538201   -1.652040
      7         11           0        1.875611    2.263846   -0.109555
 ---------------------------------------------------------------------

 SCF Done:  E(UB3LYP) =  -1136.12550979     A.U. after   20 cycles

 The electronic state is 2-A.
 Alpha  occ. eigenvalues --  -38.44780 -38.44312 -38.43811 -38.43623 -38.43542
 Alpha  occ. eigenvalues --  -38.43463 -38.43160  -2.20558  -2.20192  -2.19809
 Alpha  occ. eigenvalues --   -2.19524  -2.19377  -2.19325  -2.19135  -1.14235
 Alpha  occ. eigenvalues --   -1.14207  -1.14195  -1.13884  -1.13861  -1.13833
 Alpha  occ. eigenvalues --   -1.13710  -1.13438  -1.13372  -1.13207  -1.13184
 Alpha  occ. eigenvalues --   -1.13137  -1.13046  -1.13035  -1.12999  -1.12998
 Alpha  occ. eigenvalues --   -1.12990  -1.12947  -1.12804  -1.12761  -1.12705
 Alpha  occ. eigenvalues --   -0.18863  -0.13456  -0.11968  -0.10930
 Alpha virt. eigenvalues --   -0.06307  -0.05270  -0.03792  -0.03421  -0.02908
 Alpha virt. eigenvalues --   -0.02486  -0.02158  -0.01074  -0.00216  -0.00085
 Alpha virt. eigenvalues --    0.00026   0.00294   0.00712   0.00835   0.00871

  Beta  occ. eigenvalues --  -38.44778 -38.44310 -38.43754 -38.43539 -38.43531
  Beta  occ. eigenvalues --  -38.43447 -38.43143  -2.20555  -2.20191  -2.19707
  Beta  occ. eigenvalues --   -2.19374  -2.19355  -2.19298  -2.19109  -1.14221
  Beta  occ. eigenvalues --   -1.14207  -1.14196  -1.13882  -1.13861  -1.13812
  Beta  occ. eigenvalues --   -1.13643  -1.13369  -1.13294  -1.13123  -1.13072
  Beta  occ. eigenvalues --   -1.13029  -1.13025  -1.13000  -1.12982  -1.12980
  Beta  occ. eigenvalues --   -1.12959  -1.12923  -1.12782  -1.12706  -1.12690
  Beta  occ. eigenvalues --   -0.18118  -0.13229  -0.11728
  Beta virt. eigenvalues --   -0.06996  -0.06230  -0.05235  -0.03757  -0.02669
  Beta virt. eigenvalues --   -0.02141  -0.02064  -0.01461  -0.01014  -0.00238
  Beta virt. eigenvalues --    0.00002   0.00077   0.00325   0.00776   0.00866

 Mulliken charges and spin densities:
               1          2
     1  Na  -0.553427   0.522367
     2  Na   0.156384  -0.066793
     3  Na   0.616724   0.127987
     4  Na   0.114299  -0.021256
     5  Na   0.225828   0.049706
     6  Na  -0.672200   0.465948
     7  Na   0.112393  -0.077959
 Sum of Mulliken charges =  -0.00000   1.00000

 Dipole moment (field-independent basis, Debye):
    X=              0.4468    Y=              0.0049    Z=              0.1344  Tot=              0.4666
 Quadrupole moment (field-independent basis, Debye-Ang):
   XX=            -50.4663   YY=            -69.7617   ZZ=            -73.0306
   XY=             -0.2716   XZ=             -0.5502   YZ=             -2.1855

 Normal termination of Gaussian 16 at Tue Dec  5 23:43:22 2023.
