 Gaussian 16, Revision B.01,
 Gaussian 16:  ES64L-G16RevB.01 20-Dec-2017

 -------------------------
 #P B3LYP/6-311+g(d) force
 -------------------------

 -----
 DPGEN
 -----
 Symbolic Z-matrix:
 Charge =  0 Multiplicity = 2

                         Standard orientation:
 ---------------------------------------------------------------------
 Center     Atomic      Atomic             Coordinates (Angstroms)
 Number     Number       Type             X           Y           Z
 ---------------------------------------------------------------------
      1         11           0        1.035581   -1.669895    1.238958
      2         11           0        0.370571    1.512074   -0.019824
      3         11           0        3.421702    1.624516    0.505766
      4         11           0        2.327886   -1.044854   -1.457282
      5         11           0       -1.441364   -1.069170   -1.624762
      6         11           0       -2.048336   -0.695590    1.866582
      7         11           0       -3.666039    1.342919   -0.509439
 ---------------------------------------------------------------------

 SCF Done:  E(UB3LYP) =  -1136.12514465     A.U. after   24 cycles

 The electronic state is 2-A.
 Alpha  occ. eigenvalues --  -38.44352 -38.44162 -38.44160 -38.44093 -38.43901
 Alpha  occ. eigenvalues --  -38.43370 -38.42984  -2.20249  -2.20041  -2.19967
 Alpha  occ. eigenvalues --   -2.19964  -2.19802  -2.19217  -2.18904  -1.13954
 Alpha  occ. eigenvalues --   -1.13918  -1.13839  -1.13722  -1.13697  -1.13675
 Alpha  occ. eigenvalues --   -1.13668  -1.13643  -1.13621  -1.13609  -1.13593
 Alpha  occ. eigenvalues --   -1.13542  -1.13512  -1.13480  -1.13431  -1.12886
 Alpha  occ. eigenvalues --   -1.12864  -1.12852  -1.12595  -1.12578  -1.12513
 Alpha  occ. eigenvalues --   -0.18620  -0.14186  -0.11468  -0.11064
 Alpha virt. eigenvalues --   -0.06478  -0.05218  -0.04897  -0.03204  -0.02556
 Alpha virt. eigenvalues --   -0.02351  -0.02261  -0.01218  -0.00839  -0.00036
 Alpha virt. eigenvalues --    0.00125   0.00274   0.00379   0.00514   0.00701

  Beta  occ. eigenvalues --  -38.44319 -38.44153 -38.44100 -38.44038 -38.43888
  Beta  occ. eigenvalues --  -38.43365 -38.42964  -2.20189  -2.19953  -2.19929
  Beta  occ. eigenvalues --   -2.19867  -2.19783  -2.19209  -2.18872  -1.13920
  Beta  occ. eigenvalues --   -1.13870  -1.13790  -1.13645  -1.13633  -1.13624
  Beta  occ. eigenvalues --   -1.13617  -1.13609  -1.13595  -1.13550  -1.13535
  Beta  occ. eigenvalues --   -1.13474  -1.13472  -1.13460  -1.13424  -1.12877
  Beta  occ. eigenvalues --   -1.12857  -1.12849  -1.12566  -1.12536  -1.12489
  Beta  occ. eigenvalues --   -0.17929  -0.14004  -0.10814
  Beta virt. eigenvalues --   -0.07521  -0.06323  -0.05084  -0.04261  -0.02860
  Beta virt. eigenvalues --   -0.02324  -0.01950  -0.01683  -0.01041  -0.00387
  Beta virt. eigenvalues --    0.00064   0.00162   0.00315   0.00480   0.00630

 Mulliken charges and spin densities:
               1          2
     1  Na  -0.217054   0.157235
     2  Na  -1.857958   0.330200
     3  Na   0.796229  -0.209405
     4  Na   0.664582   0.139678
     5  Na  -0.414701   0.358788
     6  Na  -0.026014   0.119015
     7  Na   1.054917   0.104490
 Sum of Mulliken charges =  -0.00000   1.00000

 Dipole moment (field-independent basis, Debye):
    X=             -0.3903    Y=             -0.4264    Z=             -0.1629  Tot=              0.6005
 Quadrupole moment (field-independent basis, Debye-Ang):
   XX=            -51.6625   YY=            -76.3481   ZZ=            -67.5883
   XY=             -3.2633   XZ=             -0.9622   YZ=              1.3285

 Normal termination of Gaussian 16 at Wed Dec  6 01:22:54 2023.
