 Gaussian 16, Revision B.01,
 Gaussian 16:  ES64L-G16RevB.01 20-Dec-2017

 -------------------------
 #P B3LYP/6-311+g(d) force
 -------------------------

 -----
 DPGEN
 -----
 Symbolic Z-matrix:
 Charge =  0 Multiplicity = 2

                         Standard orientation:
 ---------------------------------------------------------------------
 Center     Atomic      Atomic             Coordinates (Angstroms)
 Number     Number       Type             X           Y           Z
 ---------------------------------------------------------------------
      1         11           0       -0.090649   -1.576431   -0.421996
      2         11           0        2.131828   -3.402954    0.123311
      3         11           0        3.521424   -0.322748   -0.325855
      4         11           0        2.438354    2.971992    0.700918
      5         11           0       -0.363615    2.726903   -0.916750
      6         11           0       -2.381017   -0.032202    1.120290
      7         11           0       -5.256325   -0.364560   -0.279918
 ---------------------------------------------------------------------

 SCF Done:  E(UB3LYP) =  -1136.11628044     A.U. after   19 cycles

 The electronic state is 2-A.
 Alpha  occ. eigenvalues --  -38.44590 -38.44333 -38.44278 -38.44040 -38.44036
 Alpha  occ. eigenvalues --  -38.43882 -38.43739  -2.20376  -2.20188  -2.20090
 Alpha  occ. eigenvalues --   -2.19938  -2.19857  -2.19680  -2.19583  -1.14054
 Alpha  occ. eigenvalues --   -1.14032  -1.14004  -1.13971  -1.13833  -1.13827
 Alpha  occ. eigenvalues --   -1.13771  -1.13754  -1.13683  -1.13624  -1.13574
 Alpha  occ. eigenvalues --   -1.13535  -1.13507  -1.13490  -1.13484  -1.13348
 Alpha  occ. eigenvalues --   -1.13333  -1.13331  -1.13266  -1.13233  -1.13217
 Alpha  occ. eigenvalues --   -0.16767  -0.13758  -0.12930  -0.10385
 Alpha virt. eigenvalues --   -0.06303  -0.05653  -0.04982  -0.03354  -0.02734
 Alpha virt. eigenvalues --   -0.02474  -0.01690  -0.01661  -0.00981  -0.00609
 Alpha virt. eigenvalues --   -0.00484  -0.00087   0.00426   0.00483   0.00532

  Beta  occ. eigenvalues --  -38.44568 -38.44334 -38.44225 -38.44005 -38.43941
  Beta  occ. eigenvalues --  -38.43878 -38.43743  -2.20335  -2.20193  -2.19992
  Beta  occ. eigenvalues --   -2.19879  -2.19674  -2.19671  -2.19598  -1.14026
  Beta  occ. eigenvalues --   -1.14007  -1.13975  -1.13962  -1.13836  -1.13820
  Beta  occ. eigenvalues --   -1.13704  -1.13688  -1.13614  -1.13584  -1.13531
  Beta  occ. eigenvalues --   -1.13507  -1.13395  -1.13363  -1.13359  -1.13347
  Beta  occ. eigenvalues --   -1.13332  -1.13310  -1.13268  -1.13243  -1.13184
  Beta  occ. eigenvalues --   -0.16320  -0.13153  -0.12662
  Beta virt. eigenvalues --   -0.07045  -0.05816  -0.05386  -0.04677  -0.02931
  Beta virt. eigenvalues --   -0.02462  -0.02428  -0.01587  -0.01285  -0.00749
  Beta virt. eigenvalues --   -0.00268  -0.00170   0.00170   0.00561   0.00596

 Mulliken charges and spin densities:
               1          2
     1  Na  -1.729281   0.007761
     2  Na   1.078482   0.086143
     3  Na   0.107863   0.392414
     4  Na   0.023793   0.071095
     5  Na  -0.042994   0.034169
     6  Na   0.446533  -0.072376
     7  Na   0.115604   0.480795
 Sum of Mulliken charges =  -0.00000   1.00000

 Dipole moment (field-independent basis, Debye):
    X=              0.7107    Y=             -0.2590    Z=             -0.2149  Tot=              0.7863
 Quadrupole moment (field-independent basis, Debye-Ang):
   XX=            -73.3491   YY=            -61.7955   ZZ=            -67.0640
   XY=             -4.8617   XZ=              4.4293   YZ=             -0.5187

 Normal termination of Gaussian 16 at Wed Nov 29 02:22:59 2023.
