 Gaussian 16, Revision B.01,
 Gaussian 16:  ES64L-G16RevB.01 20-Dec-2017

 -------------------------
 #P B3LYP/6-311+g(d) force
 -------------------------

 -----
 DPGEN
 -----
 Symbolic Z-matrix:
 Charge =  0 Multiplicity = 2

                         Standard orientation:
 ---------------------------------------------------------------------
 Center     Atomic      Atomic             Coordinates (Angstroms)
 Number     Number       Type             X           Y           Z
 ---------------------------------------------------------------------
      1         11           0       -2.967178    1.075498   -0.472125
      2         11           0       -1.922698   -2.076372    0.237567
      3         11           0        2.861504    0.365735    0.296627
      4         11           0        1.511607   -2.506347   -0.592532
      5         11           0        0.142966    0.218600   -1.568141
      6         11           0       -0.281034    0.004530    2.187573
      7         11           0        0.654834    2.918355   -0.088969
 ---------------------------------------------------------------------

 SCF Done:  E(UB3LYP) =  -1136.13704425     A.U. after   19 cycles

 The electronic state is 2-A.
 Alpha  occ. eigenvalues --  -38.43981 -38.43975 -38.43704 -38.43467 -38.43433
 Alpha  occ. eigenvalues --  -38.43152 -38.43125  -2.19860  -2.19797  -2.19590
 Alpha  occ. eigenvalues --   -2.19340  -2.19288  -2.19151  -2.19026  -1.13525
 Alpha  occ. eigenvalues --   -1.13490  -1.13482  -1.13479  -1.13445  -1.13435
 Alpha  occ. eigenvalues --   -1.13284  -1.13253  -1.13232  -1.13032  -1.13026
 Alpha  occ. eigenvalues --   -1.13005  -1.12966  -1.12941  -1.12910  -1.12843
 Alpha  occ. eigenvalues --   -1.12799  -1.12768  -1.12679  -1.12671  -1.12653
 Alpha  occ. eigenvalues --   -0.18805  -0.13055  -0.12414  -0.11117
 Alpha virt. eigenvalues --   -0.05472  -0.04955  -0.04604  -0.03398  -0.02935
 Alpha virt. eigenvalues --   -0.02804  -0.01389  -0.01051  -0.00222  -0.00158
 Alpha virt. eigenvalues --    0.00032   0.00368   0.00858   0.00895   0.00917

  Beta  occ. eigenvalues --  -38.43966 -38.43880 -38.43698 -38.43460 -38.43430
  Beta  occ. eigenvalues --  -38.43141 -38.43067  -2.19782  -2.19672  -2.19582
  Beta  occ. eigenvalues --   -2.19331  -2.19288  -2.19047  -2.19008  -1.13464
  Beta  occ. eigenvalues --   -1.13434  -1.13427  -1.13400  -1.13354  -1.13348
  Beta  occ. eigenvalues --   -1.13278  -1.13238  -1.13214  -1.13019  -1.13013
  Beta  occ. eigenvalues --   -1.12974  -1.12965  -1.12927  -1.12909  -1.12782
  Beta  occ. eigenvalues --   -1.12734  -1.12699  -1.12660  -1.12639  -1.12632
  Beta  occ. eigenvalues --   -0.18076  -0.12821  -0.12157
  Beta virt. eigenvalues --   -0.07167  -0.05438  -0.04879  -0.04575  -0.02582
  Beta virt. eigenvalues --   -0.02209  -0.01738  -0.01300  -0.00979  -0.00221
  Beta virt. eigenvalues --   -0.00165   0.00132   0.00395   0.00879   0.00923

 Mulliken charges and spin densities:
               1          2
     1  Na   0.049076  -0.047366
     2  Na   0.231198   0.091215
     3  Na   0.210897   0.122529
     4  Na   0.138181   0.014363
     5  Na  -0.246059   0.266133
     6  Na  -0.459399   0.592245
     7  Na   0.076106  -0.039118
 Sum of Mulliken charges =  -0.00000   1.00000

 Dipole moment (field-independent basis, Debye):
    X=             -0.2050    Y=              0.2202    Z=              0.2689  Tot=              0.4035
 Quadrupole moment (field-independent basis, Debye-Ang):
   XX=            -58.9111   YY=            -62.8394   ZZ=            -72.4974
   XY=             -0.4439   XZ=              1.2647   YZ=              0.5334

 Normal termination of Gaussian 16 at Fri Dec  8 05:38:04 2023.
