 Gaussian 16, Revision B.01,
 Gaussian 16:  ES64L-G16RevB.01 20-Dec-2017

 -------------------------
 #P B3LYP/6-311+g(d) force
 -------------------------

 -----
 DPGEN
 -----
 Symbolic Z-matrix:
 Charge =  0 Multiplicity = 2

                         Standard orientation:
 ---------------------------------------------------------------------
 Center     Atomic      Atomic             Coordinates (Angstroms)
 Number     Number       Type             X           Y           Z
 ---------------------------------------------------------------------
      1         11           0       -0.089226   -0.066298   -1.438486
      2         11           0        3.117352   -0.955325    0.366476
      3         11           0       -0.501596   -0.597724    2.295297
      4         11           0        0.090185   -2.948464   -0.598693
      5         11           0        1.888874    2.754756   -0.514825
      6         11           0       -2.912410   -0.472541   -0.554929
      7         11           0       -1.593179    2.285596    0.445160
 ---------------------------------------------------------------------

 SCF Done:  E(UB3LYP) =  -1136.13068365     A.U. after   20 cycles

 The electronic state is 2-A.
 Alpha  occ. eigenvalues --  -38.44397 -38.44186 -38.43788 -38.43702 -38.43543
 Alpha  occ. eigenvalues --  -38.43476 -38.43168  -2.20157  -2.20030  -2.19692
 Alpha  occ. eigenvalues --   -2.19558  -2.19353  -2.19324  -2.19206  -1.13838
 Alpha  occ. eigenvalues --   -1.13813  -1.13793  -1.13686  -1.13662  -1.13640
 Alpha  occ. eigenvalues --   -1.13454  -1.13338  -1.13328  -1.13308  -1.13204
 Alpha  occ. eigenvalues --   -1.13161  -1.13043  -1.13020  -1.13006  -1.12992
 Alpha  occ. eigenvalues --   -1.12969  -1.12952  -1.12870  -1.12831  -1.12817
 Alpha  occ. eigenvalues --   -0.18439  -0.12766  -0.12346  -0.11111
 Alpha virt. eigenvalues --   -0.05719  -0.04986  -0.04801  -0.03280  -0.02926
 Alpha virt. eigenvalues --   -0.02832  -0.01408  -0.01138  -0.00495  -0.00261
 Alpha virt. eigenvalues --   -0.00024   0.00347   0.00782   0.00815   0.00881

  Beta  occ. eigenvalues --  -38.44396 -38.44081 -38.43775 -38.43691 -38.43540
  Beta  occ. eigenvalues --  -38.43467 -38.43115  -2.20155  -2.19835  -2.19672
  Beta  occ. eigenvalues --   -2.19540  -2.19341  -2.19320  -2.19113  -1.13827
  Beta  occ. eigenvalues --   -1.13812  -1.13794  -1.13555  -1.13531  -1.13498
  Beta  occ. eigenvalues --   -1.13432  -1.13317  -1.13295  -1.13291  -1.13184
  Beta  occ. eigenvalues --   -1.13145  -1.13036  -1.12999  -1.12995  -1.12980
  Beta  occ. eigenvalues --   -1.12966  -1.12945  -1.12809  -1.12769  -1.12738
  Beta  occ. eigenvalues --   -0.17713  -0.12585  -0.12114
  Beta virt. eigenvalues --   -0.07113  -0.05634  -0.04927  -0.04710  -0.02519
  Beta virt. eigenvalues --   -0.02265  -0.01804  -0.01321  -0.01069  -0.00448
  Beta virt. eigenvalues --   -0.00276   0.00127   0.00394   0.00814   0.00891

 Mulliken charges and spin densities:
               1          2
     1  Na   0.262352   0.070344
     2  Na  -0.161991   0.064459
     3  Na  -0.497311   0.633447
     4  Na   0.043649  -0.004691
     5  Na  -0.011812  -0.013802
     6  Na   0.321794   0.047288
     7  Na   0.043319   0.202955
 Sum of Mulliken charges =  -0.00000   1.00000

 Dipole moment (field-independent basis, Debye):
    X=              0.1005    Y=             -0.3652    Z=              0.3895  Tot=              0.5433
 Quadrupole moment (field-independent basis, Debye-Ang):
   XX=            -58.7729   YY=            -62.5341   ZZ=            -72.6941
   XY=             -0.4073   XZ=              1.1281   YZ=              0.6221

 Normal termination of Gaussian 16 at Thu Dec  7 13:57:13 2023.
