 Gaussian 16, Revision B.01,
 Gaussian 16:  ES64L-G16RevB.01 20-Dec-2017

 -------------------------
 #P B3LYP/6-311+g(d) force
 -------------------------

 -----
 DPGEN
 -----
 Symbolic Z-matrix:
 Charge =  0 Multiplicity = 2

                         Standard orientation:
 ---------------------------------------------------------------------
 Center     Atomic      Atomic             Coordinates (Angstroms)
 Number     Number       Type             X           Y           Z
 ---------------------------------------------------------------------
      1         11           0        0.462145   -0.128811   -1.517447
      2         11           0       -1.269552   -2.678193   -0.088456
      3         11           0       -0.744628    3.151659   -0.226679
      4         11           0        2.348434   -2.064734    0.089797
      5         11           0        2.936347    1.414350   -0.000237
      6         11           0       -3.397820    0.063827   -0.259162
      7         11           0       -0.334926    0.241902    2.002184
 ---------------------------------------------------------------------

 SCF Done:  E(UB3LYP) =  -1136.13419495     A.U. after   20 cycles

 The electronic state is 2-A.
 Alpha  occ. eigenvalues --  -38.44521 -38.44358 -38.43917 -38.43826 -38.43442
 Alpha  occ. eigenvalues --  -38.43263 -38.43161  -2.20298  -2.20168  -2.19688
 Alpha  occ. eigenvalues --   -2.19675  -2.19284  -2.19130  -2.19124  -1.13972
 Alpha  occ. eigenvalues --   -1.13954  -1.13940  -1.13857  -1.13830  -1.13797
 Alpha  occ. eigenvalues --   -1.13385  -1.13367  -1.13350  -1.13328  -1.13326
 Alpha  occ. eigenvalues --   -1.13304  -1.12978  -1.12950  -1.12915  -1.12828
 Alpha  occ. eigenvalues --   -1.12790  -1.12753  -1.12751  -1.12748  -1.12746
 Alpha  occ. eigenvalues --   -0.18197  -0.13013  -0.12329  -0.10169
 Alpha virt. eigenvalues --   -0.06102  -0.05365  -0.04930  -0.03072  -0.02715
 Alpha virt. eigenvalues --   -0.02163  -0.01771  -0.01322  -0.00856  -0.00602
 Alpha virt. eigenvalues --   -0.00004   0.00326   0.00741   0.00760   0.00846

  Beta  occ. eigenvalues --  -38.44517 -38.44355 -38.43914 -38.43822 -38.43436
  Beta  occ. eigenvalues --  -38.43168 -38.43109  -2.20292  -2.20165  -2.19686
  Beta  occ. eigenvalues --   -2.19671  -2.19277  -2.19032  -2.18953  -1.13953
  Beta  occ. eigenvalues --   -1.13951  -1.13937  -1.13849  -1.13814  -1.13798
  Beta  occ. eigenvalues --   -1.13378  -1.13352  -1.13345  -1.13327  -1.13308
  Beta  occ. eigenvalues --   -1.13301  -1.12971  -1.12922  -1.12913  -1.12750
  Beta  occ. eigenvalues --   -1.12689  -1.12684  -1.12675  -1.12625  -1.12620
  Beta  occ. eigenvalues --   -0.17505  -0.12810  -0.12117
  Beta virt. eigenvalues --   -0.06327  -0.06068  -0.05336  -0.04868  -0.02335
  Beta virt. eigenvalues --   -0.01990  -0.01677  -0.01262  -0.01154  -0.00894
  Beta virt. eigenvalues --   -0.00644   0.00154   0.00372   0.00761   0.00795

 Mulliken charges and spin densities:
               1          2
     1  Na  -0.182486   0.477002
     2  Na   0.168403  -0.018091
     3  Na  -0.056539  -0.122365
     4  Na   0.269091   0.009745
     5  Na   0.190221  -0.080404
     6  Na   0.026060  -0.036315
     7  Na  -0.414750   0.770428
 Sum of Mulliken charges =  -0.00000   1.00000

 Dipole moment (field-independent basis, Debye):
    X=              0.0564    Y=              0.2032    Z=              0.0579  Tot=              0.2187
 Quadrupole moment (field-independent basis, Debye-Ang):
   XX=            -53.5973   YY=            -60.7473   ZZ=            -77.3910
   XY=             -0.2297   XZ=              1.7965   YZ=             -0.8971

 Normal termination of Gaussian 16 at Thu Dec  7 10:08:59 2023.
