 Gaussian 16, Revision B.01,
 Gaussian 16:  ES64L-G16RevB.01 20-Dec-2017

 -------------------------
 #P B3LYP/6-311+g(d) force
 -------------------------

 -----
 DPGEN
 -----
 Symbolic Z-matrix:
 Charge =  0 Multiplicity = 2

                         Standard orientation:
 ---------------------------------------------------------------------
 Center     Atomic      Atomic             Coordinates (Angstroms)
 Number     Number       Type             X           Y           Z
 ---------------------------------------------------------------------
      1         11           0       -3.088429    0.727317    0.179957
      2         11           0       -0.050912   -0.125901    2.204491
      3         11           0       -0.373180   -0.007642   -1.627455
      4         11           0        2.142688   -1.920705   -0.165082
      5         11           0       -0.261030    3.049020   -0.303359
      6         11           0       -1.407677   -2.784615   -0.272590
      7         11           0        3.038539    1.062525   -0.015962
 ---------------------------------------------------------------------

 SCF Done:  E(UB3LYP) =  -1136.13668753     A.U. after   19 cycles

 The electronic state is 2-A.
 Alpha  occ. eigenvalues --  -38.44298 -38.43909 -38.43836 -38.43625 -38.43548
 Alpha  occ. eigenvalues --  -38.43520 -38.43211  -2.20110  -2.19754  -2.19657
 Alpha  occ. eigenvalues --   -2.19436  -2.19390  -2.19375  -2.19175  -1.13793
 Alpha  occ. eigenvalues --   -1.13776  -1.13737  -1.13412  -1.13381  -1.13377
 Alpha  occ. eigenvalues --   -1.13369  -1.13316  -1.13294  -1.13135  -1.13096
 Alpha  occ. eigenvalues --   -1.13084  -1.13065  -1.13062  -1.13050  -1.13034
 Alpha  occ. eigenvalues --   -1.13021  -1.12996  -1.12851  -1.12806  -1.12795
 Alpha  occ. eigenvalues --   -0.18349  -0.12947  -0.12358  -0.10795
 Alpha virt. eigenvalues --   -0.05757  -0.05104  -0.04837  -0.03223  -0.02837
 Alpha virt. eigenvalues --   -0.02738  -0.01500  -0.01231  -0.00530  -0.00370
 Alpha virt. eigenvalues --   -0.00036   0.00354   0.00790   0.00855   0.00886

  Beta  occ. eigenvalues --  -38.44293 -38.43836 -38.43805 -38.43620 -38.43542
  Beta  occ. eigenvalues --  -38.43515 -38.43153  -2.20105  -2.19661  -2.19562
  Beta  occ. eigenvalues --   -2.19428  -2.19384  -2.19368  -2.19069  -1.13784
  Beta  occ. eigenvalues --   -1.13756  -1.13737  -1.13378  -1.13306  -1.13297
  Beta  occ. eigenvalues --   -1.13282  -1.13248  -1.13234  -1.13121  -1.13081
  Beta  occ. eigenvalues --   -1.13072  -1.13060  -1.13055  -1.13032  -1.13019
  Beta  occ. eigenvalues --   -1.13008  -1.12994  -1.12779  -1.12732  -1.12717
  Beta  occ. eigenvalues --   -0.17630  -0.12758  -0.12129
  Beta virt. eigenvalues --   -0.06853  -0.05714  -0.05100  -0.04769  -0.02442
  Beta virt. eigenvalues --   -0.02115  -0.01643  -0.01408  -0.01156  -0.00581
  Beta virt. eigenvalues --   -0.00421   0.00121   0.00385   0.00815   0.00875

 Mulliken charges and spin densities:
               1          2
     1  Na   0.143487  -0.019152
     2  Na  -0.535013   0.777673
     3  Na  -0.106283   0.379173
     4  Na   0.190060  -0.007225
     5  Na   0.078143  -0.053850
     6  Na   0.247965  -0.033566
     7  Na  -0.018359  -0.043053
 Sum of Mulliken charges =  -0.00000   1.00000

 Dipole moment (field-independent basis, Debye):
    X=             -0.3457    Y=              0.1115    Z=              0.1928  Tot=              0.4112
 Quadrupole moment (field-independent basis, Debye-Ang):
   XX=            -57.6239   YY=            -61.8590   ZZ=            -74.4693
   XY=              0.7412   XZ=             -0.6905   YZ=              0.2917

 Normal termination of Gaussian 16 at Tue Dec  5 15:07:01 2023.
