 Gaussian 16, Revision B.01,
 Gaussian 16:  ES64L-G16RevB.01 20-Dec-2017

 -------------------------
 #P B3LYP/6-311+g(d) force
 -------------------------

 -----
 DPGEN
 -----
 Symbolic Z-matrix:
 Charge =  0 Multiplicity = 2

                         Standard orientation:
 ---------------------------------------------------------------------
 Center     Atomic      Atomic             Coordinates (Angstroms)
 Number     Number       Type             X           Y           Z
 ---------------------------------------------------------------------
      1         11           0       -0.272825   -0.821538   -1.669540
      2         11           0        0.647949    2.820935   -0.281035
      3         11           0       -4.642364   -0.468544   -0.524600
      4         11           0        1.563826   -0.332368    2.260094
      5         11           0       -2.188613    0.713973    1.285069
      6         11           0        3.161239    0.814657   -1.103659
      7         11           0        1.730788   -2.727115    0.033671
 ---------------------------------------------------------------------

 SCF Done:  E(UB3LYP) =  -1136.11979351     A.U. after   23 cycles

 The electronic state is 2-A.
 Alpha  occ. eigenvalues --  -38.45042 -38.44911 -38.44886 -38.44394 -38.44071
 Alpha  occ. eigenvalues --  -38.42895 -38.42796  -2.20801  -2.20727  -2.20693
 Alpha  occ. eigenvalues --   -2.20233  -2.19883  -2.18700  -2.18645  -1.14473
 Alpha  occ. eigenvalues --   -1.14464  -1.14438  -1.14412  -1.14383  -1.14372
 Alpha  occ. eigenvalues --   -1.14351  -1.14335  -1.14311  -1.13894  -1.13870
 Alpha  occ. eigenvalues --   -1.13846  -1.13564  -1.13549  -1.13508  -1.12376
 Alpha  occ. eigenvalues --   -1.12361  -1.12355  -1.12324  -1.12313  -1.12287
 Alpha  occ. eigenvalues --   -0.17577  -0.13306  -0.11496  -0.11313
 Alpha virt. eigenvalues --   -0.07200  -0.04801  -0.04375  -0.03286  -0.03034
 Alpha virt. eigenvalues --   -0.02883  -0.02586  -0.01275  -0.00798  -0.00383
 Alpha virt. eigenvalues --   -0.00017   0.00077   0.00163   0.00665   0.00817

  Beta  occ. eigenvalues --  -38.45043 -38.44861 -38.44861 -38.44303 -38.44051
  Beta  occ. eigenvalues --  -38.42897 -38.42796  -2.20804  -2.20648  -2.20635
  Beta  occ. eigenvalues --   -2.20064  -2.19845  -2.18706  -2.18648  -1.14475
  Beta  occ. eigenvalues --   -1.14466  -1.14439  -1.14350  -1.14327  -1.14322
  Beta  occ. eigenvalues --   -1.14314  -1.14286  -1.14266  -1.13776  -1.13757
  Beta  occ. eigenvalues --   -1.13725  -1.13541  -1.13523  -1.13468  -1.12379
  Beta  occ. eigenvalues --   -1.12367  -1.12342  -1.12327  -1.12302  -1.12278
  Beta  occ. eigenvalues --   -0.16830  -0.13214  -0.11293
  Beta virt. eigenvalues --   -0.07497  -0.06943  -0.04324  -0.04240  -0.03130
  Beta virt. eigenvalues --   -0.02584  -0.02221  -0.01995  -0.00905  -0.00730
  Beta virt. eigenvalues --   -0.00386   0.00062   0.00148   0.00321   0.00765

 Mulliken charges and spin densities:
               1          2
     1  Na  -0.316284   0.463743
     2  Na  -0.100064  -0.021343
     3  Na   0.258269   0.000580
     4  Na  -0.083027   0.530454
     5  Na  -0.144473   0.023873
     6  Na   0.236724   0.092882
     7  Na   0.148856  -0.090189
 Sum of Mulliken charges =  -0.00000   1.00000

 Dipole moment (field-independent basis, Debye):
    X=             -0.4881    Y=             -0.1895    Z=             -0.4476  Tot=              0.6888
 Quadrupole moment (field-independent basis, Debye-Ang):
   XX=            -50.1705   YY=            -75.4211   ZZ=            -69.1491
   XY=              0.7176   XZ=              1.8318   YZ=              1.8256

 Normal termination of Gaussian 16 at Sun Dec  3 12:25:21 2023.
