 Gaussian 16, Revision B.01,
 Gaussian 16:  ES64L-G16RevB.01 20-Dec-2017

 -------------------------
 #P B3LYP/6-311+g(d) force
 -------------------------

 -----
 DPGEN
 -----
 Symbolic Z-matrix:
 Charge =  0 Multiplicity = 2

                         Standard orientation:
 ---------------------------------------------------------------------
 Center     Atomic      Atomic             Coordinates (Angstroms)
 Number     Number       Type             X           Y           Z
 ---------------------------------------------------------------------
      1         11           0       -0.194853    0.065406   -1.721311
      2         11           0        0.399069   -2.216981    0.097487
      3         11           0       -2.464193   -1.184461   -0.102850
      4         11           0       -1.828297    1.701486    0.310286
      5         11           0        1.076733    2.000998   -0.238110
      6         11           0        0.372419    0.043185    1.839893
      7         11           0        2.639123   -0.409632   -0.185396
 ---------------------------------------------------------------------

 SCF Done:  E(UB3LYP) =  -1136.10107786     A.U. after   19 cycles

 The electronic state is 2-A.
 Alpha  occ. eigenvalues --  -38.43957 -38.43848 -38.43806 -38.43612 -38.43337
 Alpha  occ. eigenvalues --  -38.43320 -38.43110  -2.20111  -2.20063  -2.19872
 Alpha  occ. eigenvalues --   -2.19604  -2.19465  -2.19382  -2.19213  -1.13948
 Alpha  occ. eigenvalues --   -1.13862  -1.13811  -1.13761  -1.13734  -1.13701
 Alpha  occ. eigenvalues --   -1.13602  -1.13550  -1.13468  -1.13332  -1.13290
 Alpha  occ. eigenvalues --   -1.13236  -1.13188  -1.13070  -1.13061  -1.13014
 Alpha  occ. eigenvalues --   -1.13000  -1.12915  -1.12882  -1.12848  -1.12787
 Alpha  occ. eigenvalues --   -0.21160  -0.13801  -0.12842  -0.12009
 Alpha virt. eigenvalues --   -0.05223  -0.04467  -0.04060  -0.03627  -0.03143
 Alpha virt. eigenvalues --   -0.02829  -0.01161  -0.00549  -0.00074   0.00363
 Alpha virt. eigenvalues --    0.00634   0.00695   0.01008   0.01119   0.01126

  Beta  occ. eigenvalues --  -38.43864 -38.43795 -38.43760 -38.43607 -38.43325
  Beta  occ. eigenvalues --  -38.43302 -38.43095  -2.19942  -2.19906  -2.19856
  Beta  occ. eigenvalues --   -2.19598  -2.19439  -2.19366  -2.19194  -1.13868
  Beta  occ. eigenvalues --   -1.13759  -1.13692  -1.13667  -1.13637  -1.13590
  Beta  occ. eigenvalues --   -1.13589  -1.13504  -1.13405  -1.13328  -1.13282
  Beta  occ. eigenvalues --   -1.13199  -1.13171  -1.13050  -1.12999  -1.12985
  Beta  occ. eigenvalues --   -1.12955  -1.12906  -1.12871  -1.12785  -1.12775
  Beta  occ. eigenvalues --   -0.20343  -0.13467  -0.12491
  Beta virt. eigenvalues --   -0.07844  -0.05230  -0.04454  -0.04054  -0.02713
  Beta virt. eigenvalues --   -0.02230  -0.01718  -0.01086  -0.00506   0.00073
  Beta virt. eigenvalues --    0.00388   0.00603   0.00666   0.01042   0.01116

 Mulliken charges and spin densities:
               1          2
     1  Na  -0.313966   0.387916
     2  Na   0.224596   0.078992
     3  Na  -0.031309  -0.034526
     4  Na   0.114268   0.047548
     5  Na   0.256474   0.065546
     6  Na  -0.372096   0.489174
     7  Na   0.122033  -0.034650
 Sum of Mulliken charges =  -0.00000   1.00000

 Dipole moment (field-independent basis, Debye):
    X=             -0.1576    Y=             -0.0889    Z=              0.1464  Tot=              0.2328
 Quadrupole moment (field-independent basis, Debye-Ang):
   XX=            -58.8684   YY=            -68.8465   ZZ=            -69.2433
   XY=             -0.0375   XZ=             -1.0399   YZ=              0.3205

 Normal termination of Gaussian 16 at Sat Dec  9 05:38:02 2023.
