 Gaussian 16, Revision B.01,
 Gaussian 16:  ES64L-G16RevB.01 20-Dec-2017

 -------------------------
 #P B3LYP/6-311+g(d) force
 -------------------------

 -----
 DPGEN
 -----
 Symbolic Z-matrix:
 Charge =  0 Multiplicity = 2

                         Standard orientation:
 ---------------------------------------------------------------------
 Center     Atomic      Atomic             Coordinates (Angstroms)
 Number     Number       Type             X           Y           Z
 ---------------------------------------------------------------------
      1         11           0        1.660174   -1.914579    1.822082
      2         11           0        1.158908    0.809924   -0.947131
      3         11           0       -1.999191    1.398791    0.504558
      4         11           0       -1.471921   -1.770019   -0.302660
      5         11           0       -4.324705   -0.757671   -0.492992
      6         11           0        1.078782    3.388218    0.432865
      7         11           0        3.897953   -1.154663   -1.016722
 ---------------------------------------------------------------------

 SCF Done:  E(UB3LYP) =  -1136.12039296     A.U. after   20 cycles

 The electronic state is 2-A.
 Alpha  occ. eigenvalues --  -38.44361 -38.44308 -38.44010 -38.43963 -38.43728
 Alpha  occ. eigenvalues --  -38.43624 -38.43500  -2.20230  -2.20198  -2.19886
 Alpha  occ. eigenvalues --   -2.19754  -2.19575  -2.19550  -2.19322  -1.13975
 Alpha  occ. eigenvalues --   -1.13923  -1.13896  -1.13876  -1.13854  -1.13802
 Alpha  occ. eigenvalues --   -1.13534  -1.13517  -1.13495  -1.13437  -1.13424
 Alpha  occ. eigenvalues --   -1.13402  -1.13377  -1.13243  -1.13226  -1.13190
 Alpha  occ. eigenvalues --   -1.13179  -1.13091  -1.12974  -1.12967  -1.12927
 Alpha  occ. eigenvalues --   -0.17579  -0.14074  -0.12337  -0.10178
 Alpha virt. eigenvalues --   -0.06467  -0.05710  -0.04039  -0.03760  -0.02785
 Alpha virt. eigenvalues --   -0.02472  -0.01769  -0.01393  -0.00788  -0.00505
 Alpha virt. eigenvalues --   -0.00181  -0.00099   0.00415   0.00615   0.00689

  Beta  occ. eigenvalues --  -38.44355 -38.44292 -38.43974 -38.43919 -38.43733
  Beta  occ. eigenvalues --  -38.43608 -38.43427  -2.20221  -2.20172  -2.19818
  Beta  occ. eigenvalues --   -2.19675  -2.19579  -2.19531  -2.19187  -1.13968
  Beta  occ. eigenvalues --   -1.13912  -1.13882  -1.13858  -1.13806  -1.13787
  Beta  occ. eigenvalues --   -1.13486  -1.13470  -1.13454  -1.13437  -1.13371
  Beta  occ. eigenvalues --   -1.13336  -1.13320  -1.13227  -1.13203  -1.13189
  Beta  occ. eigenvalues --   -1.13167  -1.13077  -1.12881  -1.12873  -1.12841
  Beta  occ. eigenvalues --   -0.17139  -0.13560  -0.12064
  Beta virt. eigenvalues --   -0.06600  -0.06281  -0.05543  -0.03675  -0.03433
  Beta virt. eigenvalues --   -0.02420  -0.02232  -0.01608  -0.01050  -0.00405
  Beta virt. eigenvalues --   -0.00165  -0.00088   0.00077   0.00578   0.00697

 Mulliken charges and spin densities:
               1          2
     1  Na  -0.065203   0.196761
     2  Na   0.007899   0.178915
     3  Na  -0.165807   0.073908
     4  Na  -0.442539   0.032515
     5  Na   0.481221   0.225084
     6  Na   0.274086   0.007583
     7  Na  -0.089659   0.285235
 Sum of Mulliken charges =  -0.00000   1.00000

 Dipole moment (field-independent basis, Debye):
    X=             -1.0515    Y=              0.1954    Z=              0.8763  Tot=              1.3827
 Quadrupole moment (field-independent basis, Debye-Ang):
   XX=            -62.2778   YY=            -67.0133   ZZ=            -68.6462
   XY=              0.7944   XZ=              3.5968   YZ=              3.4775

 Normal termination of Gaussian 16 at Wed Nov 29 04:07:59 2023.
