 Gaussian 16, Revision B.01,
 Gaussian 16:  ES64L-G16RevB.01 20-Dec-2017

 -------------------------
 #P B3LYP/6-311+g(d) force
 -------------------------

 -----
 DPGEN
 -----
 Symbolic Z-matrix:
 Charge =  0 Multiplicity = 2

                         Standard orientation:
 ---------------------------------------------------------------------
 Center     Atomic      Atomic             Coordinates (Angstroms)
 Number     Number       Type             X           Y           Z
 ---------------------------------------------------------------------
      1         11           0        0.087083   -1.550352    1.811021
      2         11           0        2.457181    0.863690    0.852207
      3         11           0       -2.197414    1.228541    0.611523
      4         11           0       -3.426596   -1.374196   -0.407218
      5         11           0        0.585684    3.061020   -0.404198
      6         11           0        2.670191   -2.171845   -0.878492
      7         11           0       -0.176128   -0.056858   -1.584843
 ---------------------------------------------------------------------

 SCF Done:  E(UB3LYP) =  -1136.13116160     A.U. after   20 cycles

 The electronic state is 2-A.
 Alpha  occ. eigenvalues --  -38.44433 -38.44028 -38.43917 -38.43831 -38.43779
 Alpha  occ. eigenvalues --  -38.43580 -38.42713  -2.20255  -2.19905  -2.19825
 Alpha  occ. eigenvalues --   -2.19666  -2.19588  -2.19506  -2.18585  -1.13971
 Alpha  occ. eigenvalues --   -1.13906  -1.13889  -1.13587  -1.13579  -1.13539
 Alpha  occ. eigenvalues --   -1.13532  -1.13483  -1.13437  -1.13349  -1.13316
 Alpha  occ. eigenvalues --   -1.13266  -1.13254  -1.13251  -1.13212  -1.13201
 Alpha  occ. eigenvalues --   -1.13139  -1.13122  -1.12262  -1.12240  -1.12229
 Alpha  occ. eigenvalues --   -0.18316  -0.13473  -0.12125  -0.10626
 Alpha virt. eigenvalues --   -0.06059  -0.05402  -0.04351  -0.03577  -0.02796
 Alpha virt. eigenvalues --   -0.02306  -0.01871  -0.01290  -0.00389  -0.00327
 Alpha virt. eigenvalues --    0.00155   0.00325   0.00585   0.00733   0.00781

  Beta  occ. eigenvalues --  -38.44434 -38.44011 -38.43908 -38.43763 -38.43758
  Beta  occ. eigenvalues --  -38.43520 -38.42712  -2.20259  -2.19876  -2.19812
  Beta  occ. eigenvalues --   -2.19550  -2.19541  -2.19398  -2.18585  -1.13975
  Beta  occ. eigenvalues --   -1.13899  -1.13888  -1.13569  -1.13535  -1.13521
  Beta  occ. eigenvalues --   -1.13520  -1.13450  -1.13433  -1.13267  -1.13231
  Beta  occ. eigenvalues --   -1.13219  -1.13211  -1.13194  -1.13171  -1.13121
  Beta  occ. eigenvalues --   -1.13063  -1.13043  -1.12263  -1.12233  -1.12222
  Beta  occ. eigenvalues --   -0.17635  -0.13283  -0.11922
  Beta virt. eigenvalues --   -0.06805  -0.05925  -0.05251  -0.04243  -0.02919
  Beta virt. eigenvalues --   -0.02244  -0.01800  -0.01391  -0.01159  -0.00380
  Beta virt. eigenvalues --   -0.00114   0.00232   0.00364   0.00759   0.00798

 Mulliken charges and spin densities:
               1          2
     1  Na  -0.304912   0.314186
     2  Na   0.042275   0.256306
     3  Na   0.089101   0.185374
     4  Na   0.183230  -0.055310
     5  Na   0.383686  -0.114066
     6  Na   0.019237  -0.030783
     7  Na  -0.412617   0.444293
 Sum of Mulliken charges =  -0.00000   1.00000

 Dipole moment (field-independent basis, Debye):
    X=             -0.4433    Y=             -0.5703    Z=              0.0505  Tot=              0.7241
 Quadrupole moment (field-independent basis, Debye-Ang):
   XX=            -55.4617   YY=            -65.0129   ZZ=            -73.0599
   XY=              1.5409   XZ=              0.0855   YZ=              1.8186

 Normal termination of Gaussian 16 at Mon Dec  4 00:26:47 2023.
