 Gaussian 16, Revision B.01,
 Gaussian 16:  ES64L-G16RevB.01 20-Dec-2017

 -------------------------
 #P B3LYP/6-311+g(d) force
 -------------------------

 -----
 DPGEN
 -----
 Symbolic Z-matrix:
 Charge =  0 Multiplicity = 2

                         Standard orientation:
 ---------------------------------------------------------------------
 Center     Atomic      Atomic             Coordinates (Angstroms)
 Number     Number       Type             X           Y           Z
 ---------------------------------------------------------------------
      1         11           0       -0.145904    0.000209   -1.746243
      2         11           0        0.374168   -2.041069    0.027975
      3         11           0        3.015272   -0.523836    0.056967
      4         11           0        1.129515    2.060555   -0.099449
      5         11           0       -1.843400    1.593681   -0.057930
      6         11           0       -0.230201    0.216630    1.812486
      7         11           0       -2.299450   -1.306170    0.006194
 ---------------------------------------------------------------------

 SCF Done:  E(UB3LYP) =  -1136.09785837     A.U. after   19 cycles

 The electronic state is 2-A.
 Alpha  occ. eigenvalues --  -38.44068 -38.44025 -38.43959 -38.43627 -38.43449
 Alpha  occ. eigenvalues --  -38.43213 -38.43051  -2.20242  -2.20128  -2.19966
 Alpha  occ. eigenvalues --   -2.19722  -2.19579  -2.19360  -2.19112  -1.14065
 Alpha  occ. eigenvalues --   -1.13993  -1.13888  -1.13865  -1.13823  -1.13752
 Alpha  occ. eigenvalues --   -1.13670  -1.13624  -1.13606  -1.13526  -1.13445
 Alpha  occ. eigenvalues --   -1.13318  -1.13241  -1.13195  -1.13125  -1.13000
 Alpha  occ. eigenvalues --   -1.12978  -1.12883  -1.12806  -1.12770  -1.12686
 Alpha  occ. eigenvalues --   -0.21117  -0.13796  -0.12740  -0.11907
 Alpha virt. eigenvalues --   -0.05506  -0.04408  -0.03961  -0.03508  -0.03069
 Alpha virt. eigenvalues --   -0.02745  -0.01411  -0.00553  -0.00062   0.00335
 Alpha virt. eigenvalues --    0.00528   0.00681   0.00948   0.01073   0.01144

  Beta  occ. eigenvalues --  -38.44069 -38.43932 -38.43866 -38.43614 -38.43432
  Beta  occ. eigenvalues --  -38.43196 -38.43040  -2.20074  -2.19971  -2.19959
  Beta  occ. eigenvalues --   -2.19706  -2.19556  -2.19337  -2.19097  -1.13974
  Beta  occ. eigenvalues --   -1.13880  -1.13782  -1.13753  -1.13707  -1.13675
  Beta  occ. eigenvalues --   -1.13639  -1.13619  -1.13588  -1.13514  -1.13426
  Beta  occ. eigenvalues --   -1.13251  -1.13221  -1.13118  -1.13113  -1.12984
  Beta  occ. eigenvalues --   -1.12899  -1.12877  -1.12798  -1.12711  -1.12683
  Beta  occ. eigenvalues --   -0.20297  -0.13477  -0.12375
  Beta virt. eigenvalues --   -0.07741  -0.05497  -0.04411  -0.03949  -0.02614
  Beta virt. eigenvalues --   -0.02140  -0.01665  -0.01333  -0.00512   0.00085
  Beta virt. eigenvalues --    0.00366   0.00517   0.00641   0.00983   0.01072

 Mulliken charges and spin densities:
               1          2
     1  Na  -0.303121   0.441026
     2  Na   0.140118   0.101522
     3  Na  -0.314799  -0.122600
     4  Na   0.054542  -0.013226
     5  Na   0.446177   0.056932
     6  Na  -0.349613   0.527047
     7  Na   0.326695   0.009299
 Sum of Mulliken charges =  -0.00000   1.00000

 Dipole moment (field-independent basis, Debye):
    X=              0.4709    Y=              0.0541    Z=              0.1265  Tot=              0.4906
 Quadrupole moment (field-independent basis, Debye-Ang):
   XX=            -56.0342   YY=            -70.2086   ZZ=            -69.7944
   XY=              0.2639   XZ=              0.2213   YZ=             -0.4044

 Normal termination of Gaussian 16 at Sat Dec  9 07:04:40 2023.
