 Gaussian 16, Revision B.01,
 Gaussian 16:  ES64L-G16RevB.01 20-Dec-2017

 -------------------------
 #P B3LYP/6-311+g(d) force
 -------------------------

 -----
 DPGEN
 -----
 Symbolic Z-matrix:
 Charge =  0 Multiplicity = 2

                         Standard orientation:
 ---------------------------------------------------------------------
 Center     Atomic      Atomic             Coordinates (Angstroms)
 Number     Number       Type             X           Y           Z
 ---------------------------------------------------------------------
      1         11           0        0.314470    0.417624   -0.674811
      2         11           0        3.646901    1.246819   -0.557309
      3         11           0       -1.025449    3.013227   -0.176450
      4         11           0       -3.274116    0.229479   -0.047048
      5         11           0        0.064109   -0.120774    2.230187
      6         11           0       -1.441440   -2.338252   -0.980529
      7         11           0        1.715525   -2.448122    0.205959
 ---------------------------------------------------------------------

 SCF Done:  E(UB3LYP) =  -1136.12194647     A.U. after   22 cycles

 The electronic state is 2-A.
 Alpha  occ. eigenvalues --  -38.44540 -38.44215 -38.44193 -38.44016 -38.43945
 Alpha  occ. eigenvalues --  -38.43089 -38.42809  -2.20302  -2.20041  -2.20022
 Alpha  occ. eigenvalues --   -2.19914  -2.19791  -2.18970  -2.18909  -1.13968
 Alpha  occ. eigenvalues --   -1.13945  -1.13932  -1.13772  -1.13717  -1.13712
 Alpha  occ. eigenvalues --   -1.13682  -1.13665  -1.13646  -1.13620  -1.13514
 Alpha  occ. eigenvalues --   -1.13511  -1.13477  -1.13445  -1.13417  -1.12684
 Alpha  occ. eigenvalues --   -1.12649  -1.12617  -1.12598  -1.12561  -1.12485
 Alpha  occ. eigenvalues --   -0.18401  -0.12972  -0.12314  -0.10546
 Alpha virt. eigenvalues --   -0.06432  -0.05323  -0.04368  -0.03055  -0.02630
 Alpha virt. eigenvalues --   -0.02187  -0.02043  -0.01401  -0.00641  -0.00333
 Alpha virt. eigenvalues --   -0.00094   0.00226   0.00651   0.00761   0.00774

  Beta  occ. eigenvalues --  -38.44507 -38.44212 -38.44196 -38.43940 -38.43902
  Beta  occ. eigenvalues --  -38.43064 -38.42793  -2.20240  -2.20038  -2.20029
  Beta  occ. eigenvalues --   -2.19786  -2.19704  -2.18926  -2.18886  -1.13919
  Beta  occ. eigenvalues --   -1.13903  -1.13893  -1.13777  -1.13716  -1.13700
  Beta  occ. eigenvalues --   -1.13677  -1.13657  -1.13625  -1.13515  -1.13475
  Beta  occ. eigenvalues --   -1.13432  -1.13417  -1.13373  -1.13335  -1.12657
  Beta  occ. eigenvalues --   -1.12591  -1.12582  -1.12560  -1.12546  -1.12473
  Beta  occ. eigenvalues --   -0.17763  -0.12740  -0.11981
  Beta virt. eigenvalues --   -0.06874  -0.06124  -0.05256  -0.04205  -0.02452
  Beta virt. eigenvalues --   -0.02083  -0.01838  -0.01375  -0.01280  -0.00585
  Beta virt. eigenvalues --   -0.00252   0.00093   0.00313   0.00693   0.00811

 Mulliken charges and spin densities:
               1          2
     1  Na  -0.851625  -0.145836
     2  Na  -0.085908   0.259449
     3  Na  -0.112760   0.124356
     4  Na   0.595280   0.040298
     5  Na  -0.384032   0.552490
     6  Na   0.215054   0.086494
     7  Na   0.623992   0.082749
 Sum of Mulliken charges =  -0.00000   1.00000

 Dipole moment (field-independent basis, Debye):
    X=              0.0305    Y=              0.2284    Z=              0.5491  Tot=              0.5955
 Quadrupole moment (field-independent basis, Debye-Ang):
   XX=            -55.5010   YY=            -62.0063   ZZ=            -74.1072
   XY=             -2.8950   XZ=             -0.4808   YZ=              0.0892

 Normal termination of Gaussian 16 at Thu Dec  7 19:20:36 2023.
