 Gaussian 16, Revision B.01,
 Gaussian 16:  ES64L-G16RevB.01 20-Dec-2017

 -------------------------
 #P B3LYP/6-311+g(d) force
 -------------------------

 -----
 DPGEN
 -----
 Symbolic Z-matrix:
 Charge =  0 Multiplicity = 2

                         Standard orientation:
 ---------------------------------------------------------------------
 Center     Atomic      Atomic             Coordinates (Angstroms)
 Number     Number       Type             X           Y           Z
 ---------------------------------------------------------------------
      1         11           0        1.689951    2.053720   -0.800950
      2         11           0       -3.637204   -0.495922   -1.033865
      3         11           0        0.214956   -1.316986   -1.206503
      4         11           0        3.697059   -1.275340   -0.520198
      5         11           0        1.463051    0.125349    2.021565
      6         11           0       -1.334805    1.903409    0.054354
      7         11           0       -2.093008   -0.994231    1.485596
 ---------------------------------------------------------------------

 SCF Done:  E(UB3LYP) =  -1136.12509522     A.U. after   24 cycles

 The electronic state is 2-A.
 Alpha  occ. eigenvalues --  -38.44695 -38.44514 -38.44217 -38.44204 -38.43889
 Alpha  occ. eigenvalues --  -38.43175 -38.42582  -2.20555  -2.20341  -2.20128
 Alpha  occ. eigenvalues --   -2.20077  -2.19680  -2.19056  -2.18500  -1.14277
 Alpha  occ. eigenvalues --   -1.14196  -1.14186  -1.14056  -1.14022  -1.13938
 Alpha  occ. eigenvalues --   -1.13795  -1.13777  -1.13758  -1.13736  -1.13722
 Alpha  occ. eigenvalues --   -1.13685  -1.13353  -1.13343  -1.13314  -1.12753
 Alpha  occ. eigenvalues --   -1.12713  -1.12676  -1.12187  -1.12177  -1.12117
 Alpha  occ. eigenvalues --   -0.18569  -0.14215  -0.11252  -0.11002
 Alpha virt. eigenvalues --   -0.06763  -0.05112  -0.04966  -0.03155  -0.02674
 Alpha virt. eigenvalues --   -0.02327  -0.02307  -0.01218  -0.00794  -0.00153
 Alpha virt. eigenvalues --    0.00130   0.00275   0.00367   0.00594   0.00709

  Beta  occ. eigenvalues --  -38.44679 -38.44494 -38.44159 -38.44152 -38.43889
  Beta  occ. eigenvalues --  -38.43154 -38.42571  -2.20524  -2.20306  -2.20048
  Beta  occ. eigenvalues --   -2.19959  -2.19683  -2.19018  -2.18482  -1.14256
  Beta  occ. eigenvalues --   -1.14171  -1.14161  -1.14019  -1.13989  -1.13915
  Beta  occ. eigenvalues --   -1.13741  -1.13725  -1.13676  -1.13657  -1.13631
  Beta  occ. eigenvalues --   -1.13603  -1.13350  -1.13343  -1.13317  -1.12724
  Beta  occ. eigenvalues --   -1.12683  -1.12648  -1.12178  -1.12140  -1.12102
  Beta  occ. eigenvalues --   -0.17848  -0.14070  -0.10832
  Beta virt. eigenvalues --   -0.07305  -0.06572  -0.04972  -0.04360  -0.02896
  Beta virt. eigenvalues --   -0.02490  -0.01815  -0.01637  -0.00973  -0.00417
  Beta virt. eigenvalues --   -0.00077   0.00167   0.00338   0.00487   0.00700

 Mulliken charges and spin densities:
               1          2
     1  Na   0.084321   0.037368
     2  Na   1.023078   0.094841
     3  Na  -0.982856   0.277614
     4  Na   0.508508  -0.035131
     5  Na  -0.227516   0.248858
     6  Na  -0.615020   0.266719
     7  Na   0.209486   0.109731
 Sum of Mulliken charges =  -0.00000   1.00000

 Dipole moment (field-independent basis, Debye):
    X=             -0.3609    Y=             -0.1107    Z=             -0.0665  Tot=              0.3833
 Quadrupole moment (field-independent basis, Debye-Ang):
   XX=            -49.8433   YY=            -78.1167   ZZ=            -67.5925
   XY=              1.7301   XZ=              2.4445   YZ=             -1.3178

 Normal termination of Gaussian 16 at Fri Dec  8 06:52:06 2023.
