 Gaussian 16, Revision B.01,
 Gaussian 16:  ES64L-G16RevB.01 20-Dec-2017

 -------------------------
 #P B3LYP/6-311+g(d) force
 -------------------------

 -----
 DPGEN
 -----
 Symbolic Z-matrix:
 Charge =  0 Multiplicity = 2

                         Standard orientation:
 ---------------------------------------------------------------------
 Center     Atomic      Atomic             Coordinates (Angstroms)
 Number     Number       Type             X           Y           Z
 ---------------------------------------------------------------------
      1         11           0       -1.933907   -1.446101   -0.929767
      2         11           0        0.800547    0.124644   -1.707871
      3         11           0        0.847662   -2.982460    0.365373
      4         11           0       -3.458321    0.799201    0.275522
      5         11           0        0.912057    3.322403   -0.276548
      6         11           0       -0.238039    0.361035    1.969293
      7         11           0        3.070002   -0.178722    0.303998
 ---------------------------------------------------------------------

 SCF Done:  E(UB3LYP) =  -1136.12676464     A.U. after   21 cycles

 The electronic state is 2-A.
 Alpha  occ. eigenvalues --  -38.44689 -38.44318 -38.44003 -38.43945 -38.43518
 Alpha  occ. eigenvalues --  -38.43498 -38.43241  -2.20529  -2.20138  -2.19792
 Alpha  occ. eigenvalues --   -2.19767  -2.19448  -2.19343  -2.19170  -1.14262
 Alpha  occ. eigenvalues --   -1.14188  -1.14125  -1.13865  -1.13783  -1.13766
 Alpha  occ. eigenvalues --   -1.13469  -1.13448  -1.13431  -1.13416  -1.13413
 Alpha  occ. eigenvalues --   -1.13403  -1.13148  -1.13117  -1.13038  -1.13019
 Alpha  occ. eigenvalues --   -1.13004  -1.12983  -1.12840  -1.12809  -1.12798
 Alpha  occ. eigenvalues --   -0.18277  -0.13104  -0.12081  -0.10873
 Alpha virt. eigenvalues --   -0.06247  -0.05279  -0.04287  -0.03360  -0.02975
 Alpha virt. eigenvalues --   -0.02579  -0.01734  -0.01442  -0.00421  -0.00118
 Alpha virt. eigenvalues --   -0.00023   0.00358   0.00517   0.00739   0.00905

  Beta  occ. eigenvalues --  -38.44680 -38.44320 -38.44002 -38.43866 -38.43512
  Beta  occ. eigenvalues --  -38.43432 -38.43215  -2.20516  -2.20143  -2.19767
  Beta  occ. eigenvalues --   -2.19645  -2.19337  -2.19326  -2.19124  -1.14247
  Beta  occ. eigenvalues --   -1.14164  -1.14117  -1.13869  -1.13777  -1.13767
  Beta  occ. eigenvalues --   -1.13439  -1.13421  -1.13407  -1.13371  -1.13319
  Beta  occ. eigenvalues --   -1.13303  -1.13061  -1.13036  -1.13017  -1.12986
  Beta  occ. eigenvalues --   -1.12977  -1.12941  -1.12804  -1.12777  -1.12754
  Beta  occ. eigenvalues --   -0.17539  -0.12922  -0.11859
  Beta virt. eigenvalues --   -0.07004  -0.06207  -0.05124  -0.04142  -0.02725
  Beta virt. eigenvalues --   -0.02261  -0.01724  -0.01588  -0.01316  -0.00408
  Beta virt. eigenvalues --   -0.00084   0.00086   0.00387   0.00613   0.00796

 Mulliken charges and spin densities:
               1          2
     1  Na   0.131611   0.109528
     2  Na   0.421840   0.323117
     3  Na  -0.177816   0.090769
     4  Na  -0.059916  -0.061765
     5  Na  -0.228088  -0.133287
     6  Na  -0.242945   0.640280
     7  Na   0.155315   0.031358
 Sum of Mulliken charges =  -0.00000   1.00000

 Dipole moment (field-independent basis, Debye):
    X=              0.3013    Y=              0.3741    Z=              0.3726  Tot=              0.6079
 Quadrupole moment (field-independent basis, Debye-Ang):
   XX=            -57.9037   YY=            -62.2992   ZZ=            -73.5871
   XY=             -2.3000   XZ=              1.0826   YZ=             -0.3919

 Normal termination of Gaussian 16 at Thu Dec  7 05:01:27 2023.
