 Gaussian 16, Revision B.01,
 Gaussian 16:  ES64L-G16RevB.01 20-Dec-2017

 -------------------------
 #P B3LYP/6-311+g(d) force
 -------------------------

 -----
 DPGEN
 -----
 Symbolic Z-matrix:
 Charge =  0 Multiplicity = 2

                         Standard orientation:
 ---------------------------------------------------------------------
 Center     Atomic      Atomic             Coordinates (Angstroms)
 Number     Number       Type             X           Y           Z
 ---------------------------------------------------------------------
      1         11           0       -2.967027    1.398970   -0.302032
      2         11           0       -0.961154   -0.329255   -1.595843
      3         11           0        1.876660   -2.288168   -0.293846
      4         11           0        3.528710    0.254647   -0.221054
      5         11           0        0.170479    0.363414    1.882883
      6         11           0       -2.376407   -2.167489    0.581502
      7         11           0        0.728741    2.767880   -0.051610
 ---------------------------------------------------------------------

 SCF Done:  E(UB3LYP) =  -1136.12640852     A.U. after   19 cycles

 The electronic state is 2-A.
 Alpha  occ. eigenvalues --  -38.44603 -38.44580 -38.44039 -38.43715 -38.43567
 Alpha  occ. eigenvalues --  -38.43435 -38.43241  -2.20456  -2.20402  -2.19866
 Alpha  occ. eigenvalues --   -2.19669  -2.19406  -2.19335  -2.19074  -1.14211
 Alpha  occ. eigenvalues --   -1.14108  -1.14095  -1.14062  -1.14058  -1.14023
 Alpha  occ. eigenvalues --   -1.13567  -1.13520  -1.13500  -1.13332  -1.13315
 Alpha  occ. eigenvalues --   -1.13277  -1.13082  -1.13067  -1.13042  -1.13035
 Alpha  occ. eigenvalues --   -1.12976  -1.12951  -1.12748  -1.12740  -1.12689
 Alpha  occ. eigenvalues --   -0.18283  -0.13678  -0.12000  -0.10464
 Alpha virt. eigenvalues --   -0.06256  -0.05630  -0.04291  -0.03455  -0.02654
 Alpha virt. eigenvalues --   -0.02258  -0.01950  -0.01368  -0.00669  -0.00305
 Alpha virt. eigenvalues --   -0.00049   0.00275   0.00715   0.00771   0.00810

  Beta  occ. eigenvalues --  -38.44582 -38.44573 -38.44021 -38.43669 -38.43561
  Beta  occ. eigenvalues --  -38.43351 -38.43238  -2.20422  -2.20390  -2.19835
  Beta  occ. eigenvalues --   -2.19586  -2.19397  -2.19180  -2.19073  -1.14177
  Beta  occ. eigenvalues --   -1.14101  -1.14056  -1.14047  -1.14040  -1.14012
  Beta  occ. eigenvalues --   -1.13545  -1.13490  -1.13470  -1.13278  -1.13246
  Beta  occ. eigenvalues --   -1.13217  -1.13078  -1.13056  -1.13023  -1.12939
  Beta  occ. eigenvalues --   -1.12870  -1.12845  -1.12736  -1.12714  -1.12689
  Beta  occ. eigenvalues --   -0.17642  -0.13386  -0.11758
  Beta virt. eigenvalues --   -0.06730  -0.06087  -0.05557  -0.04220  -0.02778
  Beta virt. eigenvalues --   -0.02033  -0.01834  -0.01322  -0.01234  -0.00652
  Beta virt. eigenvalues --   -0.00317   0.00107   0.00351   0.00786   0.00820

 Mulliken charges and spin densities:
               1          2
     1  Na   0.313420  -0.036443
     2  Na   0.002774   0.429107
     3  Na   0.052361   0.055241
     4  Na  -0.100434  -0.020806
     5  Na  -0.173640   0.618683
     6  Na  -0.083168   0.043886
     7  Na  -0.011313  -0.089668
 Sum of Mulliken charges =  -0.00000   1.00000

 Dipole moment (field-independent basis, Debye):
    X=             -0.2762    Y=              0.1431    Z=              0.1532  Tot=              0.3467
 Quadrupole moment (field-independent basis, Debye-Ang):
   XX=            -53.3329   YY=            -66.2395   ZZ=            -74.9047
   XY=              1.6726   XZ=             -2.3288   YZ=             -1.7984

 Normal termination of Gaussian 16 at Mon Dec  4 04:40:40 2023.
