 Gaussian 16, Revision B.01,
 Gaussian 16:  ES64L-G16RevB.01 20-Dec-2017

 -------------------------
 #P B3LYP/6-311+g(d) force
 -------------------------

 -----
 DPGEN
 -----
 Symbolic Z-matrix:
 Charge =  0 Multiplicity = 2

                         Standard orientation:
 ---------------------------------------------------------------------
 Center     Atomic      Atomic             Coordinates (Angstroms)
 Number     Number       Type             X           Y           Z
 ---------------------------------------------------------------------
      1         11           0       -2.676466    1.849645   -0.557176
      2         11           0        0.822671    2.389565    0.639509
      3         11           0       -1.337663   -0.323226    2.144646
      4         11           0        0.014134   -0.244862   -1.849521
      5         11           0        1.250120   -2.216176    0.654218
      6         11           0        3.795427    0.460499   -0.329764
      7         11           0       -1.868223   -1.915444   -0.701913
 ---------------------------------------------------------------------

 SCF Done:  E(UB3LYP) =  -1136.12869125     A.U. after   19 cycles

 The electronic state is 2-A.
 Alpha  occ. eigenvalues --  -38.44199 -38.44183 -38.44148 -38.43790 -38.43579
 Alpha  occ. eigenvalues --  -38.43578 -38.43471  -2.20147  -2.20027  -2.19957
 Alpha  occ. eigenvalues --   -2.19593  -2.19535  -2.19375  -2.19322  -1.13984
 Alpha  occ. eigenvalues --   -1.13778  -1.13733  -1.13693  -1.13680  -1.13635
 Alpha  occ. eigenvalues --   -1.13624  -1.13617  -1.13593  -1.13268  -1.13247
 Alpha  occ. eigenvalues --   -1.13235  -1.13216  -1.13166  -1.13113  -1.13066
 Alpha  occ. eigenvalues --   -1.13062  -1.13009  -1.12997  -1.12977  -1.12928
 Alpha  occ. eigenvalues --   -0.18463  -0.12790  -0.12062  -0.11539
 Alpha virt. eigenvalues --   -0.05907  -0.05100  -0.04177  -0.03372  -0.03126
 Alpha virt. eigenvalues --   -0.03120  -0.01683  -0.01052  -0.00403  -0.00042
 Alpha virt. eigenvalues --    0.00099   0.00314   0.00558   0.00795   0.00889

  Beta  occ. eigenvalues --  -38.44202 -38.44109 -38.44058 -38.43785 -38.43572
  Beta  occ. eigenvalues --  -38.43556 -38.43458  -2.20014  -2.19964  -2.19861
  Beta  occ. eigenvalues --   -2.19585  -2.19502  -2.19363  -2.19301  -1.13897
  Beta  occ. eigenvalues --   -1.13679  -1.13637  -1.13634  -1.13623  -1.13597
  Beta  occ. eigenvalues --   -1.13575  -1.13574  -1.13501  -1.13253  -1.13242
  Beta  occ. eigenvalues --   -1.13224  -1.13176  -1.13123  -1.13087  -1.13058
  Beta  occ. eigenvalues --   -1.13041  -1.12996  -1.12972  -1.12960  -1.12915
  Beta  occ. eigenvalues --   -0.17675  -0.12639  -0.11850
  Beta virt. eigenvalues --   -0.07481  -0.05807  -0.05050  -0.04001  -0.02814
  Beta virt. eigenvalues --   -0.02394  -0.02083  -0.01623  -0.00989  -0.00197
  Beta virt. eigenvalues --    0.00020   0.00083   0.00354   0.00759   0.00845

 Mulliken charges and spin densities:
               1          2
     1  Na  -0.002969  -0.103509
     2  Na  -0.218565  -0.036081
     3  Na  -0.216706   0.651000
     4  Na  -0.266196   0.605471
     5  Na  -0.064236   0.022632
     6  Na   0.071487  -0.055876
     7  Na   0.697185  -0.083637
 Sum of Mulliken charges =  -0.00000   1.00000

 Dipole moment (field-independent basis, Debye):
    X=              0.0300    Y=              0.0255    Z=              0.1277  Tot=              0.1336
 Quadrupole moment (field-independent basis, Debye-Ang):
   XX=            -55.8966   YY=            -69.8548   ZZ=            -69.3411
   XY=             -0.9069   XZ=              0.3933   YZ=             -0.9937

 Normal termination of Gaussian 16 at Tue Dec  5 13:03:32 2023.
