 Gaussian 16, Revision B.01,
 Gaussian 16:  ES64L-G16RevB.01 20-Dec-2017

 -------------------------
 #P B3LYP/6-311+g(d) force
 -------------------------

 -----
 DPGEN
 -----
 Symbolic Z-matrix:
 Charge =  0 Multiplicity = 2

                         Standard orientation:
 ---------------------------------------------------------------------
 Center     Atomic      Atomic             Coordinates (Angstroms)
 Number     Number       Type             X           Y           Z
 ---------------------------------------------------------------------
      1         11           0       -2.981577    0.035696    2.295132
      2         11           0       -1.189993   -2.678456    0.121834
      3         11           0        1.837624    2.787045   -0.215907
      4         11           0       -2.276018    2.601204   -0.396828
      5         11           0       -2.708683   -0.830029   -2.016138
      6         11           0        2.796212   -2.393778   -0.036058
      7         11           0        4.522434    0.478317    0.247966
 ---------------------------------------------------------------------

 SCF Done:  E(UB3LYP) =  -1136.10593063     A.U. after   24 cycles

 The electronic state is 2-A.
 Alpha  occ. eigenvalues --  -38.45077 -38.45055 -38.44794 -38.44753 -38.44607
 Alpha  occ. eigenvalues --  -38.44359 -38.44259  -2.20799  -2.20798  -2.20572
 Alpha  occ. eigenvalues --   -2.20491  -2.20420  -2.20156  -2.20040  -1.14486
 Alpha  occ. eigenvalues --   -1.14480  -1.14472  -1.14467  -1.14443  -1.14422
 Alpha  occ. eigenvalues --   -1.14244  -1.14225  -1.14212  -1.14170  -1.14159
 Alpha  occ. eigenvalues --   -1.14138  -1.14092  -1.14069  -1.14036  -1.13805
 Alpha  occ. eigenvalues --   -1.13784  -1.13766  -1.13719  -1.13708  -1.13677
 Alpha  occ. eigenvalues --   -0.16105  -0.13999  -0.12094  -0.10673
 Alpha virt. eigenvalues --   -0.07365  -0.06922  -0.03666  -0.03503  -0.02938
 Alpha virt. eigenvalues --   -0.02825  -0.02340  -0.02235  -0.01719  -0.00695
 Alpha virt. eigenvalues --   -0.00593  -0.00059   0.00179   0.00286   0.00392

  Beta  occ. eigenvalues --  -38.45072 -38.45054 -38.44796 -38.44753 -38.44537
  Beta  occ. eigenvalues --  -38.44257 -38.44242  -2.20797  -2.20788  -2.20577
  Beta  occ. eigenvalues --   -2.20494  -2.20290  -2.20042  -2.19938  -1.14478
  Beta  occ. eigenvalues --   -1.14477  -1.14466  -1.14465  -1.14443  -1.14417
  Beta  occ. eigenvalues --   -1.14248  -1.14228  -1.14214  -1.14165  -1.14158
  Beta  occ. eigenvalues --   -1.14134  -1.14006  -1.13978  -1.13947  -1.13717
  Beta  occ. eigenvalues --   -1.13688  -1.13682  -1.13656  -1.13631  -1.13621
  Beta  occ. eigenvalues --   -0.15570  -0.13712  -0.11971
  Beta virt. eigenvalues --   -0.07309  -0.06783  -0.06623  -0.03552  -0.03097
  Beta virt. eigenvalues --   -0.02738  -0.02282  -0.02193  -0.01692  -0.01561
  Beta virt. eigenvalues --   -0.00665  -0.00092   0.00130   0.00345   0.00395

 Mulliken charges and spin densities:
               1          2
     1  Na   0.031121   0.486536
     2  Na  -0.228104   0.224104
     3  Na  -0.070569  -0.032877
     4  Na  -0.236063   0.163718
     5  Na   0.228576   0.227298
     6  Na   0.035394  -0.064638
     7  Na   0.239645  -0.004141
 Sum of Mulliken charges =  -0.00000   1.00000

 Dipole moment (field-independent basis, Debye):
    X=              1.0203    Y=              0.1162    Z=             -0.3084  Tot=              1.0722
 Quadrupole moment (field-independent basis, Debye-Ang):
   XX=            -58.0295   YY=            -68.2458   ZZ=            -74.9914
   XY=             -0.9780   XZ=              3.5487   YZ=             -1.2765

 Normal termination of Gaussian 16 at Sun Dec  3 13:51:47 2023.
