 Gaussian 16, Revision B.01,
 Gaussian 16:  ES64L-G16RevB.01 20-Dec-2017

 -------------------------
 #P B3LYP/6-311+g(d) force
 -------------------------

 -----
 DPGEN
 -----
 Symbolic Z-matrix:
 Charge =  0 Multiplicity = 2

                         Standard orientation:
 ---------------------------------------------------------------------
 Center     Atomic      Atomic             Coordinates (Angstroms)
 Number     Number       Type             X           Y           Z
 ---------------------------------------------------------------------
      1         11           0        1.076581   -0.921878    1.969999
      2         11           0        0.081045    0.471532   -1.446494
      3         11           0        2.794627   -1.946711   -0.771220
      4         11           0       -1.484067   -1.976373   -0.074263
      5         11           0        2.321403    2.441517   -0.262342
      6         11           0       -0.758225    1.705404    0.918396
      7         11           0       -4.031363    0.226509   -0.334076
 ---------------------------------------------------------------------

 SCF Done:  E(UB3LYP) =  -1136.12350863     A.U. after   20 cycles

 The electronic state is 2-A.
 Alpha  occ. eigenvalues --  -38.44812 -38.44003 -38.43848 -38.43803 -38.43614
 Alpha  occ. eigenvalues --  -38.43292 -38.43238  -2.20589  -2.19855  -2.19796
 Alpha  occ. eigenvalues --   -2.19671  -2.19448  -2.19257  -2.19140  -1.14260
 Alpha  occ. eigenvalues --   -1.14256  -1.14214  -1.13705  -1.13532  -1.13472
 Alpha  occ. eigenvalues --   -1.13463  -1.13436  -1.13422  -1.13365  -1.13352
 Alpha  occ. eigenvalues --   -1.13255  -1.13117  -1.13095  -1.13088  -1.12965
 Alpha  occ. eigenvalues --   -1.12914  -1.12810  -1.12802  -1.12770  -1.12745
 Alpha  occ. eigenvalues --   -0.18566  -0.13221  -0.11835  -0.10817
 Alpha virt. eigenvalues --   -0.06541  -0.05257  -0.03703  -0.03239  -0.02788
 Alpha virt. eigenvalues --   -0.02359  -0.02314  -0.01416  -0.00520   0.00021
 Alpha virt. eigenvalues --    0.00113   0.00187   0.00569   0.00699   0.00814

  Beta  occ. eigenvalues --  -38.44810 -38.43982 -38.43807 -38.43793 -38.43609
  Beta  occ. eigenvalues --  -38.43258 -38.43161  -2.20587  -2.19783  -2.19759
  Beta  occ. eigenvalues --   -2.19658  -2.19440  -2.19199  -2.19001  -1.14259
  Beta  occ. eigenvalues --   -1.14250  -1.14213  -1.13644  -1.13491  -1.13444
  Beta  occ. eigenvalues --   -1.13423  -1.13403  -1.13387  -1.13348  -1.13312
  Beta  occ. eigenvalues --   -1.13250  -1.13100  -1.13088  -1.13081  -1.12926
  Beta  occ. eigenvalues --   -1.12831  -1.12770  -1.12714  -1.12679  -1.12639
  Beta  occ. eigenvalues --   -0.17832  -0.12999  -0.11678
  Beta virt. eigenvalues --   -0.06884  -0.06356  -0.05186  -0.03523  -0.02805
  Beta virt. eigenvalues --   -0.02238  -0.02116  -0.01430  -0.01315  -0.00213
  Beta virt. eigenvalues --    0.00073   0.00119   0.00209   0.00687   0.00745

 Mulliken charges and spin densities:
               1          2
     1  Na   0.077763   0.189327
     2  Na  -0.529031   0.477578
     3  Na  -0.085105  -0.022749
     4  Na   0.084286   0.081437
     5  Na   0.093684  -0.044003
     6  Na   0.228487   0.344355
     7  Na   0.129916  -0.025945
 Sum of Mulliken charges =  -0.00000   1.00000

 Dipole moment (field-independent basis, Debye):
    X=             -0.3791    Y=              0.0639    Z=              0.0272  Tot=              0.3854
 Quadrupole moment (field-independent basis, Debye-Ang):
   XX=            -48.4805   YY=            -70.0326   ZZ=            -72.4621
   XY=              0.0878   XZ=             -0.1948   YZ=              1.5786

 Normal termination of Gaussian 16 at Tue Dec  5 15:43:26 2023.
