 Gaussian 16, Revision B.01,
 Gaussian 16:  ES64L-G16RevB.01 20-Dec-2017

 -------------------------
 #P B3LYP/6-311+g(d) force
 -------------------------

 -----
 DPGEN
 -----
 Symbolic Z-matrix:
 Charge =  0 Multiplicity = 2

                         Standard orientation:
 ---------------------------------------------------------------------
 Center     Atomic      Atomic             Coordinates (Angstroms)
 Number     Number       Type             X           Y           Z
 ---------------------------------------------------------------------
      1         11           0       -2.589571   -1.961146   -0.110311
      2         11           0        1.173291   -2.776656   -0.244780
      3         11           0        0.873738    2.956649   -0.190176
      4         11           0        3.219189    0.025588   -0.100553
      5         11           0        0.108101   -0.052200    2.050292
      6         11           0       -2.650689    1.684165   -0.032379
      7         11           0       -0.134059    0.123600   -1.372093
 ---------------------------------------------------------------------

 SCF Done:  E(UB3LYP) =  -1136.13795229     A.U. after   19 cycles

 The electronic state is 2-A.
 Alpha  occ. eigenvalues --  -38.44094 -38.44050 -38.43960 -38.43609 -38.43608
 Alpha  occ. eigenvalues --  -38.43262 -38.42812  -2.19909  -2.19876  -2.19763
 Alpha  occ. eigenvalues --   -2.19443  -2.19439  -2.19144  -2.18830  -1.13582
 Alpha  occ. eigenvalues --   -1.13572  -1.13569  -1.13553  -1.13538  -1.13503
 Alpha  occ. eigenvalues --   -1.13440  -1.13419  -1.13401  -1.13141  -1.13131
 Alpha  occ. eigenvalues --   -1.13105  -1.13097  -1.13070  -1.13065  -1.12824
 Alpha  occ. eigenvalues --   -1.12759  -1.12755  -1.12528  -1.12469  -1.12453
 Alpha  occ. eigenvalues --   -0.18452  -0.12941  -0.12491  -0.10259
 Alpha virt. eigenvalues --   -0.05627  -0.05514  -0.04934  -0.02920  -0.02666
 Alpha virt. eigenvalues --   -0.02235  -0.01629  -0.01365  -0.00646  -0.00616
 Alpha virt. eigenvalues --    0.00010   0.00331   0.00769   0.00817   0.00839

  Beta  occ. eigenvalues --  -38.44090 -38.44046 -38.43958 -38.43604 -38.43602
  Beta  occ. eigenvalues --  -38.43158 -38.42764  -2.19906  -2.19873  -2.19761
  Beta  occ. eigenvalues --   -2.19434  -2.19432  -2.18952  -2.18745  -1.13572
  Beta  occ. eigenvalues --   -1.13566  -1.13555  -1.13554  -1.13518  -1.13505
  Beta  occ. eigenvalues --   -1.13429  -1.13411  -1.13403  -1.13131  -1.13121
  Beta  occ. eigenvalues --   -1.13080  -1.13075  -1.13067  -1.13064  -1.12696
  Beta  occ. eigenvalues --   -1.12624  -1.12619  -1.12456  -1.12406  -1.12391
  Beta  occ. eigenvalues --   -0.17750  -0.12730  -0.12262
  Beta virt. eigenvalues --   -0.06344  -0.05602  -0.05522  -0.04884  -0.02172
  Beta virt. eigenvalues --   -0.01941  -0.01545  -0.01295  -0.01155  -0.00700
  Beta virt. eigenvalues --   -0.00659   0.00167   0.00377   0.00818   0.00825

 Mulliken charges and spin densities:
               1          2
     1  Na   0.156306  -0.033224
     2  Na   0.168410  -0.020783
     3  Na   0.234401  -0.027483
     4  Na   0.220060  -0.003899
     5  Na  -0.476953   0.816856
     6  Na   0.259923  -0.020991
     7  Na  -0.562148   0.289525
 Sum of Mulliken charges =  -0.00000   1.00000

 Dipole moment (field-independent basis, Debye):
    X=             -0.0721    Y=              0.0327    Z=              0.1304  Tot=              0.1526
 Quadrupole moment (field-independent basis, Debye-Ang):
   XX=            -54.5190   YY=            -59.3983   ZZ=            -77.3325
   XY=              0.3334   XZ=             -0.5305   YZ=              0.4141

 Normal termination of Gaussian 16 at Fri Dec  8 03:38:19 2023.
