 Gaussian 16, Revision B.01,
 Gaussian 16:  ES64L-G16RevB.01 20-Dec-2017

 -------------------------
 #P B3LYP/6-311+g(d) force
 -------------------------

 -----
 DPGEN
 -----
 Symbolic Z-matrix:
 Charge =  0 Multiplicity = 2

                         Standard orientation:
 ---------------------------------------------------------------------
 Center     Atomic      Atomic             Coordinates (Angstroms)
 Number     Number       Type             X           Y           Z
 ---------------------------------------------------------------------
      1         11           0       -2.532896    1.794628    0.060439
      2         11           0       -0.316457    0.268051    2.285930
      3         11           0        0.810868   -2.667092    0.284510
      4         11           0        3.304490   -0.375692    0.088752
      5         11           0       -2.534571   -1.963411   -0.457660
      6         11           0        1.020735    3.012877   -0.319418
      7         11           0        0.247832   -0.069361   -1.942553
 ---------------------------------------------------------------------

 SCF Done:  E(UB3LYP) =  -1136.13567627     A.U. after   19 cycles

 The electronic state is 2-A.
 Alpha  occ. eigenvalues --  -38.44298 -38.43974 -38.43969 -38.43922 -38.43868
 Alpha  occ. eigenvalues --  -38.43599 -38.43333  -2.20124  -2.19793  -2.19765
 Alpha  occ. eigenvalues --   -2.19763  -2.19647  -2.19402  -2.19189  -1.13777
 Alpha  occ. eigenvalues --   -1.13755  -1.13749  -1.13476  -1.13448  -1.13445
 Alpha  occ. eigenvalues --   -1.13435  -1.13429  -1.13426  -1.13415  -1.13399
 Alpha  occ. eigenvalues --   -1.13396  -1.13326  -1.13304  -1.13279  -1.13073
 Alpha  occ. eigenvalues --   -1.13063  -1.13046  -1.12868  -1.12861  -1.12813
 Alpha  occ. eigenvalues --   -0.17920  -0.12592  -0.12290  -0.11093
 Alpha virt. eigenvalues --   -0.05657  -0.05210  -0.04836  -0.03352  -0.03088
 Alpha virt. eigenvalues --   -0.02969  -0.01408  -0.01221  -0.00552  -0.00339
 Alpha virt. eigenvalues --   -0.00099   0.00381   0.00735   0.00783   0.00842

  Beta  occ. eigenvalues --  -38.44201 -38.43975 -38.43967 -38.43863 -38.43854
  Beta  occ. eigenvalues --  -38.43593 -38.43326  -2.19944  -2.19767  -2.19764
  Beta  occ. eigenvalues --   -2.19667  -2.19641  -2.19391  -2.19179  -1.13658
  Beta  occ. eigenvalues --   -1.13627  -1.13622  -1.13438  -1.13435  -1.13423
  Beta  occ. eigenvalues --   -1.13420  -1.13412  -1.13401  -1.13387  -1.13349
  Beta  occ. eigenvalues --   -1.13325  -1.13303  -1.13295  -1.13276  -1.13059
  Beta  occ. eigenvalues --   -1.13051  -1.13039  -1.12864  -1.12832  -1.12806
  Beta  occ. eigenvalues --   -0.17175  -0.12407  -0.12086
  Beta virt. eigenvalues --   -0.07211  -0.05637  -0.05112  -0.04683  -0.02578
  Beta virt. eigenvalues --   -0.02379  -0.02009  -0.01316  -0.01137  -0.00604
  Beta virt. eigenvalues --   -0.00371   0.00061   0.00406   0.00798   0.00863

 Mulliken charges and spin densities:
               1          2
     1  Na   0.109249  -0.060601
     2  Na  -0.339569   0.655548
     3  Na   0.099610   0.057052
     4  Na   0.053719  -0.105563
     5  Na   0.097246  -0.014326
     6  Na   0.042525  -0.118683
     7  Na  -0.062780   0.586572
 Sum of Mulliken charges =  -0.00000   1.00000

 Dipole moment (field-independent basis, Debye):
    X=              0.0495    Y=              0.2783    Z=              0.0698  Tot=              0.2912
 Quadrupole moment (field-independent basis, Debye-Ang):
   XX=            -59.4195   YY=            -64.0061   ZZ=            -71.8631
   XY=              0.5940   XZ=              1.3166   YZ=             -0.4877

 Normal termination of Gaussian 16 at Tue Dec  5 20:56:08 2023.
