 Gaussian 16, Revision B.01,
 Gaussian 16:  ES64L-G16RevB.01 20-Dec-2017

 -------------------------
 #P B3LYP/6-311+g(d) force
 -------------------------

 -----
 DPGEN
 -----
 Symbolic Z-matrix:
 Charge =  0 Multiplicity = 2

                         Standard orientation:
 ---------------------------------------------------------------------
 Center     Atomic      Atomic             Coordinates (Angstroms)
 Number     Number       Type             X           Y           Z
 ---------------------------------------------------------------------
      1         11           0       -0.764455   -0.753052   -1.503910
      2         11           0        0.758589    1.895433   -0.840475
      3         11           0       -3.219281   -1.668406    0.519819
      4         11           0        2.170419   -2.229311   -0.704590
      5         11           0       -2.472370    2.136331   -0.162252
      6         11           0        0.099400   -0.184473    2.083912
      7         11           0        3.427697    0.803478    0.607497
 ---------------------------------------------------------------------

 SCF Done:  E(UB3LYP) =  -1136.12437944     A.U. after   22 cycles

 The electronic state is 2-A.
 Alpha  occ. eigenvalues --  -38.44776 -38.44737 -38.44371 -38.43951 -38.43910
 Alpha  occ. eigenvalues --  -38.43296 -38.42696  -2.20593  -2.20560  -2.20156
 Alpha  occ. eigenvalues --   -2.19762  -2.19720  -2.19249  -2.18627  -1.14276
 Alpha  occ. eigenvalues --   -1.14242  -1.14235  -1.14218  -1.14198  -1.14183
 Alpha  occ. eigenvalues --   -1.13836  -1.13805  -1.13798  -1.13436  -1.13429
 Alpha  occ. eigenvalues --   -1.13400  -1.13399  -1.13373  -1.13352  -1.12969
 Alpha  occ. eigenvalues --   -1.12893  -1.12856  -1.12333  -1.12281  -1.12241
 Alpha  occ. eigenvalues --   -0.18310  -0.13558  -0.11430  -0.11052
 Alpha virt. eigenvalues --   -0.06597  -0.05730  -0.04031  -0.03245  -0.02626
 Alpha virt. eigenvalues --   -0.02613  -0.02260  -0.01487  -0.00553  -0.00223
 Alpha virt. eigenvalues --    0.00128   0.00218   0.00361   0.00610   0.00700

  Beta  occ. eigenvalues --  -38.44725 -38.44701 -38.44367 -38.43952 -38.43884
  Beta  occ. eigenvalues --  -38.43239 -38.42675  -2.20539  -2.20453  -2.20149
  Beta  occ. eigenvalues --   -2.19768  -2.19675  -2.19147  -2.18594  -1.14229
  Beta  occ. eigenvalues --   -1.14186  -1.14182  -1.14175  -1.14140  -1.14088
  Beta  occ. eigenvalues --   -1.13829  -1.13802  -1.13788  -1.13437  -1.13425
  Beta  occ. eigenvalues --   -1.13403  -1.13358  -1.13338  -1.13322  -1.12903
  Beta  occ. eigenvalues --   -1.12810  -1.12775  -1.12306  -1.12232  -1.12224
  Beta  occ. eigenvalues --   -0.17584  -0.13381  -0.11153
  Beta virt. eigenvalues --   -0.07234  -0.06347  -0.05706  -0.03575  -0.02976
  Beta virt. eigenvalues --   -0.02178  -0.01915  -0.01652  -0.01368  -0.00440
  Beta virt. eigenvalues --   -0.00112   0.00134   0.00243   0.00504   0.00688

 Mulliken charges and spin densities:
               1          2
     1  Na   0.245520   0.146852
     2  Na  -0.416444   0.021401
     3  Na   0.067031   0.073393
     4  Na  -0.229194   0.099845
     5  Na   0.146940  -0.027276
     6  Na  -0.400853   0.524248
     7  Na   0.587000   0.161538
 Sum of Mulliken charges =  -0.00000   1.00000

 Dipole moment (field-independent basis, Debye):
    X=              0.0104    Y=             -0.0453    Z=              0.6557  Tot=              0.6573
 Quadrupole moment (field-independent basis, Debye-Ang):
   XX=            -48.8570   YY=            -72.1749   ZZ=            -72.1758
   XY=             -0.6042   XZ=             -0.4436   YZ=              0.5609

 Normal termination of Gaussian 16 at Fri Dec  8 02:57:57 2023.
