 Gaussian 16, Revision B.01,
 Gaussian 16:  ES64L-G16RevB.01 20-Dec-2017

 -------------------------
 #P B3LYP/6-311+g(d) force
 -------------------------

 -----
 DPGEN
 -----
 Symbolic Z-matrix:
 Charge =  0 Multiplicity = 2

                         Standard orientation:
 ---------------------------------------------------------------------
 Center     Atomic      Atomic             Coordinates (Angstroms)
 Number     Number       Type             X           Y           Z
 ---------------------------------------------------------------------
      1         11           0       -1.699180   -2.276907    0.007300
      2         11           0        0.211567   -0.292752    1.916265
      3         11           0        1.755156   -2.133412   -0.327110
      4         11           0        2.978547    1.012435    0.200502
      5         11           0       -2.937550    0.972685    0.279634
      6         11           0       -0.215828   -0.253809   -1.728653
      7         11           0       -0.092713    2.971759   -0.347938
 ---------------------------------------------------------------------

 SCF Done:  E(UB3LYP) =  -1136.13744166     A.U. after   19 cycles

 The electronic state is 2-A.
 Alpha  occ. eigenvalues --  -38.43818 -38.43805 -38.43519 -38.43469 -38.43411
 Alpha  occ. eigenvalues --  -38.43391 -38.43305  -2.19648  -2.19630  -2.19455
 Alpha  occ. eigenvalues --   -2.19344  -2.19319  -2.19305  -2.19285  -1.13320
 Alpha  occ. eigenvalues --   -1.13314  -1.13308  -1.13296  -1.13294  -1.13275
 Alpha  occ. eigenvalues --   -1.13186  -1.13126  -1.13092  -1.13088  -1.13076
 Alpha  occ. eigenvalues --   -1.12989  -1.12980  -1.12964  -1.12957  -1.12948
 Alpha  occ. eigenvalues --   -1.12930  -1.12916  -1.12908  -1.12888  -1.12874
 Alpha  occ. eigenvalues --   -0.18969  -0.12995  -0.12609  -0.10902
 Alpha virt. eigenvalues --   -0.05439  -0.05098  -0.04739  -0.03199  -0.02959
 Alpha virt. eigenvalues --   -0.02579  -0.01379  -0.01063  -0.00329  -0.00153
 Alpha virt. eigenvalues --    0.00007   0.00364   0.00853   0.00912   0.00914

  Beta  occ. eigenvalues --  -38.43814 -38.43803 -38.43465 -38.43434 -38.43397
  Beta  occ. eigenvalues --  -38.43382 -38.43228  -2.19643  -2.19629  -2.19324
  Beta  occ. eigenvalues --   -2.19301  -2.19300  -2.19278  -2.19173  -1.13313
  Beta  occ. eigenvalues --   -1.13305  -1.13300  -1.13289  -1.13285  -1.13270
  Beta  occ. eigenvalues --   -1.13135  -1.13050  -1.13041  -1.12992  -1.12979
  Beta  occ. eigenvalues --   -1.12959  -1.12953  -1.12935  -1.12923  -1.12916
  Beta  occ. eigenvalues --   -1.12914  -1.12899  -1.12857  -1.12806  -1.12790
  Beta  occ. eigenvalues --   -0.18223  -0.12751  -0.12349
  Beta virt. eigenvalues --   -0.06962  -0.05400  -0.05103  -0.04678  -0.02411
  Beta virt. eigenvalues --   -0.02187  -0.01524  -0.01291  -0.01001  -0.00345
  Beta virt. eigenvalues --   -0.00213   0.00133   0.00389   0.00892   0.00907

 Mulliken charges and spin densities:
               1          2
     1  Na   0.390311  -0.043086
     2  Na  -0.426661   0.713333
     3  Na   0.451824  -0.043629
     4  Na  -0.052466  -0.068649
     5  Na  -0.066752  -0.042928
     6  Na  -0.240214   0.569394
     7  Na  -0.056043  -0.084434
 Sum of Mulliken charges =  -0.00000   1.00000

 Dipole moment (field-independent basis, Debye):
    X=             -0.0147    Y=              0.0907    Z=              0.1703  Tot=              0.1935
 Quadrupole moment (field-independent basis, Debye-Ang):
   XX=            -57.5184   YY=            -62.7480   ZZ=            -73.5969
   XY=              0.4150   XZ=             -0.9671   YZ=              0.1179

 Normal termination of Gaussian 16 at Thu Dec  7 12:24:05 2023.
