 Gaussian 16, Revision B.01,
 Gaussian 16:  ES64L-G16RevB.01 20-Dec-2017

 -------------------------
 #P B3LYP/6-311+g(d) force
 -------------------------

 -----
 DPGEN
 -----
 Symbolic Z-matrix:
 Charge =  0 Multiplicity = 2

                         Standard orientation:
 ---------------------------------------------------------------------
 Center     Atomic      Atomic             Coordinates (Angstroms)
 Number     Number       Type             X           Y           Z
 ---------------------------------------------------------------------
      1         11           0       -1.549716    2.090688    1.447027
      2         11           0       -2.442124   -1.286872   -0.771988
      3         11           0        2.651605   -0.816576    0.988122
      4         11           0        2.480835    1.934067   -0.752845
      5         11           0       -0.623391   -1.326977    1.890613
      6         11           0        0.885066   -1.834547   -1.374661
      7         11           0       -1.402276    1.240216   -1.426268
 ---------------------------------------------------------------------

 SCF Done:  E(UB3LYP) =  -1136.12237458     A.U. after   21 cycles

 The electronic state is 2-A.
 Alpha  occ. eigenvalues --  -38.44099 -38.43983 -38.43953 -38.43905 -38.43901
 Alpha  occ. eigenvalues --  -38.43787 -38.43740  -2.19945  -2.19897  -2.19862
 Alpha  occ. eigenvalues --   -2.19800  -2.19693  -2.19687  -2.19667  -1.13780
 Alpha  occ. eigenvalues --   -1.13686  -1.13603  -1.13583  -1.13578  -1.13556
 Alpha  occ. eigenvalues --   -1.13543  -1.13504  -1.13471  -1.13459  -1.13424
 Alpha  occ. eigenvalues --   -1.13405  -1.13398  -1.13358  -1.13329  -1.13319
 Alpha  occ. eigenvalues --   -1.13309  -1.13306  -1.13301  -1.13259  -1.13258
 Alpha  occ. eigenvalues --   -0.18625  -0.13354  -0.11980  -0.11764
 Alpha virt. eigenvalues --   -0.05503  -0.05078  -0.04575  -0.03599  -0.03377
 Alpha virt. eigenvalues --   -0.03158  -0.01113  -0.00674  -0.00535   0.00166
 Alpha virt. eigenvalues --    0.00209   0.00395   0.00496   0.00712   0.00848

  Beta  occ. eigenvalues --  -38.44063 -38.43956 -38.43931 -38.43898 -38.43831
  Beta  occ. eigenvalues --  -38.43778 -38.43710  -2.19878  -2.19862  -2.19815
  Beta  occ. eigenvalues --   -2.19677  -2.19673  -2.19653  -2.19640  -1.13744
  Beta  occ. eigenvalues --   -1.13645  -1.13552  -1.13544  -1.13540  -1.13509
  Beta  occ. eigenvalues --   -1.13499  -1.13462  -1.13431  -1.13391  -1.13385
  Beta  occ. eigenvalues --   -1.13349  -1.13343  -1.13318  -1.13311  -1.13299
  Beta  occ. eigenvalues --   -1.13290  -1.13276  -1.13251  -1.13244  -1.13219
  Beta  occ. eigenvalues --   -0.17845  -0.13162  -0.11639
  Beta virt. eigenvalues --   -0.07931  -0.05444  -0.04824  -0.04004  -0.03321
  Beta virt. eigenvalues --   -0.02839  -0.02156  -0.01062  -0.00623  -0.00209
  Beta virt. eigenvalues --    0.00217   0.00255   0.00468   0.00561   0.00823

 Mulliken charges and spin densities:
               1          2
     1  Na  -0.133031   0.007540
     2  Na   0.622529  -0.000897
     3  Na   0.286161   0.044574
     4  Na  -0.082509  -0.044219
     5  Na  -0.212854   0.523261
     6  Na  -0.410202   0.177780
     7  Na  -0.070094   0.291961
 Sum of Mulliken charges =  -0.00000   1.00000

 Dipole moment (field-independent basis, Debye):
    X=              0.1016    Y=             -0.1533    Z=              0.1570  Tot=              0.2418
 Quadrupole moment (field-independent basis, Debye-Ang):
   XX=            -63.1700   YY=            -70.5709   ZZ=            -64.3844
   XY=              0.9160   XZ=             -0.2751   YZ=              1.3681

 Normal termination of Gaussian 16 at Tue Dec  5 20:42:25 2023.
