 Gaussian 16, Revision B.01,
 Gaussian 16:  ES64L-G16RevB.01 20-Dec-2017

 -------------------------
 #P B3LYP/6-311+g(d) force
 -------------------------

 -----
 DPGEN
 -----
 Symbolic Z-matrix:
 Charge =  0 Multiplicity = 2

                         Standard orientation:
 ---------------------------------------------------------------------
 Center     Atomic      Atomic             Coordinates (Angstroms)
 Number     Number       Type             X           Y           Z
 ---------------------------------------------------------------------
      1         11           0       -1.766242    1.966701   -0.682886
      2         11           0       -0.339369    0.263483    1.282602
      3         11           0       -3.690735   -0.625200    1.128895
      4         11           0       -1.735793   -1.184069   -1.474313
      5         11           0        1.603632   -1.901506   -0.358019
      6         11           0        1.743964    1.616803   -0.400147
      7         11           0        4.184542   -0.136212    0.503868
 ---------------------------------------------------------------------

 SCF Done:  E(UB3LYP) =  -1136.11496842     A.U. after   26 cycles

 The electronic state is 2-A.
 Alpha  occ. eigenvalues --  -38.44982 -38.44725 -38.43893 -38.43839 -38.43397
 Alpha  occ. eigenvalues --  -38.43320 -38.43085  -2.20997  -2.20586  -2.19760
 Alpha  occ. eigenvalues --   -2.19748  -2.19331  -2.19212  -2.19034  -1.14722
 Alpha  occ. eigenvalues --   -1.14683  -1.14614  -1.14261  -1.14226  -1.14213
 Alpha  occ. eigenvalues --   -1.13450  -1.13427  -1.13420  -1.13404  -1.13385
 Alpha  occ. eigenvalues --   -1.13335  -1.13029  -1.13000  -1.12920  -1.12915
 Alpha  occ. eigenvalues --   -1.12880  -1.12824  -1.12762  -1.12692  -1.12629
 Alpha  occ. eigenvalues --   -0.18964  -0.14872  -0.11144  -0.10794
 Alpha virt. eigenvalues --   -0.07326  -0.05137  -0.04402  -0.03231  -0.03041
 Alpha virt. eigenvalues --   -0.02054  -0.01799  -0.01258  -0.01056  -0.00192
 Alpha virt. eigenvalues --   -0.00072   0.00237   0.00339   0.00728   0.00769

  Beta  occ. eigenvalues --  -38.44978 -38.44686 -38.43823 -38.43809 -38.43382
  Beta  occ. eigenvalues --  -38.43294 -38.43079  -2.20993  -2.20511  -2.19700
  Beta  occ. eigenvalues --   -2.19629  -2.19306  -2.19168  -2.19025  -1.14700
  Beta  occ. eigenvalues --   -1.14665  -1.14620  -1.14209  -1.14176  -1.14164
  Beta  occ. eigenvalues --   -1.13413  -1.13377  -1.13354  -1.13324  -1.13291
  Beta  occ. eigenvalues --   -1.13265  -1.13017  -1.12972  -1.12894  -1.12888
  Beta  occ. eigenvalues --   -1.12849  -1.12768  -1.12760  -1.12669  -1.12613
  Beta  occ. eigenvalues --   -0.18339  -0.14431  -0.10864
  Beta virt. eigenvalues --   -0.07170  -0.06992  -0.05023  -0.03823  -0.03030
  Beta virt. eigenvalues --   -0.02814  -0.01639  -0.01217  -0.01089  -0.00539
  Beta virt. eigenvalues --   -0.00098   0.00038   0.00275   0.00489   0.00775

 Mulliken charges and spin densities:
               1          2
     1  Na   0.044644   0.342642
     2  Na  -0.454887  -0.218312
     3  Na   0.153850   0.418952
     4  Na   0.010404  -0.021693
     5  Na  -0.431331   0.067216
     6  Na  -0.241269   0.200770
     7  Na   0.918589   0.210426
 Sum of Mulliken charges =  -0.00000   1.00000

 Dipole moment (field-independent basis, Debye):
    X=              0.3871    Y=              0.1358    Z=             -0.3007  Tot=              0.5087
 Quadrupole moment (field-independent basis, Debye-Ang):
   XX=            -54.2870   YY=            -77.8143   ZZ=            -65.8410
   XY=             -1.2093   XZ=              3.3928   YZ=             -2.1952

 Normal termination of Gaussian 16 at Fri Dec  8 18:01:46 2023.
