 Gaussian 16, Revision B.01,
 Gaussian 16:  ES64L-G16RevB.01 20-Dec-2017

 -------------------------
 #P B3LYP/6-311+g(d) force
 -------------------------

 -----
 DPGEN
 -----
 Symbolic Z-matrix:
 Charge =  0 Multiplicity = 2

                         Standard orientation:
 ---------------------------------------------------------------------
 Center     Atomic      Atomic             Coordinates (Angstroms)
 Number     Number       Type             X           Y           Z
 ---------------------------------------------------------------------
      1         11           0        0.393361   -2.124337   -1.821354
      2         11           0        1.156722    3.357617    0.740915
      3         11           0        0.097392   -2.708524    1.908678
      4         11           0       -0.373093    0.191934    2.007078
      5         11           0        3.181518   -0.099710   -0.801584
      6         11           0       -0.754109    0.924143   -1.545569
      7         11           0       -3.701791    0.458877   -0.488164
 ---------------------------------------------------------------------

 SCF Done:  E(UB3LYP) =  -1136.11441592     A.U. after   26 cycles

 The electronic state is 2-A.
 Alpha  occ. eigenvalues --  -38.44736 -38.44672 -38.44526 -38.44209 -38.43898
 Alpha  occ. eigenvalues --  -38.43747 -38.43663  -2.20557  -2.20476  -2.20352
 Alpha  occ. eigenvalues --   -2.20052  -2.19682  -2.19562  -2.19512  -1.14297
 Alpha  occ. eigenvalues --   -1.14197  -1.14169  -1.14162  -1.14137  -1.14107
 Alpha  occ. eigenvalues --   -1.14056  -1.13972  -1.13969  -1.13736  -1.13671
 Alpha  occ. eigenvalues --   -1.13641  -1.13392  -1.13332  -1.13325  -1.13253
 Alpha  occ. eigenvalues --   -1.13220  -1.13188  -1.13163  -1.13150  -1.13138
 Alpha  occ. eigenvalues --   -0.17583  -0.12597  -0.12186  -0.11796
 Alpha virt. eigenvalues --   -0.06009  -0.05074  -0.04488  -0.03632  -0.03150
 Alpha virt. eigenvalues --   -0.03058  -0.01748  -0.01256  -0.00729  -0.00024
 Alpha virt. eigenvalues --    0.00048   0.00250   0.00350   0.00662   0.00808

  Beta  occ. eigenvalues --  -38.44732 -38.44592 -38.44479 -38.44155 -38.43893
  Beta  occ. eigenvalues --  -38.43727 -38.43627  -2.20470  -2.20413  -2.20267
  Beta  occ. eigenvalues --   -2.19956  -2.19674  -2.19500  -2.19475  -1.14185
  Beta  occ. eigenvalues --   -1.14151  -1.14133  -1.14102  -1.14089  -1.14073
  Beta  occ. eigenvalues --   -1.13988  -1.13917  -1.13908  -1.13651  -1.13611
  Beta  occ. eigenvalues --   -1.13578  -1.13376  -1.13325  -1.13320  -1.13214
  Beta  occ. eigenvalues --   -1.13163  -1.13157  -1.13137  -1.13121  -1.13104
  Beta  occ. eigenvalues --   -0.16772  -0.11919  -0.11546
  Beta virt. eigenvalues --   -0.08568  -0.05837  -0.04879  -0.03931  -0.03046
  Beta virt. eigenvalues --   -0.02850  -0.02493  -0.01614  -0.01108  -0.00402
  Beta virt. eigenvalues --    0.00052   0.00080   0.00287   0.00451   0.00706

 Mulliken charges and spin densities:
               1          2
     1  Na   0.023352   0.207988
     2  Na   0.017457   0.040316
     3  Na   0.139831   0.053931
     4  Na  -0.155412   0.553597
     5  Na  -0.211048  -0.045599
     6  Na   0.280967   0.217868
     7  Na  -0.095147  -0.028101
 Sum of Mulliken charges =  -0.00000   1.00000

 Dipole moment (field-independent basis, Debye):
    X=              0.2230    Y=             -0.5411    Z=              0.0053  Tot=              0.5853
 Quadrupole moment (field-independent basis, Debye-Ang):
   XX=            -63.2994   YY=            -65.7764   ZZ=            -67.1755
   XY=              0.3338   XZ=             -0.7650   YZ=              1.9521

 Normal termination of Gaussian 16 at Sun Dec  3 19:37:18 2023.
