 Gaussian 16, Revision B.01,
 Gaussian 16:  ES64L-G16RevB.01 20-Dec-2017

 -------------------------
 #P B3LYP/6-311+g(d) force
 -------------------------

 -----
 DPGEN
 -----
 Symbolic Z-matrix:
 Charge =  0 Multiplicity = 2

                         Standard orientation:
 ---------------------------------------------------------------------
 Center     Atomic      Atomic             Coordinates (Angstroms)
 Number     Number       Type             X           Y           Z
 ---------------------------------------------------------------------
      1         11           0       -1.635003   -3.417564    1.132748
      2         11           0       -0.071318    3.682374    0.413132
      3         11           0       -2.828281    2.635179   -0.683920
      4         11           0       -3.783854   -0.511877   -0.076227
      5         11           0        3.578123    1.908342    0.458334
      6         11           0        4.111062   -1.129763   -0.344179
      7         11           0        0.629271   -3.166691   -0.899888
 ---------------------------------------------------------------------

 SCF Done:  E(UB3LYP) =  -1136.10710010     A.U. after   21 cycles

 The electronic state is 2-A.
 Alpha  occ. eigenvalues --  -38.45059 -38.44987 -38.44654 -38.44349 -38.44263
 Alpha  occ. eigenvalues --  -38.44102 -38.43791  -2.20856  -2.20754  -2.20461
 Alpha  occ. eigenvalues --   -2.20153  -2.20059  -2.19915  -2.19606  -1.14556
 Alpha  occ. eigenvalues --   -1.14506  -1.14492  -1.14428  -1.14426  -1.14404
 Alpha  occ. eigenvalues --   -1.14119  -1.14113  -1.14100  -1.13811  -1.13804
 Alpha  occ. eigenvalues --   -1.13771  -1.13714  -1.13707  -1.13699  -1.13615
 Alpha  occ. eigenvalues --   -1.13585  -1.13571  -1.13249  -1.13241  -1.13230
 Alpha  occ. eigenvalues --   -0.15575  -0.13738  -0.13694  -0.10658
 Alpha virt. eigenvalues --   -0.07633  -0.04978  -0.04278  -0.03615  -0.03415
 Alpha virt. eigenvalues --   -0.02477  -0.02168  -0.01617  -0.01537  -0.00816
 Alpha virt. eigenvalues --   -0.00712   0.00069   0.00109   0.00300   0.00652

  Beta  occ. eigenvalues --  -38.45027 -38.44982 -38.44648 -38.44266 -38.44232
  Beta  occ. eigenvalues --  -38.44105 -38.43720  -2.20800  -2.20749  -2.20453
  Beta  occ. eigenvalues --   -2.20001  -2.19999  -2.19929  -2.19473  -1.14514
  Beta  occ. eigenvalues --   -1.14469  -1.14452  -1.14429  -1.14423  -1.14374
  Beta  occ. eigenvalues --   -1.14114  -1.14103  -1.14080  -1.13710  -1.13703
  Beta  occ. eigenvalues --   -1.13675  -1.13670  -1.13666  -1.13655  -1.13612
  Beta  occ. eigenvalues --   -1.13601  -1.13537  -1.13160  -1.13155  -1.13143
  Beta  occ. eigenvalues --   -0.15058  -0.13072  -0.13043
  Beta virt. eigenvalues --   -0.07683  -0.07428  -0.04655  -0.03846  -0.03350
  Beta virt. eigenvalues --   -0.03047  -0.02203  -0.01918  -0.01484  -0.01433
  Beta virt. eigenvalues --   -0.00644  -0.00299   0.00142   0.00201   0.00415

 Mulliken charges and spin densities:
               1          2
     1  Na   0.247237   0.024584
     2  Na  -0.186712   0.308702
     3  Na   0.254356  -0.033029
     4  Na  -0.141484   0.403764
     5  Na   0.135789   0.026449
     6  Na   0.019498   0.116753
     7  Na  -0.328684   0.152777
 Sum of Mulliken charges =  -0.00000   1.00000

 Dipole moment (field-independent basis, Debye):
    X=              0.3981    Y=             -1.1733    Z=              0.1235  Tot=              1.2451
 Quadrupole moment (field-independent basis, Debye-Ang):
   XX=            -68.0591   YY=            -66.3063   ZZ=            -68.4306
   XY=              2.0718   XZ=             -1.6051   YZ=              0.1539

 Normal termination of Gaussian 16 at Mon Dec  4 00:17:37 2023.
