 Gaussian 16, Revision B.01,
 Gaussian 16:  ES64L-G16RevB.01 20-Dec-2017

 -------------------------
 #P B3LYP/6-311+g(d) force
 -------------------------

 -----
 DPGEN
 -----
 Symbolic Z-matrix:
 Charge =  0 Multiplicity = 2

                         Standard orientation:
 ---------------------------------------------------------------------
 Center     Atomic      Atomic             Coordinates (Angstroms)
 Number     Number       Type             X           Y           Z
 ---------------------------------------------------------------------
      1         11           0       -0.432560    0.792490   -1.583057
      2         11           0       -0.812705   -2.097957    0.422748
      3         11           0        2.105384   -0.186256    1.312568
      4         11           0       -3.984880   -0.460148   -0.371634
      5         11           0        2.672483   -2.630653   -0.722054
      6         11           0       -1.350229    1.279323    1.380652
      7         11           0        1.802507    3.303199   -0.439223
 ---------------------------------------------------------------------

 SCF Done:  E(UB3LYP) =  -1136.12917023     A.U. after   21 cycles

 The electronic state is 2-A.
 Alpha  occ. eigenvalues --  -38.44635 -38.44003 -38.43852 -38.43737 -38.43728
 Alpha  occ. eigenvalues --  -38.43714 -38.43576  -2.20417  -2.19851  -2.19729
 Alpha  occ. eigenvalues --   -2.19605  -2.19543  -2.19498  -2.19437  -1.14092
 Alpha  occ. eigenvalues --   -1.14081  -1.14039  -1.13581  -1.13546  -1.13486
 Alpha  occ. eigenvalues --   -1.13431  -1.13392  -1.13313  -1.13288  -1.13257
 Alpha  occ. eigenvalues --   -1.13245  -1.13194  -1.13181  -1.13178  -1.13169
 Alpha  occ. eigenvalues --   -1.13165  -1.13123  -1.13122  -1.13095  -1.13030
 Alpha  occ. eigenvalues --   -0.17979  -0.13108  -0.12184  -0.10128
 Alpha virt. eigenvalues --   -0.06335  -0.05457  -0.04787  -0.03056  -0.02741
 Alpha virt. eigenvalues --   -0.02243  -0.01997  -0.01511  -0.00797  -0.00352
 Alpha virt. eigenvalues --    0.00113   0.00198   0.00563   0.00635   0.00699

  Beta  occ. eigenvalues --  -38.44630 -38.43990 -38.43804 -38.43726 -38.43723
  Beta  occ. eigenvalues --  -38.43662 -38.43546  -2.20409  -2.19832  -2.19640
  Beta  occ. eigenvalues --   -2.19521  -2.19513  -2.19489  -2.19385  -1.14088
  Beta  occ. eigenvalues --   -1.14066  -1.14036  -1.13570  -1.13492  -1.13429
  Beta  occ. eigenvalues --   -1.13416  -1.13330  -1.13248  -1.13227  -1.13225
  Beta  occ. eigenvalues --   -1.13175  -1.13167  -1.13165  -1.13163  -1.13146
  Beta  occ. eigenvalues --   -1.13121  -1.13116  -1.13083  -1.13046  -1.12998
  Beta  occ. eigenvalues --   -0.17274  -0.12967  -0.11973
  Beta virt. eigenvalues --   -0.06430  -0.06151  -0.05376  -0.04490  -0.02677
  Beta virt. eigenvalues --   -0.02221  -0.02112  -0.01468  -0.01180  -0.00361
  Beta virt. eigenvalues --   -0.00350   0.00165   0.00286   0.00653   0.00696

 Mulliken charges and spin densities:
               1          2
     1  Na  -0.346674   0.654132
     2  Na  -0.237634   0.075190
     3  Na   0.151548   0.265121
     4  Na   0.516537   0.063539
     5  Na   0.037609  -0.103031
     6  Na  -0.057841   0.181250
     7  Na  -0.063545  -0.136201
 Sum of Mulliken charges =  -0.00000   1.00000

 Dipole moment (field-independent basis, Debye):
    X=             -0.6627    Y=             -0.0891    Z=              0.0273  Tot=              0.6692
 Quadrupole moment (field-independent basis, Debye-Ang):
   XX=            -51.7140   YY=            -64.8902   ZZ=            -74.3963
   XY=              1.7423   XZ=             -0.2798   YZ=              2.5252

 Normal termination of Gaussian 16 at Thu Dec  7 11:39:47 2023.
