 Gaussian 16, Revision B.01,
 Gaussian 16:  ES64L-G16RevB.01 20-Dec-2017

 -------------------------
 #P B3LYP/6-311+g(d) force
 -------------------------

 -----
 DPGEN
 -----
 Symbolic Z-matrix:
 Charge =  0 Multiplicity = 2

                         Standard orientation:
 ---------------------------------------------------------------------
 Center     Atomic      Atomic             Coordinates (Angstroms)
 Number     Number       Type             X           Y           Z
 ---------------------------------------------------------------------
      1         11           0       -2.515635   -3.252801   -0.547338
      2         11           0       -2.259866    3.071438   -0.146285
      3         11           0        0.710038    3.413008    0.563730
      4         11           0        4.000357    1.343247   -0.441330
      5         11           0       -4.215409    0.238288   -0.115706
      6         11           0        3.770177   -1.711073   -0.362163
      7         11           0        0.510338   -3.102108    1.049091
 ---------------------------------------------------------------------

 SCF Done:  E(UB3LYP) =  -1136.10657967     A.U. after   21 cycles

 The electronic state is 2-A.
 Alpha  occ. eigenvalues --  -38.45005 -38.44966 -38.44699 -38.44663 -38.44244
 Alpha  occ. eigenvalues --  -38.44194 -38.44044  -2.20763  -2.20749  -2.20505
 Alpha  occ. eigenvalues --   -2.20438  -2.20039  -2.20007  -2.19862  -1.14477
 Alpha  occ. eigenvalues --   -1.14432  -1.14420  -1.14419  -1.14401  -1.14399
 Alpha  occ. eigenvalues --   -1.14162  -1.14150  -1.14139  -1.14100  -1.14091
 Alpha  occ. eigenvalues --   -1.14057  -1.13753  -1.13699  -1.13690  -1.13674
 Alpha  occ. eigenvalues --   -1.13662  -1.13638  -1.13502  -1.13492  -1.13470
 Alpha  occ. eigenvalues --   -0.15519  -0.13975  -0.13468  -0.10832
 Alpha virt. eigenvalues --   -0.07708  -0.04979  -0.04314  -0.03638  -0.03327
 Alpha virt. eigenvalues --   -0.02560  -0.02277  -0.01823  -0.01438  -0.00731
 Alpha virt. eigenvalues --   -0.00517  -0.00111   0.00017   0.00375   0.00541

  Beta  occ. eigenvalues --  -38.45015 -38.44942 -38.44680 -38.44616 -38.44193
  Beta  occ. eigenvalues --  -38.44157 -38.43982  -2.20772  -2.20724  -2.20473
  Beta  occ. eigenvalues --   -2.20351  -2.20012  -2.19877  -2.19749  -1.14451
  Beta  occ. eigenvalues --   -1.14439  -1.14437  -1.14397  -1.14388  -1.14368
  Beta  occ. eigenvalues --   -1.14142  -1.14132  -1.14096  -1.14040  -1.14033
  Beta  occ. eigenvalues --   -1.13998  -1.13716  -1.13685  -1.13663  -1.13579
  Beta  occ. eigenvalues --   -1.13565  -1.13547  -1.13426  -1.13420  -1.13397
  Beta  occ. eigenvalues --   -0.14991  -0.13205  -0.12825
  Beta virt. eigenvalues --   -0.07821  -0.07669  -0.04567  -0.03795  -0.03448
  Beta virt. eigenvalues --   -0.02929  -0.02383  -0.02009  -0.01740  -0.01310
  Beta virt. eigenvalues --   -0.00490  -0.00252   0.00184   0.00246   0.00347

 Mulliken charges and spin densities:
               1          2
     1  Na   0.137965  -0.073646
     2  Na  -0.060918  -0.013195
     3  Na   0.001592   0.249847
     4  Na   0.227526   0.084958
     5  Na  -0.043539   0.431888
     6  Na   0.109339   0.070972
     7  Na  -0.371965   0.249175
 Sum of Mulliken charges =  -0.00000   1.00000

 Dipole moment (field-independent basis, Debye):
    X=              0.7384    Y=             -0.7090    Z=             -0.1418  Tot=              1.0335
 Quadrupole moment (field-independent basis, Debye-Ang):
   XX=            -63.5297   YY=            -65.9959   ZZ=            -71.7148
   XY=              3.4108   XZ=              1.7500   YZ=              0.8102

 Normal termination of Gaussian 16 at Sun Dec  3 17:38:55 2023.
