 Gaussian 16, Revision B.01,
 Gaussian 16:  ES64L-G16RevB.01 20-Dec-2017

 -------------------------
 #P B3LYP/6-311+g(d) force
 -------------------------

 -----
 DPGEN
 -----
 Symbolic Z-matrix:
 Charge =  0 Multiplicity = 2

                         Standard orientation:
 ---------------------------------------------------------------------
 Center     Atomic      Atomic             Coordinates (Angstroms)
 Number     Number       Type             X           Y           Z
 ---------------------------------------------------------------------
      1         11           0        5.979126   -0.171041    0.261566
      2         11           0        6.618042    2.683230   -0.309365
      3         11           0        2.515242   -1.769717    0.599279
      4         11           0       -0.411056   -1.980965   -1.006480
      5         11           0       -3.544065   -2.286001   -0.242539
      6         11           0       -4.762887    0.819617    1.325872
      7         11           0       -6.394402    2.704877   -0.628333
 ---------------------------------------------------------------------

 SCF Done:  E(UB3LYP) =  -1136.10684047     A.U. after   18 cycles

 The electronic state is 2-A.
 Alpha  occ. eigenvalues --  -38.44695 -38.44668 -38.44544 -38.44455 -38.44349
 Alpha  occ. eigenvalues --  -38.43984 -38.43909  -2.20487  -2.20484  -2.20362
 Alpha  occ. eigenvalues --   -2.20258  -2.20135  -2.19791  -2.19708  -1.14146
 Alpha  occ. eigenvalues --   -1.14137  -1.14132  -1.14129  -1.14129  -1.14106
 Alpha  occ. eigenvalues --   -1.14062  -1.13995  -1.13993  -1.13906  -1.13905
 Alpha  occ. eigenvalues --   -1.13875  -1.13809  -1.13796  -1.13780  -1.13458
 Alpha  occ. eigenvalues --   -1.13452  -1.13438  -1.13383  -1.13379  -1.13375
 Alpha  occ. eigenvalues --   -0.15243  -0.14265  -0.12922  -0.11275
 Alpha virt. eigenvalues --   -0.06766  -0.05477  -0.03990  -0.03310  -0.03181
 Alpha virt. eigenvalues --   -0.02551  -0.02421  -0.02201  -0.01157  -0.01116
 Alpha virt. eigenvalues --   -0.00852  -0.00541  -0.00052   0.00288   0.00479

  Beta  occ. eigenvalues --  -38.44645 -38.44595 -38.44496 -38.44370 -38.44359
  Beta  occ. eigenvalues --  -38.43991 -38.43923  -2.20395  -2.20347  -2.20272
  Beta  occ. eigenvalues --   -2.20159  -2.20099  -2.19811  -2.19741  -1.14089
  Beta  occ. eigenvalues --   -1.14069  -1.14066  -1.14047  -1.14036  -1.14019
  Beta  occ. eigenvalues --   -1.14006  -1.13933  -1.13931  -1.13827  -1.13814
  Beta  occ. eigenvalues --   -1.13800  -1.13796  -1.13775  -1.13767  -1.13469
  Beta  occ. eigenvalues --   -1.13467  -1.13421  -1.13410  -1.13407  -1.13348
  Beta  occ. eigenvalues --   -0.14624  -0.13650  -0.12349
  Beta virt. eigenvalues --   -0.08234  -0.06301  -0.05090  -0.03654  -0.03160
  Beta virt. eigenvalues --   -0.02983  -0.02308  -0.02248  -0.01892  -0.01003
  Beta virt. eigenvalues --   -0.00768  -0.00475  -0.00337   0.00132   0.00409

 Mulliken charges and spin densities:
               1          2
     1  Na  -0.216823  -0.025185
     2  Na   0.269255   0.196117
     3  Na   0.104856   0.390655
     4  Na  -0.129504  -0.051119
     5  Na  -0.097485   0.290270
     6  Na  -0.176653  -0.003041
     7  Na   0.246354   0.202304
 Sum of Mulliken charges =  -0.00000   1.00000

 Dipole moment (field-independent basis, Debye):
    X=             -0.8540    Y=              0.8498    Z=             -0.2530  Tot=              1.2310
 Quadrupole moment (field-independent basis, Debye-Ang):
   XX=            -62.7423   YY=            -62.8423   ZZ=            -68.5218
   XY=              2.1501   XZ=              3.6143   YZ=             -4.3451

 Normal termination of Gaussian 16 at Sun Dec  3 16:49:22 2023.
