 Gaussian 16, Revision B.01,
 Gaussian 16:  ES64L-G16RevB.01 20-Dec-2017

 -------------------------
 #P B3LYP/6-311+g(d) force
 -------------------------

 -----
 DPGEN
 -----
 Symbolic Z-matrix:
 Charge =  0 Multiplicity = 2

                         Standard orientation:
 ---------------------------------------------------------------------
 Center     Atomic      Atomic             Coordinates (Angstroms)
 Number     Number       Type             X           Y           Z
 ---------------------------------------------------------------------
      1         11           0        2.507081    2.248408    0.120900
      2         11           0       -3.781233    0.328489   -0.729464
      3         11           0        3.365649   -1.577285   -0.843605
      4         11           0       -0.881476    2.239665    0.267020
      5         11           0       -2.278114   -1.659638    0.954613
      6         11           0        1.045626   -0.837998    2.133403
      7         11           0        0.022468   -0.741642   -1.902867
 ---------------------------------------------------------------------

 SCF Done:  E(UB3LYP) =  -1136.12165919     A.U. after   22 cycles

 The electronic state is 2-A.
 Alpha  occ. eigenvalues --  -38.45049 -38.44950 -38.44388 -38.44218 -38.44158
 Alpha  occ. eigenvalues --  -38.43749 -38.42816  -2.20839  -2.20787  -2.20199
 Alpha  occ. eigenvalues --   -2.20016  -2.19989  -2.19534  -2.18636  -1.14521
 Alpha  occ. eigenvalues --   -1.14502  -1.14500  -1.14446  -1.14428  -1.14414
 Alpha  occ. eigenvalues --   -1.13875  -1.13825  -1.13819  -1.13674  -1.13668
 Alpha  occ. eigenvalues --   -1.13661  -1.13656  -1.13650  -1.13626  -1.13210
 Alpha  occ. eigenvalues --   -1.13190  -1.13174  -1.12333  -1.12316  -1.12254
 Alpha  occ. eigenvalues --   -0.17733  -0.13744  -0.11377  -0.11118
 Alpha virt. eigenvalues --   -0.06821  -0.05601  -0.04670  -0.03278  -0.02851
 Alpha virt. eigenvalues --   -0.02597  -0.02363  -0.01341  -0.00876  -0.00327
 Alpha virt. eigenvalues --    0.00096   0.00152   0.00217   0.00498   0.00663

  Beta  occ. eigenvalues --  -38.44996 -38.44941 -38.44303 -38.44208 -38.44131
  Beta  occ. eigenvalues --  -38.43748 -38.42816  -2.20770  -2.20741  -2.20044
  Beta  occ. eigenvalues --   -2.19973  -2.19969  -2.19532  -2.18638  -1.14492
  Beta  occ. eigenvalues --   -1.14452  -1.14434  -1.14415  -1.14399  -1.14369
  Beta  occ. eigenvalues --   -1.13768  -1.13721  -1.13704  -1.13642  -1.13640
  Beta  occ. eigenvalues --   -1.13639  -1.13632  -1.13618  -1.13603  -1.13203
  Beta  occ. eigenvalues --   -1.13188  -1.13176  -1.12336  -1.12306  -1.12255
  Beta  occ. eigenvalues --   -0.17056  -0.13608  -0.10958
  Beta virt. eigenvalues --   -0.07421  -0.06611  -0.05529  -0.04075  -0.03021
  Beta virt. eigenvalues --   -0.02430  -0.02019  -0.01878  -0.01248  -0.00495
  Beta virt. eigenvalues --   -0.00299   0.00109   0.00192   0.00381   0.00635

 Mulliken charges and spin densities:
               1          2
     1  Na  -0.032664   0.014290
     2  Na   1.068990   0.104467
     3  Na   0.219427  -0.004401
     4  Na  -0.554162  -0.009170
     5  Na  -0.278803   0.087101
     6  Na   0.015268   0.397542
     7  Na  -0.438055   0.410172
 Sum of Mulliken charges =  -0.00000   1.00000

 Dipole moment (field-independent basis, Debye):
    X=             -0.3793    Y=             -0.3055    Z=             -0.3446  Tot=              0.5966
 Quadrupole moment (field-independent basis, Debye-Ang):
   XX=            -48.1816   YY=            -77.7899   ZZ=            -70.1691
   XY=             -0.1589   XZ=              2.2923   YZ=             -1.6197

 Normal termination of Gaussian 16 at Thu Dec  7 15:56:25 2023.
