 Gaussian 16, Revision B.01,
 Gaussian 16:  ES64L-G16RevB.01 20-Dec-2017

 -------------------------
 #P B3LYP/6-311+g(d) force
 -------------------------

 -----
 DPGEN
 -----
 Symbolic Z-matrix:
 Charge =  0 Multiplicity = 2

                         Standard orientation:
 ---------------------------------------------------------------------
 Center     Atomic      Atomic             Coordinates (Angstroms)
 Number     Number       Type             X           Y           Z
 ---------------------------------------------------------------------
      1         11           0       -2.256436   -1.874330    0.021206
      2         11           0       -2.671704    1.378813   -0.294676
      3         11           0        0.536060    2.971202    0.423719
      4         11           0       -0.061870    0.238643   -1.428717
      5         11           0        3.022593    0.600673   -0.164350
      6         11           0       -0.070080   -0.660616    1.733680
      7         11           0        1.501437   -2.654385   -0.290863
 ---------------------------------------------------------------------

 SCF Done:  E(UB3LYP) =  -1136.13522162     A.U. after   20 cycles

 The electronic state is 2-A.
 Alpha  occ. eigenvalues --  -38.43946 -38.43747 -38.43707 -38.43697 -38.43542
 Alpha  occ. eigenvalues --  -38.43040 -38.42762  -2.19784  -2.19658  -2.19583
 Alpha  occ. eigenvalues --   -2.19562  -2.19382  -2.19027  -2.18823  -1.13471
 Alpha  occ. eigenvalues --   -1.13446  -1.13420  -1.13397  -1.13335  -1.13302
 Alpha  occ. eigenvalues --   -1.13285  -1.13248  -1.13230  -1.13222  -1.13191
 Alpha  occ. eigenvalues --   -1.13185  -1.13056  -1.13041  -1.13018  -1.12725
 Alpha  occ. eigenvalues --   -1.12650  -1.12630  -1.12508  -1.12454  -1.12438
 Alpha  occ. eigenvalues --   -0.19008  -0.13172  -0.12790  -0.10263
 Alpha virt. eigenvalues --   -0.05489  -0.05245  -0.04995  -0.02956  -0.02883
 Alpha virt. eigenvalues --   -0.01903  -0.01464  -0.01295  -0.00408  -0.00381
 Alpha virt. eigenvalues --    0.00058   0.00353   0.00833   0.00862   0.00886

  Beta  occ. eigenvalues --  -38.43941 -38.43737 -38.43699 -38.43687 -38.43532
  Beta  occ. eigenvalues --  -38.42962 -38.42704  -2.19780  -2.19646  -2.19568
  Beta  occ. eigenvalues --   -2.19550  -2.19365  -2.18884  -2.18718  -1.13464
  Beta  occ. eigenvalues --   -1.13433  -1.13413  -1.13385  -1.13308  -1.13284
  Beta  occ. eigenvalues --   -1.13267  -1.13238  -1.13205  -1.13192  -1.13184
  Beta  occ. eigenvalues --   -1.13174  -1.13046  -1.13016  -1.13007  -1.12631
  Beta  occ. eigenvalues --   -1.12547  -1.12527  -1.12428  -1.12373  -1.12364
  Beta  occ. eigenvalues --   -0.18321  -0.12878  -0.12542
  Beta virt. eigenvalues --   -0.06430  -0.05486  -0.05190  -0.04913  -0.02187
  Beta virt. eigenvalues --   -0.02142  -0.01375  -0.01228  -0.00951  -0.00437
  Beta virt. eigenvalues --   -0.00411   0.00192   0.00397   0.00858   0.00870

 Mulliken charges and spin densities:
               1          2
     1  Na   0.404926  -0.055947
     2  Na   0.233499   0.027996
     3  Na  -0.049792   0.036632
     4  Na  -0.350185   0.399890
     5  Na   0.036644  -0.038144
     6  Na  -0.332206   0.724393
     7  Na   0.057113  -0.094820
 Sum of Mulliken charges =  -0.00000   1.00000

 Dipole moment (field-independent basis, Debye):
    X=              0.1470    Y=             -0.0587    Z=              0.0745  Tot=              0.1749
 Quadrupole moment (field-independent basis, Debye-Ang):
   XX=            -56.2732   YY=            -58.8390   ZZ=            -76.5823
   XY=             -0.2957   XZ=              0.0328   YZ=              2.0754

 Normal termination of Gaussian 16 at Tue Nov 28 23:29:54 2023.
