 Gaussian 16, Revision B.01,
 Gaussian 16:  ES64L-G16RevB.01 20-Dec-2017

 -------------------------
 #P B3LYP/6-311+g(d) force
 -------------------------

 -----
 DPGEN
 -----
 Symbolic Z-matrix:
 Charge =  0 Multiplicity = 2

                         Standard orientation:
 ---------------------------------------------------------------------
 Center     Atomic      Atomic             Coordinates (Angstroms)
 Number     Number       Type             X           Y           Z
 ---------------------------------------------------------------------
      1         11           0       -0.104509    0.045142   -1.615629
      2         11           0       -2.068663    1.526402   -0.004629
      3         11           0        2.699557   -0.104844   -0.003529
      4         11           0       -0.112909    0.045542    1.617371
      5         11           0        0.904051    1.972311    0.005071
      6         11           0        0.684529   -1.976052    0.004471
      7         11           0       -2.002056   -1.508500   -0.003129
 ---------------------------------------------------------------------

 SCF Done:  E(UB3LYP) =  -1136.06851772     A.U. after   19 cycles

 The electronic state is 2-A.
 Alpha  occ. eigenvalues --  -38.44178 -38.44049 -38.44041 -38.43810 -38.43706
 Alpha  occ. eigenvalues --  -38.43696 -38.43532  -2.20413  -2.20388  -2.20272
 Alpha  occ. eigenvalues --   -2.20065  -2.19912  -2.19826  -2.19618  -1.14485
 Alpha  occ. eigenvalues --   -1.14343  -1.14242  -1.14210  -1.14139  -1.14130
 Alpha  occ. eigenvalues --   -1.14001  -1.13975  -1.13833  -1.13766  -1.13570
 Alpha  occ. eigenvalues --   -1.13542  -1.13494  -1.13485  -1.13465  -1.13422
 Alpha  occ. eigenvalues --   -1.13408  -1.13334  -1.13265  -1.13247  -1.13168
 Alpha  occ. eigenvalues --   -0.21888  -0.14137  -0.13076  -0.11979
 Alpha virt. eigenvalues --   -0.05280  -0.04450  -0.04085  -0.03555  -0.03048
 Alpha virt. eigenvalues --   -0.02425  -0.01251  -0.00554  -0.00011   0.00341
 Alpha virt. eigenvalues --    0.00740   0.00759   0.00988   0.01131   0.01183

  Beta  occ. eigenvalues --  -38.44169 -38.43957 -38.43949 -38.43789 -38.43688
  Beta  occ. eigenvalues --  -38.43684 -38.43521  -2.20273  -2.20243  -2.20222
  Beta  occ. eigenvalues --   -2.20034  -2.19887  -2.19809  -2.19604  -1.14422
  Beta  occ. eigenvalues --   -1.14267  -1.14179  -1.14121  -1.14107  -1.14032
  Beta  occ. eigenvalues --   -1.13901  -1.13887  -1.13774  -1.13741  -1.13514
  Beta  occ. eigenvalues --   -1.13478  -1.13473  -1.13458  -1.13406  -1.13381
  Beta  occ. eigenvalues --   -1.13331  -1.13327  -1.13257  -1.13187  -1.13165
  Beta  occ. eigenvalues --   -0.21083  -0.13755  -0.12689
  Beta virt. eigenvalues --   -0.07754  -0.05324  -0.04430  -0.04059  -0.02582
  Beta virt. eigenvalues --   -0.02104  -0.01359  -0.01172  -0.00510   0.00123
  Beta virt. eigenvalues --    0.00378   0.00709   0.00747   0.01006   0.01136

 Mulliken charges and spin densities:
               1          2
     1  Na  -0.528834   0.448802
     2  Na   0.196655  -0.021346
     3  Na  -0.129615  -0.064987
     4  Na  -0.525716   0.447922
     5  Na   0.354231   0.075842
     6  Na   0.425770   0.127738
     7  Na   0.207508  -0.013971
 Sum of Mulliken charges =  -0.00000   1.00000

 Dipole moment (field-independent basis, Debye):
    X=             -0.0806    Y=              0.1499    Z=             -0.0012  Tot=              0.1702
 Quadrupole moment (field-independent basis, Debye-Ang):
   XX=            -57.3425   YY=            -68.6947   ZZ=            -70.8591
   XY=             -0.2758   XZ=              0.0130   YZ=             -0.0004

 Normal termination of Gaussian 16 at Sat Dec  9 05:52:02 2023.
