 Gaussian 16, Revision B.01,
 Gaussian 16:  ES64L-G16RevB.01 20-Dec-2017

 -------------------------
 #P B3LYP/6-311+g(d) force
 -------------------------

 -----
 DPGEN
 -----
 Symbolic Z-matrix:
 Charge =  0 Multiplicity = 2

                         Standard orientation:
 ---------------------------------------------------------------------
 Center     Atomic      Atomic             Coordinates (Angstroms)
 Number     Number       Type             X           Y           Z
 ---------------------------------------------------------------------
      1         11           0       -1.580341    2.584320   -1.057633
      2         11           0        3.083637   -0.424192    0.689481
      3         11           0       -0.823523   -1.727199    1.249541
      4         11           0        0.144297    1.519655    2.293715
      5         11           0        1.711575    1.336696   -1.432757
      6         11           0       -3.541582   -1.049242   -0.243096
      7         11           0        1.005937   -2.240038   -1.499251
 ---------------------------------------------------------------------

 SCF Done:  E(UB3LYP) =  -1136.12318930     A.U. after   21 cycles

 The electronic state is 2-A.
 Alpha  occ. eigenvalues --  -38.44559 -38.44493 -38.44464 -38.44173 -38.43806
 Alpha  occ. eigenvalues --  -38.43632 -38.43322  -2.20335  -2.20328  -2.20271
 Alpha  occ. eigenvalues --   -2.19994  -2.19669  -2.19404  -2.19191  -1.14055
 Alpha  occ. eigenvalues --   -1.14012  -1.13986  -1.13984  -1.13965  -1.13962
 Alpha  occ. eigenvalues --   -1.13945  -1.13903  -1.13881  -1.13671  -1.13665
 Alpha  occ. eigenvalues --   -1.13602  -1.13356  -1.13333  -1.13274  -1.13080
 Alpha  occ. eigenvalues --   -1.13047  -1.13042  -1.12866  -1.12852  -1.12833
 Alpha  occ. eigenvalues --   -0.17689  -0.12812  -0.11919  -0.11587
 Alpha virt. eigenvalues --   -0.06300  -0.05023  -0.04388  -0.03588  -0.03535
 Alpha virt. eigenvalues --   -0.02901  -0.01640  -0.00795  -0.00561  -0.00155
 Alpha virt. eigenvalues --   -0.00006   0.00103   0.00334   0.00687   0.00772

  Beta  occ. eigenvalues --  -38.44558 -38.44486 -38.44384 -38.44149 -38.43776
  Beta  occ. eigenvalues --  -38.43608 -38.43301  -2.20326  -2.20325  -2.20125
  Beta  occ. eigenvalues --   -2.19949  -2.19615  -2.19359  -2.19155  -1.14051
  Beta  occ. eigenvalues --   -1.14010  -1.13980  -1.13973  -1.13963  -1.13936
  Beta  occ. eigenvalues --   -1.13841  -1.13805  -1.13774  -1.13643  -1.13627
  Beta  occ. eigenvalues --   -1.13571  -1.13308  -1.13300  -1.13234  -1.13042
  Beta  occ. eigenvalues --   -1.13019  -1.13011  -1.12844  -1.12819  -1.12795
  Beta  occ. eigenvalues --   -0.16961  -0.12672  -0.11685
  Beta virt. eigenvalues --   -0.07726  -0.06179  -0.04794  -0.03741  -0.03399
  Beta virt. eigenvalues --   -0.03041  -0.02039  -0.01589  -0.00733  -0.00268
  Beta virt. eigenvalues --   -0.00076   0.00064   0.00235   0.00409   0.00747

 Mulliken charges and spin densities:
               1          2
     1  Na   0.082119   0.186793
     2  Na   0.796337   0.122307
     3  Na   0.899185   0.084750
     4  Na  -0.765086   0.356218
     5  Na  -0.393936   0.202334
     6  Na  -0.296911  -0.035508
     7  Na  -0.321707   0.083106
 Sum of Mulliken charges =  -0.00000   1.00000

 Dipole moment (field-independent basis, Debye):
    X=              0.1775    Y=             -0.2178    Z=             -0.1065  Tot=              0.3005
 Quadrupole moment (field-independent basis, Debye-Ang):
   XX=            -58.0776   YY=            -72.6828   ZZ=            -66.1384
   XY=             -1.3871   XZ=              3.3591   YZ=              2.0818

 Normal termination of Gaussian 16 at Mon Dec  4 01:54:14 2023.
