 Gaussian 16, Revision B.01,
 Gaussian 16:  ES64L-G16RevB.01 20-Dec-2017

 -------------------------
 #P B3LYP/6-311+g(d) force
 -------------------------

 -----
 DPGEN
 -----
 Symbolic Z-matrix:
 Charge =  0 Multiplicity = 2

                         Standard orientation:
 ---------------------------------------------------------------------
 Center     Atomic      Atomic             Coordinates (Angstroms)
 Number     Number       Type             X           Y           Z
 ---------------------------------------------------------------------
      1         11           0        4.575128   -0.512834    0.946986
      2         11           0       -1.318849   -0.764873    1.451029
      3         11           0        2.530686    1.861584   -0.175036
      4         11           0        1.544785   -1.110446   -0.944273
      5         11           0       -1.608558   -1.670210   -1.172775
      6         11           0       -4.507782    0.508690    0.769189
      7         11           0       -1.215410    1.688090   -0.875120
 ---------------------------------------------------------------------

 SCF Done:  E(UB3LYP) =  -1136.11506150     A.U. after   25 cycles

 The electronic state is 2-A.
 Alpha  occ. eigenvalues --  -38.45448 -38.44445 -38.44117 -38.43937 -38.43618
 Alpha  occ. eigenvalues --  -38.43135 -38.42968  -2.21383  -2.20321  -2.19963
 Alpha  occ. eigenvalues --   -2.19757  -2.19590  -2.18931  -2.18889  -1.15164
 Alpha  occ. eigenvalues --   -1.15056  -1.14931  -1.14020  -1.13980  -1.13898
 Alpha  occ. eigenvalues --   -1.13665  -1.13640  -1.13588  -1.13411  -1.13408
 Alpha  occ. eigenvalues --   -1.13367  -1.13314  -1.13235  -1.13171  -1.12607
 Alpha  occ. eigenvalues --   -1.12596  -1.12590  -1.12583  -1.12559  -1.12485
 Alpha  occ. eigenvalues --   -0.18301  -0.14453  -0.11366  -0.10822
 Alpha virt. eigenvalues --   -0.06620  -0.05250  -0.04935  -0.03163  -0.02970
 Alpha virt. eigenvalues --   -0.02078  -0.01990  -0.01319  -0.01207  -0.00298
 Alpha virt. eigenvalues --   -0.00241   0.00210   0.00326   0.00526   0.00633

  Beta  occ. eigenvalues --  -38.45424 -38.44367 -38.44098 -38.43891 -38.43609
  Beta  occ. eigenvalues --  -38.43127 -38.42962  -2.21341  -2.20179  -2.19934
  Beta  occ. eigenvalues --   -2.19670  -2.19576  -2.18917  -2.18881  -1.15134
  Beta  occ. eigenvalues --   -1.15012  -1.14899  -1.13926  -1.13885  -1.13781
  Beta  occ. eigenvalues --   -1.13651  -1.13627  -1.13525  -1.13350  -1.13347
  Beta  occ. eigenvalues --   -1.13315  -1.13298  -1.13216  -1.13163  -1.12598
  Beta  occ. eigenvalues --   -1.12584  -1.12580  -1.12556  -1.12553  -1.12482
  Beta  occ. eigenvalues --   -0.17656  -0.14091  -0.10692
  Beta virt. eigenvalues --   -0.07502  -0.06406  -0.04789  -0.04695  -0.02832
  Beta virt. eigenvalues --   -0.02588  -0.01733  -0.01537  -0.01160  -0.00772
  Beta virt. eigenvalues --   -0.00163  -0.00126   0.00313   0.00400   0.00605

 Mulliken charges and spin densities:
               1          2
     1  Na   0.428199   0.204085
     2  Na  -0.122693   0.167013
     3  Na  -0.020848   0.013012
     4  Na  -0.316782   0.121256
     5  Na   0.264697   0.111888
     6  Na   0.284819  -0.010444
     7  Na  -0.517394   0.393189
 Sum of Mulliken charges =  -0.00000   1.00000

 Dipole moment (field-independent basis, Debye):
    X=              0.1089    Y=             -0.4658    Z=              0.0461  Tot=              0.4806
 Quadrupole moment (field-independent basis, Debye-Ang):
   XX=            -65.2283   YY=            -72.0560   ZZ=            -65.7413
   XY=              0.8754   XZ=              5.1137   YZ=             -2.8211

 Normal termination of Gaussian 16 at Tue Dec  5 11:16:54 2023.
