 Gaussian 16, Revision B.01,
 Gaussian 16:  ES64L-G16RevB.01 20-Dec-2017

 -------------------------
 #P B3LYP/6-311+g(d) force
 -------------------------

 -----
 DPGEN
 -----
 Symbolic Z-matrix:
 Charge =  0 Multiplicity = 2

                         Standard orientation:
 ---------------------------------------------------------------------
 Center     Atomic      Atomic             Coordinates (Angstroms)
 Number     Number       Type             X           Y           Z
 ---------------------------------------------------------------------
      1         11           0       -1.132740    0.629334   -1.483654
      2         11           0       -2.570812   -2.158771    0.224469
      3         11           0        0.598486   -0.713645    2.057506
      4         11           0        1.460288   -1.670273   -1.480197
      5         11           0       -3.614321    1.447619    0.426158
      6         11           0        1.159711    2.329024   -0.108373
      7         11           0        4.099388    0.136711    0.364091
 ---------------------------------------------------------------------

 SCF Done:  E(UB3LYP) =  -1136.11609951     A.U. after   27 cycles

 The electronic state is 2-A.
 Alpha  occ. eigenvalues --  -38.45663 -38.44975 -38.44902 -38.43810 -38.43803
 Alpha  occ. eigenvalues --  -38.43448 -38.42975  -2.21422  -2.20758  -2.20690
 Alpha  occ. eigenvalues --   -2.19630  -2.19584  -2.19263  -2.18916  -1.15097
 Alpha  occ. eigenvalues --   -1.15079  -1.15049  -1.14442  -1.14409  -1.14368
 Alpha  occ. eigenvalues --   -1.14360  -1.14334  -1.14317  -1.13311  -1.13270
 Alpha  occ. eigenvalues --   -1.13266  -1.13251  -1.13248  -1.13225  -1.12993
 Alpha  occ. eigenvalues --   -1.12947  -1.12869  -1.12609  -1.12565  -1.12529
 Alpha  occ. eigenvalues --   -0.17734  -0.13709  -0.10926  -0.10860
 Alpha virt. eigenvalues --   -0.07413  -0.05583  -0.04206  -0.03102  -0.02943
 Alpha virt. eigenvalues --   -0.02503  -0.02413  -0.01487  -0.00947  -0.00375
 Alpha virt. eigenvalues --    0.00003   0.00089   0.00291   0.00558   0.00636

  Beta  occ. eigenvalues --  -38.45655 -38.44920 -38.44880 -38.43815 -38.43742
  Beta  occ. eigenvalues --  -38.43450 -38.42930  -2.21407  -2.20654  -2.20647
  Beta  occ. eigenvalues --   -2.19595  -2.19520  -2.19270  -2.18836  -1.15077
  Beta  occ. eigenvalues --   -1.15070  -1.15039  -1.14373  -1.14338  -1.14337
  Beta  occ. eigenvalues --   -1.14306  -1.14287  -1.14281  -1.13268  -1.13255
  Beta  occ. eigenvalues --   -1.13230  -1.13226  -1.13184  -1.13177  -1.12994
  Beta  occ. eigenvalues --   -1.12932  -1.12878  -1.12561  -1.12494  -1.12464
  Beta  occ. eigenvalues --   -0.17043  -0.13482  -0.10744
  Beta virt. eigenvalues --   -0.07270  -0.06984  -0.05492  -0.03750  -0.02923
  Beta virt. eigenvalues --   -0.02680  -0.01959  -0.01674  -0.01310  -0.00676
  Beta virt. eigenvalues --   -0.00262   0.00056   0.00082   0.00450   0.00648

 Mulliken charges and spin densities:
               1          2
     1  Na   0.756887   0.107118
     2  Na  -0.152113   0.025818
     3  Na  -0.316009   0.472311
     4  Na  -0.215778   0.164348
     5  Na   0.001668   0.134187
     6  Na  -0.348126  -0.004597
     7  Na   0.273471   0.100814
 Sum of Mulliken charges =  -0.00000   1.00000

 Dipole moment (field-independent basis, Debye):
    X=              0.7160    Y=             -0.1267    Z=              0.6091  Tot=              0.9485
 Quadrupole moment (field-independent basis, Debye-Ang):
   XX=            -44.7132   YY=            -75.7609   ZZ=            -71.8600
   XY=             -1.0705   XZ=             -2.3715   YZ=              3.6132

 Normal termination of Gaussian 16 at Fri Dec  8 03:24:36 2023.
