 Gaussian 16, Revision B.01,
 Gaussian 16:  ES64L-G16RevB.01 20-Dec-2017

 -------------------------
 #P B3LYP/6-311+g(d) force
 -------------------------

 -----
 DPGEN
 -----
 Symbolic Z-matrix:
 Charge =  0 Multiplicity = 2

                         Standard orientation:
 ---------------------------------------------------------------------
 Center     Atomic      Atomic             Coordinates (Angstroms)
 Number     Number       Type             X           Y           Z
 ---------------------------------------------------------------------
      1         11           0       -0.179165    0.492091    1.497956
      2         11           0        2.128695    2.102091    0.107723
      3         11           0       -2.776323    2.423997    0.020705
      4         11           0       -0.094459    0.266046   -1.526422
      5         11           0        3.085441   -0.801701   -0.575079
      6         11           0        0.494265   -2.243967    0.948331
      7         11           0       -2.658453   -2.238557   -0.473214
 ---------------------------------------------------------------------

 SCF Done:  E(UB3LYP) =  -1136.11997437     A.U. after   22 cycles

 The electronic state is 2-A.
 Alpha  occ. eigenvalues --  -38.44443 -38.44442 -38.44262 -38.44129 -38.43516
 Alpha  occ. eigenvalues --  -38.43107 -38.42974  -2.20217  -2.20194  -2.20157
 Alpha  occ. eigenvalues --   -2.20009  -2.19483  -2.19157  -2.18923  -1.13889
 Alpha  occ. eigenvalues --   -1.13876  -1.13870  -1.13867  -1.13854  -1.13848
 Alpha  occ. eigenvalues --   -1.13836  -1.13831  -1.13807  -1.13672  -1.13657
 Alpha  occ. eigenvalues --   -1.13625  -1.13270  -1.13099  -1.13081  -1.12964
 Alpha  occ. eigenvalues --   -1.12816  -1.12740  -1.12555  -1.12547  -1.12508
 Alpha  occ. eigenvalues --   -0.18830  -0.13123  -0.12125  -0.10464
 Alpha virt. eigenvalues --   -0.06280  -0.05865  -0.03758  -0.03160  -0.02704
 Alpha virt. eigenvalues --   -0.02188  -0.01945  -0.01675  -0.00357  -0.00139
 Alpha virt. eigenvalues --    0.00066   0.00271   0.00554   0.00713   0.00725

  Beta  occ. eigenvalues --  -38.44448 -38.44431 -38.44253 -38.44113 -38.43466
  Beta  occ. eigenvalues --  -38.43028 -38.42939  -2.20205  -2.20196  -2.20146
  Beta  occ. eigenvalues --   -2.19982  -2.19392  -2.19017  -2.18863  -1.13878
  Beta  occ. eigenvalues --   -1.13866  -1.13865  -1.13855  -1.13853  -1.13842
  Beta  occ. eigenvalues --   -1.13839  -1.13812  -1.13783  -1.13656  -1.13612
  Beta  occ. eigenvalues --   -1.13611  -1.13200  -1.13035  -1.13010  -1.12873
  Beta  occ. eigenvalues --   -1.12717  -1.12638  -1.12513  -1.12489  -1.12443
  Beta  occ. eigenvalues --   -0.18111  -0.12838  -0.11932
  Beta virt. eigenvalues --   -0.06616  -0.06224  -0.05713  -0.03702  -0.02507
  Beta virt. eigenvalues --   -0.02121  -0.01959  -0.01591  -0.01040  -0.00309
  Beta virt. eigenvalues --   -0.00077   0.00142   0.00323   0.00616   0.00779

 Mulliken charges and spin densities:
               1          2
     1  Na   0.012019  -0.060357
     2  Na   0.526174   0.219425
     3  Na  -0.055660  -0.013595
     4  Na  -0.554355   0.460128
     5  Na  -0.075635   0.094160
     6  Na   0.356609   0.275018
     7  Na  -0.209151   0.025221
 Sum of Mulliken charges =  -0.00000   1.00000

 Dipole moment (field-independent basis, Debye):
    X=             -0.3276    Y=              0.2868    Z=             -0.2793  Tot=              0.5173
 Quadrupole moment (field-independent basis, Debye-Ang):
   XX=            -51.6028   YY=            -63.0309   ZZ=            -75.7872
   XY=              0.0962   XZ=              0.5162   YZ=              0.7891

 Normal termination of Gaussian 16 at Sat Dec  9 06:55:50 2023.
