 Gaussian 16, Revision B.01,
 Gaussian 16:  ES64L-G16RevB.01 20-Dec-2017

 -------------------------
 #P B3LYP/6-311+g(d) force
 -------------------------

 -----
 DPGEN
 -----
 Symbolic Z-matrix:
 Charge =  0 Multiplicity = 2

                         Standard orientation:
 ---------------------------------------------------------------------
 Center     Atomic      Atomic             Coordinates (Angstroms)
 Number     Number       Type             X           Y           Z
 ---------------------------------------------------------------------
      1         11           0        2.138377    2.133678    0.557945
      2         11           0        0.000407   -0.054443   -1.716137
      3         11           0        0.040206   -2.742542    0.195875
      4         11           0        2.779273   -1.124729   -0.371301
      5         11           0       -0.679968   -0.269386    1.886114
      6         11           0       -3.194522   -0.341212   -0.244175
      7         11           0       -1.083773    2.398633   -0.308320
 ---------------------------------------------------------------------

 SCF Done:  E(UB3LYP) =  -1136.13461006     A.U. after   19 cycles

 The electronic state is 2-A.
 Alpha  occ. eigenvalues --  -38.44176 -38.43765 -38.43520 -38.43452 -38.43359
 Alpha  occ. eigenvalues --  -38.43293 -38.43262  -2.20022  -2.19636  -2.19473
 Alpha  occ. eigenvalues --   -2.19369  -2.19287  -2.19216  -2.19175  -1.13703
 Alpha  occ. eigenvalues --   -1.13683  -1.13660  -1.13337  -1.13295  -1.13282
 Alpha  occ. eigenvalues --   -1.13185  -1.13138  -1.13110  -1.13081  -1.13035
 Alpha  occ. eigenvalues --   -1.12977  -1.12957  -1.12948  -1.12934  -1.12869
 Alpha  occ. eigenvalues --   -1.12864  -1.12846  -1.12823  -1.12805  -1.12781
 Alpha  occ. eigenvalues --   -0.19050  -0.13178  -0.12565  -0.10964
 Alpha virt. eigenvalues --   -0.05692  -0.04838  -0.04565  -0.03307  -0.03072
 Alpha virt. eigenvalues --   -0.02527  -0.01621  -0.00897  -0.00218  -0.00003
 Alpha virt. eigenvalues --    0.00066   0.00350   0.00852   0.00899   0.00929

  Beta  occ. eigenvalues --  -38.44170 -38.43760 -38.43441 -38.43439 -38.43285
  Beta  occ. eigenvalues --  -38.43282 -38.43253  -2.20016  -2.19629  -2.19324
  Beta  occ. eigenvalues --   -2.19270  -2.19235  -2.19199  -2.19163  -1.13692
  Beta  occ. eigenvalues --   -1.13669  -1.13649  -1.13323  -1.13289  -1.13269
  Beta  occ. eigenvalues --   -1.13095  -1.13065  -1.13013  -1.12975  -1.12950
  Beta  occ. eigenvalues --   -1.12949  -1.12931  -1.12915  -1.12874  -1.12843
  Beta  occ. eigenvalues --   -1.12830  -1.12814  -1.12791  -1.12784  -1.12766
  Beta  occ. eigenvalues --   -0.18323  -0.12921  -0.12287
  Beta virt. eigenvalues --   -0.07062  -0.05649  -0.04791  -0.04513  -0.02560
  Beta virt. eigenvalues --   -0.02257  -0.01547  -0.01502  -0.00822  -0.00197
  Beta virt. eigenvalues --   -0.00018   0.00141   0.00379   0.00889   0.00902

 Mulliken charges and spin densities:
               1          2
     1  Na  -0.137195   0.025589
     2  Na  -0.096814   0.413777
     3  Na   0.128455  -0.119462
     4  Na   0.077155   0.015618
     5  Na  -0.276370   0.711985
     6  Na   0.138365  -0.115056
     7  Na   0.166403   0.067549
 Sum of Mulliken charges =  -0.00000   1.00000

 Dipole moment (field-independent basis, Debye):
    X=             -0.2807    Y=             -0.1199    Z=              0.0628  Tot=              0.3116
 Quadrupole moment (field-independent basis, Debye-Ang):
   XX=            -55.5337   YY=            -65.4205   ZZ=            -73.0427
   XY=              0.3929   XZ=              1.4062   YZ=              0.8646

 Normal termination of Gaussian 16 at Thu Dec  7 12:14:27 2023.
