 Gaussian 16, Revision B.01,
 Gaussian 16:  ES64L-G16RevB.01 20-Dec-2017

 -------------------------
 #P B3LYP/6-311+g(d) force
 -------------------------

 -----
 DPGEN
 -----
 Symbolic Z-matrix:
 Charge =  0 Multiplicity = 2

                         Standard orientation:
 ---------------------------------------------------------------------
 Center     Atomic      Atomic             Coordinates (Angstroms)
 Number     Number       Type             X           Y           Z
 ---------------------------------------------------------------------
      1         11           0       -1.166929    0.843603    1.587434
      2         11           0        2.124828    0.763312    0.505557
      3         11           0        0.669744   -2.429068    0.969902
      4         11           0       -3.693771    0.523415   -0.959685
      5         11           0       -2.138186   -2.524367   -0.668565
      6         11           0        4.389541   -0.426668   -1.117323
      7         11           0       -0.185227    3.249774   -0.317320
 ---------------------------------------------------------------------

 SCF Done:  E(UB3LYP) =  -1136.12311508     A.U. after   19 cycles

 The electronic state is 2-A.
 Alpha  occ. eigenvalues --  -38.44308 -38.44304 -38.44246 -38.44140 -38.43993
 Alpha  occ. eigenvalues --  -38.43696 -38.43120  -2.20180  -2.20114  -2.20055
 Alpha  occ. eigenvalues --   -2.19972  -2.19800  -2.19527  -2.19026  -1.13890
 Alpha  occ. eigenvalues --   -1.13852  -1.13825  -1.13782  -1.13754  -1.13724
 Alpha  occ. eigenvalues --   -1.13717  -1.13699  -1.13673  -1.13654  -1.13598
 Alpha  occ. eigenvalues --   -1.13580  -1.13484  -1.13473  -1.13445  -1.13191
 Alpha  occ. eigenvalues --   -1.13189  -1.13143  -1.12726  -1.12702  -1.12656
 Alpha  occ. eigenvalues --   -0.17299  -0.13664  -0.12485  -0.10954
 Alpha virt. eigenvalues --   -0.06293  -0.05024  -0.04740  -0.03860  -0.02776
 Alpha virt. eigenvalues --   -0.01984  -0.01747  -0.01333  -0.00958  -0.00655
 Alpha virt. eigenvalues --   -0.00446   0.00159   0.00415   0.00615   0.00660

  Beta  occ. eigenvalues --  -38.44310 -38.44278 -38.44178 -38.44055 -38.43991
  Beta  occ. eigenvalues --  -38.43661 -38.43113  -2.20135  -2.20119  -2.19930
  Beta  occ. eigenvalues --   -2.19815  -2.19802  -2.19464  -2.19022  -1.13868
  Beta  occ. eigenvalues --   -1.13808  -1.13796  -1.13786  -1.13756  -1.13711
  Beta  occ. eigenvalues --   -1.13632  -1.13619  -1.13585  -1.13550  -1.13491
  Beta  occ. eigenvalues --   -1.13485  -1.13475  -1.13464  -1.13431  -1.13151
  Beta  occ. eigenvalues --   -1.13140  -1.13104  -1.12711  -1.12683  -1.12635
  Beta  occ. eigenvalues --   -0.16775  -0.12788  -0.12298
  Beta virt. eigenvalues --   -0.07557  -0.06162  -0.04774  -0.04207  -0.03612
  Beta virt. eigenvalues --   -0.02504  -0.01521  -0.01314  -0.01086  -0.00810
  Beta virt. eigenvalues --   -0.00546  -0.00218   0.00331   0.00453   0.00725

 Mulliken charges and spin densities:
               1          2
     1  Na   0.850342   0.135500
     2  Na  -1.256737   0.131136
     3  Na  -0.065586   0.094259
     4  Na  -0.197940   0.403278
     5  Na   0.025937   0.005628
     6  Na   0.551139   0.297947
     7  Na   0.092846  -0.067749
 Sum of Mulliken charges =  -0.00000   1.00000

 Dipole moment (field-independent basis, Debye):
    X=             -0.4729    Y=              0.3790    Z=             -0.3993  Tot=              0.7257
 Quadrupole moment (field-independent basis, Debye-Ang):
   XX=            -68.2803   YY=            -63.4553   ZZ=            -66.9169
   XY=             -2.5474   XZ=             -1.5341   YZ=             -1.2039

 Normal termination of Gaussian 16 at Tue Nov 28 20:59:53 2023.
