 Gaussian 16, Revision B.01,
 Gaussian 16:  ES64L-G16RevB.01 20-Dec-2017

 -------------------------
 #P B3LYP/6-311+g(d) force
 -------------------------

 -----
 DPGEN
 -----
 Symbolic Z-matrix:
 Charge =  0 Multiplicity = 2

                         Standard orientation:
 ---------------------------------------------------------------------
 Center     Atomic      Atomic             Coordinates (Angstroms)
 Number     Number       Type             X           Y           Z
 ---------------------------------------------------------------------
      1         11           0        1.948197    1.749537   -0.604183
      2         11           0       -1.220517   -0.300849    1.046543
      3         11           0       -1.642937   -2.964584   -0.585279
      4         11           0        1.689116   -1.847461    0.120305
      5         11           0        4.610867    0.004749    0.171806
      6         11           0       -3.932674    0.270379   -0.113195
      7         11           0       -1.452053    3.088230   -0.035997
 ---------------------------------------------------------------------

 SCF Done:  E(UB3LYP) =  -1136.12775909     A.U. after   20 cycles

 The electronic state is 2-A.
 Alpha  occ. eigenvalues --  -38.44124 -38.44120 -38.43871 -38.43825 -38.43779
 Alpha  occ. eigenvalues --  -38.43556 -38.43527  -2.19946  -2.19940  -2.19836
 Alpha  occ. eigenvalues --   -2.19679  -2.19646  -2.19408  -2.19326  -1.13669
 Alpha  occ. eigenvalues --   -1.13645  -1.13626  -1.13617  -1.13614  -1.13573
 Alpha  occ. eigenvalues --   -1.13569  -1.13510  -1.13419  -1.13384  -1.13371
 Alpha  occ. eigenvalues --   -1.13291  -1.13273  -1.13266  -1.13231  -1.13060
 Alpha  occ. eigenvalues --   -1.13046  -1.13019  -1.13007  -1.12983  -1.12961
 Alpha  occ. eigenvalues --   -0.17430  -0.14267  -0.12558  -0.10245
 Alpha virt. eigenvalues --   -0.06149  -0.05457  -0.04678  -0.03414  -0.02759
 Alpha virt. eigenvalues --   -0.02113  -0.02059  -0.01174  -0.00891  -0.00631
 Alpha virt. eigenvalues --   -0.00185  -0.00008   0.00563   0.00625   0.00720

  Beta  occ. eigenvalues --  -38.44125 -38.44109 -38.43857 -38.43806 -38.43700
  Beta  occ. eigenvalues --  -38.43515 -38.43487  -2.19953  -2.19923  -2.19815
  Beta  occ. eigenvalues --   -2.19651  -2.19499  -2.19307  -2.19278  -1.13673
  Beta  occ. eigenvalues --   -1.13632  -1.13626  -1.13612  -1.13568  -1.13550
  Beta  occ. eigenvalues --   -1.13519  -1.13485  -1.13414  -1.13365  -1.13348
  Beta  occ. eigenvalues --   -1.13228  -1.13193  -1.13178  -1.13134  -1.12997
  Beta  occ. eigenvalues --   -1.12971  -1.12970  -1.12957  -1.12940  -1.12929
  Beta  occ. eigenvalues --   -0.16889  -0.13593  -0.12161
  Beta virt. eigenvalues --   -0.06866  -0.06020  -0.05331  -0.04285  -0.02781
  Beta virt. eigenvalues --   -0.02486  -0.02035  -0.01488  -0.01051  -0.00770
  Beta virt. eigenvalues --   -0.00362   0.00048   0.00330   0.00693   0.00720

 Mulliken charges and spin densities:
               1          2
     1  Na  -0.408967   0.114005
     2  Na  -0.195756   0.053892
     3  Na   0.002295  -0.011021
     4  Na  -0.215805   0.007347
     5  Na   0.499601   0.403476
     6  Na   0.153968   0.439127
     7  Na   0.164665  -0.006825
 Sum of Mulliken charges =  -0.00000   1.00000

 Dipole moment (field-independent basis, Debye):
    X=             -0.1568    Y=             -0.4100    Z=             -0.4796  Tot=              0.6502
 Quadrupole moment (field-independent basis, Debye-Ang):
   XX=            -67.6209   YY=            -63.1138   ZZ=            -68.5477
   XY=              0.4167   XZ=              2.7801   YZ=              0.8683

 Normal termination of Gaussian 16 at Tue Nov 28 23:58:27 2023.
