 Gaussian 16, Revision B.01,
 Gaussian 16:  ES64L-G16RevB.01 20-Dec-2017

 -------------------------
 #P B3LYP/6-311+g(d) force
 -------------------------

 -----
 DPGEN
 -----
 Symbolic Z-matrix:
 Charge =  0 Multiplicity = 2

                         Standard orientation:
 ---------------------------------------------------------------------
 Center     Atomic      Atomic             Coordinates (Angstroms)
 Number     Number       Type             X           Y           Z
 ---------------------------------------------------------------------
      1         11           0        0.082110    0.120737    2.216872
      2         11           0       -2.888179    0.166489   -0.544354
      3         11           0        2.107492   -2.175254   -0.070752
      4         11           0        3.136652    0.973535   -0.314765
      5         11           0       -1.769625   -2.548647    0.043027
      6         11           0        0.193936    0.452551   -1.598621
      7         11           0       -0.862385    3.010590    0.268592
 ---------------------------------------------------------------------

 SCF Done:  E(UB3LYP) =  -1136.13362183     A.U. after   19 cycles

 The electronic state is 2-A.
 Alpha  occ. eigenvalues --  -38.44305 -38.43985 -38.43924 -38.43762 -38.43429
 Alpha  occ. eigenvalues --  -38.43413 -38.43329  -2.20135  -2.19831  -2.19745
 Alpha  occ. eigenvalues --   -2.19661  -2.19368  -2.19256  -2.19172  -1.13824
 Alpha  occ. eigenvalues --   -1.13789  -1.13771  -1.13486  -1.13460  -1.13449
 Alpha  occ. eigenvalues --   -1.13423  -1.13408  -1.13386  -1.13377  -1.13338
 Alpha  occ. eigenvalues --   -1.13287  -1.13052  -1.13015  -1.13007  -1.12919
 Alpha  occ. eigenvalues --   -1.12902  -1.12899  -1.12844  -1.12822  -1.12803
 Alpha  occ. eigenvalues --   -0.18378  -0.13266  -0.12174  -0.10942
 Alpha virt. eigenvalues --   -0.05713  -0.05198  -0.04689  -0.03304  -0.02899
 Alpha virt. eigenvalues --   -0.02810  -0.01585  -0.01175  -0.00388  -0.00341
 Alpha virt. eigenvalues --   -0.00035   0.00346   0.00780   0.00806   0.00880

  Beta  occ. eigenvalues --  -38.44297 -38.43922 -38.43878 -38.43748 -38.43424
  Beta  occ. eigenvalues --  -38.43363 -38.43329  -2.20123  -2.19744  -2.19639
  Beta  occ. eigenvalues --   -2.19632  -2.19276  -2.19250  -2.19175  -1.13808
  Beta  occ. eigenvalues --   -1.13778  -1.13758  -1.13418  -1.13404  -1.13374
  Beta  occ. eigenvalues --   -1.13372  -1.13353  -1.13325  -1.13312  -1.13302
  Beta  occ. eigenvalues --   -1.13264  -1.12993  -1.12958  -1.12940  -1.12903
  Beta  occ. eigenvalues --   -1.12893  -1.12876  -1.12848  -1.12814  -1.12798
  Beta  occ. eigenvalues --   -0.17671  -0.13022  -0.11977
  Beta virt. eigenvalues --   -0.07009  -0.05673  -0.05122  -0.04621  -0.02571
  Beta virt. eigenvalues --   -0.02168  -0.01742  -0.01480  -0.01093  -0.00417
  Beta virt. eigenvalues --   -0.00369   0.00120   0.00393   0.00808   0.00883

 Mulliken charges and spin densities:
               1          2
     1  Na  -0.492079   0.737783
     2  Na   0.324470   0.081167
     3  Na  -0.045911   0.017876
     4  Na   0.291978  -0.017415
     5  Na  -0.122708  -0.016762
     6  Na  -0.026483   0.203861
     7  Na   0.070732  -0.006510
 Sum of Mulliken charges =  -0.00000   1.00000

 Dipole moment (field-independent basis, Debye):
    X=              0.5910    Y=              0.2132    Z=              0.1517  Tot=              0.6463
 Quadrupole moment (field-independent basis, Debye-Ang):
   XX=            -58.6305   YY=            -62.6713   ZZ=            -73.6691
   XY=             -0.2446   XZ=              0.3284   YZ=              0.3875

 Normal termination of Gaussian 16 at Tue Dec  5 20:53:49 2023.
