 Gaussian 16, Revision B.01,
 Gaussian 16:  ES64L-G16RevB.01 20-Dec-2017

 -------------------------
 #P B3LYP/6-311+g(d) force
 -------------------------

 -----
 DPGEN
 -----
 Symbolic Z-matrix:
 Charge =  0 Multiplicity = 2

                         Standard orientation:
 ---------------------------------------------------------------------
 Center     Atomic      Atomic             Coordinates (Angstroms)
 Number     Number       Type             X           Y           Z
 ---------------------------------------------------------------------
      1         11           0       -0.743911   -2.896633    0.020193
      2         11           0        3.054938   -1.490581   -0.226083
      3         11           0       -3.163536   -0.459594   -0.156992
      4         11           0        2.276277    2.175537   -0.126428
      5         11           0        0.242340   -0.099936    2.039577
      6         11           0       -0.144524    0.169616   -1.711112
      7         11           0       -1.521584    2.601591    0.160845
 ---------------------------------------------------------------------

 SCF Done:  E(UB3LYP) =  -1136.13771349     A.U. after   19 cycles

 The electronic state is 2-A.
 Alpha  occ. eigenvalues --  -38.44377 -38.43996 -38.43987 -38.43524 -38.43461
 Alpha  occ. eigenvalues --  -38.43454 -38.43366  -2.20142  -2.19822  -2.19798
 Alpha  occ. eigenvalues --   -2.19389  -2.19297  -2.19289  -2.19277  -1.13820
 Alpha  occ. eigenvalues --   -1.13791  -1.13789  -1.13498  -1.13481  -1.13480
 Alpha  occ. eigenvalues --   -1.13468  -1.13464  -1.13427  -1.13064  -1.13021
 Alpha  occ. eigenvalues --   -1.13012  -1.13007  -1.12976  -1.12960  -1.12947
 Alpha  occ. eigenvalues --   -1.12943  -1.12930  -1.12910  -1.12907  -1.12898
 Alpha  occ. eigenvalues --   -0.18228  -0.12924  -0.12277  -0.10524
 Alpha virt. eigenvalues --   -0.05829  -0.05474  -0.04719  -0.03120  -0.02843
 Alpha virt. eigenvalues --   -0.02475  -0.01666  -0.01294  -0.00600  -0.00532
 Alpha virt. eigenvalues --   -0.00025   0.00347   0.00734   0.00807   0.00863

  Beta  occ. eigenvalues --  -38.44376 -38.43992 -38.43983 -38.43456 -38.43450
  Beta  occ. eigenvalues --  -38.43429 -38.43303  -2.20141  -2.19818  -2.19794
  Beta  occ. eigenvalues --   -2.19291  -2.19273  -2.19215  -2.19174  -1.13805
  Beta  occ. eigenvalues --   -1.13792  -1.13788  -1.13489  -1.13471  -1.13468
  Beta  occ. eigenvalues --   -1.13463  -1.13451  -1.13426  -1.12991  -1.12967
  Beta  occ. eigenvalues --   -1.12944  -1.12936  -1.12930  -1.12923  -1.12910
  Beta  occ. eigenvalues --   -1.12888  -1.12885  -1.12876  -1.12831  -1.12822
  Beta  occ. eigenvalues --   -0.17506  -0.12715  -0.12064
  Beta virt. eigenvalues --   -0.06644  -0.05811  -0.05446  -0.04655  -0.02379
  Beta virt. eigenvalues --   -0.02075  -0.01575  -0.01436  -0.01229  -0.00655
  Beta virt. eigenvalues --   -0.00577   0.00120   0.00374   0.00786   0.00817

 Mulliken charges and spin densities:
               1          2
     1  Na   0.051411  -0.115081
     2  Na  -0.016108  -0.107673
     3  Na   0.205145  -0.021807
     4  Na   0.090086  -0.095053
     5  Na  -0.359008   0.802129
     6  Na  -0.106448   0.590987
     7  Na   0.134923  -0.053503
 Sum of Mulliken charges =  -0.00000   1.00000

 Dipole moment (field-independent basis, Debye):
    X=              0.2442    Y=             -0.0054    Z=              0.0101  Tot=              0.2445
 Quadrupole moment (field-independent basis, Debye-Ang):
   XX=            -55.1084   YY=            -62.1509   ZZ=            -75.5452
   XY=             -0.3220   XZ=             -0.7722   YZ=              0.7188

 Normal termination of Gaussian 16 at Thu Dec  7 12:21:20 2023.
