 Gaussian 16, Revision B.01,
 Gaussian 16:  ES64L-G16RevB.01 20-Dec-2017

 -------------------------
 #P B3LYP/6-311+g(d) force
 -------------------------

 -----
 DPGEN
 -----
 Symbolic Z-matrix:
 Charge =  0 Multiplicity = 2

                         Standard orientation:
 ---------------------------------------------------------------------
 Center     Atomic      Atomic             Coordinates (Angstroms)
 Number     Number       Type             X           Y           Z
 ---------------------------------------------------------------------
      1         11           0       -0.099446   -0.125777    2.176528
      2         11           0        2.940433    0.284683   -0.141266
      3         11           0        1.461896   -2.582945   -0.083544
      4         11           0        0.038893    0.170488   -1.716042
      5         11           0       -2.243801   -1.948054   -0.185163
      6         11           0        0.906474    2.856673    0.064811
      7         11           0       -3.004449    1.344932   -0.115324
 ---------------------------------------------------------------------

 SCF Done:  E(UB3LYP) =  -1136.13799802     A.U. after   19 cycles

 The electronic state is 2-A.
 Alpha  occ. eigenvalues --  -38.44208 -38.43864 -38.43770 -38.43758 -38.43387
 Alpha  occ. eigenvalues --  -38.43304 -38.43154  -2.20005  -2.19722  -2.19666
 Alpha  occ. eigenvalues --   -2.19597  -2.19342  -2.19148  -2.19012  -1.13678
 Alpha  occ. eigenvalues --   -1.13667  -1.13650  -1.13384  -1.13362  -1.13350
 Alpha  occ. eigenvalues --   -1.13343  -1.13319  -1.13318  -1.13281  -1.13261
 Alpha  occ. eigenvalues --   -1.13225  -1.13027  -1.12986  -1.12966  -1.12815
 Alpha  occ. eigenvalues --   -1.12808  -1.12784  -1.12685  -1.12671  -1.12653
 Alpha  occ. eigenvalues --   -0.18568  -0.13176  -0.12210  -0.10907
 Alpha virt. eigenvalues --   -0.05684  -0.05208  -0.04568  -0.03334  -0.02863
 Alpha virt. eigenvalues --   -0.02774  -0.01518  -0.01091  -0.00390  -0.00296
 Alpha virt. eigenvalues --   -0.00041   0.00368   0.00773   0.00853   0.00907

  Beta  occ. eigenvalues --  -38.44208 -38.43765 -38.43761 -38.43752 -38.43324
  Beta  occ. eigenvalues --  -38.43301 -38.43151  -2.20007  -2.19659  -2.19591
  Beta  occ. eigenvalues --   -2.19533  -2.19227  -2.19146  -2.19009  -1.13671
  Beta  occ. eigenvalues --   -1.13662  -1.13652  -1.13355  -1.13321  -1.13294
  Beta  occ. eigenvalues --   -1.13277  -1.13254  -1.13242  -1.13225  -1.13208
  Beta  occ. eigenvalues --   -1.13205  -1.12953  -1.12910  -1.12881  -1.12808
  Beta  occ. eigenvalues --   -1.12788  -1.12779  -1.12685  -1.12657  -1.12640
  Beta  occ. eigenvalues --   -0.17824  -0.12960  -0.11997
  Beta virt. eigenvalues --   -0.06955  -0.05663  -0.05179  -0.04530  -0.02528
  Beta virt. eigenvalues --   -0.02086  -0.01707  -0.01426  -0.01017  -0.00445
  Beta virt. eigenvalues --   -0.00355   0.00114   0.00391   0.00831   0.00879

 Mulliken charges and spin densities:
               1          2
     1  Na  -0.579187   0.772100
     2  Na   0.304238   0.036737
     3  Na   0.144373  -0.025927
     4  Na  -0.178105   0.420685
     5  Na   0.154055  -0.044848
     6  Na   0.089554  -0.066934
     7  Na   0.065072  -0.091813
 Sum of Mulliken charges =  -0.00000   1.00000

 Dipole moment (field-independent basis, Debye):
    X=             -0.3747    Y=              0.1201    Z=              0.1270  Tot=              0.4135
 Quadrupole moment (field-independent basis, Debye-Ang):
   XX=            -57.5321   YY=            -63.3274   ZZ=            -73.5264
   XY=             -0.6978   XZ=              0.1899   YZ=              0.7080

 Normal termination of Gaussian 16 at Fri Dec  8 05:51:14 2023.
