 Gaussian 16, Revision B.01,
 Gaussian 16:  ES64L-G16RevB.01 20-Dec-2017

 -------------------------
 #P B3LYP/6-311+g(d) force
 -------------------------

 -----
 DPGEN
 -----
 Symbolic Z-matrix:
 Charge =  0 Multiplicity = 2

                         Standard orientation:
 ---------------------------------------------------------------------
 Center     Atomic      Atomic             Coordinates (Angstroms)
 Number     Number       Type             X           Y           Z
 ---------------------------------------------------------------------
      1         11           0       -2.205436   -2.204560   -0.167791
      2         11           0        0.566230    2.832843   -0.438510
      3         11           0       -0.417757    0.367271   -1.626990
      4         11           0        0.242136   -0.295777    2.035106
      5         11           0        1.322232   -2.328991   -0.566818
      6         11           0        3.434150    0.255796    0.267507
      7         11           0       -2.941554    1.373418    0.497495
 ---------------------------------------------------------------------

 SCF Done:  E(UB3LYP) =  -1136.13370723     A.U. after   19 cycles

 The electronic state is 2-A.
 Alpha  occ. eigenvalues --  -38.44355 -38.44316 -38.43964 -38.43585 -38.43448
 Alpha  occ. eigenvalues --  -38.43270 -38.43175  -2.20144  -2.20116  -2.19823
 Alpha  occ. eigenvalues --   -2.19412  -2.19301  -2.19166  -2.19144  -1.13820
 Alpha  occ. eigenvalues --   -1.13802  -1.13791  -1.13784  -1.13774  -1.13748
 Alpha  occ. eigenvalues --   -1.13499  -1.13463  -1.13431  -1.13152  -1.13092
 Alpha  occ. eigenvalues --   -1.13073  -1.13052  -1.12943  -1.12899  -1.12863
 Alpha  occ. eigenvalues --   -1.12812  -1.12804  -1.12770  -1.12761  -1.12743
 Alpha  occ. eigenvalues --   -0.18390  -0.12960  -0.12279  -0.10784
 Alpha virt. eigenvalues --   -0.05999  -0.05190  -0.04399  -0.03318  -0.02871
 Alpha virt. eigenvalues --   -0.02562  -0.01817  -0.01152  -0.00471  -0.00177
 Alpha virt. eigenvalues --   -0.00032   0.00331   0.00741   0.00799   0.00855

  Beta  occ. eigenvalues --  -38.44354 -38.44304 -38.43883 -38.43581 -38.43436
  Beta  occ. eigenvalues --  -38.43255 -38.43110  -2.20144  -2.20095  -2.19674
  Beta  occ. eigenvalues --   -2.19410  -2.19282  -2.19120  -2.19050  -1.13815
  Beta  occ. eigenvalues --   -1.13795  -1.13784  -1.13770  -1.13756  -1.13733
  Beta  occ. eigenvalues --   -1.13399  -1.13361  -1.13320  -1.13114  -1.13082
  Beta  occ. eigenvalues --   -1.13070  -1.13040  -1.12916  -1.12888  -1.12831
  Beta  occ. eigenvalues --   -1.12780  -1.12742  -1.12734  -1.12692  -1.12670
  Beta  occ. eigenvalues --   -0.17680  -0.12758  -0.12002
  Beta virt. eigenvalues --   -0.06948  -0.05857  -0.05192  -0.04324  -0.02625
  Beta virt. eigenvalues --   -0.02151  -0.01690  -0.01527  -0.01089  -0.00471
  Beta virt. eigenvalues --   -0.00198   0.00101   0.00362   0.00814   0.00826

 Mulliken charges and spin densities:
               1          2
     1  Na   0.092334  -0.063630
     2  Na   0.090745  -0.073919
     3  Na   0.105429   0.320630
     4  Na  -0.452111   0.736299
     5  Na   0.131350   0.007663
     6  Na   0.053412   0.002229
     7  Na  -0.021160   0.070729
 Sum of Mulliken charges =  -0.00000   1.00000

 Dipole moment (field-independent basis, Debye):
    X=             -0.0356    Y=              0.0774    Z=              0.3691  Tot=              0.3788
 Quadrupole moment (field-independent basis, Debye-Ang):
   XX=            -53.5621   YY=            -65.4825   ZZ=            -73.9465
   XY=              0.5465   XZ=             -1.2394   YZ=              1.7915

 Normal termination of Gaussian 16 at Thu Dec  7 09:19:19 2023.
