 Gaussian 16, Revision B.01,
 Gaussian 16:  ES64L-G16RevB.01 20-Dec-2017

 -------------------------
 #P B3LYP/6-311+g(d) force
 -------------------------

 -----
 DPGEN
 -----
 Symbolic Z-matrix:
 Charge =  0 Multiplicity = 2

                         Standard orientation:
 ---------------------------------------------------------------------
 Center     Atomic      Atomic             Coordinates (Angstroms)
 Number     Number       Type             X           Y           Z
 ---------------------------------------------------------------------
      1         11           0        0.035959    0.042506    1.894753
      2         11           0       -2.831160   -0.310251    0.259690
      3         11           0       -1.282830    2.611548   -0.346088
      4         11           0        2.529288   -1.409333   -0.140861
      5         11           0        2.297112    1.888283    0.162603
      6         11           0       -0.109109   -0.202186   -1.818404
      7         11           0       -0.639260   -2.620567   -0.011692
 ---------------------------------------------------------------------

 SCF Done:  E(UB3LYP) =  -1136.13907286     A.U. after   19 cycles

 The electronic state is 2-A.
 Alpha  occ. eigenvalues --  -38.43577 -38.43520 -38.43481 -38.43464 -38.43381
 Alpha  occ. eigenvalues --  -38.43359 -38.43082  -2.19439  -2.19432  -2.19429
 Alpha  occ. eigenvalues --   -2.19382  -2.19371  -2.19217  -2.19036  -1.13181
 Alpha  occ. eigenvalues --   -1.13153  -1.13121  -1.13114  -1.13098  -1.13094
 Alpha  occ. eigenvalues --   -1.13085  -1.13077  -1.13050  -1.13043  -1.13031
 Alpha  occ. eigenvalues --   -1.13024  -1.13016  -1.12987  -1.12973  -1.12885
 Alpha  occ. eigenvalues --   -1.12870  -1.12846  -1.12706  -1.12686  -1.12650
 Alpha  occ. eigenvalues --   -0.19313  -0.13118  -0.12645  -0.11130
 Alpha virt. eigenvalues --   -0.05172  -0.05046  -0.04600  -0.03280  -0.03048
 Alpha virt. eigenvalues --   -0.02699  -0.01226  -0.01004  -0.00135   0.00006
 Alpha virt. eigenvalues --    0.00047   0.00378   0.00890   0.00954   0.00961

  Beta  occ. eigenvalues --  -38.43574 -38.43511 -38.43475 -38.43379 -38.43352
  Beta  occ. eigenvalues --  -38.43300 -38.43073  -2.19427  -2.19425  -2.19365
  Beta  occ. eigenvalues --   -2.19277  -2.19234  -2.19206  -2.19024  -1.13150
  Beta  occ. eigenvalues --   -1.13134  -1.13095  -1.13092  -1.13068  -1.13064
  Beta  occ. eigenvalues --   -1.13062  -1.13018  -1.12995  -1.12989  -1.12973
  Beta  occ. eigenvalues --   -1.12946  -1.12932  -1.12924  -1.12886  -1.12857
  Beta  occ. eigenvalues --   -1.12846  -1.12839  -1.12693  -1.12654  -1.12629
  Beta  occ. eigenvalues --   -0.18548  -0.12850  -0.12368
  Beta virt. eigenvalues --   -0.07164  -0.05156  -0.05037  -0.04582  -0.02444
  Beta virt. eigenvalues --   -0.02232  -0.01628  -0.01143  -0.00935  -0.00155
  Beta virt. eigenvalues --   -0.00027   0.00119   0.00390   0.00928   0.00950

 Mulliken charges and spin densities:
               1          2
     1  Na  -0.464973   0.643952
     2  Na   0.296359   0.000092
     3  Na   0.030152  -0.072574
     4  Na   0.155099  -0.087233
     5  Na   0.034853  -0.089960
     6  Na  -0.447207   0.647250
     7  Na   0.395718  -0.041527
 Sum of Mulliken charges =  -0.00000   1.00000

 Dipole moment (field-independent basis, Debye):
    X=              0.1047    Y=              0.1570    Z=              0.0572  Tot=              0.1972
 Quadrupole moment (field-independent basis, Debye-Ang):
   XX=            -59.2719   YY=            -62.8076   ZZ=            -72.3966
   XY=             -0.0475   XZ=             -0.4004   YZ=             -0.5438

 Normal termination of Gaussian 16 at Fri Dec  8 05:05:24 2023.
