 Gaussian 16, Revision B.01,
 Gaussian 16:  ES64L-G16RevB.01 20-Dec-2017

 -------------------------
 #P B3LYP/6-311+g(d) force
 -------------------------

 -----
 DPGEN
 -----
 Symbolic Z-matrix:
 Charge =  0 Multiplicity = 2

                         Standard orientation:
 ---------------------------------------------------------------------
 Center     Atomic      Atomic             Coordinates (Angstroms)
 Number     Number       Type             X           Y           Z
 ---------------------------------------------------------------------
      1         11           0       -0.719728    3.071985   -0.100276
      2         11           0       -2.361770   -2.467922    1.079901
      3         11           0        1.488643    1.971947    2.038760
      4         11           0        0.227238   -0.423593   -1.890186
      5         11           0        1.434518   -1.908488    1.303577
      6         11           0       -3.394959    0.432652   -0.906271
      7         11           0        3.326057   -0.676580   -1.525505
 ---------------------------------------------------------------------

 SCF Done:  E(UB3LYP) =  -1136.12137950     A.U. after   21 cycles

 The electronic state is 2-A.
 Alpha  occ. eigenvalues --  -38.44646 -38.44460 -38.44431 -38.44262 -38.44252
 Alpha  occ. eigenvalues --  -38.43988 -38.43284  -2.20488  -2.20259  -2.20255
 Alpha  occ. eigenvalues --   -2.20030  -2.20010  -2.19783  -2.19070  -1.14173
 Alpha  occ. eigenvalues --   -1.14152  -1.14133  -1.13936  -1.13917  -1.13915
 Alpha  occ. eigenvalues --   -1.13893  -1.13891  -1.13852  -1.13713  -1.13689
 Alpha  occ. eigenvalues --   -1.13684  -1.13669  -1.13663  -1.13630  -1.13445
 Alpha  occ. eigenvalues --   -1.13431  -1.13413  -1.12749  -1.12743  -1.12711
 Alpha  occ. eigenvalues --   -0.17011  -0.12937  -0.12066  -0.11662
 Alpha virt. eigenvalues --   -0.05769  -0.05710  -0.05049  -0.03380  -0.03155
 Alpha virt. eigenvalues --   -0.02864  -0.01841  -0.01006  -0.00607  -0.00485
 Alpha virt. eigenvalues --   -0.00378   0.00228   0.00292   0.00342   0.00767

  Beta  occ. eigenvalues --  -38.44592 -38.44420 -38.44396 -38.44253 -38.44226
  Beta  occ. eigenvalues --  -38.43941 -38.43296  -2.20390  -2.20196  -2.20183
  Beta  occ. eigenvalues --   -2.20014  -2.19964  -2.19692  -2.19094  -1.14109
  Beta  occ. eigenvalues --   -1.14076  -1.14062  -1.13887  -1.13862  -1.13857
  Beta  occ. eigenvalues --   -1.13847  -1.13845  -1.13804  -1.13699  -1.13676
  Beta  occ. eigenvalues --   -1.13658  -1.13653  -1.13628  -1.13601  -1.13384
  Beta  occ. eigenvalues --   -1.13372  -1.13352  -1.12764  -1.12760  -1.12716
  Beta  occ. eigenvalues --   -0.16338  -0.12723  -0.11759
  Beta virt. eigenvalues --   -0.08065  -0.05566  -0.05167  -0.04626  -0.03128
  Beta virt. eigenvalues --   -0.02765  -0.02271  -0.01668  -0.00740  -0.00494
  Beta virt. eigenvalues --   -0.00351  -0.00140   0.00326   0.00376   0.00491

 Mulliken charges and spin densities:
               1          2
     1  Na  -0.386705   0.002835
     2  Na  -0.221469   0.095580
     3  Na   0.138392   0.118162
     4  Na  -0.071044   0.227891
     5  Na  -0.282144   0.502067
     6  Na   0.634590  -0.031092
     7  Na   0.188380   0.084557
 Sum of Mulliken charges =  -0.00000   1.00000

 Dipole moment (field-independent basis, Debye):
    X=              0.4830    Y=             -0.4464    Z=             -0.1813  Tot=              0.6822
 Quadrupole moment (field-independent basis, Debye-Ang):
   XX=            -57.1575   YY=            -72.4946   ZZ=            -67.9895
   XY=             -1.4774   XZ=              0.4277   YZ=             -3.7550

 Normal termination of Gaussian 16 at Sun Dec  3 13:58:22 2023.
