 Gaussian 16, Revision B.01,
 Gaussian 16:  ES64L-G16RevB.01 20-Dec-2017

 -------------------------
 #P B3LYP/6-311+g(d) force
 -------------------------

 -----
 DPGEN
 -----
 Symbolic Z-matrix:
 Charge =  0 Multiplicity = 2

                         Standard orientation:
 ---------------------------------------------------------------------
 Center     Atomic      Atomic             Coordinates (Angstroms)
 Number     Number       Type             X           Y           Z
 ---------------------------------------------------------------------
      1         11           0       -2.956930    1.527798   -0.450237
      2         11           0        1.176531   -2.398406    0.409050
      3         11           0        3.341439    0.222429   -0.361413
      4         11           0        0.203527    0.093155   -1.398279
      5         11           0       -0.806029   -0.158495    2.251147
      6         11           0       -1.824980   -2.166596   -0.700100
      7         11           0        0.866442    2.880115    0.249832
 ---------------------------------------------------------------------

 SCF Done:  E(UB3LYP) =  -1136.13385092     A.U. after   20 cycles

 The electronic state is 2-A.
 Alpha  occ. eigenvalues --  -38.44183 -38.43918 -38.43879 -38.43856 -38.43578
 Alpha  occ. eigenvalues --  -38.43137 -38.43008  -2.19961  -2.19718  -2.19709
 Alpha  occ. eigenvalues --   -2.19701  -2.19471  -2.19048  -2.19036  -1.13639
 Alpha  occ. eigenvalues --   -1.13612  -1.13602  -1.13415  -1.13391  -1.13385
 Alpha  occ. eigenvalues --   -1.13371  -1.13362  -1.13346  -1.13338  -1.13322
 Alpha  occ. eigenvalues --   -1.13316  -1.13205  -1.13119  -1.13092  -1.12788
 Alpha  occ. eigenvalues --   -1.12710  -1.12701  -1.12675  -1.12674  -1.12633
 Alpha  occ. eigenvalues --   -0.18473  -0.12843  -0.12394  -0.10910
 Alpha virt. eigenvalues --   -0.05831  -0.04981  -0.04649  -0.03122  -0.03009
 Alpha virt. eigenvalues --   -0.02647  -0.01631  -0.01117  -0.00477  -0.00189
 Alpha virt. eigenvalues --   -0.00004   0.00328   0.00773   0.00831   0.00887

  Beta  occ. eigenvalues --  -38.44177 -38.43915 -38.43877 -38.43753 -38.43559
  Beta  occ. eigenvalues --  -38.43127 -38.42963  -2.19953  -2.19714  -2.19700
  Beta  occ. eigenvalues --   -2.19520  -2.19439  -2.19033  -2.18956  -1.13622
  Beta  occ. eigenvalues --   -1.13609  -1.13594  -1.13411  -1.13378  -1.13376
  Beta  occ. eigenvalues --   -1.13358  -1.13347  -1.13317  -1.13244  -1.13210
  Beta  occ. eigenvalues --   -1.13184  -1.13176  -1.13078  -1.13071  -1.12766
  Beta  occ. eigenvalues --   -1.12676  -1.12658  -1.12646  -1.12615  -1.12581
  Beta  occ. eigenvalues --   -0.17768  -0.12619  -0.12203
  Beta virt. eigenvalues --   -0.06914  -0.05802  -0.04908  -0.04563  -0.02458
  Beta virt. eigenvalues --   -0.02264  -0.01604  -0.01564  -0.01039  -0.00441
  Beta virt. eigenvalues --   -0.00177   0.00131   0.00378   0.00810   0.00895

 Mulliken charges and spin densities:
               1          2
     1  Na  -0.051155  -0.034479
     2  Na   0.250663   0.209857
     3  Na   0.121707  -0.001671
     4  Na   0.001161   0.112235
     5  Na  -0.522914   0.640493
     6  Na   0.289728   0.064995
     7  Na  -0.089191   0.008571
 Sum of Mulliken charges =  -0.00000   1.00000

 Dipole moment (field-independent basis, Debye):
    X=             -0.1342    Y=              0.3322    Z=              0.1970  Tot=              0.4089
 Quadrupole moment (field-independent basis, Debye-Ang):
   XX=            -56.1851   YY=            -63.4354   ZZ=            -73.3836
   XY=             -0.3098   XZ=              1.5413   YZ=              0.6750

 Normal termination of Gaussian 16 at Thu Dec  7 20:10:20 2023.
