 Gaussian 16, Revision B.01,
 Gaussian 16:  ES64L-G16RevB.01 20-Dec-2017

 -------------------------
 #P B3LYP/6-311+g(d) force
 -------------------------

 -----
 DPGEN
 -----
 Symbolic Z-matrix:
 Charge =  0 Multiplicity = 2

                         Standard orientation:
 ---------------------------------------------------------------------
 Center     Atomic      Atomic             Coordinates (Angstroms)
 Number     Number       Type             X           Y           Z
 ---------------------------------------------------------------------
      1         11           0        3.350710    1.437132   -0.841644
      2         11           0       -1.385270   -2.544396   -0.830326
      3         11           0        0.162916   -0.157560   -1.101099
      4         11           0       -2.843268    0.819404   -0.894964
      5         11           0        2.054255   -1.888681    0.531005
      6         11           0       -0.501177   -0.440485    2.502071
      7         11           0       -0.838166    2.774586    0.634958
 ---------------------------------------------------------------------

 SCF Done:  E(UB3LYP) =  -1136.12527723     A.U. after   20 cycles

 The electronic state is 2-A.
 Alpha  occ. eigenvalues --  -38.44777 -38.43919 -38.43869 -38.43808 -38.43525
 Alpha  occ. eigenvalues --  -38.43406 -38.42955  -2.20615  -2.19778  -2.19684
 Alpha  occ. eigenvalues --   -2.19636  -2.19357  -2.19290  -2.19052  -1.14269
 Alpha  occ. eigenvalues --   -1.14240  -1.14222  -1.13519  -1.13450  -1.13399
 Alpha  occ. eigenvalues --   -1.13366  -1.13337  -1.13316  -1.13311  -1.13284
 Alpha  occ. eigenvalues --   -1.13265  -1.13135  -1.13024  -1.13017  -1.12989
 Alpha  occ. eigenvalues --   -1.12925  -1.12887  -1.12728  -1.12688  -1.12624
 Alpha  occ. eigenvalues --   -0.18405  -0.12891  -0.12034  -0.11561
 Alpha virt. eigenvalues --   -0.05466  -0.05053  -0.04575  -0.03307  -0.03109
 Alpha virt. eigenvalues --   -0.02882  -0.01419  -0.01093  -0.00471  -0.00033
 Alpha virt. eigenvalues --    0.00015   0.00325   0.00671   0.00828   0.00875

  Beta  occ. eigenvalues --  -38.44661 -38.43912 -38.43849 -38.43795 -38.43519
  Beta  occ. eigenvalues --  -38.43394 -38.42924  -2.20402  -2.19768  -2.19662
  Beta  occ. eigenvalues --   -2.19601  -2.19348  -2.19271  -2.18998  -1.14125
  Beta  occ. eigenvalues --   -1.14096  -1.14066  -1.13516  -1.13422  -1.13382
  Beta  occ. eigenvalues --   -1.13358  -1.13314  -1.13301  -1.13282  -1.13260
  Beta  occ. eigenvalues --   -1.13243  -1.13113  -1.13019  -1.12997  -1.12982
  Beta  occ. eigenvalues --   -1.12910  -1.12864  -1.12675  -1.12652  -1.12588
  Beta  occ. eigenvalues --   -0.17705  -0.12671  -0.11720
  Beta virt. eigenvalues --   -0.07645  -0.05160  -0.04951  -0.04467  -0.02635
  Beta virt. eigenvalues --   -0.02395  -0.02100  -0.01287  -0.01052  -0.00259
  Beta virt. eigenvalues --    0.00029   0.00078   0.00372   0.00840   0.00893

 Mulliken charges and spin densities:
               1          2
     1  Na   0.065603   0.085505
     2  Na  -0.031161   0.099942
     3  Na   0.060031  -0.294743
     4  Na   0.010317   0.045329
     5  Na   0.301527   0.263235
     6  Na  -0.466577   0.599119
     7  Na   0.060260   0.201613
 Sum of Mulliken charges =  -0.00000   1.00000

 Dipole moment (field-independent basis, Debye):
    X=             -0.2435    Y=             -0.1319    Z=              0.5853  Tot=              0.6475
 Quadrupole moment (field-independent basis, Debye-Ang):
   XX=            -60.3049   YY=            -63.8984   ZZ=            -69.5626
   XY=              0.4020   XZ=              0.9456   YZ=             -0.6592

 Normal termination of Gaussian 16 at Tue Dec  5 19:49:21 2023.
