 Gaussian 16, Revision B.01,
 Gaussian 16:  ES64L-G16RevB.01 20-Dec-2017

 -------------------------
 #P B3LYP/6-311+g(d) force
 -------------------------

 -----
 DPGEN
 -----
 Symbolic Z-matrix:
 Charge =  0 Multiplicity = 2

                         Standard orientation:
 ---------------------------------------------------------------------
 Center     Atomic      Atomic             Coordinates (Angstroms)
 Number     Number       Type             X           Y           Z
 ---------------------------------------------------------------------
      1         11           0       -2.165125   -2.578546   -0.438008
      2         11           0        3.941172   -0.054338   -0.355694
      3         11           0       -0.356877    0.459952   -1.859103
      4         11           0        1.077462    1.402211    1.462492
      5         11           0       -1.513137    3.050515   -0.625325
      6         11           0       -1.838504    0.055804    1.590610
      7         11           0        0.855008   -2.335598    0.225029
 ---------------------------------------------------------------------

 SCF Done:  E(UB3LYP) =  -1136.13167106     A.U. after   19 cycles

 The electronic state is 2-A.
 Alpha  occ. eigenvalues --  -38.44044 -38.43865 -38.43831 -38.43790 -38.43746
 Alpha  occ. eigenvalues --  -38.43688 -38.43551  -2.19936  -2.19716  -2.19695
 Alpha  occ. eigenvalues --   -2.19588  -2.19585  -2.19555  -2.19416  -1.13622
 Alpha  occ. eigenvalues --   -1.13595  -1.13561  -1.13430  -1.13419  -1.13398
 Alpha  occ. eigenvalues --   -1.13356  -1.13342  -1.13301  -1.13258  -1.13258
 Alpha  occ. eigenvalues --   -1.13257  -1.13243  -1.13239  -1.13220  -1.13211
 Alpha  occ. eigenvalues --   -1.13197  -1.13134  -1.13071  -1.13057  -1.13050
 Alpha  occ. eigenvalues --   -0.18277  -0.12879  -0.12309  -0.11211
 Alpha virt. eigenvalues --   -0.05735  -0.05142  -0.04632  -0.03389  -0.02903
 Alpha virt. eigenvalues --   -0.02841  -0.01588  -0.01378  -0.00556  -0.00164
 Alpha virt. eigenvalues --    0.00172   0.00268   0.00697   0.00789   0.00842

  Beta  occ. eigenvalues --  -38.43970 -38.43861 -38.43834 -38.43731 -38.43726
  Beta  occ. eigenvalues --  -38.43642 -38.43548  -2.19801  -2.19710  -2.19592
  Beta  occ. eigenvalues --   -2.19580  -2.19564  -2.19474  -2.19413  -1.13535
  Beta  occ. eigenvalues --   -1.13495  -1.13467  -1.13414  -1.13379  -1.13354
  Beta  occ. eigenvalues --   -1.13337  -1.13262  -1.13259  -1.13258  -1.13233
  Beta  occ. eigenvalues --   -1.13224  -1.13220  -1.13217  -1.13185  -1.13179
  Beta  occ. eigenvalues --   -1.13140  -1.13079  -1.13067  -1.13048  -1.13041
  Beta  occ. eigenvalues --   -0.17529  -0.12630  -0.12202
  Beta virt. eigenvalues --   -0.07200  -0.05593  -0.05041  -0.04501  -0.02684
  Beta virt. eigenvalues --   -0.02477  -0.01870  -0.01493  -0.01273  -0.00265
  Beta virt. eigenvalues --   -0.00132   0.00247   0.00324   0.00772   0.00829

 Mulliken charges and spin densities:
               1          2
     1  Na   0.447224  -0.016229
     2  Na   0.106946  -0.092720
     3  Na  -0.192868   0.666531
     4  Na  -0.073767   0.221417
     5  Na  -0.057900  -0.140741
     6  Na   0.096316   0.318600
     7  Na  -0.325952   0.043142
 Sum of Mulliken charges =  -0.00000   1.00000

 Dipole moment (field-independent basis, Debye):
    X=             -0.3350    Y=              0.1172    Z=             -0.1839  Tot=              0.3997
 Quadrupole moment (field-independent basis, Debye-Ang):
   XX=            -60.3067   YY=            -62.7041   ZZ=            -71.5451
   XY=              0.4169   XZ=             -1.0777   YZ=              0.8927

 Normal termination of Gaussian 16 at Thu Dec  7 02:48:06 2023.
