 Gaussian 16, Revision B.01,
 Gaussian 16:  ES64L-G16RevB.01 20-Dec-2017

 -------------------------
 #P B3LYP/6-311+g(d) force
 -------------------------

 -----
 DPGEN
 -----
 Symbolic Z-matrix:
 Charge =  0 Multiplicity = 2

                         Standard orientation:
 ---------------------------------------------------------------------
 Center     Atomic      Atomic             Coordinates (Angstroms)
 Number     Number       Type             X           Y           Z
 ---------------------------------------------------------------------
      1         11           0       -3.843487    2.908278   -0.217717
      2         11           0        4.031236    0.425540    0.969613
      3         11           0       -2.351408    0.435843    1.863327
      4         11           0       -4.142912   -0.562020   -1.644915
      5         11           0        0.970173   -1.629427    1.278169
      6         11           0       -1.070140   -2.655008   -0.800634
      7         11           0        6.406538    1.076793   -1.447843
 ---------------------------------------------------------------------

 SCF Done:  E(UB3LYP) =  -1136.11022556     A.U. after   20 cycles

 The electronic state is 2-A.
 Alpha  occ. eigenvalues --  -38.45523 -38.44889 -38.44527 -38.44403 -38.44292
 Alpha  occ. eigenvalues --  -38.43960 -38.43642  -2.21290  -2.20673  -2.20293
 Alpha  occ. eigenvalues --   -2.20157  -2.20109  -2.19714  -2.19472  -1.14983
 Alpha  occ. eigenvalues --   -1.14948  -1.14888  -1.14349  -1.14325  -1.14272
 Alpha  occ. eigenvalues --   -1.13966  -1.13956  -1.13920  -1.13819  -1.13818
 Alpha  occ. eigenvalues --   -1.13790  -1.13782  -1.13769  -1.13754  -1.13397
 Alpha  occ. eigenvalues --   -1.13393  -1.13345  -1.13146  -1.13128  -1.13102
 Alpha  occ. eigenvalues --   -0.16243  -0.13527  -0.12076  -0.11218
 Alpha virt. eigenvalues --   -0.07026  -0.06007  -0.04288  -0.03726  -0.03026
 Alpha virt. eigenvalues --   -0.02611  -0.02055  -0.01485  -0.01429  -0.01024
 Alpha virt. eigenvalues --   -0.00698  -0.00328   0.00001   0.00235   0.00469

  Beta  occ. eigenvalues --  -38.45476 -38.44818 -38.44518 -38.44376 -38.44266
  Beta  occ. eigenvalues --  -38.43971 -38.43628  -2.21203  -2.20541  -2.20278
  Beta  occ. eigenvalues --   -2.20107  -2.20063  -2.19736  -2.19446  -1.14920
  Beta  occ. eigenvalues --   -1.14887  -1.14823  -1.14262  -1.14236  -1.14171
  Beta  occ. eigenvalues --   -1.13957  -1.13935  -1.13914  -1.13784  -1.13783
  Beta  occ. eigenvalues --   -1.13757  -1.13750  -1.13738  -1.13712  -1.13414
  Beta  occ. eigenvalues --   -1.13410  -1.13347  -1.13128  -1.13107  -1.13088
  Beta  occ. eigenvalues --   -0.15585  -0.13348  -0.11834
  Beta virt. eigenvalues --   -0.07700  -0.06601  -0.05640  -0.03811  -0.03485
  Beta virt. eigenvalues --   -0.02672  -0.02234  -0.01947  -0.01332  -0.01065
  Beta virt. eigenvalues --   -0.00964  -0.00345  -0.00070   0.00120   0.00362

 Mulliken charges and spin densities:
               1          2
     1  Na   0.345825  -0.001303
     2  Na  -0.128483  -0.046880
     3  Na  -0.120493   0.352492
     4  Na  -0.115925   0.334185
     5  Na  -0.637689   0.059364
     6  Na   0.439558   0.173611
     7  Na   0.217208   0.128531
 Sum of Mulliken charges =  -0.00000   1.00000

 Dipole moment (field-independent basis, Debye):
    X=             -1.3281    Y=              0.6102    Z=             -0.4322  Tot=              1.5241
 Quadrupole moment (field-independent basis, Debye-Ang):
   XX=            -65.0265   YY=            -67.1260   ZZ=            -65.1683
   XY=             -2.1220   XZ=             -3.5072   YZ=             -2.0158

 Normal termination of Gaussian 16 at Sun Dec  3 19:21:40 2023.
