 Gaussian 16, Revision B.01,
 Gaussian 16:  ES64L-G16RevB.01 20-Dec-2017

 -------------------------
 #P B3LYP/6-311+g(d) force
 -------------------------

 -----
 DPGEN
 -----
 Symbolic Z-matrix:
 Charge =  0 Multiplicity = 2

                         Standard orientation:
 ---------------------------------------------------------------------
 Center     Atomic      Atomic             Coordinates (Angstroms)
 Number     Number       Type             X           Y           Z
 ---------------------------------------------------------------------
      1         11           0       -0.012132   -1.242954   -2.062701
      2         11           0       -2.528193    1.904507   -0.209420
      3         11           0       -2.199889   -2.319290   -0.281070
      4         11           0        0.552206    2.472988   -0.734610
      5         11           0        3.160858   -0.217507   -0.805570
      6         11           0       -0.992302   -0.075280    2.153968
      7         11           0        2.019453   -0.522464    1.939403
 ---------------------------------------------------------------------

 SCF Done:  E(UB3LYP) =  -1136.12091906     A.U. after   22 cycles

 The electronic state is 2-A.
 Alpha  occ. eigenvalues --  -38.44845 -38.44823 -38.44213 -38.44066 -38.43694
 Alpha  occ. eigenvalues --  -38.43584 -38.43116  -2.20740  -2.20711  -2.20068
 Alpha  occ. eigenvalues --   -2.19922  -2.19524  -2.19414  -2.18956  -1.14554
 Alpha  occ. eigenvalues --   -1.14398  -1.14349  -1.14328  -1.14315  -1.14309
 Alpha  occ. eigenvalues --   -1.13753  -1.13714  -1.13705  -1.13606  -1.13563
 Alpha  occ. eigenvalues --   -1.13551  -1.13236  -1.13188  -1.13164  -1.13083
 Alpha  occ. eigenvalues --   -1.13056  -1.13029  -1.12649  -1.12607  -1.12586
 Alpha  occ. eigenvalues --   -0.18236  -0.13159  -0.12712  -0.11721
 Alpha virt. eigenvalues --   -0.05687  -0.05037  -0.04823  -0.03877  -0.03343
 Alpha virt. eigenvalues --   -0.03072  -0.01352  -0.00710  -0.00553  -0.00004
 Alpha virt. eigenvalues --    0.00156   0.00357   0.00380   0.00604   0.00860

  Beta  occ. eigenvalues --  -38.44779 -38.44741 -38.44164 -38.44062 -38.43668
  Beta  occ. eigenvalues --  -38.43582 -38.43120  -2.20620  -2.20564  -2.19977
  Beta  occ. eigenvalues --   -2.19915  -2.19477  -2.19412  -2.18965  -1.14436
  Beta  occ. eigenvalues --   -1.14319  -1.14268  -1.14239  -1.14219  -1.14197
  Beta  occ. eigenvalues --   -1.13691  -1.13648  -1.13644  -1.13596  -1.13547
  Beta  occ. eigenvalues --   -1.13545  -1.13208  -1.13149  -1.13135  -1.13075
  Beta  occ. eigenvalues --   -1.13052  -1.13021  -1.12648  -1.12608  -1.12594
  Beta  occ. eigenvalues --   -0.17398  -0.13095  -0.11510
  Beta virt. eigenvalues --   -0.08585  -0.05380  -0.04609  -0.04366  -0.03338
  Beta virt. eigenvalues --   -0.02892  -0.02539  -0.01319  -0.00576  -0.00258
  Beta virt. eigenvalues --    0.00156   0.00301   0.00393   0.00516   0.00760

 Mulliken charges and spin densities:
               1          2
     1  Na  -0.388393   0.214787
     2  Na   0.203527  -0.019590
     3  Na   0.155730  -0.025541
     4  Na  -0.442901   0.239894
     5  Na   0.472077   0.174562
     6  Na   0.057031   0.354608
     7  Na  -0.057071   0.061281
 Sum of Mulliken charges =  -0.00000   1.00000

 Dipole moment (field-independent basis, Debye):
    X=              0.3396    Y=              0.0880    Z=              0.1009  Tot=              0.3651
 Quadrupole moment (field-independent basis, Debye-Ang):
   XX=            -59.7816   YY=            -75.7131   ZZ=            -64.5241
   XY=              0.1380   XZ=             -2.0661   YZ=             -3.1240

 Normal termination of Gaussian 16 at Sun Dec  3 12:48:31 2023.
