 Gaussian 16, Revision B.01,
 Gaussian 16:  ES64L-G16RevB.01 20-Dec-2017

 -------------------------
 #P B3LYP/6-311+g(d) force
 -------------------------

 -----
 DPGEN
 -----
 Symbolic Z-matrix:
 Charge =  0 Multiplicity = 2

                         Standard orientation:
 ---------------------------------------------------------------------
 Center     Atomic      Atomic             Coordinates (Angstroms)
 Number     Number       Type             X           Y           Z
 ---------------------------------------------------------------------
      1         11           0       -2.727217   -1.742422    0.190828
      2         11           0       -0.841628    0.435147   -1.560262
      3         11           0        2.004157    2.284715   -0.463708
      4         11           0        3.545727   -0.505714    0.210783
      5         11           0       -2.691000    2.248561    0.321757
      6         11           0        0.425467   -2.459701   -0.815288
      7         11           0        0.284494   -0.260586    2.115892
 ---------------------------------------------------------------------

 SCF Done:  E(UB3LYP) =  -1136.12828337     A.U. after   20 cycles

 The electronic state is 2-A.
 Alpha  occ. eigenvalues --  -38.44610 -38.44459 -38.44135 -38.44092 -38.43938
 Alpha  occ. eigenvalues --  -38.43150 -38.43003  -2.20408  -2.20281  -2.19964
 Alpha  occ. eigenvalues --   -2.19897  -2.19726  -2.19101  -2.18874  -1.14083
 Alpha  occ. eigenvalues --   -1.14072  -1.14051  -1.13962  -1.13944  -1.13915
 Alpha  occ. eigenvalues --   -1.13631  -1.13598  -1.13577  -1.13572  -1.13554
 Alpha  occ. eigenvalues --   -1.13531  -1.13417  -1.13378  -1.13368  -1.12792
 Alpha  occ. eigenvalues --   -1.12754  -1.12733  -1.12558  -1.12523  -1.12491
 Alpha  occ. eigenvalues --   -0.18072  -0.13361  -0.11796  -0.10675
 Alpha virt. eigenvalues --   -0.06202  -0.05857  -0.04125  -0.03414  -0.02773
 Alpha virt. eigenvalues --   -0.02530  -0.01943  -0.01403  -0.00656  -0.00224
 Alpha virt. eigenvalues --   -0.00052   0.00300   0.00620   0.00718   0.00728

  Beta  occ. eigenvalues --  -38.44611 -38.44456 -38.44082 -38.44045 -38.43937
  Beta  occ. eigenvalues --  -38.43097 -38.42980  -2.20412  -2.20280  -2.19880
  Beta  occ. eigenvalues --   -2.19796  -2.19727  -2.19007  -2.18836  -1.14088
  Beta  occ. eigenvalues --   -1.14063  -1.14053  -1.13954  -1.13935  -1.13910
  Beta  occ. eigenvalues --   -1.13555  -1.13537  -1.13522  -1.13517  -1.13482
  Beta  occ. eigenvalues --   -1.13454  -1.13414  -1.13375  -1.13364  -1.12733
  Beta  occ. eigenvalues --   -1.12678  -1.12663  -1.12526  -1.12480  -1.12464
  Beta  occ. eigenvalues --   -0.17357  -0.13213  -0.11591
  Beta virt. eigenvalues --   -0.06817  -0.06002  -0.05834  -0.04021  -0.02772
  Beta virt. eigenvalues --   -0.02138  -0.01827  -0.01520  -0.01311  -0.00643
  Beta virt. eigenvalues --   -0.00193   0.00082   0.00337   0.00706   0.00757

 Mulliken charges and spin densities:
               1          2
     1  Na   0.135290   0.062323
     2  Na   0.468172   0.156287
     3  Na  -0.091826  -0.052782
     4  Na   0.166434   0.039738
     5  Na  -0.164730   0.001278
     6  Na  -0.087634   0.061144
     7  Na  -0.425707   0.732012
 Sum of Mulliken charges =  -0.00000   1.00000

 Dipole moment (field-independent basis, Debye):
    X=              0.0875    Y=             -0.1372    Z=              0.3820  Tot=              0.4152
 Quadrupole moment (field-independent basis, Debye-Ang):
   XX=            -51.7003   YY=            -67.2333   ZZ=            -74.5553
   XY=              0.1535   XZ=             -2.1610   YZ=              0.9225

 Normal termination of Gaussian 16 at Thu Dec  7 01:55:56 2023.
