 Gaussian 16, Revision B.01,
 Gaussian 16:  ES64L-G16RevB.01 20-Dec-2017

 -------------------------
 #P B3LYP/6-311+g(d) force
 -------------------------

 -----
 DPGEN
 -----
 Symbolic Z-matrix:
 Charge =  0 Multiplicity = 2

                         Standard orientation:
 ---------------------------------------------------------------------
 Center     Atomic      Atomic             Coordinates (Angstroms)
 Number     Number       Type             X           Y           Z
 ---------------------------------------------------------------------
      1         11           0       -3.595518   -1.340912   -0.597344
      2         11           0        0.020637   -0.738063   -1.618243
      3         11           0        1.023191    2.455154    0.639193
      4         11           0       -2.219809    1.952780   -0.337738
      5         11           0       -0.875934   -0.740691    1.957991
      6         11           0        2.130486   -1.409143    1.189194
      7         11           0        3.516947   -0.179125   -1.233054
 ---------------------------------------------------------------------

 SCF Done:  E(UB3LYP) =  -1136.12590912     A.U. after   24 cycles

 The electronic state is 2-A.
 Alpha  occ. eigenvalues --  -38.44850 -38.44653 -38.44393 -38.44023 -38.44022
 Alpha  occ. eigenvalues --  -38.43496 -38.42377  -2.20682  -2.20501  -2.20275
 Alpha  occ. eigenvalues --   -2.19935  -2.19813  -2.19332  -2.18188  -1.14392
 Alpha  occ. eigenvalues --   -1.14344  -1.14291  -1.14203  -1.14138  -1.14122
 Alpha  occ. eigenvalues --   -1.13995  -1.13896  -1.13878  -1.13615  -1.13566
 Alpha  occ. eigenvalues --   -1.13558  -1.13484  -1.13481  -1.13444  -1.13025
 Alpha  occ. eigenvalues --   -1.12998  -1.12944  -1.11862  -1.11857  -1.11825
 Alpha  occ. eigenvalues --   -0.18278  -0.13912  -0.11765  -0.10944
 Alpha virt. eigenvalues --   -0.06551  -0.05077  -0.04779  -0.03332  -0.02930
 Alpha virt. eigenvalues --   -0.02444  -0.02354  -0.00938  -0.00877  -0.00239
 Alpha virt. eigenvalues --    0.00138   0.00308   0.00373   0.00494   0.00768

  Beta  occ. eigenvalues --  -38.44818 -38.44622 -38.44302 -38.44020 -38.43983
  Beta  occ. eigenvalues --  -38.43489 -38.42375  -2.20624  -2.20442  -2.20112
  Beta  occ. eigenvalues --   -2.19868  -2.19809  -2.19319  -2.18184  -1.14345
  Beta  occ. eigenvalues --   -1.14304  -1.14244  -1.14168  -1.14091  -1.14080
  Beta  occ. eigenvalues --   -1.13877  -1.13773  -1.13764  -1.13556  -1.13522
  Beta  occ. eigenvalues --   -1.13488  -1.13480  -1.13471  -1.13442  -1.13011
  Beta  occ. eigenvalues --   -1.12991  -1.12934  -1.11857  -1.11845  -1.11826
  Beta  occ. eigenvalues --   -0.17515  -0.13692  -0.10830
  Beta virt. eigenvalues --   -0.07695  -0.06355  -0.04991  -0.04202  -0.03070
  Beta virt. eigenvalues --   -0.02348  -0.02023  -0.01810  -0.00855  -0.00521
  Beta virt. eigenvalues --   -0.00169   0.00186   0.00391   0.00440   0.00635

 Mulliken charges and spin densities:
               1          2
     1  Na   0.550602  -0.009273
     2  Na  -0.820556   0.350763
     3  Na  -0.557428   0.036090
     4  Na   0.117561  -0.010411
     5  Na  -0.037568   0.348285
     6  Na  -0.062223   0.056584
     7  Na   0.809612   0.227962
 Sum of Mulliken charges =  -0.00000   1.00000

 Dipole moment (field-independent basis, Debye):
    X=              0.1608    Y=             -0.3528    Z=             -0.3862  Tot=              0.5472
 Quadrupole moment (field-independent basis, Debye-Ang):
   XX=            -50.7178   YY=            -77.9680   ZZ=            -67.4648
   XY=              0.9010   XZ=             -0.8642   YZ=             -2.0565

 Normal termination of Gaussian 16 at Fri Dec  8 07:21:05 2023.
