 Gaussian 16, Revision B.01,
 Gaussian 16:  ES64L-G16RevB.01 20-Dec-2017

 -------------------------
 #P B3LYP/6-311+g(d) force
 -------------------------

 -----
 DPGEN
 -----
 Symbolic Z-matrix:
 Charge =  0 Multiplicity = 2

                         Standard orientation:
 ---------------------------------------------------------------------
 Center     Atomic      Atomic             Coordinates (Angstroms)
 Number     Number       Type             X           Y           Z
 ---------------------------------------------------------------------
      1         11           0       -0.242336   -2.670136    0.702750
      2         11           0        2.941487   -1.752469   -0.390420
      3         11           0        0.524198   -0.061764   -1.078219
      4         11           0        1.481426    3.087658   -0.707713
      5         11           0       -3.434934   -0.857381   -1.000111
      6         11           0       -2.206251    1.619571    0.897132
      7         11           0        0.936410    0.634522    1.576580
 ---------------------------------------------------------------------

 SCF Done:  E(UB3LYP) =  -1136.12310908     A.U. after   24 cycles

 The electronic state is 2-A.
 Alpha  occ. eigenvalues --  -38.44417 -38.44126 -38.44023 -38.43727 -38.43510
 Alpha  occ. eigenvalues --  -38.43275 -38.43187  -2.20271  -2.19965  -2.19851
 Alpha  occ. eigenvalues --   -2.19546  -2.19364  -2.19307  -2.19193  -1.13991
 Alpha  occ. eigenvalues --   -1.13917  -1.13888  -1.13672  -1.13633  -1.13566
 Alpha  occ. eigenvalues --   -1.13539  -1.13519  -1.13477  -1.13325  -1.13226
 Alpha  occ. eigenvalues --   -1.13203  -1.13175  -1.12978  -1.12966  -1.12965
 Alpha  occ. eigenvalues --   -1.12953  -1.12935  -1.12829  -1.12774  -1.12749
 Alpha  occ. eigenvalues --   -0.18462  -0.13009  -0.12467  -0.10220
 Alpha virt. eigenvalues --   -0.05954  -0.05259  -0.04799  -0.02916  -0.02908
 Alpha virt. eigenvalues --   -0.01802  -0.01748  -0.01517  -0.00665  -0.00116
 Alpha virt. eigenvalues --    0.00083   0.00307   0.00583   0.00711   0.00765

  Beta  occ. eigenvalues --  -38.44409 -38.44113 -38.44007 -38.43711 -38.43482
  Beta  occ. eigenvalues --  -38.43241 -38.43124  -2.20258  -2.19945  -2.19825
  Beta  occ. eigenvalues --   -2.19518  -2.19305  -2.19254  -2.19080  -1.13977
  Beta  occ. eigenvalues --   -1.13906  -1.13872  -1.13661  -1.13594  -1.13555
  Beta  occ. eigenvalues --   -1.13514  -1.13486  -1.13460  -1.13264  -1.13196
  Beta  occ. eigenvalues --   -1.13184  -1.13151  -1.12937  -1.12931  -1.12926
  Beta  occ. eigenvalues --   -1.12907  -1.12899  -1.12749  -1.12689  -1.12664
  Beta  occ. eigenvalues --   -0.17798  -0.12756  -0.12203
  Beta virt. eigenvalues --   -0.06541  -0.05838  -0.05051  -0.04594  -0.02466
  Beta virt. eigenvalues --   -0.02307  -0.01722  -0.01391  -0.00985  -0.00428
  Beta virt. eigenvalues --   -0.00090   0.00186   0.00367   0.00678   0.00744

 Mulliken charges and spin densities:
               1          2
     1  Na   0.021831   0.017501
     2  Na   0.622892   0.019321
     3  Na  -1.323933   0.428863
     4  Na   0.166618   0.044231
     5  Na   0.194111   0.106295
     6  Na  -0.150954  -0.025852
     7  Na   0.469436   0.409640
 Sum of Mulliken charges =  -0.00000   1.00000

 Dipole moment (field-independent basis, Debye):
    X=              0.6484    Y=             -0.2364    Z=              0.3045  Tot=              0.7543
 Quadrupole moment (field-independent basis, Debye-Ang):
   XX=            -58.2840   YY=            -58.8163   ZZ=            -73.8239
   XY=             -1.7248   XZ=             -0.5387   YZ=             -0.8990

 Normal termination of Gaussian 16 at Tue Dec  5 12:55:46 2023.
