 Gaussian 16, Revision B.01,
 Gaussian 16:  ES64L-G16RevB.01 20-Dec-2017

 -------------------------
 #P B3LYP/6-311+g(d) force
 -------------------------

 -----
 DPGEN
 -----
 Symbolic Z-matrix:
 Charge =  0 Multiplicity = 2

                         Standard orientation:
 ---------------------------------------------------------------------
 Center     Atomic      Atomic             Coordinates (Angstroms)
 Number     Number       Type             X           Y           Z
 ---------------------------------------------------------------------
      1         11           0        2.572582    1.512197   -0.215153
      2         11           0        2.594144   -1.438251    0.076247
      3         11           0       -0.674004   -2.465763    0.069493
      4         11           0       -0.273835   -0.101061   -1.733293
      5         11           0       -3.201960   -0.252191    0.026452
      6         11           0        0.028734    0.199254    1.740480
      7         11           0       -1.045661    2.545816    0.035774
 ---------------------------------------------------------------------

 SCF Done:  E(UB3LYP) =  -1136.13281973     A.U. after   20 cycles

 The electronic state is 2-A.
 Alpha  occ. eigenvalues --  -38.44502 -38.43896 -38.43741 -38.43229 -38.43131
 Alpha  occ. eigenvalues --  -38.43077 -38.42852  -2.20354  -2.19784  -2.19648
 Alpha  occ. eigenvalues --   -2.19250  -2.19150  -2.18976  -2.18805  -1.14025
 Alpha  occ. eigenvalues --   -1.14014  -1.13994  -1.13580  -1.13436  -1.13417
 Alpha  occ. eigenvalues --   -1.13298  -1.13286  -1.13255  -1.12987  -1.12924
 Alpha  occ. eigenvalues --   -1.12857  -1.12848  -1.12825  -1.12755  -1.12639
 Alpha  occ. eigenvalues --   -1.12627  -1.12580  -1.12489  -1.12459  -1.12406
 Alpha  occ. eigenvalues --   -0.19432  -0.13612  -0.12327  -0.10777
 Alpha virt. eigenvalues --   -0.06054  -0.04941  -0.04162  -0.03353  -0.02701
 Alpha virt. eigenvalues --   -0.02323  -0.01880  -0.00901  -0.00133  -0.00012
 Alpha virt. eigenvalues --    0.00011   0.00352   0.00819   0.00928   0.00961

  Beta  occ. eigenvalues --  -38.44498 -38.43890 -38.43736 -38.43151 -38.43069
  Beta  occ. eigenvalues --  -38.43049 -38.42841  -2.20350  -2.19777  -2.19644
  Beta  occ. eigenvalues --   -2.19108  -2.19002  -2.18966  -2.18790  -1.14016
  Beta  occ. eigenvalues --   -1.14002  -1.13988  -1.13580  -1.13416  -1.13404
  Beta  occ. eigenvalues --   -1.13292  -1.13262  -1.13253  -1.12896  -1.12835
  Beta  occ. eigenvalues --   -1.12769  -1.12745  -1.12725  -1.12651  -1.12614
  Beta  occ. eigenvalues --   -1.12578  -1.12574  -1.12474  -1.12409  -1.12398
  Beta  occ. eigenvalues --   -0.18685  -0.13356  -0.12037
  Beta virt. eigenvalues --   -0.06824  -0.06020  -0.04949  -0.04170  -0.02527
  Beta virt. eigenvalues --   -0.01884  -0.01789  -0.01264  -0.00848  -0.00184
  Beta virt. eigenvalues --   -0.00055   0.00137   0.00372   0.00857   0.00921

 Mulliken charges and spin densities:
               1          2
     1  Na   0.191444  -0.045028
     2  Na   0.160194  -0.028162
     3  Na   0.350495  -0.067164
     4  Na  -0.569931   0.694993
     5  Na   0.216585  -0.081980
     6  Na  -0.517682   0.667954
     7  Na   0.168894  -0.140614
 Sum of Mulliken charges =  -0.00000   1.00000

 Dipole moment (field-independent basis, Debye):
    X=             -0.2880    Y=              0.1091    Z=             -0.0033  Tot=              0.3080
 Quadrupole moment (field-independent basis, Debye-Ang):
   XX=            -52.1281   YY=            -66.3132   ZZ=            -74.4490
   XY=              0.0813   XZ=             -0.6386   YZ=             -0.8664

 Normal termination of Gaussian 16 at Tue Nov 28 22:55:47 2023.
