 Gaussian 16, Revision B.01,
 Gaussian 16:  ES64L-G16RevB.01 20-Dec-2017

 -------------------------
 #P B3LYP/6-311+g(d) force
 -------------------------

 -----
 DPGEN
 -----
 Symbolic Z-matrix:
 Charge =  0 Multiplicity = 2

                         Standard orientation:
 ---------------------------------------------------------------------
 Center     Atomic      Atomic             Coordinates (Angstroms)
 Number     Number       Type             X           Y           Z
 ---------------------------------------------------------------------
      1         11           0        3.019392   -0.966009   -0.301615
      2         11           0       -0.303854    0.154291   -1.541659
      3         11           0       -2.064763    2.546828   -0.065258
      4         11           0        2.056494    2.267724   -0.196418
      5         11           0       -0.384981   -2.942715   -0.369369
      6         11           0       -2.782059   -0.898628    0.175326
      7         11           0        0.459772   -0.161492    2.298993
 ---------------------------------------------------------------------

 SCF Done:  E(UB3LYP) =  -1136.13560020     A.U. after   19 cycles

 The electronic state is 2-A.
 Alpha  occ. eigenvalues --  -38.44083 -38.43967 -38.43963 -38.43793 -38.43612
 Alpha  occ. eigenvalues --  -38.43249 -38.43179  -2.19896  -2.19796  -2.19786
 Alpha  occ. eigenvalues --   -2.19677  -2.19420  -2.19161  -2.19109  -1.13572
 Alpha  occ. eigenvalues --   -1.13564  -1.13545  -1.13467  -1.13454  -1.13441
 Alpha  occ. eigenvalues --   -1.13422  -1.13412  -1.13407  -1.13390  -1.13333
 Alpha  occ. eigenvalues --   -1.13316  -1.13105  -1.13078  -1.13060  -1.12863
 Alpha  occ. eigenvalues --   -1.12825  -1.12793  -1.12763  -1.12748  -1.12736
 Alpha  occ. eigenvalues --   -0.18349  -0.13117  -0.12243  -0.10797
 Alpha virt. eigenvalues --   -0.05578  -0.05358  -0.04737  -0.03349  -0.02832
 Alpha virt. eigenvalues --   -0.02662  -0.01453  -0.01201  -0.00530  -0.00394
 Alpha virt. eigenvalues --   -0.00045   0.00348   0.00772   0.00816   0.00885

  Beta  occ. eigenvalues --  -38.44079 -38.43963 -38.43855 -38.43789 -38.43613
  Beta  occ. eigenvalues --  -38.43242 -38.43129  -2.19890  -2.19780  -2.19672
  Beta  occ. eigenvalues --   -2.19594  -2.19423  -2.19099  -2.19070  -1.13568
  Beta  occ. eigenvalues --   -1.13544  -1.13540  -1.13456  -1.13431  -1.13408
  Beta  occ. eigenvalues --   -1.13386  -1.13319  -1.13313  -1.13303  -1.13283
  Beta  occ. eigenvalues --   -1.13270  -1.13101  -1.13072  -1.13064  -1.12820
  Beta  occ. eigenvalues --   -1.12770  -1.12750  -1.12734  -1.12726  -1.12694
  Beta  occ. eigenvalues --   -0.17646  -0.12920  -0.12054
  Beta virt. eigenvalues --   -0.06821  -0.05577  -0.05267  -0.04698  -0.02547
  Beta virt. eigenvalues --   -0.02081  -0.01632  -0.01369  -0.01123  -0.00577
  Beta virt. eigenvalues --   -0.00427   0.00135   0.00389   0.00816   0.00870

 Mulliken charges and spin densities:
               1          2
     1  Na   0.169100  -0.007351
     2  Na  -0.075457   0.200526
     3  Na   0.083268  -0.018201
     4  Na   0.110496  -0.031772
     5  Na   0.145154   0.009875
     6  Na   0.188007   0.099621
     7  Na  -0.620569   0.747303
 Sum of Mulliken charges =  -0.00000   1.00000

 Dipole moment (field-independent basis, Debye):
    X=              0.2664    Y=              0.1350    Z=              0.1666  Tot=              0.3419
 Quadrupole moment (field-independent basis, Debye-Ang):
   XX=            -58.1281   YY=            -61.7339   ZZ=            -74.3504
   XY=             -0.6105   XZ=             -1.7795   YZ=              0.7973

 Normal termination of Gaussian 16 at Sun Dec  3 17:10:14 2023.
