 Gaussian 16, Revision B.01,
 Gaussian 16:  ES64L-G16RevB.01 20-Dec-2017

 -------------------------
 #P B3LYP/6-311+g(d) force
 -------------------------

 -----
 DPGEN
 -----
 Symbolic Z-matrix:
 Charge =  0 Multiplicity = 2

                         Standard orientation:
 ---------------------------------------------------------------------
 Center     Atomic      Atomic             Coordinates (Angstroms)
 Number     Number       Type             X           Y           Z
 ---------------------------------------------------------------------
      1         11           0       -2.660842    0.375960   -0.924603
      2         11           0       -3.819652   -2.522309   -0.258437
      3         11           0        2.829233   -1.098273    0.205861
      4         11           0       -1.954389    3.522104   -0.101349
      5         11           0        5.670452   -0.229206   -0.745515
      6         11           0       -0.748137   -1.878870    0.871055
      7         11           0        0.683335    1.830593    0.952988
 ---------------------------------------------------------------------

 SCF Done:  E(UB3LYP) =  -1136.12611316     A.U. after   20 cycles

 The electronic state is 2-A.
 Alpha  occ. eigenvalues --  -38.44587 -38.44238 -38.44149 -38.44113 -38.44032
 Alpha  occ. eigenvalues --  -38.43495 -38.43159  -2.20388  -2.20115  -2.19976
 Alpha  occ. eigenvalues --   -2.19964  -2.19876  -2.19326  -2.18993  -1.14079
 Alpha  occ. eigenvalues --   -1.14060  -1.14002  -1.13812  -1.13804  -1.13753
 Alpha  occ. eigenvalues --   -1.13648  -1.13645  -1.13627  -1.13601  -1.13598
 Alpha  occ. eigenvalues --   -1.13586  -1.13525  -1.13524  -1.13476  -1.12992
 Alpha  occ. eigenvalues --   -1.12979  -1.12965  -1.12672  -1.12671  -1.12653
 Alpha  occ. eigenvalues --   -0.16999  -0.13912  -0.12782  -0.11071
 Alpha virt. eigenvalues --   -0.05888  -0.05280  -0.04714  -0.03937  -0.02487
 Alpha virt. eigenvalues --   -0.02290  -0.01862  -0.01775  -0.01068  -0.00837
 Alpha virt. eigenvalues --   -0.00308   0.00102   0.00207   0.00452   0.00706

  Beta  occ. eigenvalues --  -38.44570 -38.44214 -38.44069 -38.44053 -38.44018
  Beta  occ. eigenvalues --  -38.43485 -38.43155  -2.20358  -2.20071  -2.19885
  Beta  occ. eigenvalues --   -2.19850  -2.19797  -2.19308  -2.18996  -1.14060
  Beta  occ. eigenvalues --   -1.14035  -1.13979  -1.13777  -1.13771  -1.13718
  Beta  occ. eigenvalues --   -1.13597  -1.13595  -1.13538  -1.13511  -1.13507
  Beta  occ. eigenvalues --   -1.13495  -1.13479  -1.13477  -1.13439  -1.12973
  Beta  occ. eigenvalues --   -1.12967  -1.12956  -1.12683  -1.12682  -1.12582
  Beta  occ. eigenvalues --   -0.16440  -0.13186  -0.12552
  Beta virt. eigenvalues --   -0.07618  -0.05662  -0.04934  -0.04254  -0.03689
  Beta virt. eigenvalues --   -0.02190  -0.02159  -0.01698  -0.01285  -0.00866
  Beta virt. eigenvalues --   -0.00522   0.00030   0.00228   0.00380   0.00566

 Mulliken charges and spin densities:
               1          2
     1  Na  -0.807168   0.251945
     2  Na   1.099448   0.070613
     3  Na  -0.820605   0.482935
     4  Na   0.648399   0.042321
     5  Na   0.602848   0.324191
     6  Na  -0.385473  -0.180333
     7  Na  -0.337449   0.008328
 Sum of Mulliken charges =  -0.00000   1.00000

 Dipole moment (field-independent basis, Debye):
    X=             -1.2210    Y=              0.1038    Z=              0.1364  Tot=              1.2330
 Quadrupole moment (field-independent basis, Debye-Ang):
   XX=            -62.9715   YY=            -62.4431   ZZ=            -70.5449
   XY=              5.9580   XZ=              0.1392   YZ=              0.0729

 Normal termination of Gaussian 16 at Tue Nov 28 22:24:50 2023.
