 Gaussian 16, Revision B.01,
 Gaussian 16:  ES64L-G16RevB.01 20-Dec-2017

 -------------------------
 #P B3LYP/6-311+g(d) force
 -------------------------

 -----
 DPGEN
 -----
 Symbolic Z-matrix:
 Charge =  0 Multiplicity = 2

                         Standard orientation:
 ---------------------------------------------------------------------
 Center     Atomic      Atomic             Coordinates (Angstroms)
 Number     Number       Type             X           Y           Z
 ---------------------------------------------------------------------
      1         11           0        2.100740   -1.989123    0.743625
      2         11           0        1.557350    1.074869   -1.071660
      3         11           0       -1.820155    0.548220   -1.613970
      4         11           0       -1.403412   -1.311358    1.088088
      5         11           0       -4.446427   -0.977764   -0.345361
      6         11           0       -0.634804    2.844477    1.592758
      7         11           0        4.646708   -0.189320   -0.393480
 ---------------------------------------------------------------------

 SCF Done:  E(UB3LYP) =  -1136.11791240     A.U. after   29 cycles

 The electronic state is 2-A.
 Alpha  occ. eigenvalues --  -38.44520 -38.44499 -38.44068 -38.43821 -38.43804
 Alpha  occ. eigenvalues --  -38.43767 -38.43625  -2.20387  -2.20249  -2.19891
 Alpha  occ. eigenvalues --   -2.19661  -2.19645  -2.19638  -2.19454  -1.14102
 Alpha  occ. eigenvalues --   -1.14062  -1.13973  -1.13921  -1.13916  -1.13852
 Alpha  occ. eigenvalues --   -1.13556  -1.13548  -1.13535  -1.13373  -1.13355
 Alpha  occ. eigenvalues --   -1.13337  -1.13334  -1.13317  -1.13291  -1.13273
 Alpha  occ. eigenvalues --   -1.13245  -1.13222  -1.13117  -1.13112  -1.13080
 Alpha  occ. eigenvalues --   -0.17352  -0.14060  -0.11513  -0.10885
 Alpha virt. eigenvalues --   -0.07309  -0.05135  -0.04232  -0.03314  -0.02954
 Alpha virt. eigenvalues --   -0.02720  -0.02010  -0.01400  -0.01146  -0.00547
 Alpha virt. eigenvalues --   -0.00237   0.00119   0.00455   0.00620   0.00725

  Beta  occ. eigenvalues --  -38.44501 -38.44465 -38.44045 -38.43796 -38.43780
  Beta  occ. eigenvalues --  -38.43714 -38.43616  -2.20349  -2.20185  -2.19849
  Beta  occ. eigenvalues --   -2.19632  -2.19589  -2.19544  -2.19438  -1.14073
  Beta  occ. eigenvalues --   -1.14039  -1.13947  -1.13878  -1.13867  -1.13812
  Beta  occ. eigenvalues --   -1.13522  -1.13520  -1.13508  -1.13362  -1.13323
  Beta  occ. eigenvalues --   -1.13295  -1.13283  -1.13274  -1.13225  -1.13214
  Beta  occ. eigenvalues --   -1.13196  -1.13167  -1.13101  -1.13094  -1.13065
  Beta  occ. eigenvalues --   -0.16803  -0.13828  -0.11187
  Beta virt. eigenvalues --   -0.07269  -0.06929  -0.04786  -0.03971  -0.03010
  Beta virt. eigenvalues --   -0.02696  -0.02425  -0.01547  -0.01102  -0.00860
  Beta virt. eigenvalues --   -0.00355  -0.00172   0.00259   0.00639   0.00737

 Mulliken charges and spin densities:
               1          2
     1  Na  -0.128281   0.031102
     2  Na  -0.564893   0.199013
     3  Na   0.147238   0.168546
     4  Na  -0.462023   0.295361
     5  Na   0.496170   0.022148
     6  Na   0.030064   0.149791
     7  Na   0.481726   0.134038
 Sum of Mulliken charges =  -0.00000   1.00000

 Dipole moment (field-independent basis, Debye):
    X=             -0.0002    Y=              0.6519    Z=              0.3732  Tot=              0.7511
 Quadrupole moment (field-independent basis, Debye-Ang):
   XX=            -57.1132   YY=            -73.3877   ZZ=            -66.5535
   XY=             -1.1614   XZ=             -1.5949   YZ=              2.2936

 Normal termination of Gaussian 16 at Tue Nov 28 19:08:21 2023.
