 Gaussian 16, Revision B.01,
 Gaussian 16:  ES64L-G16RevB.01 20-Dec-2017

 -------------------------
 #P B3LYP/6-311+g(d) force
 -------------------------

 -----
 DPGEN
 -----
 Symbolic Z-matrix:
 Charge =  0 Multiplicity = 2

                         Standard orientation:
 ---------------------------------------------------------------------
 Center     Atomic      Atomic             Coordinates (Angstroms)
 Number     Number       Type             X           Y           Z
 ---------------------------------------------------------------------
      1         11           0       -0.902553   -0.252919   -1.790694
      2         11           0        0.942210    1.902858    0.061446
      3         11           0       -2.763120    2.084108   -0.310127
      4         11           0        3.913179    0.409011    0.140661
      5         11           0       -2.366192   -1.894944    0.779189
      6         11           0       -0.005647   -0.261574    2.156266
      7         11           0        1.182123   -1.986540   -1.036740
 ---------------------------------------------------------------------

 SCF Done:  E(UB3LYP) =  -1136.12160607     A.U. after   21 cycles

 The electronic state is 2-A.
 Alpha  occ. eigenvalues --  -38.44876 -38.44723 -38.44119 -38.43699 -38.43519
 Alpha  occ. eigenvalues --  -38.43469 -38.43107  -2.20648  -2.20616  -2.19965
 Alpha  occ. eigenvalues --   -2.19708  -2.19410  -2.19273  -2.19007  -1.14325
 Alpha  occ. eigenvalues --   -1.14309  -1.14296  -1.14282  -1.14260  -1.14221
 Alpha  occ. eigenvalues --   -1.13654  -1.13621  -1.13580  -1.13563  -1.13335
 Alpha  occ. eigenvalues --   -1.13315  -1.13063  -1.13033  -1.12969  -1.12947
 Alpha  occ. eigenvalues --   -1.12926  -1.12904  -1.12739  -1.12698  -1.12576
 Alpha  occ. eigenvalues --   -0.18624  -0.13165  -0.11755  -0.11630
 Alpha virt. eigenvalues --   -0.06549  -0.04876  -0.03720  -0.03408  -0.03191
 Alpha virt. eigenvalues --   -0.02828  -0.02188  -0.01226  -0.00413   0.00011
 Alpha virt. eigenvalues --    0.00211   0.00260   0.00455   0.00730   0.00830

  Beta  occ. eigenvalues --  -38.44884 -38.44629 -38.44095 -38.43628 -38.43483
  Beta  occ. eigenvalues --  -38.43465 -38.43097  -2.20664  -2.20444  -2.19923
  Beta  occ. eigenvalues --   -2.19581  -2.19348  -2.19267  -2.18992  -1.14337
  Beta  occ. eigenvalues --   -1.14313  -1.14293  -1.14177  -1.14134  -1.14103
  Beta  occ. eigenvalues --   -1.13609  -1.13584  -1.13553  -1.13474  -1.13247
  Beta  occ. eigenvalues --   -1.13232  -1.13005  -1.12979  -1.12939  -1.12926
  Beta  occ. eigenvalues --   -1.12919  -1.12901  -1.12725  -1.12666  -1.12570
  Beta  occ. eigenvalues --   -0.17859  -0.13002  -0.11339
  Beta virt. eigenvalues --   -0.07689  -0.06404  -0.04839  -0.03410  -0.02944
  Beta virt. eigenvalues --   -0.02209  -0.02129  -0.02081  -0.01148  -0.00200
  Beta virt. eigenvalues --    0.00060   0.00227   0.00253   0.00661   0.00814

 Mulliken charges and spin densities:
               1          2
     1  Na   0.098699   0.268765
     2  Na  -0.243297   0.192655
     3  Na   0.193104  -0.028310
     4  Na   0.141585  -0.158597
     5  Na   0.005060   0.042666
     6  Na  -0.104190   0.503688
     7  Na  -0.090961   0.179133
 Sum of Mulliken charges =  -0.00000   1.00000

 Dipole moment (field-independent basis, Debye):
    X=              0.4233    Y=             -0.3035    Z=              0.5061  Tot=              0.7262
 Quadrupole moment (field-independent basis, Debye-Ang):
   XX=            -49.8307   YY=            -73.2795   ZZ=            -70.4645
   XY=              0.1387   XZ=             -0.6950   YZ=             -0.4481

 Normal termination of Gaussian 16 at Tue Dec  5 19:54:04 2023.
