 Gaussian 16, Revision B.01,
 Gaussian 16:  ES64L-G16RevB.01 20-Dec-2017

 -------------------------
 #P B3LYP/6-311+g(d) force
 -------------------------

 -----
 DPGEN
 -----
 Symbolic Z-matrix:
 Charge =  0 Multiplicity = 2

                         Standard orientation:
 ---------------------------------------------------------------------
 Center     Atomic      Atomic             Coordinates (Angstroms)
 Number     Number       Type             X           Y           Z
 ---------------------------------------------------------------------
      1         11           0        0.332356    1.322390    1.724271
      2         11           0        3.135474    0.780752   -0.252007
      3         11           0        1.192631   -1.842325    1.511995
      4         11           0        1.758251   -1.862462   -1.519339
      5         11           0        0.384576    2.428375   -0.979489
      6         11           0       -1.923985   -0.806482   -0.306789
      7         11           0       -4.879302   -0.020249   -0.178642
 ---------------------------------------------------------------------

 SCF Done:  E(UB3LYP) =  -1136.11688460     A.U. after   22 cycles

 The electronic state is 2-A.
 Alpha  occ. eigenvalues --  -38.44787 -38.44757 -38.43732 -38.43676 -38.43654
 Alpha  occ. eigenvalues --  -38.43531 -38.43371  -2.20680  -2.20543  -2.19641
 Alpha  occ. eigenvalues --   -2.19609  -2.19538  -2.19449  -2.19214  -1.14373
 Alpha  occ. eigenvalues --   -1.14341  -1.14294  -1.14221  -1.14190  -1.14183
 Alpha  occ. eigenvalues --   -1.13482  -1.13311  -1.13265  -1.13260  -1.13255
 Alpha  occ. eigenvalues --   -1.13224  -1.13189  -1.13181  -1.13151  -1.13095
 Alpha  occ. eigenvalues --   -1.13086  -1.13031  -1.12899  -1.12883  -1.12852
 Alpha  occ. eigenvalues --   -0.18552  -0.13208  -0.12054  -0.11401
 Alpha virt. eigenvalues --   -0.07265  -0.04195  -0.03994  -0.03397  -0.03130
 Alpha virt. eigenvalues --   -0.02817  -0.02515  -0.00975  -0.00522  -0.00321
 Alpha virt. eigenvalues --   -0.00165  -0.00057   0.00332   0.00750   0.00977

  Beta  occ. eigenvalues --  -38.44755 -38.44745 -38.43720 -38.43620 -38.43615
  Beta  occ. eigenvalues --  -38.43481 -38.43369  -2.20624  -2.20521  -2.19597
  Beta  occ. eigenvalues --   -2.19522  -2.19475  -2.19361  -2.19212  -1.14323
  Beta  occ. eigenvalues --   -1.14292  -1.14255  -1.14207  -1.14174  -1.14168
  Beta  occ. eigenvalues --   -1.13438  -1.13252  -1.13227  -1.13218  -1.13206
  Beta  occ. eigenvalues --   -1.13178  -1.13140  -1.13130  -1.13091  -1.13031
  Beta  occ. eigenvalues --   -1.13026  -1.12959  -1.12899  -1.12872  -1.12845
  Beta  occ. eigenvalues --   -0.17798  -0.12888  -0.11960
  Beta virt. eigenvalues --   -0.07505  -0.06970  -0.04093  -0.03508  -0.03149
  Beta virt. eigenvalues --   -0.02803  -0.02468  -0.01648  -0.00893  -0.00305
  Beta virt. eigenvalues --   -0.00226  -0.00091   0.00211   0.00347   0.00796

 Mulliken charges and spin densities:
               1          2
     1  Na   0.190382   0.236263
     2  Na  -0.042214   0.332282
     3  Na   0.534404   0.070964
     4  Na   0.513669   0.294209
     5  Na   0.233967   0.084359
     6  Na  -1.313105  -0.033897
     7  Na  -0.117103   0.015821
 Sum of Mulliken charges =  -0.00000   1.00000

 Dipole moment (field-independent basis, Debye):
    X=              0.0387    Y=              0.4730    Z=              0.0552  Tot=              0.4778
 Quadrupole moment (field-independent basis, Debye-Ang):
   XX=            -54.2821   YY=            -73.6691   ZZ=            -67.3404
   XY=             -1.6467   XZ=              0.8616   YZ=             -0.8959

 Normal termination of Gaussian 16 at Mon Dec  4 02:17:36 2023.
