 Gaussian 16, Revision B.01,
 Gaussian 16:  ES64L-G16RevB.01 20-Dec-2017

 -------------------------
 #P B3LYP/6-311+g(d) force
 -------------------------

 -----
 DPGEN
 -----
 Symbolic Z-matrix:
 Charge =  0 Multiplicity = 2

                         Standard orientation:
 ---------------------------------------------------------------------
 Center     Atomic      Atomic             Coordinates (Angstroms)
 Number     Number       Type             X           Y           Z
 ---------------------------------------------------------------------
      1         11           0       -2.432814   -1.564535   -0.310443
      2         11           0        3.051194   -0.421826    0.071781
      3         11           0        0.656105   -2.507123    0.060441
      4         11           0       -2.468244    1.767761    0.286599
      5         11           0       -0.090286   -0.064537    1.895474
      6         11           0       -0.037721    0.150683   -1.848662
      7         11           0        1.321767    2.639577   -0.155190
 ---------------------------------------------------------------------

 SCF Done:  E(UB3LYP) =  -1136.13843951     A.U. after   19 cycles

 The electronic state is 2-A.
 Alpha  occ. eigenvalues --  -38.43895 -38.43771 -38.43518 -38.43485 -38.43436
 Alpha  occ. eigenvalues --  -38.43398 -38.42866  -2.19755  -2.19613  -2.19477
 Alpha  occ. eigenvalues --   -2.19388  -2.19366  -2.19273  -2.18825  -1.13441
 Alpha  occ. eigenvalues --   -1.13418  -1.13396  -1.13303  -1.13282  -1.13249
 Alpha  occ. eigenvalues --   -1.13174  -1.13110  -1.13104  -1.13088  -1.13048
 Alpha  occ. eigenvalues --   -1.13039  -1.13021  -1.13013  -1.12974  -1.12937
 Alpha  occ. eigenvalues --   -1.12921  -1.12897  -1.12510  -1.12478  -1.12453
 Alpha  occ. eigenvalues --   -0.19126  -0.13153  -0.12468  -0.11058
 Alpha virt. eigenvalues --   -0.05530  -0.05081  -0.04376  -0.03294  -0.02977
 Alpha virt. eigenvalues --   -0.02695  -0.01446  -0.01015  -0.00213  -0.00036
 Alpha virt. eigenvalues --    0.00039   0.00369   0.00830   0.00921   0.00958

  Beta  occ. eigenvalues --  -38.43893 -38.43764 -38.43475 -38.43434 -38.43432
  Beta  occ. eigenvalues --  -38.43317 -38.42856  -2.19754  -2.19603  -2.19374
  Beta  occ. eigenvalues --   -2.19322  -2.19269  -2.19218  -2.18812  -1.13443
  Beta  occ. eigenvalues --   -1.13405  -1.13387  -1.13290  -1.13258  -1.13244
  Beta  occ. eigenvalues --   -1.13094  -1.13054  -1.13029  -1.13008  -1.13002
  Beta  occ. eigenvalues --   -1.12981  -1.12967  -1.12934  -1.12919  -1.12899
  Beta  occ. eigenvalues --   -1.12878  -1.12854  -1.12502  -1.12456  -1.12423
  Beta  occ. eigenvalues --   -0.18364  -0.12901  -0.12192
  Beta virt. eigenvalues --   -0.07107  -0.05510  -0.05059  -0.04370  -0.02483
  Beta virt. eigenvalues --   -0.02163  -0.01627  -0.01358  -0.00936  -0.00262
  Beta virt. eigenvalues --   -0.00040   0.00113   0.00384   0.00879   0.00918

 Mulliken charges and spin densities:
               1          2
     1  Na   0.324212   0.011185
     2  Na   0.049404  -0.089833
     3  Na   0.357384   0.007355
     4  Na   0.073155  -0.084277
     5  Na  -0.454675   0.668041
     6  Na  -0.407301   0.618304
     7  Na   0.057820  -0.130774
 Sum of Mulliken charges =  -0.00000   1.00000

 Dipole moment (field-independent basis, Debye):
    X=             -0.0129    Y=              0.2922    Z=              0.0347  Tot=              0.2945
 Quadrupole moment (field-independent basis, Debye-Ang):
   XX=            -56.7570   YY=            -64.5558   ZZ=            -72.7581
   XY=             -0.0657   XZ=              0.2315   YZ=              0.7039

 Normal termination of Gaussian 16 at Thu Dec  7 02:45:06 2023.
