 Gaussian 16, Revision B.01,
 Gaussian 16:  ES64L-G16RevB.01 20-Dec-2017

 -------------------------
 #P B3LYP/6-311+g(d) force
 -------------------------

 -----
 DPGEN
 -----
 Symbolic Z-matrix:
 Charge =  0 Multiplicity = 2

                         Standard orientation:
 ---------------------------------------------------------------------
 Center     Atomic      Atomic             Coordinates (Angstroms)
 Number     Number       Type             X           Y           Z
 ---------------------------------------------------------------------
      1         11           0       -2.344746   -2.111294    0.422633
      2         11           0        1.637057   -2.714218   -0.239144
      3         11           0       -0.013235    0.016603    1.507508
      4         11           0       -2.975486    1.317573   -0.395920
      5         11           0        3.603000    0.879015    0.065818
      6         11           0        0.010867   -0.429756   -1.388873
      7         11           0        0.082543    3.042076    0.027977
 ---------------------------------------------------------------------

 SCF Done:  E(UB3LYP) =  -1136.12654306     A.U. after   23 cycles

 The electronic state is 2-A.
 Alpha  occ. eigenvalues --  -38.45097 -38.43965 -38.43959 -38.43798 -38.43654
 Alpha  occ. eigenvalues --  -38.43055 -38.43049  -2.20827  -2.19804  -2.19787
 Alpha  occ. eigenvalues --   -2.19648  -2.19471  -2.19073  -2.19038  -1.14512
 Alpha  occ. eigenvalues --   -1.14478  -1.14461  -1.13536  -1.13457  -1.13456
 Alpha  occ. eigenvalues --   -1.13442  -1.13436  -1.13411  -1.13324  -1.13309
 Alpha  occ. eigenvalues --   -1.13275  -1.13165  -1.13141  -1.13091  -1.12967
 Alpha  occ. eigenvalues --   -1.12690  -1.12665  -1.12655  -1.12643  -1.12618
 Alpha  occ. eigenvalues --   -0.18424  -0.12964  -0.12519  -0.09699
 Alpha virt. eigenvalues --   -0.06401  -0.05411  -0.04884  -0.02772  -0.02521
 Alpha virt. eigenvalues --   -0.02182  -0.01564  -0.01511  -0.00799  -0.00654
 Alpha virt. eigenvalues --    0.00012   0.00262   0.00665   0.00734   0.00816

  Beta  occ. eigenvalues --  -38.45099 -38.43950 -38.43944 -38.43778 -38.43651
  Beta  occ. eigenvalues --  -38.42995 -38.42990  -2.20831  -2.19780  -2.19763
  Beta  occ. eigenvalues --   -2.19613  -2.19468  -2.18974  -2.18923  -1.14509
  Beta  occ. eigenvalues --   -1.14478  -1.14464  -1.13512  -1.13435  -1.13426
  Beta  occ. eigenvalues --   -1.13423  -1.13409  -1.13397  -1.13300  -1.13262
  Beta  occ. eigenvalues --   -1.13255  -1.13160  -1.13132  -1.13082  -1.12886
  Beta  occ. eigenvalues --   -1.12616  -1.12598  -1.12569  -1.12565  -1.12529
  Beta  occ. eigenvalues --   -0.17790  -0.12690  -0.12235
  Beta virt. eigenvalues --   -0.06390  -0.05995  -0.05263  -0.04838  -0.02144
  Beta virt. eigenvalues --   -0.02092  -0.01828  -0.01415  -0.00819  -0.00723
  Beta virt. eigenvalues --   -0.00625   0.00163   0.00336   0.00704   0.00773

 Mulliken charges and spin densities:
               1          2
     1  Na   0.193454   0.089819
     2  Na   0.171208  -0.046220
     3  Na  -0.112077   0.572034
     4  Na   0.140582   0.089918
     5  Na  -0.108937  -0.085173
     6  Na  -0.206805   0.435449
     7  Na  -0.077425  -0.055827
 Sum of Mulliken charges =  -0.00000   1.00000

 Dipole moment (field-independent basis, Debye):
    X=              0.4575    Y=             -0.0013    Z=              0.0349  Tot=              0.4588
 Quadrupole moment (field-independent basis, Debye-Ang):
   XX=            -50.0776   YY=            -59.7216   ZZ=            -79.1721
   XY=              0.7322   XZ=              0.3357   YZ=             -1.1649

 Normal termination of Gaussian 16 at Thu Dec  7 18:10:12 2023.
