 Gaussian 16, Revision B.01,
 Gaussian 16:  ES64L-G16RevB.01 20-Dec-2017

 -------------------------
 #P B3LYP/6-311+g(d) force
 -------------------------

 -----
 DPGEN
 -----
 Symbolic Z-matrix:
 Charge =  0 Multiplicity = 2

                         Standard orientation:
 ---------------------------------------------------------------------
 Center     Atomic      Atomic             Coordinates (Angstroms)
 Number     Number       Type             X           Y           Z
 ---------------------------------------------------------------------
      1         11           0       -2.330711   -0.875202    1.843182
      2         11           0       -3.013768    1.950524    0.480699
      3         11           0        3.539972    2.114017   -0.313301
      4         11           0       -2.558617   -0.714538   -1.750558
      5         11           0        0.519223   -2.258623   -0.608581
      6         11           0        0.149759    0.988011   -0.395858
      7         11           0        3.694142   -1.204188    0.744417
 ---------------------------------------------------------------------

 SCF Done:  E(UB3LYP) =  -1136.11824456     A.U. after   26 cycles

 The electronic state is 2-A.
 Alpha  occ. eigenvalues --  -38.45212 -38.44689 -38.44464 -38.44086 -38.44062
 Alpha  occ. eigenvalues --  -38.43879 -38.42497  -2.20986  -2.20553  -2.20328
 Alpha  occ. eigenvalues --   -2.19982  -2.19841  -2.19739  -2.18337  -1.14666
 Alpha  occ. eigenvalues --   -1.14629  -1.14616  -1.14228  -1.14198  -1.14169
 Alpha  occ. eigenvalues --   -1.13999  -1.13975  -1.13932  -1.13687  -1.13661
 Alpha  occ. eigenvalues --   -1.13603  -1.13510  -1.13502  -1.13480  -1.13409
 Alpha  occ. eigenvalues --   -1.13394  -1.13383  -1.12054  -1.12001  -1.11959
 Alpha  occ. eigenvalues --   -0.17983  -0.14217  -0.11267  -0.10613
 Alpha virt. eigenvalues --   -0.06876  -0.06498  -0.04012  -0.03120  -0.02730
 Alpha virt. eigenvalues --   -0.02501  -0.02348  -0.01377  -0.01009  -0.00699
 Alpha virt. eigenvalues --   -0.00170   0.00128   0.00245   0.00355   0.00554

  Beta  occ. eigenvalues --  -38.45192 -38.44637 -38.44381 -38.44064 -38.44055
  Beta  occ. eigenvalues --  -38.43874 -38.42498  -2.20948  -2.20459  -2.20175
  Beta  occ. eigenvalues --   -2.19928  -2.19845  -2.19735  -2.18341  -1.14639
  Beta  occ. eigenvalues --   -1.14605  -1.14590  -1.14143  -1.14136  -1.14109
  Beta  occ. eigenvalues --   -1.13894  -1.13875  -1.13818  -1.13630  -1.13628
  Beta  occ. eigenvalues --   -1.13566  -1.13512  -1.13498  -1.13484  -1.13407
  Beta  occ. eigenvalues --   -1.13392  -1.13348  -1.12058  -1.11996  -1.11949
  Beta  occ. eigenvalues --   -0.17354  -0.13975  -0.11013
  Beta virt. eigenvalues --   -0.07066  -0.06498  -0.06135  -0.03868  -0.02899
  Beta virt. eigenvalues --   -0.02542  -0.01914  -0.01787  -0.01056  -0.00734
  Beta virt. eigenvalues --   -0.00340  -0.00114   0.00183   0.00362   0.00508

 Mulliken charges and spin densities:
               1          2
     1  Na  -0.188389   0.328626
     2  Na   0.825218   0.010486
     3  Na   0.182237  -0.006763
     4  Na   0.664257   0.027408
     5  Na   0.066444   0.116438
     6  Na  -1.572764   0.460080
     7  Na   0.022997   0.063725
 Sum of Mulliken charges =  -0.00000   1.00000

 Dipole moment (field-independent basis, Debye):
    X=              0.0299    Y=             -0.2372    Z=             -0.1096  Tot=              0.2630
 Quadrupole moment (field-independent basis, Debye-Ang):
   XX=            -51.3223   YY=            -71.1681   ZZ=            -71.9416
   XY=             -1.1164   XZ=              5.5315   YZ=             -1.5768

 Normal termination of Gaussian 16 at Tue Dec  5 23:42:40 2023.
