 Gaussian 16, Revision B.01,
 Gaussian 16:  ES64L-G16RevB.01 20-Dec-2017

 -------------------------
 #P B3LYP/6-311+g(d) force
 -------------------------

 -----
 DPGEN
 -----
 Symbolic Z-matrix:
 Charge =  0 Multiplicity = 2

                         Standard orientation:
 ---------------------------------------------------------------------
 Center     Atomic      Atomic             Coordinates (Angstroms)
 Number     Number       Type             X           Y           Z
 ---------------------------------------------------------------------
      1         11           0        0.545863    0.055930   -1.666862
      2         11           0        2.975372   -0.708765   -0.143699
      3         11           0       -2.753866   -0.953717   -0.251849
      4         11           0        1.450521    2.616942    0.408434
      5         11           0       -0.362557   -0.354385    2.171501
      6         11           0       -2.054273    1.927029   -0.417931
      7         11           0        0.198940   -2.583034   -0.099593
 ---------------------------------------------------------------------

 SCF Done:  E(UB3LYP) =  -1136.13304117     A.U. after   19 cycles

 The electronic state is 2-A.
 Alpha  occ. eigenvalues --  -38.44038 -38.43956 -38.43639 -38.43508 -38.43487
 Alpha  occ. eigenvalues --  -38.43411 -38.43014  -2.19920  -2.19851  -2.19553
 Alpha  occ. eigenvalues --   -2.19435  -2.19394  -2.19307  -2.18961  -1.13683
 Alpha  occ. eigenvalues --   -1.13565  -1.13535  -1.13522  -1.13480  -1.13468
 Alpha  occ. eigenvalues --   -1.13336  -1.13204  -1.13193  -1.13126  -1.13095
 Alpha  occ. eigenvalues --   -1.13071  -1.13035  -1.13020  -1.13000  -1.12975
 Alpha  occ. eigenvalues --   -1.12961  -1.12941  -1.12649  -1.12627  -1.12568
 Alpha  occ. eigenvalues --   -0.19083  -0.13269  -0.12423  -0.11220
 Alpha virt. eigenvalues --   -0.05498  -0.04973  -0.04429  -0.03450  -0.03071
 Alpha virt. eigenvalues --   -0.02838  -0.01365  -0.00901  -0.00132  -0.00013
 Alpha virt. eigenvalues --    0.00011   0.00369   0.00843   0.00930   0.00968

  Beta  occ. eigenvalues --  -38.44034 -38.43857 -38.43632 -38.43499 -38.43480
  Beta  occ. eigenvalues --  -38.43352 -38.43003  -2.19916  -2.19669  -2.19543
  Beta  occ. eigenvalues --   -2.19380  -2.19328  -2.19296  -2.18947  -1.13668
  Beta  occ. eigenvalues --   -1.13552  -1.13530  -1.13404  -1.13358  -1.13336
  Beta  occ. eigenvalues --   -1.13325  -1.13196  -1.13158  -1.13062  -1.13056
  Beta  occ. eigenvalues --   -1.13011  -1.13008  -1.12989  -1.12969  -1.12952
  Beta  occ. eigenvalues --   -1.12937  -1.12934  -1.12642  -1.12583  -1.12557
  Beta  occ. eigenvalues --   -0.18335  -0.13013  -0.12183
  Beta virt. eigenvalues --   -0.07263  -0.05439  -0.04929  -0.04389  -0.02665
  Beta virt. eigenvalues --   -0.02286  -0.01763  -0.01284  -0.00831  -0.00116
  Beta virt. eigenvalues --   -0.00038   0.00111   0.00402   0.00909   0.00955

 Mulliken charges and spin densities:
               1          2
     1  Na  -0.360389   0.302321
     2  Na   0.345097  -0.022946
     3  Na   0.225167   0.011561
     4  Na  -0.036635   0.030011
     5  Na  -0.764584   0.696098
     6  Na   0.132790  -0.007579
     7  Na   0.458555  -0.009466
 Sum of Mulliken charges =  -0.00000   1.00000

 Dipole moment (field-independent basis, Debye):
    X=              0.2593    Y=              0.0530    Z=              0.2985  Tot=              0.3990
 Quadrupole moment (field-independent basis, Debye-Ang):
   XX=            -58.4487   YY=            -65.4761   ZZ=            -71.4411
   XY=              0.2637   XZ=              1.6708   YZ=              0.9497

 Normal termination of Gaussian 16 at Tue Dec  5 16:19:26 2023.
