 Gaussian 16, Revision B.01,
 Gaussian 16:  ES64L-G16RevB.01 20-Dec-2017

 -------------------------
 #P B3LYP/6-311+g(d) force
 -------------------------

 -----
 DPGEN
 -----
 Symbolic Z-matrix:
 Charge =  0 Multiplicity = 2

                         Standard orientation:
 ---------------------------------------------------------------------
 Center     Atomic      Atomic             Coordinates (Angstroms)
 Number     Number       Type             X           Y           Z
 ---------------------------------------------------------------------
      1         11           0       -2.495965   -0.334538    0.934231
      2         11           0       -3.783278   -2.926042   -0.702714
      3         11           0        2.525317    0.250466    1.173443
      4         11           0       -2.799085    3.166090   -0.959425
      5         11           0        5.768770   -0.363741   -1.063050
      6         11           0        0.750835   -2.207855    0.189959
      7         11           0        0.033408    2.415620    0.427556
 ---------------------------------------------------------------------

 SCF Done:  E(UB3LYP) =  -1136.11382535     A.U. after   20 cycles

 The electronic state is 2-A.
 Alpha  occ. eigenvalues --  -38.45224 -38.44903 -38.44222 -38.44184 -38.44171
 Alpha  occ. eigenvalues --  -38.43870 -38.43653  -2.21002  -2.20689  -2.20023
 Alpha  occ. eigenvalues --   -2.19961  -2.19952  -2.19703  -2.19490  -1.14685
 Alpha  occ. eigenvalues --   -1.14674  -1.14616  -1.14318  -1.14317  -1.14286
 Alpha  occ. eigenvalues --   -1.13726  -1.13716  -1.13654  -1.13633  -1.13619
 Alpha  occ. eigenvalues --   -1.13615  -1.13604  -1.13598  -1.13559  -1.13387
 Alpha  occ. eigenvalues --   -1.13372  -1.13333  -1.13171  -1.13157  -1.13126
 Alpha  occ. eigenvalues --   -0.16465  -0.13515  -0.12316  -0.11155
 Alpha virt. eigenvalues --   -0.06594  -0.05709  -0.04661  -0.03690  -0.02630
 Alpha virt. eigenvalues --   -0.02379  -0.02053  -0.01685  -0.01197  -0.00813
 Alpha virt. eigenvalues --   -0.00600  -0.00408  -0.00103   0.00263   0.00558

  Beta  occ. eigenvalues --  -38.45207 -38.44756 -38.44222 -38.44170 -38.44157
  Beta  occ. eigenvalues --  -38.43866 -38.43650  -2.20973  -2.20413  -2.20025
  Beta  occ. eigenvalues --   -2.19935  -2.19925  -2.19697  -2.19490  -1.14663
  Beta  occ. eigenvalues --   -1.14646  -1.14605  -1.14131  -1.14131  -1.14102
  Beta  occ. eigenvalues --   -1.13725  -1.13705  -1.13653  -1.13616  -1.13601
  Beta  occ. eigenvalues --   -1.13597  -1.13586  -1.13581  -1.13547  -1.13383
  Beta  occ. eigenvalues --   -1.13367  -1.13321  -1.13175  -1.13160  -1.13092
  Beta  occ. eigenvalues --   -0.16135  -0.12756  -0.12209
  Beta virt. eigenvalues --   -0.07286  -0.06418  -0.05445  -0.04331  -0.03533
  Beta virt. eigenvalues --   -0.02460  -0.02029  -0.01565  -0.01423  -0.00892
  Beta virt. eigenvalues --   -0.00627  -0.00198  -0.00098   0.00138   0.00464

 Mulliken charges and spin densities:
               1          2
     1  Na  -0.371764   0.008051
     2  Na   0.182399   0.086501
     3  Na  -0.097223  -0.072811
     4  Na   0.559447   0.126321
     5  Na  -0.008448   0.783087
     6  Na  -0.003424   0.053615
     7  Na  -0.260987   0.015235
 Sum of Mulliken charges =  -0.00000   1.00000

 Dipole moment (field-independent basis, Debye):
    X=             -0.9085    Y=             -0.3648    Z=             -0.5447  Tot=              1.1203
 Quadrupole moment (field-independent basis, Debye-Ang):
   XX=            -68.8057   YY=            -64.5730   ZZ=            -68.5227
   XY=             -0.4710   XZ=              4.4209   YZ=              2.0050

 Normal termination of Gaussian 16 at Wed Nov 29 03:44:33 2023.
