 Gaussian 16, Revision B.01,
 Gaussian 16:  ES64L-G16RevB.01 20-Dec-2017

 -------------------------
 #P B3LYP/6-311+g(d) force
 -------------------------

 -----
 DPGEN
 -----
 Symbolic Z-matrix:
 Charge =  0 Multiplicity = 2

                         Standard orientation:
 ---------------------------------------------------------------------
 Center     Atomic      Atomic             Coordinates (Angstroms)
 Number     Number       Type             X           Y           Z
 ---------------------------------------------------------------------
      1         11           0       -3.543924   -2.524828    0.157858
      2         11           0       -1.023233    3.274024   -1.120897
      3         11           0       -0.152635   -2.413659   -1.160433
      4         11           0        3.088960   -2.224376    0.411059
      5         11           0       -2.741232    1.546652    1.077536
      6         11           0        2.344693    1.248384   -1.158847
      7         11           0        2.027372    1.093803    1.793724
 ---------------------------------------------------------------------

 SCF Done:  E(UB3LYP) =  -1136.10734205     A.U. after   26 cycles

 The electronic state is 2-A.
 Alpha  occ. eigenvalues --  -38.45528 -38.45270 -38.44850 -38.44355 -38.44163
 Alpha  occ. eigenvalues --  -38.43902 -38.43800  -2.21292  -2.21088  -2.20597
 Alpha  occ. eigenvalues --   -2.20090  -2.20020  -2.19669  -2.19592  -1.14978
 Alpha  occ. eigenvalues --   -1.14948  -1.14922  -1.14841  -1.14749  -1.14685
 Alpha  occ. eigenvalues --   -1.14285  -1.14268  -1.14228  -1.13768  -1.13742
 Alpha  occ. eigenvalues --   -1.13738  -1.13705  -1.13650  -1.13605  -1.13353
 Alpha  occ. eigenvalues --   -1.13344  -1.13279  -1.13257  -1.13245  -1.13228
 Alpha  occ. eigenvalues --   -0.16669  -0.13161  -0.12532  -0.10017
 Alpha virt. eigenvalues --   -0.07460  -0.05582  -0.05114  -0.03393  -0.03162
 Alpha virt. eigenvalues --   -0.02210  -0.01935  -0.01733  -0.01161  -0.00812
 Alpha virt. eigenvalues --   -0.00377  -0.00117   0.00109   0.00341   0.00470

  Beta  occ. eigenvalues --  -38.45516 -38.45255 -38.44848 -38.44355 -38.44084
  Beta  occ. eigenvalues --  -38.43874 -38.43771  -2.21274  -2.21065  -2.20594
  Beta  occ. eigenvalues --   -2.20089  -2.19872  -2.19620  -2.19537  -1.14967
  Beta  occ. eigenvalues --   -1.14927  -1.14892  -1.14806  -1.14724  -1.14662
  Beta  occ. eigenvalues --   -1.14277  -1.14267  -1.14225  -1.13768  -1.13744
  Beta  occ. eigenvalues --   -1.13734  -1.13606  -1.13549  -1.13502  -1.13319
  Beta  occ. eigenvalues --   -1.13311  -1.13239  -1.13221  -1.13207  -1.13188
  Beta  occ. eigenvalues --   -0.16070  -0.12959  -0.12241
  Beta virt. eigenvalues --   -0.07365  -0.06724  -0.05164  -0.04635  -0.03070
  Beta virt. eigenvalues --   -0.02785  -0.01944  -0.01773  -0.01385  -0.00934
  Beta virt. eigenvalues --   -0.00662  -0.00268   0.00116   0.00271   0.00428

 Mulliken charges and spin densities:
               1          2
     1  Na   0.375358   0.054799
     2  Na   0.105202   0.020038
     3  Na  -0.588013   0.000616
     4  Na   0.426729   0.068302
     5  Na  -0.288794   0.091731
     6  Na   0.217820   0.452517
     7  Na  -0.248301   0.311997
 Sum of Mulliken charges =  -0.00000   1.00000

 Dipole moment (field-independent basis, Debye):
    X=              0.9492    Y=             -0.3824    Z=              0.2143  Tot=              1.0455
 Quadrupole moment (field-independent basis, Debye-Ang):
   XX=            -59.4746   YY=            -67.3951   ZZ=            -71.9536
   XY=             -3.9246   XZ=             -2.9215   YZ=             -2.9340

 Normal termination of Gaussian 16 at Mon Dec  4 01:06:14 2023.
