 Gaussian 16, Revision B.01,
 Gaussian 16:  ES64L-G16RevB.01 20-Dec-2017

 -------------------------
 #P B3LYP/6-311+g(d) force
 -------------------------

 -----
 DPGEN
 -----
 Symbolic Z-matrix:
 Charge =  0 Multiplicity = 2

                         Standard orientation:
 ---------------------------------------------------------------------
 Center     Atomic      Atomic             Coordinates (Angstroms)
 Number     Number       Type             X           Y           Z
 ---------------------------------------------------------------------
      1         11           0        2.331037   -2.611777   -0.283591
      2         11           0       -3.507303   -1.640992   -1.006297
      3         11           0        4.742961   -0.269796   -0.100019
      4         11           0        2.644896    2.572783   -0.160833
      5         11           0       -3.853407    1.833234   -0.009284
      6         11           0       -0.896801    3.617023    0.487903
      7         11           0       -1.461382   -3.500476    1.072121
 ---------------------------------------------------------------------

 SCF Done:  E(UB3LYP) =  -1136.10709987     A.U. after   24 cycles

 The electronic state is 2-A.
 Alpha  occ. eigenvalues --  -38.45983 -38.45249 -38.44930 -38.44367 -38.44214
 Alpha  occ. eigenvalues --  -38.43853 -38.43852  -2.21727  -2.21001  -2.20698
 Alpha  occ. eigenvalues --   -2.20119  -2.20020  -2.19646  -2.19635  -1.15412
 Alpha  occ. eigenvalues --   -1.15397  -1.15342  -1.14689  -1.14674  -1.14637
 Alpha  occ. eigenvalues --   -1.14375  -1.14362  -1.14310  -1.13808  -1.13799
 Alpha  occ. eigenvalues --   -1.13755  -1.13680  -1.13672  -1.13664  -1.13309
 Alpha  occ. eigenvalues --   -1.13297  -1.13291  -1.13277  -1.13273  -1.13271
 Alpha  occ. eigenvalues --   -0.15393  -0.13979  -0.13142  -0.10636
 Alpha virt. eigenvalues --   -0.07826  -0.05201  -0.04443  -0.03444  -0.03316
 Alpha virt. eigenvalues --   -0.02661  -0.02308  -0.02022  -0.01243  -0.00796
 Alpha virt. eigenvalues --   -0.00371  -0.00284  -0.00027   0.00345   0.00512

  Beta  occ. eigenvalues --  -38.45952 -38.45248 -38.44880 -38.44373 -38.44190
  Beta  occ. eigenvalues --  -38.43804 -38.43801  -2.21675  -2.21004  -2.20607
  Beta  occ. eigenvalues --   -2.20133  -2.19978  -2.19555  -2.19539  -1.15381
  Beta  occ. eigenvalues --   -1.15366  -1.15276  -1.14696  -1.14679  -1.14605
  Beta  occ. eigenvalues --   -1.14315  -1.14302  -1.14235  -1.13821  -1.13812
  Beta  occ. eigenvalues --   -1.13739  -1.13653  -1.13642  -1.13629  -1.13246
  Beta  occ. eigenvalues --   -1.13237  -1.13225  -1.13214  -1.13213  -1.13209
  Beta  occ. eigenvalues --   -0.14865  -0.13452  -0.12487
  Beta virt. eigenvalues --   -0.07961  -0.07378  -0.04774  -0.03952  -0.03240
  Beta virt. eigenvalues --   -0.02941  -0.02419  -0.02092  -0.01910  -0.01122
  Beta virt. eigenvalues --   -0.00578  -0.00125   0.00037   0.00143   0.00316

 Mulliken charges and spin densities:
               1          2
     1  Na  -0.335222   0.204434
     2  Na   0.000553  -0.027196
     3  Na   0.461030   0.147070
     4  Na  -0.183231   0.269914
     5  Na  -0.044756   0.254616
     6  Na   0.149303  -0.095093
     7  Na  -0.047678   0.246254
 Sum of Mulliken charges =  -0.00000   1.00000

 Dipole moment (field-independent basis, Debye):
    X=              0.8587    Y=             -0.5929    Z=             -0.2360  Tot=              1.0698
 Quadrupole moment (field-independent basis, Debye-Ang):
   XX=            -60.5813   YY=            -69.3431   ZZ=            -70.7493
   XY=              1.3052   XZ=              0.9661   YZ=              1.3188

 Normal termination of Gaussian 16 at Sun Dec  3 14:20:49 2023.
