 Gaussian 16, Revision B.01,
 Gaussian 16:  ES64L-G16RevB.01 20-Dec-2017

 -------------------------
 #P B3LYP/6-311+g(d) force
 -------------------------

 -----
 DPGEN
 -----
 Symbolic Z-matrix:
 Charge =  0 Multiplicity = 2

                         Standard orientation:
 ---------------------------------------------------------------------
 Center     Atomic      Atomic             Coordinates (Angstroms)
 Number     Number       Type             X           Y           Z
 ---------------------------------------------------------------------
      1         11           0        3.016106    0.812261   -0.472444
      2         11           0       -0.479650    3.192709   -0.071330
      3         11           0       -2.902818    0.673632   -0.065767
      4         11           0        1.752418   -2.199666   -0.216859
      5         11           0       -1.833389   -2.616330    0.059809
      6         11           0        0.638935    0.146000    2.211077
      7         11           0       -0.191601   -0.008606   -1.444485
 ---------------------------------------------------------------------

 SCF Done:  E(UB3LYP) =  -1136.13611789     A.U. after   19 cycles

 The electronic state is 2-A.
 Alpha  occ. eigenvalues --  -38.43966 -38.43837 -38.43763 -38.43696 -38.43583
 Alpha  occ. eigenvalues --  -38.43495 -38.43034  -2.19807  -2.19696  -2.19564
 Alpha  occ. eigenvalues --   -2.19549  -2.19478  -2.19321  -2.19052  -1.13488
 Alpha  occ. eigenvalues --   -1.13467  -1.13450  -1.13423  -1.13356  -1.13318
 Alpha  occ. eigenvalues --   -1.13237  -1.13221  -1.13213  -1.13202  -1.13188
 Alpha  occ. eigenvalues --   -1.13176  -1.13170  -1.13126  -1.13095  -1.12991
 Alpha  occ. eigenvalues --   -1.12981  -1.12965  -1.12735  -1.12704  -1.12661
 Alpha  occ. eigenvalues --   -0.18505  -0.13103  -0.12409  -0.10644
 Alpha virt. eigenvalues --   -0.05560  -0.05097  -0.05038  -0.03159  -0.02819
 Alpha virt. eigenvalues --   -0.02516  -0.01437  -0.01291  -0.00491  -0.00380
 Alpha virt. eigenvalues --   -0.00023   0.00340   0.00793   0.00836   0.00858

  Beta  occ. eigenvalues --  -38.43954 -38.43835 -38.43762 -38.43591 -38.43573
  Beta  occ. eigenvalues --  -38.43495 -38.42985  -2.19790  -2.19694  -2.19565
  Beta  occ. eigenvalues --   -2.19464  -2.19355  -2.19323  -2.18964  -1.13475
  Beta  occ. eigenvalues --   -1.13446  -1.13427  -1.13416  -1.13341  -1.13321
  Beta  occ. eigenvalues --   -1.13228  -1.13216  -1.13205  -1.13183  -1.13108
  Beta  occ. eigenvalues --   -1.13088  -1.13067  -1.13036  -1.13028  -1.12988
  Beta  occ. eigenvalues --   -1.12977  -1.12964  -1.12670  -1.12636  -1.12599
  Beta  occ. eigenvalues --   -0.17806  -0.12868  -0.12231
  Beta virt. eigenvalues --   -0.06673  -0.05553  -0.05077  -0.04947  -0.02400
  Beta virt. eigenvalues --   -0.02079  -0.01470  -0.01340  -0.01215  -0.00531
  Beta virt. eigenvalues --   -0.00419   0.00158   0.00384   0.00834   0.00841

 Mulliken charges and spin densities:
               1          2
     1  Na   0.270659   0.004802
     2  Na   0.069903  -0.049010
     3  Na   0.210172   0.010077
     4  Na   0.374962   0.110721
     5  Na   0.069421   0.021004
     6  Na  -0.704342   0.760603
     7  Na  -0.290774   0.141803
 Sum of Mulliken charges =  -0.00000   1.00000

 Dipole moment (field-independent basis, Debye):
    X=              0.0943    Y=              0.1997    Z=              0.1592  Tot=              0.2723
 Quadrupole moment (field-independent basis, Debye-Ang):
   XX=            -58.5027   YY=            -59.7128   ZZ=            -75.1311
   XY=              1.1412   XZ=             -1.8284   YZ=             -0.4612

 Normal termination of Gaussian 16 at Thu Dec  7 07:53:49 2023.
