 Gaussian 16, Revision B.01,
 Gaussian 16:  ES64L-G16RevB.01 20-Dec-2017

 -------------------------
 #P B3LYP/6-311+g(d) force
 -------------------------

 -----
 DPGEN
 -----
 Symbolic Z-matrix:
 Charge =  0 Multiplicity = 2

                         Standard orientation:
 ---------------------------------------------------------------------
 Center     Atomic      Atomic             Coordinates (Angstroms)
 Number     Number       Type             X           Y           Z
 ---------------------------------------------------------------------
      1         11           0       -6.027853   -0.280784    0.532370
      2         11           0       -7.176214    2.291296   -0.250932
      3         11           0       -2.606752   -1.501018   -0.904769
      4         11           0        0.468099   -1.633682    0.964168
      5         11           0        3.426611   -2.259347   -0.274662
      6         11           0        6.207479    0.057716   -0.165553
      7         11           0        5.708631    3.325820    0.099377
 ---------------------------------------------------------------------

 SCF Done:  E(UB3LYP) =  -1136.10474456     A.U. after   19 cycles

 The electronic state is 2-A.
 Alpha  occ. eigenvalues --  -38.44880 -38.44787 -38.44596 -38.44401 -38.44217
 Alpha  occ. eigenvalues --  -38.44168 -38.44164  -2.20658  -2.20570  -2.20420
 Alpha  occ. eigenvalues --   -2.20214  -2.19988  -2.19983  -2.19933  -1.14314
 Alpha  occ. eigenvalues --   -1.14306  -1.14263  -1.14215  -1.14214  -1.14196
 Alpha  occ. eigenvalues --   -1.14156  -1.14051  -1.14048  -1.13877  -1.13863
 Alpha  occ. eigenvalues --   -1.13841  -1.13670  -1.13661  -1.13639  -1.13636
 Alpha  occ. eigenvalues --   -1.13635  -1.13621  -1.13615  -1.13604  -1.13587
 Alpha  occ. eigenvalues --   -0.15049  -0.14274  -0.12844  -0.11264
 Alpha virt. eigenvalues --   -0.07031  -0.05127  -0.04368  -0.03293  -0.03096
 Alpha virt. eigenvalues --   -0.02840  -0.02280  -0.02060  -0.01570  -0.00987
 Alpha virt. eigenvalues --   -0.00760  -0.00448  -0.00273   0.00202   0.00362

  Beta  occ. eigenvalues --  -38.44797 -38.44719 -38.44554 -38.44333 -38.44240
  Beta  occ. eigenvalues --  -38.44182 -38.44173  -2.20502  -2.20442  -2.20341
  Beta  occ. eigenvalues --   -2.20085  -2.20036  -2.19998  -2.19971  -1.14207
  Beta  occ. eigenvalues --   -1.14198  -1.14164  -1.14128  -1.14126  -1.14114
  Beta  occ. eigenvalues --   -1.14109  -1.13997  -1.13994  -1.13805  -1.13774
  Beta  occ. eigenvalues --   -1.13763  -1.13707  -1.13693  -1.13652  -1.13646
  Beta  occ. eigenvalues --   -1.13645  -1.13634  -1.13626  -1.13601  -1.13578
  Beta  occ. eigenvalues --   -0.14471  -0.13704  -0.12284
  Beta virt. eigenvalues --   -0.08201  -0.06499  -0.04781  -0.04074  -0.03133
  Beta virt. eigenvalues --   -0.02913  -0.02597  -0.02070  -0.01791  -0.01335
  Beta virt. eigenvalues --   -0.00567  -0.00530  -0.00286   0.00023   0.00239

 Mulliken charges and spin densities:
               1          2
     1  Na  -0.354900  -0.020000
     2  Na   0.316071   0.174666
     3  Na   0.108828   0.380590
     4  Na  -0.313006  -0.066777
     5  Na   0.214258   0.286387
     6  Na  -0.164589  -0.070472
     7  Na   0.193339   0.315607
 Sum of Mulliken charges =  -0.00000   1.00000

 Dipole moment (field-independent basis, Debye):
    X=             -0.4339    Y=              0.9134    Z=             -0.2249  Tot=              1.0359
 Quadrupole moment (field-independent basis, Debye-Ang):
   XX=            -66.6747   YY=            -59.9131   ZZ=            -70.8926
   XY=             -4.6915   XZ=              1.2858   YZ=             -0.0006

 Normal termination of Gaussian 16 at Sun Dec  3 21:36:10 2023.
