 Gaussian 16, Revision B.01,
 Gaussian 16:  ES64L-G16RevB.01 20-Dec-2017

 -------------------------
 #P B3LYP/6-311+g(d) force
 -------------------------

 -----
 DPGEN
 -----
 Symbolic Z-matrix:
 Charge =  0 Multiplicity = 2

                         Standard orientation:
 ---------------------------------------------------------------------
 Center     Atomic      Atomic             Coordinates (Angstroms)
 Number     Number       Type             X           Y           Z
 ---------------------------------------------------------------------
      1         11           0        0.632613    2.485272   -0.402781
      2         11           0        3.792163   -0.081575   -0.230388
      3         11           0       -2.020274   -2.127660    0.278758
      4         11           0        0.979511   -0.023212    2.341783
      5         11           0        1.247725   -1.645888   -0.976460
      6         11           0       -2.870114    0.930021    1.050669
      7         11           0       -1.761623    0.463043   -2.061583
 ---------------------------------------------------------------------

 SCF Done:  E(UB3LYP) =  -1136.12483871     A.U. after   24 cycles

 The electronic state is 2-A.
 Alpha  occ. eigenvalues --  -38.45068 -38.45054 -38.44768 -38.44227 -38.43123
 Alpha  occ. eigenvalues --  -38.42937 -38.42902  -2.20874  -2.20854  -2.20591
 Alpha  occ. eigenvalues --   -2.20093  -2.18994  -2.18790  -2.18696  -1.14577
 Alpha  occ. eigenvalues --   -1.14526  -1.14520  -1.14497  -1.14489  -1.14464
 Alpha  occ. eigenvalues --   -1.14271  -1.14262  -1.14218  -1.13766  -1.13742
 Alpha  occ. eigenvalues --   -1.13698  -1.12669  -1.12657  -1.12642  -1.12465
 Alpha  occ. eigenvalues --   -1.12446  -1.12438  -1.12389  -1.12370  -1.12315
 Alpha  occ. eigenvalues --   -0.18022  -0.13706  -0.11525  -0.11028
 Alpha virt. eigenvalues --   -0.06705  -0.04968  -0.04672  -0.03289  -0.03062
 Alpha virt. eigenvalues --   -0.02781  -0.02149  -0.00767  -0.00541  -0.00344
 Alpha virt. eigenvalues --    0.00028   0.00151   0.00352   0.00632   0.00758

  Beta  occ. eigenvalues --  -38.45069 -38.44976 -38.44755 -38.44168 -38.43105
  Beta  occ. eigenvalues --  -38.42931 -38.42892  -2.20876  -2.20709  -2.20570
  Beta  occ. eigenvalues --   -2.19984  -2.18961  -2.18781  -2.18680  -1.14575
  Beta  occ. eigenvalues --   -1.14523  -1.14497  -1.14424  -1.14389  -1.14361
  Beta  occ. eigenvalues --   -1.14260  -1.14226  -1.14204  -1.13686  -1.13673
  Beta  occ. eigenvalues --   -1.13618  -1.12649  -1.12625  -1.12615  -1.12460
  Beta  occ. eigenvalues --   -1.12437  -1.12418  -1.12377  -1.12342  -1.12308
  Beta  occ. eigenvalues --   -0.17286  -0.13559  -0.10833
  Beta virt. eigenvalues --   -0.07702  -0.06432  -0.04635  -0.04282  -0.03067
  Beta virt. eigenvalues --   -0.02290  -0.02121  -0.02022  -0.00643  -0.00252
  Beta virt. eigenvalues --   -0.00227   0.00174   0.00250   0.00381   0.00783

 Mulliken charges and spin densities:
               1          2
     1  Na  -0.331539   0.060756
     2  Na   0.567232  -0.099286
     3  Na   0.051649   0.097556
     4  Na  -0.236676   0.400973
     5  Na  -0.384347   0.178122
     6  Na   0.234248   0.125196
     7  Na   0.099433   0.236682
 Sum of Mulliken charges =  -0.00000   1.00000

 Dipole moment (field-independent basis, Debye):
    X=              0.5467    Y=              0.2658    Z=              0.4591  Tot=              0.7617
 Quadrupole moment (field-independent basis, Debye-Ang):
   XX=            -50.9530   YY=            -78.7758   ZZ=            -65.4929
   XY=              0.3193   XZ=             -1.0440   YZ=             -0.6552

 Normal termination of Gaussian 16 at Thu Dec  7 08:24:04 2023.
