 Gaussian 16, Revision B.01,
 Gaussian 16:  ES64L-G16RevB.01 20-Dec-2017

 -------------------------
 #P B3LYP/6-311+g(d) force
 -------------------------

 -----
 DPGEN
 -----
 Symbolic Z-matrix:
 Charge =  0 Multiplicity = 2

                         Standard orientation:
 ---------------------------------------------------------------------
 Center     Atomic      Atomic             Coordinates (Angstroms)
 Number     Number       Type             X           Y           Z
 ---------------------------------------------------------------------
      1         11           0        3.946651   -1.669702   -0.734845
      2         11           0       -5.041963   -0.038015    1.442311
      3         11           0       -3.164400    2.190776   -0.845242
      4         11           0       -3.417333   -1.485285   -1.427701
      5         11           0        0.185613   -0.936363    0.186052
      6         11           0        2.984849    0.202246    2.387002
      7         11           0        4.506583    1.736342   -1.007577
 ---------------------------------------------------------------------

 SCF Done:  E(UB3LYP) =  -1136.09032220     A.U. after   34 cycles

 The electronic state is 2-A.
 Alpha  occ. eigenvalues --  -38.47044 -38.45387 -38.44749 -38.44479 -38.44108
 Alpha  occ. eigenvalues --  -38.43519 -38.42897  -2.22764  -2.21166  -2.20540
 Alpha  occ. eigenvalues --   -2.20290  -2.19909  -2.19272  -2.18646  -1.16453
 Alpha  occ. eigenvalues --   -1.16423  -1.16388  -1.14833  -1.14822  -1.14769
 Alpha  occ. eigenvalues --   -1.14223  -1.14178  -1.14152  -1.13972  -1.13916
 Alpha  occ. eigenvalues --   -1.13900  -1.13582  -1.13528  -1.13521  -1.12958
 Alpha  occ. eigenvalues --   -1.12946  -1.12920  -1.12360  -1.12349  -1.12267
 Alpha  occ. eigenvalues --   -0.15976  -0.14779  -0.10463  -0.09913
 Alpha virt. eigenvalues --   -0.07752  -0.06389  -0.05578  -0.03278  -0.02702
 Alpha virt. eigenvalues --   -0.02113  -0.01964  -0.01945  -0.01756  -0.01076
 Alpha virt. eigenvalues --   -0.00725  -0.00595  -0.00159   0.00017   0.00135

  Beta  occ. eigenvalues --  -38.47050 -38.45332 -38.44708 -38.44409 -38.44026
  Beta  occ. eigenvalues --  -38.43547 -38.42929  -2.22779  -2.21064  -2.20464
  Beta  occ. eigenvalues --   -2.20160  -2.19755  -2.19327  -2.18708  -1.16465
  Beta  occ. eigenvalues --   -1.16415  -1.16400  -1.14759  -1.14746  -1.14704
  Beta  occ. eigenvalues --   -1.14167  -1.14127  -1.14104  -1.13881  -1.13830
  Beta  occ. eigenvalues --   -1.13811  -1.13475  -1.13430  -1.13416  -1.12998
  Beta  occ. eigenvalues --   -1.12976  -1.12953  -1.12408  -1.12391  -1.12285
  Beta  occ. eigenvalues --   -0.15583  -0.14431  -0.10029
  Beta virt. eigenvalues --   -0.07594  -0.06634  -0.06062  -0.05261  -0.03156
  Beta virt. eigenvalues --   -0.02521  -0.01976  -0.01511  -0.01457  -0.01286
  Beta virt. eigenvalues --   -0.00964  -0.00367  -0.00352  -0.00037   0.00029

 Mulliken charges and spin densities:
               1          2
     1  Na   0.559992   0.439943
     2  Na   0.229775   0.302644
     3  Na   0.213596  -0.000117
     4  Na  -0.249890   0.424329
     5  Na  -1.217531  -0.158494
     6  Na   0.439966   0.226473
     7  Na   0.024091  -0.234777
 Sum of Mulliken charges =  -0.00000   1.00000

 Dipole moment (field-independent basis, Debye):
    X=             -2.3028    Y=              0.7016    Z=             -0.2980  Tot=              2.4257
 Quadrupole moment (field-independent basis, Debye-Ang):
   XX=            -72.3332   YY=            -61.7985   ZZ=            -72.7836
   XY=              0.1388   XZ=              5.1285   YZ=             -5.3098

 Normal termination of Gaussian 16 at Fri Dec  8 18:58:12 2023.
