 Gaussian 16, Revision B.01,
 Gaussian 16:  ES64L-G16RevB.01 20-Dec-2017

 -------------------------
 #P B3LYP/6-311+g(d) force
 -------------------------

 -----
 DPGEN
 -----
 Symbolic Z-matrix:
 Charge =  0 Multiplicity = 2

                         Standard orientation:
 ---------------------------------------------------------------------
 Center     Atomic      Atomic             Coordinates (Angstroms)
 Number     Number       Type             X           Y           Z
 ---------------------------------------------------------------------
      1         11           0       -0.779281   -2.726903   -0.363373
      2         11           0       -0.027034    0.074379    1.679745
      3         11           0       -3.178876   -0.209369    0.341314
      4         11           0       -0.155598   -0.003817   -1.559976
      5         11           0        2.658149   -1.595744    0.184051
      6         11           0       -0.790657    2.836091   -0.246673
      7         11           0        2.273298    1.625364   -0.035087
 ---------------------------------------------------------------------

 SCF Done:  E(UB3LYP) =  -1136.13673640     A.U. after   19 cycles

 The electronic state is 2-A.
 Alpha  occ. eigenvalues --  -38.44051 -38.43596 -38.43500 -38.43433 -38.43372
 Alpha  occ. eigenvalues --  -38.43025 -38.42854  -2.19881  -2.19453  -2.19387
 Alpha  occ. eigenvalues --   -2.19367  -2.19259  -2.19032  -2.18917  -1.13556
 Alpha  occ. eigenvalues --   -1.13536  -1.13519  -1.13160  -1.13138  -1.13120
 Alpha  occ. eigenvalues --   -1.13096  -1.13074  -1.13040  -1.13034  -1.12994
 Alpha  occ. eigenvalues --   -1.12987  -1.12953  -1.12915  -1.12872  -1.12753
 Alpha  occ. eigenvalues --   -1.12652  -1.12634  -1.12582  -1.12542  -1.12511
 Alpha  occ. eigenvalues --   -0.19208  -0.13139  -0.12745  -0.10493
 Alpha virt. eigenvalues --   -0.05561  -0.04944  -0.04861  -0.03036  -0.02784
 Alpha virt. eigenvalues --   -0.02076  -0.01585  -0.01194  -0.00291  -0.00162
 Alpha virt. eigenvalues --    0.00054   0.00347   0.00832   0.00909   0.00914

  Beta  occ. eigenvalues --  -38.44042 -38.43592 -38.43487 -38.43425 -38.43363
  Beta  occ. eigenvalues --  -38.42951 -38.42782  -2.19866  -2.19449  -2.19367
  Beta  occ. eigenvalues --   -2.19356  -2.19247  -2.18897  -2.18786  -1.13534
  Beta  occ. eigenvalues --   -1.13519  -1.13510  -1.13160  -1.13119  -1.13103
  Beta  occ. eigenvalues --   -1.13079  -1.13069  -1.13007  -1.13003  -1.12981
  Beta  occ. eigenvalues --   -1.12977  -1.12938  -1.12889  -1.12862  -1.12664
  Beta  occ. eigenvalues --   -1.12560  -1.12533  -1.12489  -1.12444  -1.12422
  Beta  occ. eigenvalues --   -0.18506  -0.12852  -0.12457
  Beta virt. eigenvalues --   -0.06605  -0.05508  -0.04949  -0.04835  -0.02256
  Beta virt. eigenvalues --   -0.02024  -0.01470  -0.01122  -0.01070  -0.00317
  Beta virt. eigenvalues --   -0.00210   0.00170   0.00382   0.00860   0.00908

 Mulliken charges and spin densities:
               1          2
     1  Na   0.153924  -0.040747
     2  Na  -0.399337   0.709564
     3  Na   0.018916  -0.033024
     4  Na  -0.288788   0.479198
     5  Na   0.080525  -0.040394
     6  Na   0.195397  -0.059743
     7  Na   0.239363  -0.014853
 Sum of Mulliken charges =  -0.00000   1.00000

 Dipole moment (field-independent basis, Debye):
    X=             -0.2642    Y=             -0.0605    Z=              0.1085  Tot=              0.2919
 Quadrupole moment (field-independent basis, Debye-Ang):
   XX=            -55.4882   YY=            -60.3105   ZZ=            -75.8759
   XY=             -0.8447   XZ=             -0.3551   YZ=             -0.2769

 Normal termination of Gaussian 16 at Thu Dec  7 10:44:28 2023.
