 Gaussian 16, Revision B.01,
 Gaussian 16:  ES64L-G16RevB.01 20-Dec-2017

 -------------------------
 #P B3LYP/6-311+g(d) force
 -------------------------

 -----
 DPGEN
 -----
 Symbolic Z-matrix:
 Charge =  0 Multiplicity = 2

                         Standard orientation:
 ---------------------------------------------------------------------
 Center     Atomic      Atomic             Coordinates (Angstroms)
 Number     Number       Type             X           Y           Z
 ---------------------------------------------------------------------
      1         11           0        2.773824    1.736341   -0.360015
      2         11           0       -0.248688    0.170118    1.945866
      3         11           0        0.296482   -0.608044   -1.601733
      4         11           0        3.219429   -2.028976    0.341882
      5         11           0       -3.544847    0.502139   -0.181988
      6         11           0       -1.972470   -2.649239   -0.094018
      7         11           0       -0.523729    2.877661   -0.049994
 ---------------------------------------------------------------------

 SCF Done:  E(UB3LYP) =  -1136.12627521     A.U. after   21 cycles

 The electronic state is 2-A.
 Alpha  occ. eigenvalues --  -38.45206 -38.44656 -38.44354 -38.44024 -38.43686
 Alpha  occ. eigenvalues --  -38.43547 -38.42973  -2.20970  -2.20398  -2.20151
 Alpha  occ. eigenvalues --   -2.19825  -2.19543  -2.19404  -2.18803  -1.14650
 Alpha  occ. eigenvalues --   -1.14617  -1.14614  -1.14068  -1.14058  -1.14034
 Alpha  occ. eigenvalues --   -1.13830  -1.13810  -1.13780  -1.13507  -1.13486
 Alpha  occ. eigenvalues --   -1.13462  -1.13245  -1.13184  -1.13157  -1.13082
 Alpha  occ. eigenvalues --   -1.13037  -1.13014  -1.12486  -1.12471  -1.12440
 Alpha  occ. eigenvalues --   -0.17691  -0.13193  -0.11924  -0.10025
 Alpha virt. eigenvalues --   -0.06694  -0.05858  -0.04561  -0.03144  -0.02609
 Alpha virt. eigenvalues --   -0.02303  -0.02083  -0.01620  -0.01033  -0.00510
 Alpha virt. eigenvalues --   -0.00114   0.00229   0.00588   0.00634   0.00693

  Beta  occ. eigenvalues --  -38.45206 -38.44649 -38.44343 -38.44020 -38.43637
  Beta  occ. eigenvalues --  -38.43457 -38.42969  -2.20972  -2.20385  -2.20131
  Beta  occ. eigenvalues --   -2.19820  -2.19454  -2.19238  -2.18800  -1.14643
  Beta  occ. eigenvalues --   -1.14618  -1.14613  -1.14056  -1.14045  -1.14027
  Beta  occ. eigenvalues --   -1.13803  -1.13796  -1.13768  -1.13501  -1.13469
  Beta  occ. eigenvalues --   -1.13459  -1.13180  -1.13118  -1.13093  -1.12968
  Beta  occ. eigenvalues --   -1.12921  -1.12895  -1.12482  -1.12458  -1.12428
  Beta  occ. eigenvalues --   -0.17029  -0.12998  -0.11709
  Beta virt. eigenvalues --   -0.06630  -0.06293  -0.05750  -0.04480  -0.02525
  Beta virt. eigenvalues --   -0.02184  -0.01879  -0.01534  -0.01196  -0.01030
  Beta virt. eigenvalues --   -0.00525   0.00068   0.00274   0.00659   0.00679

 Mulliken charges and spin densities:
               1          2
     1  Na   0.108223   0.024932
     2  Na  -0.131366   0.787689
     3  Na   0.081732   0.377264
     4  Na  -0.054429  -0.016867
     5  Na   0.022466  -0.036567
     6  Na   0.116349  -0.057743
     7  Na  -0.142974  -0.078709
 Sum of Mulliken charges =  -0.00000   1.00000

 Dipole moment (field-independent basis, Debye):
    X=             -0.2249    Y=             -0.2444    Z=             -0.0553  Tot=              0.3367
 Quadrupole moment (field-independent basis, Debye-Ang):
   XX=            -49.7631   YY=            -64.2755   ZZ=            -77.8813
   XY=             -0.8226   XZ=              1.1417   YZ=             -2.0505

 Normal termination of Gaussian 16 at Thu Dec  7 14:22:48 2023.
