 Gaussian 16, Revision B.01,
 Gaussian 16:  ES64L-G16RevB.01 20-Dec-2017

 -------------------------
 #P B3LYP/6-311+g(d) force
 -------------------------

 -----
 DPGEN
 -----
 Symbolic Z-matrix:
 Charge =  0 Multiplicity = 2

                         Standard orientation:
 ---------------------------------------------------------------------
 Center     Atomic      Atomic             Coordinates (Angstroms)
 Number     Number       Type             X           Y           Z
 ---------------------------------------------------------------------
      1         11           0       -1.158636   -2.970417   -1.639137
      2         11           0       -2.951804   -0.422615    0.675863
      3         11           0        2.399211    0.653282    1.228875
      4         11           0       -2.754350    3.187466   -0.370693
      5         11           0        5.148704    0.455479   -0.733943
      6         11           0       -0.281624   -1.541861    2.020655
      7         11           0       -0.401502    0.638664   -1.181620
 ---------------------------------------------------------------------

 SCF Done:  E(UB3LYP) =  -1136.11370021     A.U. after   24 cycles

 The electronic state is 2-A.
 Alpha  occ. eigenvalues --  -38.45159 -38.45088 -38.44771 -38.44210 -38.43923
 Alpha  occ. eigenvalues --  -38.43678 -38.43032  -2.21007  -2.20843  -2.20609
 Alpha  occ. eigenvalues --   -2.20012  -2.19728  -2.19544  -2.18806  -1.14724
 Alpha  occ. eigenvalues --   -1.14697  -1.14591  -1.14502  -1.14502  -1.14470
 Alpha  occ. eigenvalues --   -1.14310  -1.14279  -1.14215  -1.13670  -1.13662
 Alpha  occ. eigenvalues --   -1.13610  -1.13417  -1.13398  -1.13359  -1.13225
 Alpha  occ. eigenvalues --   -1.13190  -1.13143  -1.12480  -1.12478  -1.12439
 Alpha  occ. eigenvalues --   -0.17459  -0.13218  -0.11676  -0.11120
 Alpha virt. eigenvalues --   -0.07441  -0.05323  -0.04239  -0.03177  -0.02757
 Alpha virt. eigenvalues --   -0.02710  -0.02452  -0.01404  -0.01143  -0.00788
 Alpha virt. eigenvalues --   -0.00316  -0.00115   0.00052   0.00562   0.00669

  Beta  occ. eigenvalues --  -38.45155 -38.45064 -38.44754 -38.44127 -38.43914
  Beta  occ. eigenvalues --  -38.43613 -38.43040  -2.21003  -2.20796  -2.20581
  Beta  occ. eigenvalues --   -2.19858  -2.19714  -2.19426  -2.18822  -1.14717
  Beta  occ. eigenvalues --   -1.14670  -1.14599  -1.14470  -1.14469  -1.14440
  Beta  occ. eigenvalues --   -1.14278  -1.14258  -1.14193  -1.13563  -1.13549
  Beta  occ. eigenvalues --   -1.13513  -1.13413  -1.13391  -1.13320  -1.13144
  Beta  occ. eigenvalues --   -1.13111  -1.13056  -1.12490  -1.12488  -1.12449
  Beta  occ. eigenvalues --   -0.16844  -0.12939  -0.11480
  Beta virt. eigenvalues --   -0.07429  -0.07043  -0.05003  -0.03992  -0.03001
  Beta virt. eigenvalues --   -0.02481  -0.02297  -0.01973  -0.01154  -0.00675
  Beta virt. eigenvalues --   -0.00665  -0.00181   0.00096   0.00123   0.00625

 Mulliken charges and spin densities:
               1          2
     1  Na  -0.136074   0.286086
     2  Na   0.374275   0.164585
     3  Na   0.046912  -0.061171
     4  Na   0.116047  -0.124769
     5  Na  -0.006451   0.169613
     6  Na   0.067441   0.187189
     7  Na  -0.462149   0.378468
 Sum of Mulliken charges =  -0.00000   1.00000

 Dipole moment (field-independent basis, Debye):
    X=              0.3754    Y=             -0.7250    Z=             -0.1104  Tot=              0.8239
 Quadrupole moment (field-independent basis, Debye-Ang):
   XX=            -54.9565   YY=            -69.3161   ZZ=            -70.3353
   XY=              1.3684   XZ=             -6.9427   YZ=              1.3557

 Normal termination of Gaussian 16 at Wed Nov 29 00:12:58 2023.
