 Gaussian 16, Revision B.01,
 Gaussian 16:  ES64L-G16RevB.01 20-Dec-2017

 -------------------------
 #P B3LYP/6-311+g(d) force
 -------------------------

 -----
 DPGEN
 -----
 Symbolic Z-matrix:
 Charge =  0 Multiplicity = 2

                         Standard orientation:
 ---------------------------------------------------------------------
 Center     Atomic      Atomic             Coordinates (Angstroms)
 Number     Number       Type             X           Y           Z
 ---------------------------------------------------------------------
      1         11           0        1.772135    0.174030   -1.667069
      2         11           0        2.167357    2.369077    0.949408
      3         11           0       -3.840431   -0.156269    0.685137
      4         11           0       -1.149824   -1.716259   -1.451799
      5         11           0       -1.542028    1.959724   -0.978868
      6         11           0       -0.367432   -0.838927    2.086322
      7         11           0        2.960222   -1.791377    0.376869
 ---------------------------------------------------------------------

 SCF Done:  E(UB3LYP) =  -1136.12230321     A.U. after   23 cycles

 The electronic state is 2-A.
 Alpha  occ. eigenvalues --  -38.44954 -38.44652 -38.44385 -38.44212 -38.43649
 Alpha  occ. eigenvalues --  -38.43635 -38.43563  -2.20734  -2.20441  -2.20209
 Alpha  occ. eigenvalues --   -2.20012  -2.19552  -2.19415  -2.19354  -1.14406
 Alpha  occ. eigenvalues --   -1.14392  -1.14366  -1.14111  -1.14093  -1.14052
 Alpha  occ. eigenvalues --   -1.13902  -1.13858  -1.13815  -1.13744  -1.13660
 Alpha  occ. eigenvalues --   -1.13641  -1.13234  -1.13218  -1.13169  -1.13086
 Alpha  occ. eigenvalues --   -1.13061  -1.13045  -1.13042  -1.13032  -1.12969
 Alpha  occ. eigenvalues --   -0.17766  -0.13514  -0.11449  -0.10961
 Alpha virt. eigenvalues --   -0.06578  -0.05405  -0.04778  -0.03227  -0.02915
 Alpha virt. eigenvalues --   -0.02744  -0.02159  -0.01029  -0.00886  -0.00181
 Alpha virt. eigenvalues --    0.00017   0.00145   0.00290   0.00484   0.00634

  Beta  occ. eigenvalues --  -38.44947 -38.44588 -38.44333 -38.44218 -38.43615
  Beta  occ. eigenvalues --  -38.43611 -38.43554  -2.20723  -2.20322  -2.20115
  Beta  occ. eigenvalues --   -2.20025  -2.19492  -2.19370  -2.19339  -1.14395
  Beta  occ. eigenvalues --   -1.14379  -1.14361  -1.14032  -1.14008  -1.13965
  Beta  occ. eigenvalues --   -1.13836  -1.13779  -1.13751  -1.13749  -1.13659
  Beta  occ. eigenvalues --   -1.13648  -1.13187  -1.13174  -1.13122  -1.13049
  Beta  occ. eigenvalues --   -1.13029  -1.13029  -1.13012  -1.13009  -1.12964
  Beta  occ. eigenvalues --   -0.17000  -0.13387  -0.10786
  Beta virt. eigenvalues --   -0.07608  -0.06336  -0.05280  -0.04172  -0.02952
  Beta virt. eigenvalues --   -0.02397  -0.02090  -0.01923  -0.00919  -0.00559
  Beta virt. eigenvalues --   -0.00049   0.00055   0.00247   0.00350   0.00568

 Mulliken charges and spin densities:
               1          2
     1  Na   0.502133   0.070283
     2  Na  -0.164211   0.123922
     3  Na   0.345535   0.012279
     4  Na  -0.002951   0.207745
     5  Na  -0.358295   0.074271
     6  Na  -0.408224   0.529249
     7  Na   0.086013  -0.017749
 Sum of Mulliken charges =  -0.00000   1.00000

 Dipole moment (field-independent basis, Debye):
    X=             -0.8977    Y=             -0.5157    Z=              0.4530  Tot=              1.1300
 Quadrupole moment (field-independent basis, Debye-Ang):
   XX=            -51.5862   YY=            -75.5722   ZZ=            -68.0241
   XY=             -0.9165   XZ=              0.4846   YZ=              2.5974

 Normal termination of Gaussian 16 at Thu Dec  7 04:02:33 2023.
