 Gaussian 16, Revision B.01,
 Gaussian 16:  ES64L-G16RevB.01 20-Dec-2017

 -------------------------
 #P B3LYP/6-311+g(d) force
 -------------------------

 -----
 DPGEN
 -----
 Symbolic Z-matrix:
 Charge =  0 Multiplicity = 2

                         Standard orientation:
 ---------------------------------------------------------------------
 Center     Atomic      Atomic             Coordinates (Angstroms)
 Number     Number       Type             X           Y           Z
 ---------------------------------------------------------------------
      1         11           0        0.163030    0.052448    2.143491
      2         11           0       -0.249781   -0.206124   -1.576697
      3         11           0        2.973362   -1.327635   -0.453693
      4         11           0       -0.547902   -2.723574    0.179959
      5         11           0       -1.383100    2.464219   -0.260312
      6         11           0       -3.487707   -0.231897   -0.070966
      7         11           0        2.532097    1.972564    0.038217
 ---------------------------------------------------------------------

 SCF Done:  E(UB3LYP) =  -1136.13343413     A.U. after   20 cycles

 The electronic state is 2-A.
 Alpha  occ. eigenvalues --  -38.44867 -38.44224 -38.43785 -38.43654 -38.43461
 Alpha  occ. eigenvalues --  -38.43276 -38.42989  -2.20661  -2.20037  -2.19592
 Alpha  occ. eigenvalues --   -2.19522  -2.19431  -2.19129  -2.18853  -1.14335
 Alpha  occ. eigenvalues --   -1.14315  -1.14300  -1.13712  -1.13699  -1.13670
 Alpha  occ. eigenvalues --   -1.13264  -1.13255  -1.13236  -1.13190  -1.13147
 Alpha  occ. eigenvalues --   -1.13137  -1.13136  -1.13124  -1.13034  -1.12821
 Alpha  occ. eigenvalues --   -1.12790  -1.12741  -1.12551  -1.12518  -1.12459
 Alpha  occ. eigenvalues --   -0.18382  -0.13254  -0.11984  -0.10705
 Alpha virt. eigenvalues --   -0.06298  -0.05230  -0.04219  -0.03243  -0.02737
 Alpha virt. eigenvalues --   -0.02584  -0.02103  -0.01142  -0.00401  -0.00321
 Alpha virt. eigenvalues --   -0.00062   0.00292   0.00712   0.00846   0.00849

  Beta  occ. eigenvalues --  -38.44867 -38.44212 -38.43783 -38.43548 -38.43411
  Beta  occ. eigenvalues --  -38.43270 -38.42981  -2.20662  -2.20016  -2.19592
  Beta  occ. eigenvalues --   -2.19340  -2.19327  -2.19121  -2.18843  -1.14326
  Beta  occ. eigenvalues --   -1.14314  -1.14302  -1.13692  -1.13678  -1.13658
  Beta  occ. eigenvalues --   -1.13259  -1.13246  -1.13233  -1.13084  -1.13068
  Beta  occ. eigenvalues --   -1.13043  -1.13012  -1.12995  -1.12966  -1.12807
  Beta  occ. eigenvalues --   -1.12771  -1.12732  -1.12544  -1.12482  -1.12456
  Beta  occ. eigenvalues --   -0.17674  -0.13032  -0.11752
  Beta virt. eigenvalues --   -0.06793  -0.06219  -0.05222  -0.04185  -0.02536
  Beta virt. eigenvalues --   -0.02012  -0.01939  -0.01528  -0.01085  -0.00426
  Beta virt. eigenvalues --   -0.00345   0.00092   0.00332   0.00787   0.00846

 Mulliken charges and spin densities:
               1          2
     1  Na  -0.458384   0.756188
     2  Na  -0.203962   0.371012
     3  Na   0.157543   0.023892
     4  Na   0.131632  -0.028527
     5  Na   0.103598  -0.053707
     6  Na   0.193496  -0.039998
     7  Na   0.076076  -0.028859
 Sum of Mulliken charges =  -0.00000   1.00000

 Dipole moment (field-independent basis, Debye):
    X=             -0.3030    Y=             -0.0778    Z=              0.1248  Tot=              0.3368
 Quadrupole moment (field-independent basis, Debye-Ang):
   XX=            -51.2523   YY=            -66.8077   ZZ=            -74.6565
   XY=              0.5008   XZ=             -1.0707   YZ=             -0.2125

 Normal termination of Gaussian 16 at Thu Dec  7 22:47:56 2023.
