 Gaussian 16, Revision B.01,
 Gaussian 16:  ES64L-G16RevB.01 20-Dec-2017

 -------------------------
 #P B3LYP/6-311+g(d) force
 -------------------------

 -----
 DPGEN
 -----
 Symbolic Z-matrix:
 Charge =  0 Multiplicity = 2

                         Standard orientation:
 ---------------------------------------------------------------------
 Center     Atomic      Atomic             Coordinates (Angstroms)
 Number     Number       Type             X           Y           Z
 ---------------------------------------------------------------------
      1         11           0        0.062536    0.283614   -1.627694
      2         11           0       -2.678056   -0.855523    0.020298
      3         11           0        2.648531   -1.013045   -0.024257
      4         11           0        0.050051    0.078029    1.672723
      5         11           0        1.709139    1.767427    0.066762
      6         11           0       -0.150037   -2.063004   -0.103552
      7         11           0       -1.642164    1.802503   -0.004281
 ---------------------------------------------------------------------

 SCF Done:  E(UB3LYP) =  -1136.09172769     A.U. after   19 cycles

 The electronic state is 2-A.
 Alpha  occ. eigenvalues --  -38.44156 -38.43930 -38.43795 -38.43713 -38.43526
 Alpha  occ. eigenvalues --  -38.43460 -38.43197  -2.20191  -2.20058  -2.19951
 Alpha  occ. eigenvalues --   -2.19937  -2.19617  -2.19552  -2.19360  -1.14009
 Alpha  occ. eigenvalues --   -1.13956  -1.13916  -1.13834  -1.13809  -1.13751
 Alpha  occ. eigenvalues --   -1.13715  -1.13685  -1.13649  -1.13625  -1.13573
 Alpha  occ. eigenvalues --   -1.13530  -1.13219  -1.13216  -1.13175  -1.13170
 Alpha  occ. eigenvalues --   -1.13159  -1.13108  -1.12986  -1.12951  -1.12923
 Alpha  occ. eigenvalues --   -0.21271  -0.14257  -0.12603  -0.11655
 Alpha virt. eigenvalues --   -0.05656  -0.04655  -0.03820  -0.03662  -0.02760
 Alpha virt. eigenvalues --   -0.02387  -0.01562  -0.00629  -0.00010   0.00321
 Alpha virt. eigenvalues --    0.00532   0.00594   0.00914   0.01071   0.01093

  Beta  occ. eigenvalues --  -38.44150 -38.43923 -38.43708 -38.43624 -38.43512
  Beta  occ. eigenvalues --  -38.43446 -38.43178  -2.20184  -2.19930  -2.19902
  Beta  occ. eigenvalues --   -2.19790  -2.19598  -2.19533  -2.19334  -1.13988
  Beta  occ. eigenvalues --   -1.13953  -1.13856  -1.13756  -1.13747  -1.13693
  Beta  occ. eigenvalues --   -1.13636  -1.13606  -1.13591  -1.13564  -1.13516
  Beta  occ. eigenvalues --   -1.13450  -1.13186  -1.13169  -1.13145  -1.13142
  Beta  occ. eigenvalues --   -1.13104  -1.13087  -1.12964  -1.12915  -1.12864
  Beta  occ. eigenvalues --   -0.20479  -0.13895  -0.12260
  Beta virt. eigenvalues --   -0.07503  -0.05676  -0.04641  -0.03797  -0.02699
  Beta virt. eigenvalues --   -0.01884  -0.01476  -0.01322  -0.00596   0.00129
  Beta virt. eigenvalues --    0.00351   0.00496   0.00577   0.00938   0.01071

 Mulliken charges and spin densities:
               1          2
     1  Na  -0.455002   0.427992
     2  Na  -0.087249  -0.050428
     3  Na   0.015646  -0.048248
     4  Na  -0.474880   0.474713
     5  Na   0.268920   0.029639
     6  Na   0.379755   0.118786
     7  Na   0.352811   0.047545
 Sum of Mulliken charges =  -0.00000   1.00000

 Dipole moment (field-independent basis, Debye):
    X=              0.0817    Y=              0.0132    Z=              0.0645  Tot=              0.1049
 Quadrupole moment (field-independent basis, Debye-Ang):
   XX=            -54.1391   YY=            -69.8303   ZZ=            -71.5550
   XY=             -0.3017   XZ=             -0.0419   YZ=              0.3466

 Normal termination of Gaussian 16 at Thu Dec  7 06:34:00 2023.
