 Gaussian 16, Revision B.01,
 Gaussian 16:  ES64L-G16RevB.01 20-Dec-2017

 -------------------------
 #P B3LYP/6-311+g(d) force
 -------------------------

 -----
 DPGEN
 -----
 Symbolic Z-matrix:
 Charge =  0 Multiplicity = 2

                         Standard orientation:
 ---------------------------------------------------------------------
 Center     Atomic      Atomic             Coordinates (Angstroms)
 Number     Number       Type             X           Y           Z
 ---------------------------------------------------------------------
      1         11           0       -0.915385   -1.875497   -0.222504
      2         11           0       -2.639120    1.524300    0.467681
      3         11           0        1.745557    0.936194   -0.880371
      4         11           0        2.720762   -0.813179    2.089577
      5         11           0        2.778637   -2.008728   -1.152594
      6         11           0        0.410066    3.910427   -0.255570
      7         11           0       -4.100518   -1.673517   -0.046220
 ---------------------------------------------------------------------

 SCF Done:  E(UB3LYP) =  -1136.12171803     A.U. after   23 cycles

 The electronic state is 2-A.
 Alpha  occ. eigenvalues --  -38.45318 -38.44683 -38.44599 -38.44200 -38.43740
 Alpha  occ. eigenvalues --  -38.43398 -38.43387  -2.21069  -2.20496  -2.20413
 Alpha  occ. eigenvalues --   -2.20058  -2.19621  -2.19236  -2.19182  -1.14774
 Alpha  occ. eigenvalues --   -1.14758  -1.14660  -1.14197  -1.14188  -1.14159
 Alpha  occ. eigenvalues --   -1.14070  -1.14058  -1.14009  -1.13767  -1.13698
 Alpha  occ. eigenvalues --   -1.13692  -1.13308  -1.13302  -1.13244  -1.12877
 Alpha  occ. eigenvalues --   -1.12877  -1.12854  -1.12844  -1.12838  -1.12813
 Alpha  occ. eigenvalues --   -0.17130  -0.14209  -0.12327  -0.09999
 Alpha virt. eigenvalues --   -0.06360  -0.06187  -0.05166  -0.03325  -0.02518
 Alpha virt. eigenvalues --   -0.02207  -0.02047  -0.01662  -0.01339  -0.00834
 Alpha virt. eigenvalues --   -0.00228   0.00147   0.00257   0.00559   0.00620

  Beta  occ. eigenvalues --  -38.45313 -38.44668 -38.44600 -38.44178 -38.43721
  Beta  occ. eigenvalues --  -38.43398 -38.43272  -2.21060  -2.20470  -2.20416
  Beta  occ. eigenvalues --   -2.20023  -2.19590  -2.19183  -2.19022  -1.14767
  Beta  occ. eigenvalues --   -1.14750  -1.14653  -1.14183  -1.14168  -1.14139
  Beta  occ. eigenvalues --   -1.14071  -1.14055  -1.14002  -1.13745  -1.13674
  Beta  occ. eigenvalues --   -1.13635  -1.13289  -1.13249  -1.13227  -1.12853
  Beta  occ. eigenvalues --   -1.12843  -1.12814  -1.12730  -1.12729  -1.12697
  Beta  occ. eigenvalues --   -0.16638  -0.13914  -0.12227
  Beta virt. eigenvalues --   -0.06433  -0.06049  -0.05780  -0.05013  -0.03002
  Beta virt. eigenvalues --   -0.02380  -0.01952  -0.01581  -0.01290  -0.01217
  Beta virt. eigenvalues --   -0.00597   0.00143   0.00310   0.00606   0.00625

 Mulliken charges and spin densities:
               1          2
     1  Na  -1.287930  -0.042419
     2  Na  -0.346433   0.042121
     3  Na  -1.518168   0.180630
     4  Na  -0.112539   0.527612
     5  Na   1.944336   0.448777
     6  Na   0.532307  -0.109076
     7  Na   0.788427  -0.047644
 Sum of Mulliken charges =  -0.00000   1.00000

 Dipole moment (field-independent basis, Debye):
    X=             -1.8683    Y=             -0.6656    Z=             -0.5022  Tot=              2.0459
 Quadrupole moment (field-independent basis, Debye-Ang):
   XX=            -55.5845   YY=            -63.0449   ZZ=            -77.3764
   XY=              0.4863   XZ=             -5.9027   YZ=              2.5313

 Normal termination of Gaussian 16 at Wed Nov 29 03:33:07 2023.
