 Gaussian 16, Revision B.01,
 Gaussian 16:  ES64L-G16RevB.01 20-Dec-2017

 -------------------------
 #P B3LYP/6-311+g(d) force
 -------------------------

 -----
 DPGEN
 -----
 Symbolic Z-matrix:
 Charge =  0 Multiplicity = 2

                         Standard orientation:
 ---------------------------------------------------------------------
 Center     Atomic      Atomic             Coordinates (Angstroms)
 Number     Number       Type             X           Y           Z
 ---------------------------------------------------------------------
      1         11           0        2.904653   -1.318817   -0.237481
      2         11           0       -1.468251    2.683641    0.131880
      3         11           0        1.988917    2.082716   -0.314790
      4         11           0        0.343184    0.135086    2.105319
      5         11           0        0.058034   -0.208873   -1.633082
      6         11           0       -0.670277   -2.837534    0.288879
      7         11           0       -3.156259   -0.536219   -0.340725
 ---------------------------------------------------------------------

 SCF Done:  E(UB3LYP) =  -1136.13973202     A.U. after   19 cycles

 The electronic state is 2-A.
 Alpha  occ. eigenvalues --  -38.43892 -38.43876 -38.43667 -38.43571 -38.43496
 Alpha  occ. eigenvalues --  -38.43454 -38.43233  -2.19721  -2.19693  -2.19545
 Alpha  occ. eigenvalues --   -2.19443  -2.19339  -2.19271  -2.19204  -1.13404
 Alpha  occ. eigenvalues --   -1.13380  -1.13372  -1.13360  -1.13352  -1.13334
 Alpha  occ. eigenvalues --   -1.13212  -1.13185  -1.13161  -1.13149  -1.13100
 Alpha  occ. eigenvalues --   -1.13062  -1.13033  -1.13008  -1.12961  -1.12944
 Alpha  occ. eigenvalues --   -1.12935  -1.12910  -1.12881  -1.12835  -1.12821
 Alpha  occ. eigenvalues --   -0.18530  -0.12922  -0.12436  -0.10810
 Alpha virt. eigenvalues --   -0.05505  -0.05201  -0.04801  -0.03124  -0.02948
 Alpha virt. eigenvalues --   -0.02653  -0.01505  -0.01133  -0.00447  -0.00304
 Alpha virt. eigenvalues --   -0.00023   0.00354   0.00798   0.00875   0.00880

  Beta  occ. eigenvalues --  -38.43887 -38.43872 -38.43568 -38.43561 -38.43489
  Beta  occ. eigenvalues --  -38.43453 -38.43173  -2.19714  -2.19687  -2.19430
  Beta  occ. eigenvalues --   -2.19363  -2.19329  -2.19271  -2.19097  -1.13391
  Beta  occ. eigenvalues --   -1.13372  -1.13358  -1.13348  -1.13344  -1.13334
  Beta  occ. eigenvalues --   -1.13142  -1.13097  -1.13080  -1.13055  -1.13041
  Beta  occ. eigenvalues --   -1.13031  -1.13017  -1.12980  -1.12954  -1.12935
  Beta  occ. eigenvalues --   -1.12927  -1.12909  -1.12809  -1.12761  -1.12739
  Beta  occ. eigenvalues --   -0.17802  -0.12681  -0.12221
  Beta virt. eigenvalues --   -0.06881  -0.05473  -0.05203  -0.04715  -0.02378
  Beta virt. eigenvalues --   -0.02187  -0.01578  -0.01418  -0.01064  -0.00472
  Beta virt. eigenvalues --   -0.00356   0.00122   0.00383   0.00863   0.00867

 Mulliken charges and spin densities:
               1          2
     1  Na   0.217406  -0.046138
     2  Na   0.007984  -0.045168
     3  Na   0.214543  -0.029386
     4  Na  -0.440934   0.758505
     5  Na  -0.128067   0.413151
     6  Na   0.077743  -0.008762
     7  Na   0.051326  -0.042202
 Sum of Mulliken charges =  -0.00000   1.00000

 Dipole moment (field-independent basis, Debye):
    X=              0.0932    Y=             -0.1019    Z=              0.1121  Tot=              0.1779
 Quadrupole moment (field-independent basis, Debye-Ang):
   XX=            -57.0593   YY=            -62.3842   ZZ=            -74.0482
   XY=             -0.7745   XZ=             -0.3803   YZ=             -0.6660

 Normal termination of Gaussian 16 at Tue Dec  5 16:46:57 2023.
