 Gaussian 16, Revision B.01,
 Gaussian 16:  ES64L-G16RevB.01 20-Dec-2017

 -------------------------
 #P B3LYP/6-311+g(d) force
 -------------------------

 -----
 DPGEN
 -----
 Symbolic Z-matrix:
 Charge =  0 Multiplicity = 2

                         Standard orientation:
 ---------------------------------------------------------------------
 Center     Atomic      Atomic             Coordinates (Angstroms)
 Number     Number       Type             X           Y           Z
 ---------------------------------------------------------------------
      1         11           0        1.197088    3.040433   -0.054170
      2         11           0       -0.118942    0.145827    2.029329
      3         11           0       -2.777466    1.491405   -0.113265
      4         11           0       -2.552901   -1.559406   -0.196474
      5         11           0        0.052900   -0.283146   -1.689393
      6         11           0        3.009472   -0.039933   -0.246811
      7         11           0        1.189850   -2.795180    0.270783
 ---------------------------------------------------------------------

 SCF Done:  E(UB3LYP) =  -1136.13612248     A.U. after   19 cycles

 The electronic state is 2-A.
 Alpha  occ. eigenvalues --  -38.44146 -38.43984 -38.43791 -38.43606 -38.43510
 Alpha  occ. eigenvalues --  -38.43396 -38.43315  -2.19988  -2.19842  -2.19677
 Alpha  occ. eigenvalues --   -2.19480  -2.19347  -2.19292  -2.19166  -1.13706
 Alpha  occ. eigenvalues --   -1.13647  -1.13626  -1.13541  -1.13506  -1.13466
 Alpha  occ. eigenvalues --   -1.13365  -1.13323  -1.13301  -1.13151  -1.13106
 Alpha  occ. eigenvalues --   -1.13099  -1.13030  -1.12984  -1.12975  -1.12964
 Alpha  occ. eigenvalues --   -1.12944  -1.12943  -1.12828  -1.12822  -1.12810
 Alpha  occ. eigenvalues --   -0.18520  -0.13335  -0.12131  -0.10706
 Alpha virt. eigenvalues --   -0.05673  -0.05197  -0.04851  -0.03344  -0.02792
 Alpha virt. eigenvalues --   -0.02522  -0.01521  -0.01183  -0.00528  -0.00381
 Alpha virt. eigenvalues --   -0.00012   0.00366   0.00776   0.00848   0.00872

  Beta  occ. eigenvalues --  -38.44143 -38.43977 -38.43783 -38.43512 -38.43512
  Beta  occ. eigenvalues --  -38.43332 -38.43308  -2.19985  -2.19832  -2.19666
  Beta  occ. eigenvalues --   -2.19307  -2.19297  -2.19231  -2.19157  -1.13707
  Beta  occ. eigenvalues --   -1.13631  -1.13617  -1.13527  -1.13482  -1.13465
  Beta  occ. eigenvalues --   -1.13351  -1.13306  -1.13285  -1.13038  -1.12986
  Beta  occ. eigenvalues --   -1.12975  -1.12959  -1.12952  -1.12948  -1.12942
  Beta  occ. eigenvalues --   -1.12898  -1.12893  -1.12819  -1.12805  -1.12788
  Beta  occ. eigenvalues --   -0.17785  -0.13093  -0.11933
  Beta virt. eigenvalues --   -0.06797  -0.05637  -0.05169  -0.04799  -0.02536
  Beta virt. eigenvalues --   -0.02054  -0.01508  -0.01417  -0.01097  -0.00577
  Beta virt. eigenvalues --   -0.00429   0.00132   0.00394   0.00837   0.00851

 Mulliken charges and spin densities:
               1          2
     1  Na  -0.115158  -0.127681
     2  Na  -0.435084   0.783265
     3  Na  -0.006307  -0.096179
     4  Na   0.333665   0.019884
     5  Na  -0.062540   0.465375
     6  Na   0.163460  -0.036631
     7  Na   0.121964  -0.008034
 Sum of Mulliken charges =  -0.00000   1.00000

 Dipole moment (field-independent basis, Debye):
    X=             -0.1596    Y=              0.0372    Z=              0.0605  Tot=              0.1747
 Quadrupole moment (field-independent basis, Debye-Ang):
   XX=            -57.5662   YY=            -61.7322   ZZ=            -74.7237
   XY=             -0.9652   XZ=              0.2473   YZ=             -1.0012

 Normal termination of Gaussian 16 at Thu Dec  7 17:22:09 2023.
