 Gaussian 16, Revision B.01,
 Gaussian 16:  ES64L-G16RevB.01 20-Dec-2017

 -------------------------
 #P B3LYP/6-311+g(d) force
 -------------------------

 -----
 DPGEN
 -----
 Symbolic Z-matrix:
 Charge =  0 Multiplicity = 2

                         Standard orientation:
 ---------------------------------------------------------------------
 Center     Atomic      Atomic             Coordinates (Angstroms)
 Number     Number       Type             X           Y           Z
 ---------------------------------------------------------------------
      1         11           0       -4.614076    0.314262    0.459719
      2         11           0       -2.374838   -2.927526    0.015752
      3         11           0       -2.001956    2.834056   -0.286969
      4         11           0        1.176847    3.599259    0.090368
      5         11           0        0.529270   -3.204604   -0.779605
      6         11           0        3.595951    1.056842   -0.465819
      7         11           0        3.688801   -1.672290    0.966553
 ---------------------------------------------------------------------

 SCF Done:  E(UB3LYP) =  -1136.10955403     A.U. after   20 cycles

 The electronic state is 2-A.
 Alpha  occ. eigenvalues --  -38.44884 -38.44813 -38.44637 -38.44421 -38.44417
 Alpha  occ. eigenvalues --  -38.44410 -38.43817  -2.20688  -2.20572  -2.20451
 Alpha  occ. eigenvalues --   -2.20234  -2.20211  -2.20203  -2.19630  -1.14403
 Alpha  occ. eigenvalues --   -1.14352  -1.14338  -1.14262  -1.14253  -1.14215
 Alpha  occ. eigenvalues --   -1.14097  -1.14085  -1.14078  -1.14029  -1.13894
 Alpha  occ. eigenvalues --   -1.13875  -1.13858  -1.13854  -1.13845  -1.13832
 Alpha  occ. eigenvalues --   -1.13830  -1.13775  -1.13281  -1.13278  -1.13269
 Alpha  occ. eigenvalues --   -0.15664  -0.13879  -0.13583  -0.11044
 Alpha virt. eigenvalues --   -0.07301  -0.04879  -0.04312  -0.03665  -0.03245
 Alpha virt. eigenvalues --   -0.02594  -0.02314  -0.01837  -0.01399  -0.00861
 Alpha virt. eigenvalues --   -0.00193  -0.00065   0.00005   0.00496   0.00678

  Beta  occ. eigenvalues --  -38.44874 -38.44814 -38.44597 -38.44390 -38.44375
  Beta  occ. eigenvalues --  -38.44337 -38.43770  -2.20676  -2.20580  -2.20379
  Beta  occ. eigenvalues --   -2.20184  -2.20159  -2.20047  -2.19543  -1.14378
  Beta  occ. eigenvalues --   -1.14348  -1.14317  -1.14272  -1.14263  -1.14179
  Beta  occ. eigenvalues --   -1.14049  -1.14037  -1.14025  -1.13973  -1.13864
  Beta  occ. eigenvalues --   -1.13838  -1.13824  -1.13815  -1.13748  -1.13730
  Beta  occ. eigenvalues --   -1.13726  -1.13713  -1.13224  -1.13219  -1.13212
  Beta  occ. eigenvalues --   -0.15175  -0.13014  -0.12830
  Beta virt. eigenvalues --   -0.07926  -0.07451  -0.04572  -0.03744  -0.03454
  Beta virt. eigenvalues --   -0.02834  -0.02352  -0.02090  -0.01662  -0.01249
  Beta virt. eigenvalues --   -0.00487   0.00045   0.00148   0.00168   0.00466

 Mulliken charges and spin densities:
               1          2
     1  Na   0.311196   0.412291
     2  Na  -0.071584   0.037572
     3  Na  -0.258956   0.019879
     4  Na   0.040032   0.196994
     5  Na  -0.060531   0.125498
     6  Na  -0.234470   0.037012
     7  Na   0.274314   0.170753
 Sum of Mulliken charges =  -0.00000   1.00000

 Dipole moment (field-independent basis, Debye):
    X=              0.6468    Y=             -0.3617    Z=              0.1557  Tot=              0.7573
 Quadrupole moment (field-independent basis, Debye-Ang):
   XX=            -61.6331   YY=            -68.3703   ZZ=            -70.8134
   XY=              0.6071   XZ=             -0.8269   YZ=             -2.2040

 Normal termination of Gaussian 16 at Sun Dec  3 18:12:07 2023.
