 Gaussian 16, Revision B.01,
 Gaussian 16:  ES64L-G16RevB.01 20-Dec-2017

 -------------------------
 #P B3LYP/6-311+g(d) force
 -------------------------

 -----
 DPGEN
 -----
 Symbolic Z-matrix:
 Charge =  0 Multiplicity = 2

                         Standard orientation:
 ---------------------------------------------------------------------
 Center     Atomic      Atomic             Coordinates (Angstroms)
 Number     Number       Type             X           Y           Z
 ---------------------------------------------------------------------
      1         11           0        3.310414   -1.698954   -0.357205
      2         11           0        0.666748   -3.050543    1.286677
      3         11           0        3.883384    1.338021   -0.544092
      4         11           0       -2.527499   -2.794653   -0.887550
      5         11           0        0.946393    3.142470    0.419237
      6         11           0       -2.441611    2.995546    0.082910
      7         11           0       -3.837828    0.068112    0.000023
 ---------------------------------------------------------------------

 SCF Done:  E(UB3LYP) =  -1136.10979268     A.U. after   23 cycles

 The electronic state is 2-A.
 Alpha  occ. eigenvalues --  -38.45294 -38.44923 -38.44696 -38.44576 -38.44200
 Alpha  occ. eigenvalues --  -38.43897 -38.43707  -2.21054  -2.20737  -2.20479
 Alpha  occ. eigenvalues --   -2.20391  -2.19995  -2.19713  -2.19547  -1.14739
 Alpha  occ. eigenvalues --   -1.14728  -1.14685  -1.14419  -1.14406  -1.14395
 Alpha  occ. eigenvalues --   -1.14172  -1.14145  -1.14116  -1.14058  -1.14049
 Alpha  occ. eigenvalues --   -1.14018  -1.13649  -1.13642  -1.13618  -1.13372
 Alpha  occ. eigenvalues --   -1.13367  -1.13359  -1.13213  -1.13184  -1.13173
 Alpha  occ. eigenvalues --   -0.15868  -0.14183  -0.13418  -0.10655
 Alpha virt. eigenvalues --   -0.07677  -0.04950  -0.04056  -0.03652  -0.03344
 Alpha virt. eigenvalues --   -0.02552  -0.02225  -0.01824  -0.01310  -0.00828
 Alpha virt. eigenvalues --   -0.00253   0.00062   0.00083   0.00473   0.00705

  Beta  occ. eigenvalues --  -38.45279 -38.44907 -38.44669 -38.44553 -38.44134
  Beta  occ. eigenvalues --  -38.43872 -38.43652  -2.21032  -2.20714  -2.20433
  Beta  occ. eigenvalues --   -2.20354  -2.19876  -2.19668  -2.19446  -1.14729
  Beta  occ. eigenvalues --   -1.14718  -1.14636  -1.14401  -1.14394  -1.14337
  Beta  occ. eigenvalues --   -1.14131  -1.14117  -1.14075  -1.14036  -1.14023
  Beta  occ. eigenvalues --   -1.13974  -1.13569  -1.13560  -1.13532  -1.13345
  Beta  occ. eigenvalues --   -1.13336  -1.13320  -1.13147  -1.13116  -1.13106
  Beta  occ. eigenvalues --   -0.15356  -0.13540  -0.12617
  Beta virt. eigenvalues --   -0.07868  -0.07434  -0.04572  -0.03631  -0.03324
  Beta virt. eigenvalues --   -0.02951  -0.02360  -0.02018  -0.01650  -0.01166
  Beta virt. eigenvalues --   -0.00553  -0.00047   0.00288   0.00305   0.00451

 Mulliken charges and spin densities:
               1          2
     1  Na  -0.357692   0.074272
     2  Na  -0.022751   0.286866
     3  Na   0.530356   0.267836
     4  Na   0.201089   0.097452
     5  Na  -0.304972   0.118988
     6  Na   0.377179   0.041456
     7  Na  -0.423208   0.113129
 Sum of Mulliken charges =  -0.00000   1.00000

 Dipole moment (field-independent basis, Debye):
    X=             -0.1235    Y=             -0.1084    Z=             -0.0630  Tot=              0.1760
 Quadrupole moment (field-independent basis, Debye-Ang):
   XX=            -64.9898   YY=            -66.6077   ZZ=            -70.4055
   XY=             -0.4452   XZ=             -1.1702   YZ=              2.2988

 Normal termination of Gaussian 16 at Mon Dec  4 01:18:30 2023.
