 Gaussian 16, Revision B.01,
 Gaussian 16:  ES64L-G16RevB.01 20-Dec-2017

 -------------------------
 #P B3LYP/6-311+g(d) force
 -------------------------

 -----
 DPGEN
 -----
 Symbolic Z-matrix:
 Charge =  0 Multiplicity = 2

                         Standard orientation:
 ---------------------------------------------------------------------
 Center     Atomic      Atomic             Coordinates (Angstroms)
 Number     Number       Type             X           Y           Z
 ---------------------------------------------------------------------
      1         11           0        2.216990    1.991914    0.082536
      2         11           0       -2.794753   -1.072809    0.090070
      3         11           0       -0.228027   -0.023662   -1.782297
      4         11           0       -0.021647   -2.782300   -0.009520
      5         11           0        2.721403   -1.040110   -0.100568
      6         11           0       -1.676724    2.749945   -0.212006
      7         11           0       -0.217241    0.177022    1.931786
 ---------------------------------------------------------------------

 SCF Done:  E(UB3LYP) =  -1136.13789651     A.U. after   20 cycles

 The electronic state is 2-A.
 Alpha  occ. eigenvalues --  -38.43895 -38.43859 -38.43803 -38.43449 -38.43383
 Alpha  occ. eigenvalues --  -38.43274 -38.43212  -2.19766  -2.19658  -2.19653
 Alpha  occ. eigenvalues --   -2.19369  -2.19282  -2.19236  -2.19129  -1.13456
 Alpha  occ. eigenvalues --   -1.13439  -1.13396  -1.13371  -1.13334  -1.13321
 Alpha  occ. eigenvalues --   -1.13313  -1.13297  -1.13285  -1.13047  -1.12996
 Alpha  occ. eigenvalues --   -1.12991  -1.12973  -1.12945  -1.12924  -1.12919
 Alpha  occ. eigenvalues --   -1.12874  -1.12856  -1.12782  -1.12773  -1.12758
 Alpha  occ. eigenvalues --   -0.18911  -0.13038  -0.12585  -0.10833
 Alpha virt. eigenvalues --   -0.05630  -0.05082  -0.04662  -0.03182  -0.02988
 Alpha virt. eigenvalues --   -0.02573  -0.01328  -0.01263  -0.00295  -0.00167
 Alpha virt. eigenvalues --   -0.00008   0.00372   0.00846   0.00879   0.00946

  Beta  occ. eigenvalues --  -38.43888 -38.43855 -38.43799 -38.43379 -38.43363
  Beta  occ. eigenvalues --  -38.43204 -38.43198  -2.19758  -2.19655  -2.19650
  Beta  occ. eigenvalues --   -2.19278  -2.19211  -2.19120  -2.19097  -1.13453
  Beta  occ. eigenvalues --   -1.13401  -1.13394  -1.13372  -1.13317  -1.13307
  Beta  occ. eigenvalues --   -1.13299  -1.13294  -1.13285  -1.12977  -1.12945
  Beta  occ. eigenvalues --   -1.12934  -1.12900  -1.12878  -1.12875  -1.12849
  Beta  occ. eigenvalues --   -1.12791  -1.12764  -1.12757  -1.12750  -1.12717
  Beta  occ. eigenvalues --   -0.18158  -0.12793  -0.12339
  Beta virt. eigenvalues --   -0.06908  -0.05637  -0.05005  -0.04667  -0.02364
  Beta virt. eigenvalues --   -0.02204  -0.01527  -0.01244  -0.01179  -0.00348
  Beta virt. eigenvalues --   -0.00228   0.00125   0.00389   0.00849   0.00903

 Mulliken charges and spin densities:
               1          2
     1  Na   0.129353  -0.076858
     2  Na   0.333832  -0.082938
     3  Na  -0.370392   0.641006
     4  Na   0.294865   0.032201
     5  Na   0.066274  -0.021954
     6  Na  -0.006405  -0.161237
     7  Na  -0.447528   0.669781
 Sum of Mulliken charges =  -0.00000   1.00000

 Dipole moment (field-independent basis, Debye):
    X=             -0.3121    Y=              0.2984    Z=              0.0646  Tot=              0.4366
 Quadrupole moment (field-independent basis, Debye-Ang):
   XX=            -59.0759   YY=            -60.8954   ZZ=            -73.9768
   XY=              0.0664   XZ=             -0.0560   YZ=             -0.3820

 Normal termination of Gaussian 16 at Thu Dec  7 12:27:29 2023.
