 Gaussian 16, Revision B.01,
 Gaussian 16:  ES64L-G16RevB.01 20-Dec-2017

 -------------------------
 #P B3LYP/6-311+g(d) force
 -------------------------

 -----
 DPGEN
 -----
 Symbolic Z-matrix:
 Charge =  0 Multiplicity = 2

                         Standard orientation:
 ---------------------------------------------------------------------
 Center     Atomic      Atomic             Coordinates (Angstroms)
 Number     Number       Type             X           Y           Z
 ---------------------------------------------------------------------
      1         11           0       -0.403103   -1.149233    1.691150
      2         11           0       -1.065699   -0.234311   -1.446268
      3         11           0        1.950854   -1.834590   -0.608036
      4         11           0        1.352541    1.600568    0.092417
      5         11           0       -3.332443   -1.201508    0.011897
      6         11           0        4.459947    0.680087    0.135807
      7         11           0       -2.962096    2.138987    0.123033
 ---------------------------------------------------------------------

 SCF Done:  E(UB3LYP) =  -1136.11078211     A.U. after   62 cycles

 The electronic state is 2-A.
 Alpha  occ. eigenvalues --  -38.44976 -38.44618 -38.44359 -38.43841 -38.43832
 Alpha  occ. eigenvalues --  -38.43263 -38.43231  -2.20837  -2.20640  -2.20221
 Alpha  occ. eigenvalues --   -2.19775  -2.19655  -2.19124  -2.19108  -1.14526
 Alpha  occ. eigenvalues --   -1.14509  -1.14486  -1.14425  -1.14301  -1.14210
 Alpha  occ. eigenvalues --   -1.13922  -1.13884  -1.13821  -1.13471  -1.13415
 Alpha  occ. eigenvalues --   -1.13359  -1.13335  -1.13298  -1.13279  -1.12829
 Alpha  occ. eigenvalues --   -1.12822  -1.12786  -1.12748  -1.12740  -1.12676
 Alpha  occ. eigenvalues --   -0.18738  -0.14521  -0.11286  -0.10272
 Alpha virt. eigenvalues --   -0.07610  -0.05866  -0.03670  -0.03343  -0.03163
 Alpha virt. eigenvalues --   -0.02137  -0.01895  -0.01513  -0.00868  -0.00579
 Alpha virt. eigenvalues --   -0.00373   0.00136   0.00305   0.00555   0.00589

  Beta  occ. eigenvalues --  -38.44999 -38.44581 -38.44342 -38.43835 -38.43772
  Beta  occ. eigenvalues --  -38.43204 -38.43189  -2.20883  -2.20581  -2.20191
  Beta  occ. eigenvalues --   -2.19662  -2.19648  -2.19080  -2.18969  -1.14555
  Beta  occ. eigenvalues --   -1.14525  -1.14512  -1.14361  -1.14243  -1.14168
  Beta  occ. eigenvalues --   -1.13901  -1.13857  -1.13789  -1.13396  -1.13351
  Beta  occ. eigenvalues --   -1.13335  -1.13313  -1.13273  -1.13231  -1.12808
  Beta  occ. eigenvalues --   -1.12755  -1.12735  -1.12653  -1.12643  -1.12602
  Beta  occ. eigenvalues --   -0.18111  -0.13944  -0.10994
  Beta virt. eigenvalues --   -0.07473  -0.06699  -0.05655  -0.03306  -0.03003
  Beta virt. eigenvalues --   -0.02828  -0.02070  -0.01533  -0.01339  -0.00473
  Beta virt. eigenvalues --   -0.00190  -0.00083   0.00225   0.00491   0.00641

 Mulliken charges and spin densities:
               1          2
     1  Na   0.065881  -0.106193
     2  Na  -0.105653   0.168342
     3  Na   0.261497  -0.021531
     4  Na  -0.949254  -0.143191
     5  Na   0.526875   0.544952
     6  Na   0.475361   0.596394
     7  Na  -0.274706  -0.038773
 Sum of Mulliken charges =  -0.00000   1.00000

 Dipole moment (field-independent basis, Debye):
    X=             -0.6479    Y=             -0.6357    Z=              0.1599  Tot=              0.9217
 Quadrupole moment (field-independent basis, Debye-Ang):
   XX=            -72.6982   YY=            -73.5802   ZZ=            -61.0682
   XY=             -5.0906   XZ=             -1.2794   YZ=              4.9982

 Normal termination of Gaussian 16 at Wed Dec  6 00:21:37 2023.
