 Gaussian 16, Revision B.01,
 Gaussian 16:  ES64L-G16RevB.01 20-Dec-2017

 -------------------------
 #P B3LYP/6-311+g(d) force
 -------------------------

 -----
 DPGEN
 -----
 Symbolic Z-matrix:
 Charge =  0 Multiplicity = 2

                         Standard orientation:
 ---------------------------------------------------------------------
 Center     Atomic      Atomic             Coordinates (Angstroms)
 Number     Number       Type             X           Y           Z
 ---------------------------------------------------------------------
      1         11           0        0.005791    0.132340    1.625512
      2         11           0       -1.138067   -2.502213    0.271757
      3         11           0        1.976540   -1.844104   -0.354961
      4         11           0        2.604120    1.247610    0.293860
      5         11           0        0.008743   -0.000388   -1.594975
      6         11           0       -0.670173    2.747465   -0.199378
      7         11           0       -2.786953    0.219290   -0.041816
 ---------------------------------------------------------------------

 SCF Done:  E(UB3LYP) =  -1136.13157931     A.U. after   18 cycles

 The electronic state is 2-A.
 Alpha  occ. eigenvalues --  -38.43565 -38.43502 -38.43386 -38.43368 -38.43192
 Alpha  occ. eigenvalues --  -38.42954 -38.42926  -2.19479  -2.19451  -2.19337
 Alpha  occ. eigenvalues --   -2.19305  -2.19146  -2.19081  -2.19031  -1.13212
 Alpha  occ. eigenvalues --   -1.13181  -1.13156  -1.13120  -1.13117  -1.13113
 Alpha  occ. eigenvalues --   -1.13103  -1.13012  -1.12992  -1.12975  -1.12947
 Alpha  occ. eigenvalues --   -1.12912  -1.12860  -1.12806  -1.12771  -1.12764
 Alpha  occ. eigenvalues --   -1.12679  -1.12672  -1.12658  -1.12638  -1.12623
 Alpha  occ. eigenvalues --   -0.19942  -0.13311  -0.12991  -0.10871
 Alpha virt. eigenvalues --   -0.05157  -0.04873  -0.04715  -0.03112  -0.02933
 Alpha virt. eigenvalues --   -0.02189  -0.01246  -0.01090  -0.00030   0.00100
 Alpha virt. eigenvalues --    0.00182   0.00366   0.00936   0.00965   0.00989

  Beta  occ. eigenvalues --  -38.43556 -38.43494 -38.43378 -38.43354 -38.43182
  Beta  occ. eigenvalues --  -38.42877 -38.42848  -2.19465  -2.19442  -2.19317
  Beta  occ. eigenvalues --   -2.19294  -2.19133  -2.18941  -2.18890  -1.13199
  Beta  occ. eigenvalues --   -1.13174  -1.13125  -1.13112  -1.13102  -1.13083
  Beta  occ. eigenvalues --   -1.13069  -1.13000  -1.12962  -1.12941  -1.12926
  Beta  occ. eigenvalues --   -1.12905  -1.12837  -1.12771  -1.12748  -1.12692
  Beta  occ. eigenvalues --   -1.12582  -1.12577  -1.12566  -1.12537  -1.12527
  Beta  occ. eigenvalues --   -0.19215  -0.12998  -0.12686
  Beta virt. eigenvalues --   -0.06879  -0.05152  -0.04870  -0.04707  -0.02261
  Beta virt. eigenvalues --   -0.02111  -0.01168  -0.01142  -0.01020   0.00001
  Beta virt. eigenvalues --    0.00081   0.00198   0.00394   0.00964   0.00968

 Mulliken charges and spin densities:
               1          2
     1  Na  -0.468900   0.612268
     2  Na   0.210011   0.004146
     3  Na   0.308166   0.032503
     4  Na   0.119629  -0.049954
     5  Na  -0.422504   0.531470
     6  Na   0.098097  -0.083611
     7  Na   0.155501  -0.046821
 Sum of Mulliken charges =  -0.00000   1.00000

 Dipole moment (field-independent basis, Debye):
    X=              0.0204    Y=              0.1931    Z=              0.0452  Tot=              0.1994
 Quadrupole moment (field-independent basis, Debye-Ang):
   XX=            -58.3429   YY=            -60.3110   ZZ=            -74.3450
   XY=              0.3364   XZ=              0.0665   YZ=             -0.2778

 Normal termination of Gaussian 16 at Tue Dec  5 22:23:16 2023.
