 Gaussian 16, Revision B.01,
 Gaussian 16:  ES64L-G16RevB.01 20-Dec-2017

 -------------------------
 #P B3LYP/6-311+g(d) force
 -------------------------

 -----
 DPGEN
 -----
 Symbolic Z-matrix:
 Charge =  0 Multiplicity = 2

                         Standard orientation:
 ---------------------------------------------------------------------
 Center     Atomic      Atomic             Coordinates (Angstroms)
 Number     Number       Type             X           Y           Z
 ---------------------------------------------------------------------
      1         11           0        0.726141   -0.181277   -1.534808
      2         11           0       -1.498090   -2.150860   -0.967142
      3         11           0        0.171780   -1.070784    1.965331
      4         11           0       -1.157674    2.176609   -1.049411
      5         11           0        2.826093   -1.375590   -0.098918
      6         11           0       -2.943634    0.286122    0.989254
      7         11           0        1.875385    2.315779    0.695693
 ---------------------------------------------------------------------

 SCF Done:  E(UB3LYP) =  -1136.12577625     A.U. after   20 cycles

 The electronic state is 2-A.
 Alpha  occ. eigenvalues --  -38.44168 -38.44052 -38.43901 -38.43895 -38.43876
 Alpha  occ. eigenvalues --  -38.43396 -38.43077  -2.20050  -2.19895  -2.19782
 Alpha  occ. eigenvalues --   -2.19771  -2.19681  -2.19484  -2.18962  -1.13885
 Alpha  occ. eigenvalues --   -1.13698  -1.13639  -1.13567  -1.13556  -1.13542
 Alpha  occ. eigenvalues --   -1.13531  -1.13452  -1.13431  -1.13403  -1.13383
 Alpha  occ. eigenvalues --   -1.13373  -1.13356  -1.13341  -1.13314  -1.13170
 Alpha  occ. eigenvalues --   -1.13096  -1.13068  -1.12660  -1.12611  -1.12564
 Alpha  occ. eigenvalues --   -0.18786  -0.13106  -0.12045  -0.11524
 Alpha virt. eigenvalues --   -0.05688  -0.05086  -0.04100  -0.03558  -0.03165
 Alpha virt. eigenvalues --   -0.02888  -0.01421  -0.01010  -0.00340   0.00209
 Alpha virt. eigenvalues --    0.00291   0.00384   0.00530   0.00794   0.00849

  Beta  occ. eigenvalues --  -38.44165 -38.44034 -38.43867 -38.43866 -38.43835
  Beta  occ. eigenvalues --  -38.43329 -38.43063  -2.20049  -2.19863  -2.19724
  Beta  occ. eigenvalues --   -2.19665  -2.19658  -2.19365  -2.18939  -1.13870
  Beta  occ. eigenvalues --   -1.13685  -1.13636  -1.13542  -1.13524  -1.13520
  Beta  occ. eigenvalues --   -1.13482  -1.13381  -1.13361  -1.13344  -1.13338
  Beta  occ. eigenvalues --   -1.13327  -1.13324  -1.13305  -1.13299  -1.13092
  Beta  occ. eigenvalues --   -1.13018  -1.12972  -1.12630  -1.12591  -1.12550
  Beta  occ. eigenvalues --   -0.18034  -0.12890  -0.11843
  Beta virt. eigenvalues --   -0.07557  -0.05573  -0.04919  -0.03871  -0.03003
  Beta virt. eigenvalues --   -0.02566  -0.01868  -0.01329  -0.00902  -0.00147
  Beta virt. eigenvalues --    0.00250   0.00292   0.00424   0.00661   0.00857

 Mulliken charges and spin densities:
               1          2
     1  Na   0.211912  -0.055084
     2  Na  -0.175204   0.122288
     3  Na  -0.123700   0.521223
     4  Na   0.359157   0.096442
     5  Na   0.298011   0.137069
     6  Na  -0.163775   0.098066
     7  Na  -0.406400   0.079996
 Sum of Mulliken charges =  -0.00000   1.00000

 Dipole moment (field-independent basis, Debye):
    X=              0.1165    Y=             -0.2009    Z=              0.6351  Tot=              0.6762
 Quadrupole moment (field-independent basis, Debye-Ang):
   XX=            -57.8085   YY=            -68.1495   ZZ=            -68.7390
   XY=             -0.0557   XZ=              1.0874   YZ=              2.5489

 Normal termination of Gaussian 16 at Tue Dec  5 22:38:27 2023.
