 Gaussian 16, Revision B.01,
 Gaussian 16:  ES64L-G16RevB.01 20-Dec-2017

 -------------------------
 #P B3LYP/6-311+g(d) force
 -------------------------

 -----
 DPGEN
 -----
 Symbolic Z-matrix:
 Charge =  0 Multiplicity = 2

                         Standard orientation:
 ---------------------------------------------------------------------
 Center     Atomic      Atomic             Coordinates (Angstroms)
 Number     Number       Type             X           Y           Z
 ---------------------------------------------------------------------
      1         11           0       -3.145571    1.303933    0.450679
      2         11           0        2.915228   -2.035144    0.314161
      3         11           0        3.118443    1.463061   -0.430480
      4         11           0        0.140469   -0.284847    2.108817
      5         11           0       -0.077497   -0.739026   -1.559456
      6         11           0       -0.291960    2.632411   -0.389823
      7         11           0       -2.659111   -2.340387   -0.493898
 ---------------------------------------------------------------------

 SCF Done:  E(UB3LYP) =  -1136.12591631     A.U. after   22 cycles

 The electronic state is 2-A.
 Alpha  occ. eigenvalues --  -38.44684 -38.44560 -38.44512 -38.44420 -38.43757
 Alpha  occ. eigenvalues --  -38.43756 -38.42735  -2.20482  -2.20345  -2.20292
 Alpha  occ. eigenvalues --   -2.20234  -2.19632  -2.19557  -2.18584  -1.14160
 Alpha  occ. eigenvalues --   -1.14143  -1.14112  -1.14020  -1.13996  -1.13993
 Alpha  occ. eigenvalues --   -1.13960  -1.13948  -1.13929  -1.13904  -1.13874
 Alpha  occ. eigenvalues --   -1.13835  -1.13333  -1.13309  -1.13275  -1.13207
 Alpha  occ. eigenvalues --   -1.13198  -1.13174  -1.12273  -1.12249  -1.12225
 Alpha  occ. eigenvalues --   -0.17768  -0.13358  -0.11798  -0.10631
 Alpha virt. eigenvalues --   -0.06455  -0.06093  -0.04147  -0.03266  -0.02626
 Alpha virt. eigenvalues --   -0.02550  -0.02203  -0.01733  -0.00845  -0.00195
 Alpha virt. eigenvalues --   -0.00140   0.00219   0.00564   0.00601   0.00635

  Beta  occ. eigenvalues --  -38.44676 -38.44546 -38.44505 -38.44330 -38.43744
  Beta  occ. eigenvalues --  -38.43708 -38.42731  -2.20469  -2.20320  -2.20282
  Beta  occ. eigenvalues --   -2.20067  -2.19543  -2.19537  -2.18579  -1.14154
  Beta  occ. eigenvalues --   -1.14122  -1.14105  -1.13998  -1.13981  -1.13974
  Beta  occ. eigenvalues --   -1.13946  -1.13931  -1.13921  -1.13792  -1.13764
  Beta  occ. eigenvalues --   -1.13711  -1.13282  -1.13249  -1.13216  -1.13189
  Beta  occ. eigenvalues --   -1.13181  -1.13135  -1.12271  -1.12244  -1.12203
  Beta  occ. eigenvalues --   -0.17123  -0.13167  -0.11476
  Beta virt. eigenvalues --   -0.06987  -0.06257  -0.05935  -0.03964  -0.02771
  Beta virt. eigenvalues --   -0.02109  -0.01961  -0.01770  -0.01389  -0.00851
  Beta virt. eigenvalues --   -0.00167   0.00012   0.00275   0.00630   0.00676

 Mulliken charges and spin densities:
               1          2
     1  Na   0.230350   0.070988
     2  Na   0.153192   0.078075
     3  Na   0.051643   0.043086
     4  Na  -0.204845   0.516594
     5  Na  -0.008547   0.228273
     6  Na  -0.265869   0.019375
     7  Na   0.044075   0.043608
 Sum of Mulliken charges =  -0.00000   1.00000

 Dipole moment (field-independent basis, Debye):
    X=              0.2763    Y=             -0.2952    Z=              0.3299  Tot=              0.5218
 Quadrupole moment (field-independent basis, Debye-Ang):
   XX=            -50.0459   YY=            -69.0474   ZZ=            -74.8620
   XY=             -1.1752   XZ=             -1.9130   YZ=             -0.7787

 Normal termination of Gaussian 16 at Thu Dec  7 14:18:34 2023.
