 Gaussian 16, Revision B.01,
 Gaussian 16:  ES64L-G16RevB.01 20-Dec-2017

 -------------------------
 #P B3LYP/6-311+g(d) force
 -------------------------

 -----
 DPGEN
 -----
 Symbolic Z-matrix:
 Charge =  0 Multiplicity = 2

                         Standard orientation:
 ---------------------------------------------------------------------
 Center     Atomic      Atomic             Coordinates (Angstroms)
 Number     Number       Type             X           Y           Z
 ---------------------------------------------------------------------
      1         11           0       -3.042814   -2.167168   -0.438358
      2         11           0        0.160630   -0.322917    2.084260
      3         11           0       -2.914612    1.284137    0.393706
      4         11           0        2.999351   -1.994007    0.142395
      5         11           0        2.771864    1.460298   -0.230019
      6         11           0       -0.274801    2.415299   -0.479316
      7         11           0        0.300381   -0.675643   -1.472667
 ---------------------------------------------------------------------

 SCF Done:  E(UB3LYP) =  -1136.12385831     A.U. after   22 cycles

 The electronic state is 2-A.
 Alpha  occ. eigenvalues --  -38.44586 -38.44438 -38.44360 -38.44152 -38.44105
 Alpha  occ. eigenvalues --  -38.43809 -38.42516  -2.20430  -2.20298  -2.20167
 Alpha  occ. eigenvalues --   -2.19990  -2.19871  -2.19717  -2.18455  -1.14145
 Alpha  occ. eigenvalues --   -1.14084  -1.14049  -1.13980  -1.13963  -1.13939
 Alpha  occ. eigenvalues --   -1.13841  -1.13822  -1.13807  -1.13668  -1.13624
 Alpha  occ. eigenvalues --   -1.13592  -1.13537  -1.13532  -1.13509  -1.13421
 Alpha  occ. eigenvalues --   -1.13376  -1.13317  -1.12139  -1.12130  -1.12084
 Alpha  occ. eigenvalues --   -0.18391  -0.13668  -0.11722  -0.10628
 Alpha virt. eigenvalues --   -0.06388  -0.06257  -0.03972  -0.03334  -0.02606
 Alpha virt. eigenvalues --   -0.02380  -0.02201  -0.01650  -0.00757  -0.00167
 Alpha virt. eigenvalues --   -0.00003   0.00233   0.00559   0.00620   0.00715

  Beta  occ. eigenvalues --  -38.44581 -38.44429 -38.44360 -38.44095 -38.44056
  Beta  occ. eigenvalues --  -38.43760 -38.42507  -2.20423  -2.20285  -2.20169
  Beta  occ. eigenvalues --   -2.19853  -2.19812  -2.19628  -2.18442  -1.14145
  Beta  occ. eigenvalues --   -1.14064  -1.14044  -1.13973  -1.13941  -1.13924
  Beta  occ. eigenvalues --   -1.13840  -1.13817  -1.13802  -1.13549  -1.13522
  Beta  occ. eigenvalues --   -1.13517  -1.13502  -1.13497  -1.13461  -1.13358
  Beta  occ. eigenvalues --   -1.13305  -1.13251  -1.12134  -1.12119  -1.12046
  Beta  occ. eigenvalues --   -0.17688  -0.13491  -0.11458
  Beta virt. eigenvalues --   -0.06845  -0.06228  -0.06149  -0.03795  -0.02787
  Beta virt. eigenvalues --   -0.02100  -0.01844  -0.01715  -0.01263  -0.00805
  Beta virt. eigenvalues --   -0.00038   0.00076   0.00271   0.00637   0.00674

 Mulliken charges and spin densities:
               1          2
     1  Na   0.008027   0.025440
     2  Na  -0.410170   0.531840
     3  Na   0.382434   0.086486
     4  Na   0.236684   0.043678
     5  Na   0.326814   0.062763
     6  Na  -0.186656  -0.010924
     7  Na  -0.357134   0.260717
 Sum of Mulliken charges =  -0.00000   1.00000

 Dipole moment (field-independent basis, Debye):
    X=              0.4930    Y=             -0.3132    Z=              0.2938  Tot=              0.6538
 Quadrupole moment (field-independent basis, Debye-Ang):
   XX=            -50.6278   YY=            -68.2231   ZZ=            -75.0424
   XY=             -1.3023   XZ=             -0.5585   YZ=              0.2798

 Normal termination of Gaussian 16 at Thu Dec  7 16:22:04 2023.
