 Gaussian 16, Revision B.01,
 Gaussian 16:  ES64L-G16RevB.01 20-Dec-2017

 -------------------------
 #P B3LYP/6-311+g(d) force
 -------------------------

 -----
 DPGEN
 -----
 Symbolic Z-matrix:
 Charge =  0 Multiplicity = 2

                         Standard orientation:
 ---------------------------------------------------------------------
 Center     Atomic      Atomic             Coordinates (Angstroms)
 Number     Number       Type             X           Y           Z
 ---------------------------------------------------------------------
      1         11           0        0.977115    2.631990    0.414201
      2         11           0        1.095412   -2.375749    0.176402
      3         11           0       -2.841884    1.723375   -0.327060
      4         11           0        0.202351    0.389959   -1.182044
      5         11           0        3.504384    0.015094   -0.406542
      6         11           0       -2.302225   -1.968642   -0.586687
      7         11           0       -0.635153   -0.416027    1.911729
 ---------------------------------------------------------------------

 SCF Done:  E(UB3LYP) =  -1136.13048813     A.U. after   19 cycles

 The electronic state is 2-A.
 Alpha  occ. eigenvalues --  -38.44222 -38.44192 -38.43757 -38.43751 -38.43104
 Alpha  occ. eigenvalues --  -38.43101 -38.43055  -2.20038  -2.19994  -2.19619
 Alpha  occ. eigenvalues --   -2.19615  -2.19136  -2.19062  -2.19025  -1.13708
 Alpha  occ. eigenvalues --   -1.13695  -1.13677  -1.13674  -1.13648  -1.13627
 Alpha  occ. eigenvalues --   -1.13442  -1.13293  -1.13283  -1.13263  -1.13239
 Alpha  occ. eigenvalues --   -1.13200  -1.12891  -1.12810  -1.12783  -1.12735
 Alpha  occ. eigenvalues --   -1.12692  -1.12677  -1.12668  -1.12641  -1.12606
 Alpha  occ. eigenvalues --   -0.18819  -0.13238  -0.12412  -0.10357
 Alpha virt. eigenvalues --   -0.05998  -0.05344  -0.04387  -0.03018  -0.02717
 Alpha virt. eigenvalues --   -0.02010  -0.01958  -0.01233  -0.00521  -0.00138
 Alpha virt. eigenvalues --   -0.00009   0.00284   0.00738   0.00794   0.00855

  Beta  occ. eigenvalues --  -38.44212 -38.44182 -38.43740 -38.43739 -38.43093
  Beta  occ. eigenvalues --  -38.43024 -38.43008  -2.20022  -2.19979  -2.19602
  Beta  occ. eigenvalues --   -2.19585  -2.19083  -2.19011  -2.18891  -1.13687
  Beta  occ. eigenvalues --   -1.13685  -1.13666  -1.13654  -1.13641  -1.13609
  Beta  occ. eigenvalues --   -1.13429  -1.13271  -1.13256  -1.13232  -1.13209
  Beta  occ. eigenvalues --   -1.13191  -1.12846  -1.12760  -1.12722  -1.12692
  Beta  occ. eigenvalues --   -1.12647  -1.12625  -1.12594  -1.12555  -1.12514
  Beta  occ. eigenvalues --   -0.18134  -0.12943  -0.12188
  Beta virt. eigenvalues --   -0.06573  -0.05817  -0.05273  -0.04337  -0.02402
  Beta virt. eigenvalues --   -0.02023  -0.01817  -0.01243  -0.00999  -0.00443
  Beta virt. eigenvalues --   -0.00148   0.00144   0.00356   0.00801   0.00833

 Mulliken charges and spin densities:
               1          2
     1  Na   0.059722   0.061392
     2  Na   0.349980   0.096103
     3  Na   0.050369   0.055755
     4  Na  -0.544860   0.158912
     5  Na   0.255004   0.035026
     6  Na  -0.011178   0.125448
     7  Na  -0.159038   0.467363
 Sum of Mulliken charges =  -0.00000   1.00000

 Dipole moment (field-independent basis, Debye):
    X=             -0.0724    Y=              0.2070    Z=              0.2158  Tot=              0.3076
 Quadrupole moment (field-independent basis, Debye-Ang):
   XX=            -52.0990   YY=            -63.7517   ZZ=            -75.1706
   XY=             -0.0433   XZ=              0.8926   YZ=              1.7201

 Normal termination of Gaussian 16 at Tue Dec  5 21:26:03 2023.
