 Gaussian 16, Revision B.01,
 Gaussian 16:  ES64L-G16RevB.01 20-Dec-2017

 -------------------------
 #P B3LYP/6-311+g(d) force
 -------------------------

 -----
 DPGEN
 -----
 Symbolic Z-matrix:
 Charge =  0 Multiplicity = 2

                         Standard orientation:
 ---------------------------------------------------------------------
 Center     Atomic      Atomic             Coordinates (Angstroms)
 Number     Number       Type             X           Y           Z
 ---------------------------------------------------------------------
      1         11           0       -0.074045   -1.728753   -0.631903
      2         11           0        2.882496   -3.401570    0.059520
      3         11           0        2.974144   -0.037809    0.154555
      4         11           0        2.923718    3.539744   -0.410200
      5         11           0       -0.142188    1.928186    0.627887
      6         11           0       -2.911200   -0.722294    0.635347
      7         11           0       -5.652926    0.422496   -0.435206
 ---------------------------------------------------------------------

 SCF Done:  E(UB3LYP) =  -1136.12582955     A.U. after   19 cycles

 The electronic state is 2-A.
 Alpha  occ. eigenvalues --  -38.44678 -38.44174 -38.44163 -38.44124 -38.44026
 Alpha  occ. eigenvalues --  -38.43732 -38.43191  -2.20469  -2.20001  -2.19965
 Alpha  occ. eigenvalues --   -2.19944  -2.19890  -2.19550  -2.19052  -1.14171
 Alpha  occ. eigenvalues --   -1.14157  -1.14052  -1.13676  -1.13673  -1.13646
 Alpha  occ. eigenvalues --   -1.13625  -1.13622  -1.13613  -1.13611  -1.13584
 Alpha  occ. eigenvalues --   -1.13572  -1.13560  -1.13535  -1.13499  -1.13211
 Alpha  occ. eigenvalues --   -1.13206  -1.13172  -1.12743  -1.12723  -1.12698
 Alpha  occ. eigenvalues --   -0.16888  -0.13894  -0.12677  -0.10834
 Alpha virt. eigenvalues --   -0.06032  -0.05462  -0.04811  -0.03672  -0.02537
 Alpha virt. eigenvalues --   -0.02409  -0.01922  -0.01661  -0.01120  -0.00785
 Alpha virt. eigenvalues --   -0.00414  -0.00047   0.00304   0.00464   0.00607

  Beta  occ. eigenvalues --  -38.44656 -38.44150 -38.44109 -38.44064 -38.43995
  Beta  occ. eigenvalues --  -38.43713 -38.43185  -2.20430  -2.19938  -2.19920
  Beta  occ. eigenvalues --   -2.19835  -2.19796  -2.19514  -2.19051  -1.14146
  Beta  occ. eigenvalues --   -1.14129  -1.14017  -1.13657  -1.13648  -1.13595
  Beta  occ. eigenvalues --   -1.13592  -1.13557  -1.13549  -1.13526  -1.13512
  Beta  occ. eigenvalues --   -1.13510  -1.13485  -1.13483  -1.13448  -1.13184
  Beta  occ. eigenvalues --   -1.13178  -1.13152  -1.12740  -1.12723  -1.12642
  Beta  occ. eigenvalues --   -0.16352  -0.13038  -0.12545
  Beta virt. eigenvalues --   -0.07364  -0.05731  -0.05301  -0.04433  -0.03306
  Beta virt. eigenvalues --   -0.02348  -0.02105  -0.01824  -0.01403  -0.00696
  Beta virt. eigenvalues --   -0.00529  -0.00019   0.00146   0.00427   0.00601

 Mulliken charges and spin densities:
               1          2
     1  Na  -0.877006  -0.074752
     2  Na   0.913206   0.135637
     3  Na  -0.816223   0.272678
     4  Na   0.678943   0.065746
     5  Na  -0.246597   0.051964
     6  Na   0.182512   0.033545
     7  Na   0.165165   0.515182
 Sum of Mulliken charges =  -0.00000   1.00000

 Dipole moment (field-independent basis, Debye):
    X=              1.1148    Y=              0.4328    Z=             -0.1669  Tot=              1.2074
 Quadrupole moment (field-independent basis, Debye-Ang):
   XX=            -69.3878   YY=            -58.5884   ZZ=            -70.4883
   XY=             -0.6353   XZ=              0.7057   YZ=             -1.4161

 Normal termination of Gaussian 16 at Tue Nov 28 22:40:02 2023.
