 Gaussian 16, Revision B.01,
 Gaussian 16:  ES64L-G16RevB.01 20-Dec-2017

 -------------------------
 #P B3LYP/6-311+g(d) force
 -------------------------

 -----
 DPGEN
 -----
 Symbolic Z-matrix:
 Charge =  0 Multiplicity = 2

                         Standard orientation:
 ---------------------------------------------------------------------
 Center     Atomic      Atomic             Coordinates (Angstroms)
 Number     Number       Type             X           Y           Z
 ---------------------------------------------------------------------
      1         11           0       -2.024763    3.047385   -0.254485
      2         11           0        1.187968    3.642220    0.299427
      3         11           0        4.088086    1.068639   -0.170103
      4         11           0        3.517396   -2.096269   -0.103132
      5         11           0       -3.067685   -2.444646   -0.294996
      6         11           0       -4.020979    0.373610    0.203924
      7         11           0        0.319977   -3.590939    0.319367
 ---------------------------------------------------------------------

 SCF Done:  E(UB3LYP) =  -1136.10810831     A.U. after   25 cycles

 The electronic state is 2-A.
 Alpha  occ. eigenvalues --  -38.45087 -38.44846 -38.44759 -38.44719 -38.44451
 Alpha  occ. eigenvalues --  -38.44196 -38.43981  -2.20891  -2.20633  -2.20553
 Alpha  occ. eigenvalues --   -2.20494  -2.20252  -2.20047  -2.19776  -1.14602
 Alpha  occ. eigenvalues --   -1.14554  -1.14537  -1.14316  -1.14308  -1.14289
 Alpha  occ. eigenvalues --   -1.14240  -1.14225  -1.14214  -1.14160  -1.14145
 Alpha  occ. eigenvalues --   -1.14110  -1.13905  -1.13899  -1.13879  -1.13710
 Alpha  occ. eigenvalues --   -1.13682  -1.13677  -1.13428  -1.13419  -1.13402
 Alpha  occ. eigenvalues --   -0.15761  -0.14227  -0.13643  -0.10894
 Alpha virt. eigenvalues --   -0.07950  -0.04521  -0.04409  -0.03665  -0.03599
 Alpha virt. eigenvalues --   -0.02595  -0.02267  -0.01902  -0.01516  -0.00303
 Alpha virt. eigenvalues --   -0.00239   0.00001   0.00035   0.00318   0.00379

  Beta  occ. eigenvalues --  -38.45079 -38.44837 -38.44744 -38.44689 -38.44396
  Beta  occ. eigenvalues --  -38.44152 -38.43907  -2.20884  -2.20624  -2.20529
  Beta  occ. eigenvalues --   -2.20443  -2.20153  -2.19967  -2.19638  -1.14581
  Beta  occ. eigenvalues --   -1.14555  -1.14507  -1.14308  -1.14308  -1.14242
  Beta  occ. eigenvalues --   -1.14213  -1.14211  -1.14184  -1.14127  -1.14114
  Beta  occ. eigenvalues --   -1.14061  -1.13838  -1.13833  -1.13806  -1.13655
  Beta  occ. eigenvalues --   -1.13629  -1.13623  -1.13334  -1.13327  -1.13312
  Beta  occ. eigenvalues --   -0.15239  -0.13504  -0.12809
  Beta virt. eigenvalues --   -0.08156  -0.07758  -0.04006  -0.03918  -0.03393
  Beta virt. eigenvalues --   -0.03275  -0.02415  -0.02043  -0.01831  -0.01350
  Beta virt. eigenvalues --   -0.00012   0.00103   0.00194   0.00283   0.00328

 Mulliken charges and spin densities:
               1          2
     1  Na  -0.309761   0.040990
     2  Na   0.219118   0.134162
     3  Na   0.048957   0.221424
     4  Na   0.393489   0.040915
     5  Na  -0.013884   0.038870
     6  Na  -0.191946   0.188995
     7  Na  -0.145972   0.334645
 Sum of Mulliken charges =  -0.00000   1.00000

 Dipole moment (field-independent basis, Debye):
    X=             -0.1077    Y=              0.3473    Z=             -0.0434  Tot=              0.3662
 Quadrupole moment (field-independent basis, Debye-Ang):
   XX=            -62.2257   YY=            -65.0284   ZZ=            -73.4666
   XY=              1.4461   XZ=              0.6255   YZ=              0.7926

 Normal termination of Gaussian 16 at Mon Dec  4 05:03:03 2023.
