 Gaussian 16, Revision B.01,
 Gaussian 16:  ES64L-G16RevB.01 20-Dec-2017

 -------------------------
 #P B3LYP/6-311+g(d) force
 -------------------------

 -----
 DPGEN
 -----
 Symbolic Z-matrix:
 Charge =  0 Multiplicity = 2

                         Standard orientation:
 ---------------------------------------------------------------------
 Center     Atomic      Atomic             Coordinates (Angstroms)
 Number     Number       Type             X           Y           Z
 ---------------------------------------------------------------------
      1         11           0       -3.329458   -0.944843    0.135635
      2         11           0       -0.157701    0.071505   -1.848175
      3         11           0        2.315673    1.903687   -0.323370
      4         11           0       -0.195146   -2.587417   -0.217029
      5         11           0       -1.759749    2.528598    0.026831
      6         11           0        2.980626   -1.219270    0.207894
      7         11           0        0.145755    0.247740    2.018213
 ---------------------------------------------------------------------

 SCF Done:  E(UB3LYP) =  -1136.13465100     A.U. after   19 cycles

 The electronic state is 2-A.
 Alpha  occ. eigenvalues --  -38.44735 -38.44010 -38.43811 -38.43810 -38.43556
 Alpha  occ. eigenvalues --  -38.43526 -38.42831  -2.20508  -2.19853  -2.19684
 Alpha  occ. eigenvalues --   -2.19658  -2.19460  -2.19361  -2.18715  -1.14185
 Alpha  occ. eigenvalues --   -1.14158  -1.14150  -1.13544  -1.13516  -1.13502
 Alpha  occ. eigenvalues --   -1.13361  -1.13338  -1.13331  -1.13307  -1.13294
 Alpha  occ. eigenvalues --   -1.13283  -1.13155  -1.13110  -1.13071  -1.13035
 Alpha  occ. eigenvalues --   -1.13019  -1.12991  -1.12424  -1.12376  -1.12323
 Alpha  occ. eigenvalues --   -0.18465  -0.13168  -0.12010  -0.10838
 Alpha virt. eigenvalues --   -0.06164  -0.05378  -0.04080  -0.03353  -0.02816
 Alpha virt. eigenvalues --   -0.02690  -0.01921  -0.01195  -0.00413  -0.00163
 Alpha virt. eigenvalues --   -0.00048   0.00336   0.00708   0.00794   0.00826

  Beta  occ. eigenvalues --  -38.44737 -38.44007 -38.43802 -38.43725 -38.43554
  Beta  occ. eigenvalues --  -38.43447 -38.42822  -2.20512  -2.19850  -2.19645
  Beta  occ. eigenvalues --   -2.19528  -2.19360  -2.19314  -2.18702  -1.14177
  Beta  occ. eigenvalues --   -1.14161  -1.14155  -1.13545  -1.13505  -1.13487
  Beta  occ. eigenvalues --   -1.13324  -1.13292  -1.13281  -1.13251  -1.13204
  Beta  occ. eigenvalues --   -1.13186  -1.13057  -1.13048  -1.13017  -1.12995
  Beta  occ. eigenvalues --   -1.12981  -1.12958  -1.12410  -1.12343  -1.12320
  Beta  occ. eigenvalues --   -0.17710  -0.12984  -0.11759
  Beta virt. eigenvalues --   -0.06933  -0.06093  -0.05370  -0.04056  -0.02604
  Beta virt. eigenvalues --   -0.02027  -0.01815  -0.01646  -0.01128  -0.00474
  Beta virt. eigenvalues --   -0.00181   0.00085   0.00351   0.00778   0.00812

 Mulliken charges and spin densities:
               1          2
     1  Na  -0.004365  -0.085889
     2  Na  -0.117326   0.614199
     3  Na   0.226000  -0.078480
     4  Na   0.157550  -0.055739
     5  Na   0.010729  -0.156497
     6  Na   0.138346   0.023079
     7  Na  -0.410932   0.739327
 Sum of Mulliken charges =  -0.00000   1.00000

 Dipole moment (field-independent basis, Debye):
    X=             -0.2941    Y=              0.1068    Z=              0.1743  Tot=              0.3582
 Quadrupole moment (field-independent basis, Debye-Ang):
   XX=            -52.1542   YY=            -67.2482   ZZ=            -73.7933
   XY=              0.0536   XZ=             -0.6341   YZ=             -0.8211

 Normal termination of Gaussian 16 at Tue Dec  5 21:53:57 2023.
