 Gaussian 16, Revision B.01,
 Gaussian 16:  ES64L-G16RevB.01 20-Dec-2017

 -------------------------
 #P B3LYP/6-311+g(d) force
 -------------------------

 -----
 DPGEN
 -----
 Symbolic Z-matrix:
 Charge =  0 Multiplicity = 2

                         Standard orientation:
 ---------------------------------------------------------------------
 Center     Atomic      Atomic             Coordinates (Angstroms)
 Number     Number       Type             X           Y           Z
 ---------------------------------------------------------------------
      1         11           0        0.765022   -2.009138    0.281642
      2         11           0       -0.028153    0.987236    2.104151
      3         11           0        3.763896   -1.532547   -0.141788
      4         11           0       -2.898332   -0.953794   -1.880817
      5         11           0        2.544717    1.945062   -0.239961
      6         11           0       -0.563494    1.728725   -1.624005
      7         11           0       -3.583654   -0.165545    1.500777
 ---------------------------------------------------------------------

 SCF Done:  E(UB3LYP) =  -1136.11765976     A.U. after   24 cycles

 The electronic state is 2-A.
 Alpha  occ. eigenvalues --  -38.45279 -38.44766 -38.44455 -38.43986 -38.43798
 Alpha  occ. eigenvalues --  -38.43758 -38.43596  -2.21041  -2.20588  -2.20258
 Alpha  occ. eigenvalues --   -2.19802  -2.19613  -2.19576  -2.19416  -1.14711
 Alpha  occ. eigenvalues --   -1.14697  -1.14677  -1.14273  -1.14235  -1.14183
 Alpha  occ. eigenvalues --   -1.13918  -1.13910  -1.13881  -1.13494  -1.13476
 Alpha  occ. eigenvalues --   -1.13455  -1.13309  -1.13278  -1.13256  -1.13251
 Alpha  occ. eigenvalues --   -1.13235  -1.13173  -1.13071  -1.13066  -1.13053
 Alpha  occ. eigenvalues --   -0.17397  -0.13655  -0.11767  -0.11158
 Alpha virt. eigenvalues --   -0.06939  -0.05321  -0.04779  -0.03293  -0.03072
 Alpha virt. eigenvalues --   -0.02646  -0.02365  -0.01263  -0.00980  -0.00232
 Alpha virt. eigenvalues --    0.00015   0.00100   0.00201   0.00330   0.00563

  Beta  occ. eigenvalues --  -38.45255 -38.44692 -38.44403 -38.43982 -38.43798
  Beta  occ. eigenvalues --  -38.43719 -38.43597  -2.20999  -2.20453  -2.20162
  Beta  occ. eigenvalues --   -2.19795  -2.19613  -2.19506  -2.19418  -1.14685
  Beta  occ. eigenvalues --   -1.14656  -1.14643  -1.14182  -1.14146  -1.14076
  Beta  occ. eigenvalues --   -1.13848  -1.13839  -1.13819  -1.13475  -1.13472
  Beta  occ. eigenvalues --   -1.13454  -1.13299  -1.13273  -1.13251  -1.13212
  Beta  occ. eigenvalues --   -1.13189  -1.13118  -1.13071  -1.13068  -1.13055
  Beta  occ. eigenvalues --   -0.16739  -0.13375  -0.11109
  Beta virt. eigenvalues --   -0.07855  -0.06749  -0.04905  -0.04253  -0.03050
  Beta virt. eigenvalues --   -0.02545  -0.02234  -0.02092  -0.01173  -0.00585
  Beta virt. eigenvalues --   -0.00033   0.00104   0.00157   0.00315   0.00439

 Mulliken charges and spin densities:
               1          2
     1  Na  -0.656950   0.150066
     2  Na   0.025369   0.425378
     3  Na   0.300650  -0.143075
     4  Na   0.372098   0.294748
     5  Na   0.290112   0.125324
     6  Na  -0.379916   0.140704
     7  Na   0.048637   0.006854
 Sum of Mulliken charges =  -0.00000   1.00000

 Dipole moment (field-independent basis, Debye):
    X=             -0.6786    Y=              0.3918    Z=              0.2552  Tot=              0.8241
 Quadrupole moment (field-independent basis, Debye-Ang):
   XX=            -52.6350   YY=            -78.1238   ZZ=            -67.1518
   XY=              4.8044   XZ=             -1.8579   YZ=              2.0128

 Normal termination of Gaussian 16 at Sun Dec  3 17:24:21 2023.
