 Gaussian 16, Revision B.01,
 Gaussian 16:  ES64L-G16RevB.01 20-Dec-2017

 -------------------------
 #P B3LYP/6-311+g(d) force
 -------------------------

 -----
 DPGEN
 -----
 Symbolic Z-matrix:
 Charge =  0 Multiplicity = 2

                         Standard orientation:
 ---------------------------------------------------------------------
 Center     Atomic      Atomic             Coordinates (Angstroms)
 Number     Number       Type             X           Y           Z
 ---------------------------------------------------------------------
      1         11           0       -0.323275   -0.244155   -1.619647
      2         11           0        0.582871   -2.526921    0.308765
      3         11           0       -2.918764   -1.246912   -0.292424
      4         11           0        3.035915   -0.668777   -0.417224
      5         11           0       -2.114669    2.091991    0.087063
      6         11           0        1.638202    2.567443   -0.194423
      7         11           0        0.099719    0.027332    2.127891
 ---------------------------------------------------------------------

 SCF Done:  E(UB3LYP) =  -1136.13544969     A.U. after   19 cycles

 The electronic state is 2-A.
 Alpha  occ. eigenvalues --  -38.43962 -38.43926 -38.43803 -38.43729 -38.43409
 Alpha  occ. eigenvalues --  -38.43368 -38.43025  -2.19818  -2.19783  -2.19702
 Alpha  occ. eigenvalues --   -2.19566  -2.19371  -2.19217  -2.18969  -1.13510
 Alpha  occ. eigenvalues --   -1.13499  -1.13479  -1.13459  -1.13432  -1.13413
 Alpha  occ. eigenvalues --   -1.13383  -1.13330  -1.13313  -1.13252  -1.13234
 Alpha  occ. eigenvalues --   -1.13187  -1.13074  -1.13005  -1.12987  -1.12892
 Alpha  occ. eigenvalues --   -1.12880  -1.12855  -1.12655  -1.12629  -1.12578
 Alpha  occ. eigenvalues --   -0.18826  -0.13220  -0.12265  -0.11029
 Alpha virt. eigenvalues --   -0.05528  -0.05335  -0.04349  -0.03328  -0.02925
 Alpha virt. eigenvalues --   -0.02713  -0.01573  -0.01044  -0.00279  -0.00176
 Alpha virt. eigenvalues --    0.00009   0.00343   0.00773   0.00889   0.00927

  Beta  occ. eigenvalues --  -38.43953 -38.43919 -38.43725 -38.43698 -38.43407
  Beta  occ. eigenvalues --  -38.43312 -38.43011  -2.19804  -2.19774  -2.19562
  Beta  occ. eigenvalues --   -2.19511  -2.19268  -2.19216  -2.18949  -1.13495
  Beta  occ. eigenvalues --   -1.13491  -1.13453  -1.13448  -1.13420  -1.13403
  Beta  occ. eigenvalues --   -1.13258  -1.13246  -1.13225  -1.13190  -1.13181
  Beta  occ. eigenvalues --   -1.13176  -1.13007  -1.12935  -1.12912  -1.12881
  Beta  occ. eigenvalues --   -1.12876  -1.12852  -1.12642  -1.12574  -1.12567
  Beta  occ. eigenvalues --   -0.18090  -0.12965  -0.12032
  Beta virt. eigenvalues --   -0.07071  -0.05465  -0.05324  -0.04315  -0.02550
  Beta virt. eigenvalues --   -0.02133  -0.01663  -0.01463  -0.00999  -0.00316
  Beta virt. eigenvalues --   -0.00161   0.00119   0.00380   0.00854   0.00880

 Mulliken charges and spin densities:
               1          2
     1  Na  -0.396347   0.421994
     2  Na   0.500166   0.104134
     3  Na   0.385501  -0.017304
     4  Na   0.027983  -0.028653
     5  Na   0.013931  -0.058741
     6  Na  -0.048802  -0.057112
     7  Na  -0.482432   0.635682
 Sum of Mulliken charges =  -0.00000   1.00000

 Dipole moment (field-independent basis, Debye):
    X=             -0.1786    Y=              0.0970    Z=              0.1120  Tot=              0.2320
 Quadrupole moment (field-independent basis, Debye-Ang):
   XX=            -55.8116   YY=            -65.3256   ZZ=            -72.9931
   XY=              0.1528   XZ=             -1.1373   YZ=             -0.2117

 Normal termination of Gaussian 16 at Thu Dec  7 03:15:32 2023.
