 Gaussian 16, Revision B.01,
 Gaussian 16:  ES64L-G16RevB.01 20-Dec-2017

 -------------------------
 #P B3LYP/6-311+g(d) force
 -------------------------

 -----
 DPGEN
 -----
 Symbolic Z-matrix:
 Charge =  0 Multiplicity = 2

                         Standard orientation:
 ---------------------------------------------------------------------
 Center     Atomic      Atomic             Coordinates (Angstroms)
 Number     Number       Type             X           Y           Z
 ---------------------------------------------------------------------
      1         11           0        0.338021   -2.431177    1.326451
      2         11           0        2.249996    1.881950   -0.543808
      3         11           0       -0.034515   -0.281704   -1.317738
      4         11           0       -0.428854    2.805393    0.877643
      5         11           0       -3.364756   -0.661591   -1.386373
      6         11           0        3.160851   -1.371025   -0.305768
      7         11           0       -1.920743    0.058154    1.349595
 ---------------------------------------------------------------------

 SCF Done:  E(UB3LYP) =  -1136.12770620     A.U. after   20 cycles

 The electronic state is 2-A.
 Alpha  occ. eigenvalues --  -38.44407 -38.44030 -38.43798 -38.43707 -38.43515
 Alpha  occ. eigenvalues --  -38.43481 -38.43275  -2.20258  -2.19860  -2.19768
 Alpha  occ. eigenvalues --   -2.19561  -2.19473  -2.19361  -2.19145  -1.13916
 Alpha  occ. eigenvalues --   -1.13907  -1.13879  -1.13535  -1.13528  -1.13513
 Alpha  occ. eigenvalues --   -1.13491  -1.13434  -1.13389  -1.13246  -1.13206
 Alpha  occ. eigenvalues --   -1.13182  -1.13163  -1.13113  -1.13108  -1.13050
 Alpha  occ. eigenvalues --   -1.13032  -1.12998  -1.12803  -1.12780  -1.12766
 Alpha  occ. eigenvalues --   -0.18415  -0.13651  -0.12311  -0.11150
 Alpha virt. eigenvalues --   -0.06003  -0.05047  -0.04819  -0.03366  -0.02789
 Alpha virt. eigenvalues --   -0.02402  -0.02009  -0.00814  -0.00394  -0.00067
 Alpha virt. eigenvalues --   -0.00037   0.00277   0.00501   0.00658   0.00869

  Beta  occ. eigenvalues --  -38.44344 -38.44033 -38.43765 -38.43658 -38.43479
  Beta  occ. eigenvalues --  -38.43477 -38.43252  -2.20142  -2.19867  -2.19711
  Beta  occ. eigenvalues --   -2.19470  -2.19413  -2.19356  -2.19103  -1.13840
  Beta  occ. eigenvalues --   -1.13822  -1.13800  -1.13541  -1.13528  -1.13506
  Beta  occ. eigenvalues --   -1.13440  -1.13398  -1.13344  -1.13182  -1.13140
  Beta  occ. eigenvalues --   -1.13124  -1.13121  -1.13062  -1.13047  -1.13041
  Beta  occ. eigenvalues --   -1.13018  -1.12994  -1.12768  -1.12755  -1.12737
  Beta  occ. eigenvalues --   -0.17818  -0.13263  -0.12085
  Beta virt. eigenvalues --   -0.07430  -0.05797  -0.04781  -0.04393  -0.03024
  Beta virt. eigenvalues --   -0.02385  -0.01912  -0.01456  -0.00761  -0.00107
  Beta virt. eigenvalues --    0.00009   0.00086   0.00332   0.00660   0.00793

 Mulliken charges and spin densities:
               1          2
     1  Na  -0.595223   0.192470
     2  Na   0.504218   0.033243
     3  Na  -0.687627   0.169262
     4  Na  -0.543820   0.078167
     5  Na  -0.095774   0.233187
     6  Na   0.613789  -0.020224
     7  Na   0.804438   0.313895
 Sum of Mulliken charges =  -0.00000   1.00000

 Dipole moment (field-independent basis, Debye):
    X=              0.0651    Y=             -0.3431    Z=             -0.0112  Tot=              0.3494
 Quadrupole moment (field-independent basis, Debye-Ang):
   XX=            -55.0099   YY=            -68.9658   ZZ=            -70.6473
   XY=             -0.5659   XZ=              0.0516   YZ=              0.0871

 Normal termination of Gaussian 16 at Tue Nov 28 22:23:51 2023.
