 Gaussian 16, Revision B.01,
 Gaussian 16:  ES64L-G16RevB.01 20-Dec-2017

 -------------------------
 #P B3LYP/6-311+g(d) force
 -------------------------

 -----
 DPGEN
 -----
 Symbolic Z-matrix:
 Charge =  0 Multiplicity = 2

                         Standard orientation:
 ---------------------------------------------------------------------
 Center     Atomic      Atomic             Coordinates (Angstroms)
 Number     Number       Type             X           Y           Z
 ---------------------------------------------------------------------
      1         11           0        0.577391   -2.909728   -0.235377
      2         11           0       -0.027033    0.004820   -1.857143
      3         11           0       -2.900388   -1.156892    0.209134
      4         11           0       -1.954133    2.097557   -0.281486
      5         11           0        1.399206    2.635059    0.219467
      6         11           0        2.821256   -0.440976   -0.119706
      7         11           0        0.083701   -0.229841    2.065110
 ---------------------------------------------------------------------

 SCF Done:  E(UB3LYP) =  -1136.14101110     A.U. after   18 cycles

 The electronic state is 2-A.
 Alpha  occ. eigenvalues --  -38.43803 -38.43726 -38.43516 -38.43506 -38.43485
 Alpha  occ. eigenvalues --  -38.43444 -38.43292  -2.19693  -2.19543  -2.19467
 Alpha  occ. eigenvalues --   -2.19374  -2.19360  -2.19312  -2.19145  -1.13362
 Alpha  occ. eigenvalues --   -1.13326  -1.13318  -1.13214  -1.13210  -1.13187
 Alpha  occ. eigenvalues --   -1.13161  -1.13150  -1.13101  -1.13059  -1.13037
 Alpha  occ. eigenvalues --   -1.13032  -1.13023  -1.13005  -1.12978  -1.12970
 Alpha  occ. eigenvalues --   -1.12963  -1.12939  -1.12809  -1.12802  -1.12785
 Alpha  occ. eigenvalues --   -0.18764  -0.12883  -0.12538  -0.11106
 Alpha virt. eigenvalues --   -0.05287  -0.04917  -0.04878  -0.03260  -0.03099
 Alpha virt. eigenvalues --   -0.02865  -0.01227  -0.01112  -0.00241  -0.00152
 Alpha virt. eigenvalues --   -0.00026   0.00386   0.00870   0.00893   0.00916

  Beta  occ. eigenvalues --  -38.43724 -38.43712 -38.43500 -38.43478 -38.43439
  Beta  occ. eigenvalues --  -38.43438 -38.43288  -2.19541  -2.19526  -2.19366
  Beta  occ. eigenvalues --   -2.19353  -2.19326  -2.19303  -2.19141  -1.13256
  Beta  occ. eigenvalues --   -1.13222  -1.13206  -1.13197  -1.13193  -1.13174
  Beta  occ. eigenvalues --   -1.13103  -1.13072  -1.13051  -1.13037  -1.13008
  Beta  occ. eigenvalues --   -1.12993  -1.12990  -1.12972  -1.12959  -1.12955
  Beta  occ. eigenvalues --   -1.12937  -1.12930  -1.12802  -1.12794  -1.12774
  Beta  occ. eigenvalues --   -0.18002  -0.12635  -0.12306
  Beta virt. eigenvalues --   -0.07175  -0.05289  -0.04904  -0.04790  -0.02444
  Beta virt. eigenvalues --   -0.02312  -0.01809  -0.01141  -0.01033  -0.00288
  Beta virt. eigenvalues --   -0.00207   0.00099   0.00398   0.00892   0.00906

 Mulliken charges and spin densities:
               1          2
     1  Na   0.171865  -0.098994
     2  Na  -0.211493   0.542295
     3  Na   0.039325  -0.089739
     4  Na   0.175015  -0.041230
     5  Na   0.071266  -0.040267
     6  Na   0.258426  -0.031356
     7  Na  -0.504405   0.759292
 Sum of Mulliken charges =  -0.00000   1.00000

 Dipole moment (field-independent basis, Debye):
    X=             -0.0955    Y=             -0.1784    Z=              0.1163  Tot=              0.2333
 Quadrupole moment (field-independent basis, Debye-Ang):
   XX=            -60.7713   YY=            -61.7374   ZZ=            -72.2009
   XY=              0.5925   XZ=             -0.2342   YZ=              0.4641

 Normal termination of Gaussian 16 at Tue Dec  5 21:33:25 2023.
