 Gaussian 16, Revision B.01,
 Gaussian 16:  ES64L-G16RevB.01 20-Dec-2017

 -------------------------
 #P B3LYP/6-311+g(d) force
 -------------------------

 -----
 DPGEN
 -----
 Symbolic Z-matrix:
 Charge =  0 Multiplicity = 2

                         Standard orientation:
 ---------------------------------------------------------------------
 Center     Atomic      Atomic             Coordinates (Angstroms)
 Number     Number       Type             X           Y           Z
 ---------------------------------------------------------------------
      1         11           0        0.281706   -2.507663    0.905552
      2         11           0       -2.151801    0.319991    1.402834
      3         11           0        4.039626   -0.601325   -0.750879
      4         11           0       -3.716450   -0.780429   -1.099532
      5         11           0        1.358347    0.687968    1.461054
      6         11           0        0.170425   -0.414433   -1.571844
      7         11           0        0.018148    3.295890   -0.347186
 ---------------------------------------------------------------------

 SCF Done:  E(UB3LYP) =  -1136.12077285     A.U. after   23 cycles

 The electronic state is 2-A.
 Alpha  occ. eigenvalues --  -38.45168 -38.44763 -38.44183 -38.43997 -38.43922
 Alpha  occ. eigenvalues --  -38.43172 -38.42818  -2.20919  -2.20614  -2.19990
 Alpha  occ. eigenvalues --   -2.19858  -2.19767  -2.19090  -2.18603  -1.14591
 Alpha  occ. eigenvalues --   -1.14572  -1.14528  -1.14345  -1.14273  -1.14210
 Alpha  occ. eigenvalues --   -1.13709  -1.13633  -1.13616  -1.13541  -1.13510
 Alpha  occ. eigenvalues --   -1.13468  -1.13457  -1.13431  -1.13359  -1.12801
 Alpha  occ. eigenvalues --   -1.12752  -1.12692  -1.12277  -1.12261  -1.12241
 Alpha  occ. eigenvalues --   -0.17984  -0.13100  -0.11358  -0.10988
 Alpha virt. eigenvalues --   -0.07065  -0.04747  -0.04546  -0.03138  -0.02715
 Alpha virt. eigenvalues --   -0.02553  -0.02309  -0.01226  -0.00896  -0.00234
 Alpha virt. eigenvalues --   -0.00079   0.00088   0.00250   0.00755   0.00793

  Beta  occ. eigenvalues --  -38.45130 -38.44740 -38.44149 -38.43981 -38.43881
  Beta  occ. eigenvalues --  -38.43138 -38.42818  -2.20849  -2.20571  -2.19927
  Beta  occ. eigenvalues --   -2.19834  -2.19695  -2.19033  -2.18603  -1.14542
  Beta  occ. eigenvalues --   -1.14522  -1.14484  -1.14304  -1.14245  -1.14176
  Beta  occ. eigenvalues --   -1.13672  -1.13585  -1.13574  -1.13515  -1.13470
  Beta  occ. eigenvalues --   -1.13451  -1.13415  -1.13357  -1.13313  -1.12764
  Beta  occ. eigenvalues --   -1.12679  -1.12656  -1.12271  -1.12262  -1.12240
  Beta  occ. eigenvalues --   -0.17288  -0.12723  -0.11231
  Beta virt. eigenvalues --   -0.07381  -0.06731  -0.04396  -0.04282  -0.02938
  Beta virt. eigenvalues --   -0.02399  -0.02155  -0.01618  -0.00976  -0.00668
  Beta virt. eigenvalues --   -0.00095  -0.00005   0.00153   0.00333   0.00786

 Mulliken charges and spin densities:
               1          2
     1  Na  -0.062905   0.029711
     2  Na   0.163504   0.090474
     3  Na   0.060113   0.131359
     4  Na   0.089178   0.099978
     5  Na   0.286702   0.229351
     6  Na  -0.312794   0.458265
     7  Na  -0.223797  -0.039138
 Sum of Mulliken charges =  -0.00000   1.00000

 Dipole moment (field-independent basis, Debye):
    X=              0.4800    Y=             -0.5846    Z=             -0.1898  Tot=              0.7799
 Quadrupole moment (field-independent basis, Debye-Ang):
   XX=            -54.4378   YY=            -71.5595   ZZ=            -67.6752
   XY=             -0.5812   XZ=             -0.1137   YZ=             -1.4233

 Normal termination of Gaussian 16 at Tue Dec  5 12:01:52 2023.
