 Gaussian 16, Revision B.01,
 Gaussian 16:  ES64L-G16RevB.01 20-Dec-2017

 -------------------------
 #P B3LYP/6-311+g(d) force
 -------------------------

 -----
 DPGEN
 -----
 Symbolic Z-matrix:
 Charge =  0 Multiplicity = 2

                         Standard orientation:
 ---------------------------------------------------------------------
 Center     Atomic      Atomic             Coordinates (Angstroms)
 Number     Number       Type             X           Y           Z
 ---------------------------------------------------------------------
      1         11           0       -0.786238   -1.606382    0.536264
      2         11           0       -4.379844   -3.094675   -0.223925
      3         11           0       -2.989309    0.513590   -0.464373
      4         11           0       -2.411068    3.561060    0.009506
      5         11           0        0.837253    1.792545    0.072708
      6         11           0        3.398830   -0.404335    0.827968
      7         11           0        6.330376   -0.761804   -0.758148
 ---------------------------------------------------------------------

 SCF Done:  E(UB3LYP) =  -1136.11928491     A.U. after   20 cycles

 The electronic state is 2-A.
 Alpha  occ. eigenvalues --  -38.45022 -38.44657 -38.44573 -38.44506 -38.44100
 Alpha  occ. eigenvalues --  -38.43564 -38.43499  -2.20818  -2.20399  -2.20374
 Alpha  occ. eigenvalues --   -2.20312  -2.19970  -2.19396  -2.19299  -1.14545
 Alpha  occ. eigenvalues --   -1.14509  -1.14379  -1.14074  -1.14072  -1.14008
 Alpha  occ. eigenvalues --   -1.14008  -1.14007  -1.14006  -1.13994  -1.13988
 Alpha  occ. eigenvalues --   -1.13912  -1.13690  -1.13664  -1.13562  -1.13067
 Alpha  occ. eigenvalues --   -1.13043  -1.13010  -1.12992  -1.12981  -1.12944
 Alpha  occ. eigenvalues --   -0.16636  -0.13855  -0.12320  -0.11284
 Alpha virt. eigenvalues --   -0.06480  -0.05071  -0.04810  -0.03828  -0.02709
 Alpha virt. eigenvalues --   -0.02485  -0.01973  -0.01723  -0.01442  -0.00869
 Alpha virt. eigenvalues --   -0.00405  -0.00160   0.00113   0.00285   0.00631

  Beta  occ. eigenvalues --  -38.44992 -38.44647 -38.44481 -38.44469 -38.44082
  Beta  occ. eigenvalues --  -38.43534 -38.43505  -2.20764  -2.20380  -2.20267
  Beta  occ. eigenvalues --   -2.20180  -2.19939  -2.19341  -2.19318  -1.14514
  Beta  occ. eigenvalues --   -1.14475  -1.14321  -1.14061  -1.14057  -1.13995
  Beta  occ. eigenvalues --   -1.13979  -1.13951  -1.13879  -1.13876  -1.13875
  Beta  occ. eigenvalues --   -1.13867  -1.13657  -1.13645  -1.13538  -1.13021
  Beta  occ. eigenvalues --   -1.13013  -1.13006  -1.13002  -1.12979  -1.12898
  Beta  occ. eigenvalues --   -0.16112  -0.13084  -0.12063
  Beta virt. eigenvalues --   -0.07870  -0.06218  -0.04663  -0.04459  -0.03643
  Beta virt. eigenvalues --   -0.02489  -0.02234  -0.01611  -0.01407  -0.01258
  Beta virt. eigenvalues --   -0.00530  -0.00081  -0.00010   0.00289   0.00378

 Mulliken charges and spin densities:
               1          2
     1  Na  -0.450260   0.193957
     2  Na   0.664320   0.053659
     3  Na  -1.052227   0.227024
     4  Na   1.159420   0.164906
     5  Na  -0.718752  -0.069189
     6  Na   0.030130  -0.087740
     7  Na   0.367368   0.517382
 Sum of Mulliken charges =  -0.00000   1.00000

 Dipole moment (field-independent basis, Debye):
    X=             -0.8109    Y=             -0.3206    Z=             -0.1388  Tot=              0.8830
 Quadrupole moment (field-independent basis, Debye-Ang):
   XX=            -60.2708   YY=            -61.9262   ZZ=            -71.8499
   XY=              4.8272   XZ=             -1.8377   YZ=              0.3572

 Normal termination of Gaussian 16 at Tue Nov 28 23:07:07 2023.
