 Gaussian 16, Revision B.01,
 Gaussian 16:  ES64L-G16RevB.01 20-Dec-2017

 -------------------------
 #P B3LYP/6-311+g(d) force
 -------------------------

 -----
 DPGEN
 -----
 Symbolic Z-matrix:
 Charge =  0 Multiplicity = 2

                         Standard orientation:
 ---------------------------------------------------------------------
 Center     Atomic      Atomic             Coordinates (Angstroms)
 Number     Number       Type             X           Y           Z
 ---------------------------------------------------------------------
      1         11           0        3.065653   -1.385463    0.541186
      2         11           0       -1.625195    1.100053   -0.955193
      3         11           0       -4.048011   -0.448399   -0.018543
      4         11           0        0.083722    0.657763    2.252814
      5         11           0        1.450944   -0.637280   -2.019229
      6         11           0       -0.674040   -1.587582    0.368830
      7         11           0        1.746927    2.300908   -0.169864
 ---------------------------------------------------------------------

 SCF Done:  E(UB3LYP) =  -1136.12011050     A.U. after   24 cycles

 The electronic state is 2-A.
 Alpha  occ. eigenvalues --  -38.45040 -38.44354 -38.43885 -38.43673 -38.43577
 Alpha  occ. eigenvalues --  -38.43574 -38.42894  -2.20858  -2.20181  -2.19847
 Alpha  occ. eigenvalues --   -2.19624  -2.19491  -2.19482  -2.18747  -1.14569
 Alpha  occ. eigenvalues --   -1.14499  -1.14488  -1.13876  -1.13828  -1.13819
 Alpha  occ. eigenvalues --   -1.13617  -1.13583  -1.13417  -1.13318  -1.13277
 Alpha  occ. eigenvalues --   -1.13214  -1.13166  -1.13161  -1.13139  -1.13098
 Alpha  occ. eigenvalues --   -1.13095  -1.13076  -1.12417  -1.12405  -1.12383
 Alpha  occ. eigenvalues --   -0.18894  -0.13796  -0.11851  -0.10935
 Alpha virt. eigenvalues --   -0.06956  -0.04730  -0.03851  -0.03303  -0.03012
 Alpha virt. eigenvalues --   -0.02601  -0.02437  -0.01189  -0.00420  -0.00004
 Alpha virt. eigenvalues --    0.00147   0.00282   0.00395   0.00814   0.00904

  Beta  occ. eigenvalues --  -38.45044 -38.44347 -38.43847 -38.43642 -38.43526
  Beta  occ. eigenvalues --  -38.43506 -38.42880  -2.20866  -2.20170  -2.19783
  Beta  occ. eigenvalues --   -2.19570  -2.19404  -2.19352  -2.18723  -1.14572
  Beta  occ. eigenvalues --   -1.14503  -1.14493  -1.13864  -1.13816  -1.13806
  Beta  occ. eigenvalues --   -1.13577  -1.13491  -1.13379  -1.13279  -1.13223
  Beta  occ. eigenvalues --   -1.13177  -1.13104  -1.13086  -1.13076  -1.13020
  Beta  occ. eigenvalues --   -1.13009  -1.12979  -1.12394  -1.12380  -1.12365
  Beta  occ. eigenvalues --   -0.18050  -0.13662  -0.10810
  Beta virt. eigenvalues --   -0.07710  -0.06765  -0.04424  -0.03440  -0.02866
  Beta virt. eigenvalues --   -0.02714  -0.02258  -0.01733  -0.00937  -0.00278
  Beta virt. eigenvalues --    0.00077   0.00194   0.00344   0.00477   0.00880

 Mulliken charges and spin densities:
               1          2
     1  Na   0.217018  -0.074192
     2  Na  -0.310797   0.120024
     3  Na   0.567774  -0.029443
     4  Na  -0.246115   0.418803
     5  Na   0.215975   0.406130
     6  Na  -0.347824   0.274284
     7  Na  -0.096031  -0.115606
 Sum of Mulliken charges =  -0.00000   1.00000

 Dipole moment (field-independent basis, Debye):
    X=             -0.7521    Y=             -0.0282    Z=              0.3534  Tot=              0.8315
 Quadrupole moment (field-independent basis, Debye-Ang):
   XX=            -48.3945   YY=            -77.2091   ZZ=            -67.7732
   XY=              1.6684   XZ=              0.9328   YZ=             -4.8579

 Normal termination of Gaussian 16 at Thu Dec  7 08:55:29 2023.
