 Gaussian 16, Revision B.01,
 Gaussian 16:  ES64L-G16RevB.01 20-Dec-2017

 -------------------------
 #P B3LYP/6-311+g(d) force
 -------------------------

 -----
 DPGEN
 -----
 Symbolic Z-matrix:
 Charge =  0 Multiplicity = 2

                         Standard orientation:
 ---------------------------------------------------------------------
 Center     Atomic      Atomic             Coordinates (Angstroms)
 Number     Number       Type             X           Y           Z
 ---------------------------------------------------------------------
      1         11           0        1.939499    3.697319    0.554055
      2         11           0       -4.306726    0.736863   -0.497779
      3         11           0        0.053529   -2.955338    1.416776
      4         11           0       -2.768126   -2.556640   -0.399636
      5         11           0        3.863978    0.871989   -0.641256
      6         11           0       -1.784595    3.113336    0.130589
      7         11           0        3.002442   -2.907529   -0.562749
 ---------------------------------------------------------------------

 SCF Done:  E(UB3LYP) =  -1136.10639392     A.U. after   24 cycles

 The electronic state is 2-A.
 Alpha  occ. eigenvalues --  -38.45680 -38.45371 -38.44748 -38.44701 -38.44220
 Alpha  occ. eigenvalues --  -38.44144 -38.43632  -2.21405  -2.21113  -2.20527
 Alpha  occ. eigenvalues --   -2.20485  -2.19997  -2.19928  -2.19413  -1.15099
 Alpha  occ. eigenvalues --   -1.15079  -1.15026  -1.14802  -1.14789  -1.14730
 Alpha  occ. eigenvalues --   -1.14214  -1.14199  -1.14176  -1.14151  -1.14133
 Alpha  occ. eigenvalues --   -1.14098  -1.13662  -1.13643  -1.13626  -1.13595
 Alpha  occ. eigenvalues --   -1.13579  -1.13566  -1.13074  -1.13059  -1.13049
 Alpha  occ. eigenvalues --   -0.15362  -0.13567  -0.13456  -0.10613
 Alpha virt. eigenvalues --   -0.07821  -0.05065  -0.04598  -0.03436  -0.03411
 Alpha virt. eigenvalues --   -0.02303  -0.02215  -0.01876  -0.01574  -0.00939
 Alpha virt. eigenvalues --   -0.00659  -0.00150   0.00023   0.00355   0.00605

  Beta  occ. eigenvalues --  -38.45669 -38.45348 -38.44734 -38.44667 -38.44171
  Beta  occ. eigenvalues --  -38.44114 -38.43585  -2.21388  -2.21076  -2.20504
  Beta  occ. eigenvalues --   -2.20423  -2.19906  -2.19873  -2.19326  -1.15092
  Beta  occ. eigenvalues --   -1.15072  -1.14982  -1.14782  -1.14769  -1.14673
  Beta  occ. eigenvalues --   -1.14190  -1.14187  -1.14143  -1.14111  -1.14095
  Beta  occ. eigenvalues --   -1.14048  -1.13601  -1.13586  -1.13559  -1.13558
  Beta  occ. eigenvalues --   -1.13545  -1.13517  -1.13015  -1.13002  -1.12990
  Beta  occ. eigenvalues --   -0.14855  -0.12881  -0.12760
  Beta virt. eigenvalues --   -0.08039  -0.07464  -0.04616  -0.04150  -0.03185
  Beta virt. eigenvalues --   -0.03106  -0.02113  -0.01962  -0.01695  -0.01370
  Beta virt. eigenvalues --   -0.00719  -0.00409   0.00051   0.00215   0.00330

 Mulliken charges and spin densities:
               1          2
     1  Na   0.187982   0.240261
     2  Na   0.288520   0.082261
     3  Na  -0.283160   0.050440
     4  Na  -0.092873   0.132527
     5  Na  -0.136264   0.087748
     6  Na  -0.115978   0.180171
     7  Na   0.151773   0.226592
 Sum of Mulliken charges =  -0.00000   1.00000

 Dipole moment (field-independent basis, Debye):
    X=             -0.1470    Y=             -0.4156    Z=             -0.0772  Tot=              0.4476
 Quadrupole moment (field-independent basis, Debye-Ang):
   XX=            -63.4837   YY=            -67.9839   ZZ=            -69.8149
   XY=              1.5010   XZ=              0.3626   YZ=              1.6186

 Normal termination of Gaussian 16 at Sun Dec  3 17:29:14 2023.
