 Gaussian 16, Revision B.01,
 Gaussian 16:  ES64L-G16RevB.01 20-Dec-2017

 -------------------------
 #P B3LYP/6-311+g(d) force
 -------------------------

 -----
 DPGEN
 -----
 Symbolic Z-matrix:
 Charge =  0 Multiplicity = 2

                         Standard orientation:
 ---------------------------------------------------------------------
 Center     Atomic      Atomic             Coordinates (Angstroms)
 Number     Number       Type             X           Y           Z
 ---------------------------------------------------------------------
      1         11           0       -0.347418    3.354796    1.379589
      2         11           0       -4.104493   -1.899220    0.062406
      3         11           0       -2.757097    0.620620    0.033626
      4         11           0        3.789859   -0.031442   -0.657150
      5         11           0        2.852247   -2.130021    1.465573
      6         11           0       -0.033690   -1.930661   -0.804473
      7         11           0        0.600593    2.015929   -1.479571
 ---------------------------------------------------------------------

 SCF Done:  E(UB3LYP) =  -1136.11361347     A.U. after   24 cycles

 The electronic state is 2-A.
 Alpha  occ. eigenvalues --  -38.45624 -38.45185 -38.44454 -38.43968 -38.43833
 Alpha  occ. eigenvalues --  -38.43478 -38.43213  -2.21410  -2.20948  -2.20284
 Alpha  occ. eigenvalues --   -2.19834  -2.19670  -2.19280  -2.19041  -1.15096
 Alpha  occ. eigenvalues --   -1.15071  -1.15047  -1.14651  -1.14627  -1.14533
 Alpha  occ. eigenvalues --   -1.14080  -1.13922  -1.13895  -1.13508  -1.13496
 Alpha  occ. eigenvalues --   -1.13429  -1.13333  -1.13312  -1.13297  -1.12939
 Alpha  occ. eigenvalues --   -1.12937  -1.12915  -1.12719  -1.12704  -1.12660
 Alpha  occ. eigenvalues --   -0.16723  -0.13946  -0.12442  -0.09923
 Alpha virt. eigenvalues --   -0.07298  -0.05158  -0.04413  -0.03798  -0.03296
 Alpha virt. eigenvalues --   -0.02481  -0.01796  -0.01528  -0.00849  -0.00718
 Alpha virt. eigenvalues --   -0.00231   0.00033   0.00048   0.00557   0.00706

  Beta  occ. eigenvalues --  -38.45616 -38.45150 -38.44454 -38.43958 -38.43784
  Beta  occ. eigenvalues --  -38.43439 -38.43183  -2.21400  -2.20886  -2.20283
  Beta  occ. eigenvalues --   -2.19817  -2.19577  -2.19207  -2.18987  -1.15084
  Beta  occ. eigenvalues --   -1.15065  -1.15013  -1.14608  -1.14568  -1.14496
  Beta  occ. eigenvalues --   -1.14078  -1.13922  -1.13890  -1.13498  -1.13469
  Beta  occ. eigenvalues --   -1.13418  -1.13266  -1.13248  -1.13236  -1.12891
  Beta  occ. eigenvalues --   -1.12887  -1.12866  -1.12685  -1.12669  -1.12599
  Beta  occ. eigenvalues --   -0.16173  -0.13570  -0.12195
  Beta virt. eigenvalues --   -0.07093  -0.06560  -0.04979  -0.03881  -0.03607
  Beta virt. eigenvalues --   -0.02873  -0.02358  -0.01567  -0.01082  -0.00653
  Beta virt. eigenvalues --   -0.00589  -0.00038   0.00122   0.00292   0.00654

 Mulliken charges and spin densities:
               1          2
     1  Na   0.079652   0.223473
     2  Na   0.854500  -0.025863
     3  Na  -0.861060   0.169502
     4  Na  -0.005224   0.121678
     5  Na   0.186967   0.251546
     6  Na  -0.687036   0.156023
     7  Na   0.432202   0.103642
 Sum of Mulliken charges =  -0.00000   1.00000

 Dipole moment (field-independent basis, Debye):
    X=              0.4342    Y=             -0.9271    Z=             -0.2279  Tot=              1.0488
 Quadrupole moment (field-independent basis, Debye-Ang):
   XX=            -59.2184   YY=            -67.9813   ZZ=            -71.1527
   XY=              8.7652   XZ=             -3.2647   YZ=             -0.5550

 Normal termination of Gaussian 16 at Sun Dec  3 15:41:23 2023.
