 Gaussian 16, Revision B.01,
 Gaussian 16:  ES64L-G16RevB.01 20-Dec-2017

 -------------------------
 #P B3LYP/6-311+g(d) force
 -------------------------

 -----
 DPGEN
 -----
 Symbolic Z-matrix:
 Charge =  0 Multiplicity = 2

                         Standard orientation:
 ---------------------------------------------------------------------
 Center     Atomic      Atomic             Coordinates (Angstroms)
 Number     Number       Type             X           Y           Z
 ---------------------------------------------------------------------
      1         11           0        0.861669   -2.818942   -0.015321
      2         11           0        0.007741    0.251925   -1.532517
      3         11           0       -2.329148    1.731723   -0.159840
      4         11           0       -2.686667   -1.517257   -0.351126
      5         11           0        1.355396    2.806775    0.005049
      6         11           0        3.137828   -0.452759   -0.167920
      7         11           0       -0.346820   -0.001466    2.221675
 ---------------------------------------------------------------------

 SCF Done:  E(UB3LYP) =  -1136.13731467     A.U. after   19 cycles

 The electronic state is 2-A.
 Alpha  occ. eigenvalues --  -38.43997 -38.43797 -38.43769 -38.43764 -38.43539
 Alpha  occ. eigenvalues --  -38.43332 -38.43130  -2.19822  -2.19658  -2.19654
 Alpha  occ. eigenvalues --   -2.19617  -2.19358  -2.19170  -2.19134  -1.13502
 Alpha  occ. eigenvalues --   -1.13487  -1.13461  -1.13401  -1.13338  -1.13317
 Alpha  occ. eigenvalues --   -1.13300  -1.13286  -1.13276  -1.13270  -1.13255
 Alpha  occ. eigenvalues --   -1.13223  -1.13055  -1.13019  -1.12991  -1.12854
 Alpha  occ. eigenvalues --   -1.12835  -1.12814  -1.12807  -1.12768  -1.12747
 Alpha  occ. eigenvalues --   -0.18583  -0.13104  -0.12351  -0.10814
 Alpha virt. eigenvalues --   -0.05505  -0.05307  -0.04735  -0.03161  -0.02845
 Alpha virt. eigenvalues --   -0.02704  -0.01463  -0.01169  -0.00413  -0.00372
 Alpha virt. eigenvalues --   -0.00029   0.00349   0.00787   0.00864   0.00894

  Beta  occ. eigenvalues --  -38.43996 -38.43761 -38.43755 -38.43689 -38.43538
  Beta  occ. eigenvalues --  -38.43329 -38.43077  -2.19822  -2.19645  -2.19606
  Beta  occ. eigenvalues --   -2.19455  -2.19358  -2.19168  -2.19039  -1.13499
  Beta  occ. eigenvalues --   -1.13476  -1.13464  -1.13388  -1.13318  -1.13278
  Beta  occ. eigenvalues --   -1.13269  -1.13241  -1.13217  -1.13173  -1.13139
  Beta  occ. eigenvalues --   -1.13128  -1.13049  -1.13008  -1.12992  -1.12848
  Beta  occ. eigenvalues --   -1.12817  -1.12807  -1.12749  -1.12699  -1.12677
  Beta  occ. eigenvalues --   -0.17861  -0.12878  -0.12152
  Beta virt. eigenvalues --   -0.06824  -0.05479  -0.05299  -0.04682  -0.02397
  Beta virt. eigenvalues --   -0.02076  -0.01600  -0.01371  -0.01108  -0.00453
  Beta virt. eigenvalues --   -0.00430   0.00138   0.00385   0.00853   0.00868

 Mulliken charges and spin densities:
               1          2
     1  Na   0.089680  -0.018374
     2  Na  -0.283963   0.222830
     3  Na   0.435422   0.058524
     4  Na   0.198789   0.020415
     5  Na   0.132650  -0.030842
     6  Na   0.077177  -0.041328
     7  Na  -0.649754   0.788776
 Sum of Mulliken charges =  -0.00000   1.00000

 Dipole moment (field-independent basis, Debye):
    X=              0.0156    Y=              0.0652    Z=              0.1816  Tot=              0.1935
 Quadrupole moment (field-independent basis, Debye-Ang):
   XX=            -57.2040   YY=            -62.2899   ZZ=            -74.3639
   XY=              0.9119   XZ=              0.7847   YZ=              0.6870

 Normal termination of Gaussian 16 at Fri Dec  8 03:06:13 2023.
