 Gaussian 16, Revision B.01,
 Gaussian 16:  ES64L-G16RevB.01 20-Dec-2017

 -------------------------
 #P B3LYP/6-311+g(d) force
 -------------------------

 -----
 DPGEN
 -----
 Symbolic Z-matrix:
 Charge =  0 Multiplicity = 2

                         Standard orientation:
 ---------------------------------------------------------------------
 Center     Atomic      Atomic             Coordinates (Angstroms)
 Number     Number       Type             X           Y           Z
 ---------------------------------------------------------------------
      1         11           0        0.912646   -2.195482   -0.236561
      2         11           0        2.239481    1.149632    0.254513
      3         11           0       -1.245664    1.072335    0.635781
      4         11           0       -2.189887   -2.278718    0.479027
      5         11           0       -4.232987   -0.138003   -0.634047
      6         11           0        0.414809    3.963662   -0.230149
      7         11           0        4.101601   -1.573427   -0.268564
 ---------------------------------------------------------------------

 SCF Done:  E(UB3LYP) =  -1136.13053220     A.U. after   19 cycles

 The electronic state is 2-A.
 Alpha  occ. eigenvalues --  -38.44160 -38.44097 -38.43939 -38.43734 -38.43608
 Alpha  occ. eigenvalues --  -38.43342 -38.43329  -2.20025  -2.19903  -2.19809
 Alpha  occ. eigenvalues --   -2.19643  -2.19474  -2.19241  -2.19186  -1.13745
 Alpha  occ. eigenvalues --   -1.13734  -1.13632  -1.13578  -1.13565  -1.13527
 Alpha  occ. eigenvalues --   -1.13520  -1.13507  -1.13387  -1.13350  -1.13312
 Alpha  occ. eigenvalues --   -1.13294  -1.13116  -1.13104  -1.13074  -1.12923
 Alpha  occ. eigenvalues --   -1.12908  -1.12903  -1.12834  -1.12826  -1.12778
 Alpha  occ. eigenvalues --   -0.17418  -0.14175  -0.13078  -0.10323
 Alpha virt. eigenvalues --   -0.06058  -0.05399  -0.04694  -0.03549  -0.02359
 Alpha virt. eigenvalues --   -0.02255  -0.01682  -0.01603  -0.01259  -0.00794
 Alpha virt. eigenvalues --   -0.00028   0.00151   0.00619   0.00640   0.00692

  Beta  occ. eigenvalues --  -38.44154 -38.44102 -38.43930 -38.43702 -38.43526
  Beta  occ. eigenvalues --  -38.43300 -38.43282  -2.20017  -2.19912  -2.19796
  Beta  occ. eigenvalues --   -2.19594  -2.19320  -2.19170  -2.19098  -1.13734
  Beta  occ. eigenvalues --   -1.13710  -1.13632  -1.13585  -1.13571  -1.13531
  Beta  occ. eigenvalues --   -1.13506  -1.13502  -1.13366  -1.13285  -1.13273
  Beta  occ. eigenvalues --   -1.13243  -1.13009  -1.12998  -1.12981  -1.12874
  Beta  occ. eigenvalues --   -1.12865  -1.12836  -1.12767  -1.12765  -1.12712
  Beta  occ. eigenvalues --   -0.16911  -0.13578  -0.12757
  Beta virt. eigenvalues --   -0.06662  -0.05857  -0.05318  -0.04429  -0.02982
  Beta virt. eigenvalues --   -0.02195  -0.02001  -0.01607  -0.01181  -0.00994
  Beta virt. eigenvalues --   -0.00389   0.00232   0.00443   0.00662   0.00749

 Mulliken charges and spin densities:
               1          2
     1  Na  -0.503617   0.218928
     2  Na  -0.871957   0.082286
     3  Na  -1.146549   0.054620
     4  Na   0.183106  -0.070765
     5  Na   0.623086   0.385422
     6  Na   0.928351  -0.016554
     7  Na   0.787580   0.346063
 Sum of Mulliken charges =  -0.00000   1.00000

 Dipole moment (field-independent basis, Debye):
    X=              0.1124    Y=              0.6701    Z=             -0.2137  Tot=              0.7123
 Quadrupole moment (field-independent basis, Debye-Ang):
   XX=            -68.4459   YY=            -58.3438   ZZ=            -70.4453
   XY=              1.8092   XZ=              0.1419   YZ=             -1.3210

 Normal termination of Gaussian 16 at Wed Nov 29 00:54:43 2023.
