 Gaussian 16, Revision B.01,
 Gaussian 16:  ES64L-G16RevB.01 20-Dec-2017

 -------------------------
 #P B3LYP/6-311+g(d) force
 -------------------------

 -----
 DPGEN
 -----
 Symbolic Z-matrix:
 Charge =  0 Multiplicity = 2

                         Standard orientation:
 ---------------------------------------------------------------------
 Center     Atomic      Atomic             Coordinates (Angstroms)
 Number     Number       Type             X           Y           Z
 ---------------------------------------------------------------------
      1         11           0        4.398423    1.094620   -0.307475
      2         11           0       -2.040545    3.220316    0.088800
      3         11           0       -4.074002    0.565202    0.093297
      4         11           0       -3.029114   -2.202786   -0.860752
      5         11           0        0.384401   -2.963640    1.353028
      6         11           0        2.628256   -2.199507   -0.645368
      7         11           0        1.732580    2.485794    0.278469
 ---------------------------------------------------------------------

 SCF Done:  E(UB3LYP) =  -1136.10982263     A.U. after   21 cycles

 The electronic state is 2-A.
 Alpha  occ. eigenvalues --  -38.44815 -38.44734 -38.44734 -38.44321 -38.44201
 Alpha  occ. eigenvalues --  -38.43988 -38.43841  -2.20613  -2.20544  -2.20517
 Alpha  occ. eigenvalues --   -2.20144  -2.20002  -2.19826  -2.19644  -1.14311
 Alpha  occ. eigenvalues --   -1.14280  -1.14239  -1.14232  -1.14200  -1.14192
 Alpha  occ. eigenvalues --   -1.14191  -1.14185  -1.14160  -1.13812  -1.13806
 Alpha  occ. eigenvalues --   -1.13797  -1.13664  -1.13650  -1.13633  -1.13483
 Alpha  occ. eigenvalues --   -1.13465  -1.13449  -1.13294  -1.13283  -1.13275
 Alpha  occ. eigenvalues --   -0.15810  -0.14218  -0.13124  -0.10829
 Alpha virt. eigenvalues --   -0.07084  -0.05137  -0.04192  -0.03472  -0.03093
 Alpha virt. eigenvalues --   -0.02763  -0.02291  -0.01990  -0.01048  -0.00744
 Alpha virt. eigenvalues --   -0.00282  -0.00155   0.00315   0.00510   0.00577

  Beta  occ. eigenvalues --  -38.44796 -38.44731 -38.44667 -38.44312 -38.44175
  Beta  occ. eigenvalues --  -38.43941 -38.43774  -2.20583  -2.20518  -2.20424
  Beta  occ. eigenvalues --   -2.20135  -2.19956  -2.19739  -2.19520  -1.14280
  Beta  occ. eigenvalues --   -1.14262  -1.14209  -1.14204  -1.14191  -1.14151
  Beta  occ. eigenvalues --   -1.14148  -1.14112  -1.14073  -1.13810  -1.13803
  Beta  occ. eigenvalues --   -1.13746  -1.13631  -1.13619  -1.13599  -1.13425
  Beta  occ. eigenvalues --   -1.13405  -1.13392  -1.13210  -1.13204  -1.13192
  Beta  occ. eigenvalues --   -0.15319  -0.13493  -0.12344
  Beta virt. eigenvalues --   -0.07680  -0.07157  -0.04825  -0.03782  -0.03120
  Beta virt. eigenvalues --   -0.02734  -0.02572  -0.02000  -0.01787  -0.00846
  Beta virt. eigenvalues --   -0.00497  -0.00059   0.00090   0.00387   0.00506

 Mulliken charges and spin densities:
               1          2
     1  Na   1.020772   0.214284
     2  Na   0.209314   0.253656
     3  Na  -0.352242   0.011097
     4  Na   0.146536   0.283102
     5  Na   0.112654   0.082920
     6  Na  -0.373507   0.071618
     7  Na  -0.763526   0.083324
 Sum of Mulliken charges =  -0.00000   1.00000

 Dipole moment (field-independent basis, Debye):
    X=              0.4862    Y=             -0.7329    Z=             -0.1284  Tot=              0.8889
 Quadrupole moment (field-independent basis, Debye-Ang):
   XX=            -62.1970   YY=            -71.3263   ZZ=            -68.6422
   XY=             -1.7995   XZ=             -3.0937   YZ=              1.7856

 Normal termination of Gaussian 16 at Mon Dec  4 02:05:42 2023.
