 Gaussian 16, Revision B.01,
 Gaussian 16:  ES64L-G16RevB.01 20-Dec-2017

 -------------------------
 #P B3LYP/6-311+g(d) force
 -------------------------

 -----
 DPGEN
 -----
 Symbolic Z-matrix:
 Charge =  0 Multiplicity = 2

                         Standard orientation:
 ---------------------------------------------------------------------
 Center     Atomic      Atomic             Coordinates (Angstroms)
 Number     Number       Type             X           Y           Z
 ---------------------------------------------------------------------
      1         11           0       -1.887744   -1.102902    1.457717
      2         11           0       -3.644830    1.976318   -0.244977
      3         11           0        3.335894    0.647319    0.311622
      4         11           0       -4.128446   -2.195358   -0.587437
      5         11           0        6.147935   -0.696837   -0.202252
      6         11           0       -0.458390    2.458045   -0.095553
      7         11           0        0.635580   -1.086584   -0.639119
 ---------------------------------------------------------------------

 SCF Done:  E(UB3LYP) =  -1136.11454128     A.U. after   21 cycles

 The electronic state is 2-A.
 Alpha  occ. eigenvalues --  -38.45168 -38.44586 -38.44503 -38.44330 -38.44014
 Alpha  occ. eigenvalues --  -38.43919 -38.42946  -2.21012  -2.20431  -2.20315
 Alpha  occ. eigenvalues --   -2.20149  -2.19796  -2.19749  -2.18760  -1.14696
 Alpha  occ. eigenvalues --   -1.14646  -1.14623  -1.14125  -1.14087  -1.14055
 Alpha  occ. eigenvalues --   -1.13969  -1.13948  -1.13943  -1.13811  -1.13795
 Alpha  occ. eigenvalues --   -1.13759  -1.13464  -1.13450  -1.13442  -1.13435
 Alpha  occ. eigenvalues --   -1.13426  -1.13385  -1.12448  -1.12435  -1.12399
 Alpha  occ. eigenvalues --   -0.17022  -0.14146  -0.11567  -0.11495
 Alpha virt. eigenvalues --   -0.06255  -0.05559  -0.04822  -0.03397  -0.02968
 Alpha virt. eigenvalues --   -0.02737  -0.01803  -0.01539  -0.01114  -0.00729
 Alpha virt. eigenvalues --   -0.00541  -0.00014   0.00156   0.00409   0.00548

  Beta  occ. eigenvalues --  -38.45099 -38.44571 -38.44425 -38.44262 -38.44015
  Beta  occ. eigenvalues --  -38.43922 -38.42951  -2.20885  -2.20407  -2.20170
  Beta  occ. eigenvalues --   -2.20022  -2.19797  -2.19761  -2.18772  -1.14600
  Beta  occ. eigenvalues --   -1.14570  -1.14533  -1.14096  -1.14055  -1.14047
  Beta  occ. eigenvalues --   -1.13873  -1.13850  -1.13846  -1.13725  -1.13716
  Beta  occ. eigenvalues --   -1.13668  -1.13465  -1.13447  -1.13445  -1.13442
  Beta  occ. eigenvalues --   -1.13439  -1.13348  -1.12459  -1.12448  -1.12382
  Beta  occ. eigenvalues --   -0.16351  -0.13490  -0.11210
  Beta virt. eigenvalues --   -0.08206  -0.05939  -0.05246  -0.04303  -0.03103
  Beta virt. eigenvalues --   -0.02797  -0.02379  -0.01393  -0.01356  -0.00752
  Beta virt. eigenvalues --   -0.00539  -0.00427   0.00089   0.00321   0.00495

 Mulliken charges and spin densities:
               1          2
     1  Na   0.024771   0.092835
     2  Na   0.099395   0.328652
     3  Na  -0.279912   0.268295
     4  Na   0.191664  -0.038824
     5  Na   0.320030   0.178442
     6  Na  -0.083346   0.012281
     7  Na  -0.272603   0.158319
 Sum of Mulliken charges =  -0.00000   1.00000

 Dipole moment (field-independent basis, Debye):
    X=             -0.1508    Y=             -0.7015    Z=             -0.3605  Tot=              0.8030
 Quadrupole moment (field-independent basis, Debye-Ang):
   XX=            -58.9693   YY=            -74.4390   ZZ=            -66.7438
   XY=             -1.7256   XZ=              1.8537   YZ=              3.5512

 Normal termination of Gaussian 16 at Wed Nov 29 01:09:08 2023.
