 Gaussian 16, Revision B.01,
 Gaussian 16:  ES64L-G16RevB.01 20-Dec-2017

 -------------------------
 #P B3LYP/6-311+g(d) force
 -------------------------

 -----
 DPGEN
 -----
 Symbolic Z-matrix:
 Charge =  0 Multiplicity = 2

                         Standard orientation:
 ---------------------------------------------------------------------
 Center     Atomic      Atomic             Coordinates (Angstroms)
 Number     Number       Type             X           Y           Z
 ---------------------------------------------------------------------
      1         11           0        0.853504   -2.738591    0.575465
      2         11           0        1.481295    2.452009    0.123484
      3         11           0       -0.327696   -0.525988   -1.584668
      4         11           0       -3.234842   -1.252902   -0.072247
      5         11           0       -1.849123    2.183672   -0.371840
      6         11           0        3.015576   -0.499251   -0.743377
      7         11           0        0.061287    0.381051    2.073183
 ---------------------------------------------------------------------

 SCF Done:  E(UB3LYP) =  -1136.13601592     A.U. after   20 cycles

 The electronic state is 2-A.
 Alpha  occ. eigenvalues --  -38.44253 -38.43808 -38.43695 -38.43678 -38.43587
 Alpha  occ. eigenvalues --  -38.43278 -38.43120  -2.20036  -2.19659  -2.19582
 Alpha  occ. eigenvalues --   -2.19553  -2.19436  -2.19233  -2.19003  -1.13717
 Alpha  occ. eigenvalues --   -1.13688  -1.13681  -1.13336  -1.13310  -1.13308
 Alpha  occ. eigenvalues --   -1.13268  -1.13252  -1.13229  -1.13221  -1.13189
 Alpha  occ. eigenvalues --   -1.13167  -1.13120  -1.13096  -1.13058  -1.12915
 Alpha  occ. eigenvalues --   -1.12879  -1.12847  -1.12687  -1.12656  -1.12638
 Alpha  occ. eigenvalues --   -0.18558  -0.12978  -0.12386  -0.10936
 Alpha virt. eigenvalues --   -0.05805  -0.05044  -0.04501  -0.03257  -0.03058
 Alpha virt. eigenvalues --   -0.02635  -0.01668  -0.01062  -0.00395  -0.00129
 Alpha virt. eigenvalues --    0.00004   0.00335   0.00790   0.00858   0.00889

  Beta  occ. eigenvalues --  -38.44256 -38.43787 -38.43687 -38.43583 -38.43572
  Beta  occ. eigenvalues --  -38.43230 -38.43114  -2.20044  -2.19623  -2.19542
  Beta  occ. eigenvalues --   -2.19411  -2.19406  -2.19146  -2.18997  -1.13715
  Beta  occ. eigenvalues --   -1.13693  -1.13682  -1.13304  -1.13286  -1.13277
  Beta  occ. eigenvalues --   -1.13248  -1.13204  -1.13162  -1.13140  -1.13113
  Beta  occ. eigenvalues --   -1.13091  -1.13078  -1.13051  -1.13035  -1.12856
  Beta  occ. eigenvalues --   -1.12817  -1.12780  -1.12675  -1.12645  -1.12621
  Beta  occ. eigenvalues --   -0.17835  -0.12730  -0.12176
  Beta virt. eigenvalues --   -0.07030  -0.05736  -0.04994  -0.04407  -0.02551
  Beta virt. eigenvalues --   -0.02338  -0.01704  -0.01464  -0.00999  -0.00359
  Beta virt. eigenvalues --   -0.00126   0.00118   0.00378   0.00829   0.00895

 Mulliken charges and spin densities:
               1          2
     1  Na  -0.014530   0.094408
     2  Na   0.178164   0.089293
     3  Na  -0.092469   0.325349
     4  Na   0.020998  -0.068317
     5  Na   0.044360  -0.072396
     6  Na   0.148015   0.053243
     7  Na  -0.284537   0.578420
 Sum of Mulliken charges =  -0.00000   1.00000

 Dipole moment (field-independent basis, Debye):
    X=             -0.3730    Y=             -0.1990    Z=              0.1062  Tot=              0.4359
 Quadrupole moment (field-independent basis, Debye-Ang):
   XX=            -56.6424   YY=            -64.1234   ZZ=            -73.0023
   XY=              0.5495   XZ=             -1.5426   YZ=             -2.1287

 Normal termination of Gaussian 16 at Wed Nov 29 15:38:53 2023.
