 Gaussian 16, Revision B.01,
 Gaussian 16:  ES64L-G16RevB.01 20-Dec-2017

 -------------------------
 #P B3LYP/6-311+g(d) force
 -------------------------

 -----
 DPGEN
 -----
 Symbolic Z-matrix:
 Charge =  0 Multiplicity = 2

                         Standard orientation:
 ---------------------------------------------------------------------
 Center     Atomic      Atomic             Coordinates (Angstroms)
 Number     Number       Type             X           Y           Z
 ---------------------------------------------------------------------
      1         11           0        1.227859    2.342709    0.254610
      2         11           0       -2.035841    2.297288   -0.599091
      3         11           0       -3.271777   -0.850403   -1.088815
      4         11           0       -1.221263   -0.101735    1.764410
      5         11           0        2.181841   -0.564674    1.331376
      6         11           0       -0.558484   -2.741140   -0.063594
      7         11           0        3.677664   -0.382045   -1.598895
 ---------------------------------------------------------------------

 SCF Done:  E(UB3LYP) =  -1136.12893825     A.U. after   19 cycles

 The electronic state is 2-A.
 Alpha  occ. eigenvalues --  -38.44526 -38.44141 -38.44070 -38.43732 -38.43633
 Alpha  occ. eigenvalues --  -38.43631 -38.43225  -2.20332  -2.19987  -2.19978
 Alpha  occ. eigenvalues --   -2.19565  -2.19520  -2.19452  -2.19066  -1.13982
 Alpha  occ. eigenvalues --   -1.13968  -1.13950  -1.13684  -1.13654  -1.13648
 Alpha  occ. eigenvalues --   -1.13614  -1.13614  -1.13596  -1.13296  -1.13249
 Alpha  occ. eigenvalues --   -1.13199  -1.13184  -1.13179  -1.13139  -1.13127
 Alpha  occ. eigenvalues --   -1.13124  -1.13077  -1.12740  -1.12731  -1.12704
 Alpha  occ. eigenvalues --   -0.17805  -0.13893  -0.11958  -0.11063
 Alpha virt. eigenvalues --   -0.05800  -0.05363  -0.04946  -0.03743  -0.02697
 Alpha virt. eigenvalues --   -0.02511  -0.01562  -0.00762  -0.00497  -0.00445
 Alpha virt. eigenvalues --   -0.00391   0.00302   0.00361   0.00474   0.00549

  Beta  occ. eigenvalues --  -38.44444 -38.44101 -38.44018 -38.43729 -38.43633
  Beta  occ. eigenvalues --  -38.43615 -38.43219  -2.20178  -2.19903  -2.19897
  Beta  occ. eigenvalues --   -2.19562  -2.19499  -2.19454  -2.19056  -1.13878
  Beta  occ. eigenvalues --   -1.13864  -1.13848  -1.13627  -1.13596  -1.13588
  Beta  occ. eigenvalues --   -1.13555  -1.13549  -1.13533  -1.13289  -1.13248
  Beta  occ. eigenvalues --   -1.13183  -1.13173  -1.13145  -1.13131  -1.13113
  Beta  occ. eigenvalues --   -1.13101  -1.13075  -1.12734  -1.12728  -1.12682
  Beta  occ. eigenvalues --   -0.17187  -0.13297  -0.11843
  Beta virt. eigenvalues --   -0.07481  -0.05570  -0.05091  -0.04415  -0.03658
  Beta virt. eigenvalues --   -0.02209  -0.01768  -0.01374  -0.00640  -0.00440
  Beta virt. eigenvalues --   -0.00273  -0.00145   0.00470   0.00518   0.00576

 Mulliken charges and spin densities:
               1          2
     1  Na  -0.752197   0.101804
     2  Na  -0.117186   0.065807
     3  Na   0.008836   0.263570
     4  Na   1.048860   0.127828
     5  Na   0.605004  -0.032377
     6  Na  -0.708475   0.054325
     7  Na  -0.084843   0.419042
 Sum of Mulliken charges =  -0.00000   1.00000

 Dipole moment (field-independent basis, Debye):
    X=             -0.0944    Y=             -0.2725    Z=             -0.4017  Tot=              0.4946
 Quadrupole moment (field-independent basis, Debye-Ang):
   XX=            -62.8319   YY=            -70.0676   ZZ=            -65.6993
   XY=              0.5111   XZ=             -0.1908   YZ=              1.0886

 Normal termination of Gaussian 16 at Tue Nov 28 20:32:50 2023.
