 Gaussian 16, Revision B.01,
 Gaussian 16:  ES64L-G16RevB.01 20-Dec-2017

 -------------------------
 #P B3LYP/6-311+g(d) force
 -------------------------

 -----
 DPGEN
 -----
 Symbolic Z-matrix:
 Charge =  0 Multiplicity = 2

                         Standard orientation:
 ---------------------------------------------------------------------
 Center     Atomic      Atomic             Coordinates (Angstroms)
 Number     Number       Type             X           Y           Z
 ---------------------------------------------------------------------
      1         11           0        3.216311   -0.708367   -0.229358
      2         11           0       -3.071581   -1.144495   -0.333145
      3         11           0       -1.948434    2.145230   -0.121271
      4         11           0        0.430748   -2.360819    0.381275
      5         11           0       -0.106883   -0.249860   -1.658419
      6         11           0        1.853090    2.155231   -0.059049
      7         11           0       -0.373251    0.163079    2.019967
 ---------------------------------------------------------------------

 SCF Done:  E(UB3LYP) =  -1136.13277969     A.U. after   21 cycles

 The electronic state is 2-A.
 Alpha  occ. eigenvalues --  -38.44382 -38.44261 -38.43586 -38.43532 -38.43401
 Alpha  occ. eigenvalues --  -38.43283 -38.42842  -2.20214  -2.20117  -2.19534
 Alpha  occ. eigenvalues --   -2.19529  -2.19268  -2.19142  -2.18794  -1.13893
 Alpha  occ. eigenvalues --   -1.13865  -1.13850  -1.13794  -1.13772  -1.13768
 Alpha  occ. eigenvalues --   -1.13274  -1.13217  -1.13191  -1.13168  -1.13137
 Alpha  occ. eigenvalues --   -1.13132  -1.12940  -1.12936  -1.12888  -1.12817
 Alpha  occ. eigenvalues --   -1.12810  -1.12773  -1.12496  -1.12462  -1.12380
 Alpha  occ. eigenvalues --   -0.19057  -0.13541  -0.12004  -0.11020
 Alpha virt. eigenvalues --   -0.06077  -0.05202  -0.03849  -0.03398  -0.02764
 Alpha virt. eigenvalues --   -0.02639  -0.01977  -0.01026  -0.00175  -0.00079
 Alpha virt. eigenvalues --    0.00062   0.00324   0.00745   0.00893   0.00925

  Beta  occ. eigenvalues --  -38.44372 -38.44259 -38.43485 -38.43473 -38.43395
  Beta  occ. eigenvalues --  -38.43280 -38.42824  -2.20199  -2.20116  -2.19425
  Beta  occ. eigenvalues --   -2.19345  -2.19260  -2.19139  -2.18768  -1.13868
  Beta  occ. eigenvalues --   -1.13856  -1.13837  -1.13796  -1.13770  -1.13754
  Beta  occ. eigenvalues --   -1.13199  -1.13121  -1.13088  -1.13054  -1.13047
  Beta  occ. eigenvalues --   -1.13005  -1.12926  -1.12908  -1.12879  -1.12817
  Beta  occ. eigenvalues --   -1.12794  -1.12767  -1.12482  -1.12398  -1.12369
  Beta  occ. eigenvalues --   -0.18317  -0.13286  -0.11748
  Beta virt. eigenvalues --   -0.07056  -0.05992  -0.05212  -0.03840  -0.02649
  Beta virt. eigenvalues --   -0.01970  -0.01848  -0.01555  -0.00999  -0.00185
  Beta virt. eigenvalues --   -0.00014   0.00105   0.00356   0.00809   0.00889

 Mulliken charges and spin densities:
               1          2
     1  Na   0.023458  -0.041160
     2  Na   0.300762  -0.017367
     3  Na   0.103837  -0.068200
     4  Na   0.549284   0.039444
     5  Na  -0.635690   0.537925
     6  Na   0.151071  -0.060105
     7  Na  -0.492722   0.609461
 Sum of Mulliken charges =  -0.00000   1.00000

 Dipole moment (field-independent basis, Debye):
    X=             -0.2411    Y=             -0.0543    Z=             -0.0011  Tot=              0.2472
 Quadrupole moment (field-independent basis, Debye-Ang):
   XX=            -51.5082   YY=            -68.8321   ZZ=            -72.9619
   XY=              0.1550   XZ=              0.2926   YZ=             -0.3672

 Normal termination of Gaussian 16 at Thu Dec  7 15:32:37 2023.
