 Gaussian 16, Revision B.01,
 Gaussian 16:  ES64L-G16RevB.01 20-Dec-2017

 -------------------------
 #P B3LYP/6-311+g(d) force
 -------------------------

 -----
 DPGEN
 -----
 Symbolic Z-matrix:
 Charge =  0 Multiplicity = 2

                         Standard orientation:
 ---------------------------------------------------------------------
 Center     Atomic      Atomic             Coordinates (Angstroms)
 Number     Number       Type             X           Y           Z
 ---------------------------------------------------------------------
      1         11           0        3.645229    0.365773   -0.430854
      2         11           0       -2.931522   -2.483638   -1.081474
      3         11           0        1.327810    2.917597   -1.042760
      4         11           0       -1.108315    3.243216    0.580124
      5         11           0       -3.882103    0.685937    0.823232
      6         11           0        0.524335   -2.754768   -0.437401
      7         11           0        2.424567   -1.974117    1.589132
 ---------------------------------------------------------------------

 SCF Done:  E(UB3LYP) =  -1136.10586212     A.U. after   23 cycles

 The electronic state is 2-A.
 Alpha  occ. eigenvalues --  -38.45630 -38.45007 -38.44930 -38.44430 -38.44144
 Alpha  occ. eigenvalues --  -38.43673 -38.43648  -2.21418  -2.20847  -2.20672
 Alpha  occ. eigenvalues --   -2.20239  -2.20032  -2.19516  -2.19437  -1.15106
 Alpha  occ. eigenvalues --   -1.15082  -1.15045  -1.14605  -1.14501  -1.14472
 Alpha  occ. eigenvalues --   -1.14354  -1.14330  -1.14298  -1.13970  -1.13901
 Alpha  occ. eigenvalues --   -1.13872  -1.13710  -1.13647  -1.13636  -1.13183
 Alpha  occ. eigenvalues --   -1.13158  -1.13150  -1.13098  -1.13090  -1.13065
 Alpha  occ. eigenvalues --   -0.16328  -0.13732  -0.13360  -0.10470
 Alpha virt. eigenvalues --   -0.07551  -0.05000  -0.04354  -0.03830  -0.03487
 Alpha virt. eigenvalues --   -0.02153  -0.01766  -0.01397  -0.01159  -0.01003
 Alpha virt. eigenvalues --   -0.00784  -0.00043   0.00078   0.00509   0.00653

  Beta  occ. eigenvalues --  -38.45607 -38.44981 -38.44902 -38.44428 -38.44097
  Beta  occ. eigenvalues --  -38.43655 -38.43598  -2.21380  -2.20805  -2.20623
  Beta  occ. eigenvalues --   -2.20235  -2.19945  -2.19482  -2.19346  -1.15081
  Beta  occ. eigenvalues --   -1.15060  -1.14988  -1.14549  -1.14479  -1.14428
  Beta  occ. eigenvalues --   -1.14322  -1.14298  -1.14251  -1.13967  -1.13900
  Beta  occ. eigenvalues --   -1.13860  -1.13649  -1.13589  -1.13579  -1.13165
  Beta  occ. eigenvalues --   -1.13135  -1.13120  -1.13036  -1.13024  -1.13002
  Beta  occ. eigenvalues --   -0.15843  -0.13353  -0.12668
  Beta virt. eigenvalues --   -0.07580  -0.07155  -0.04566  -0.03866  -0.03596
  Beta virt. eigenvalues --   -0.03169  -0.02020  -0.01525  -0.01136  -0.01059
  Beta virt. eigenvalues --   -0.00716  -0.00552   0.00193   0.00268   0.00578

 Mulliken charges and spin densities:
               1          2
     1  Na   0.218363   0.112718
     2  Na   0.177996   0.212741
     3  Na  -0.289095   0.073958
     4  Na   0.143280   0.084760
     5  Na  -0.090860   0.119817
     6  Na  -0.775943   0.155439
     7  Na   0.616260   0.240567
 Sum of Mulliken charges =  -0.00000   1.00000

 Dipole moment (field-independent basis, Debye):
    X=              1.0242    Y=             -0.2220    Z=              0.3723  Tot=              1.1121
 Quadrupole moment (field-independent basis, Debye-Ang):
   XX=            -59.1655   YY=            -72.9931   ZZ=            -69.2603
   XY=             -0.7085   XZ=             -1.2427   YZ=              0.2544

 Normal termination of Gaussian 16 at Sun Dec  3 18:24:38 2023.
