 Gaussian 16, Revision B.01,
 Gaussian 16:  ES64L-G16RevB.01 20-Dec-2017

 -------------------------
 #P B3LYP/6-311+g(d) force
 -------------------------

 -----
 DPGEN
 -----
 Symbolic Z-matrix:
 Charge =  0 Multiplicity = 2

                         Standard orientation:
 ---------------------------------------------------------------------
 Center     Atomic      Atomic             Coordinates (Angstroms)
 Number     Number       Type             X           Y           Z
 ---------------------------------------------------------------------
      1         11           0       -4.028874    0.285980   -0.876659
      2         11           0        4.918638   -1.226562   -0.372399
      3         11           0       -2.563803   -0.657004    1.926136
      4         11           0        3.057130    1.963658    0.116321
      5         11           0       -1.139638    1.876403   -0.585920
      6         11           0        0.815751   -0.394257    1.063960
      7         11           0       -1.059203   -1.848218   -1.271439
 ---------------------------------------------------------------------

 SCF Done:  E(UB3LYP) =  -1136.10358329     A.U. after   31 cycles

 The electronic state is 2-A.
 Alpha  occ. eigenvalues --  -38.46154 -38.45761 -38.44817 -38.44163 -38.43509
 Alpha  occ. eigenvalues --  -38.42878 -38.42665  -2.21978  -2.21569  -2.20594
 Alpha  occ. eigenvalues --   -2.19933  -2.19368  -2.18759  -2.18587  -1.15683
 Alpha  occ. eigenvalues --   -1.15628  -1.15586  -1.15268  -1.15208  -1.15186
 Alpha  occ. eigenvalues --   -1.14241  -1.14232  -1.14193  -1.13631  -1.13608
 Alpha  occ. eigenvalues --   -1.13566  -1.13075  -1.13053  -1.12961  -1.12436
 Alpha  occ. eigenvalues --   -1.12411  -1.12381  -1.12298  -1.12273  -1.12174
 Alpha  occ. eigenvalues --   -0.18018  -0.14144  -0.11088  -0.10406
 Alpha virt. eigenvalues --   -0.08022  -0.05924  -0.04143  -0.03238  -0.02970
 Alpha virt. eigenvalues --   -0.02273  -0.01963  -0.01790  -0.01477  -0.00630
 Alpha virt. eigenvalues --   -0.00543   0.00063   0.00153   0.00445   0.00537

  Beta  occ. eigenvalues --  -38.46147 -38.45755 -38.44710 -38.44176 -38.43475
  Beta  occ. eigenvalues --  -38.42851 -38.42639  -2.21967  -2.21559  -2.20394
  Beta  occ. eigenvalues --   -2.19961  -2.19306  -2.18708  -2.18543  -1.15658
  Beta  occ. eigenvalues --   -1.15623  -1.15578  -1.15254  -1.15199  -1.15180
  Beta  occ. eigenvalues --   -1.14105  -1.14094  -1.14062  -1.13654  -1.13631
  Beta  occ. eigenvalues --   -1.13551  -1.13036  -1.13009  -1.12903  -1.12401
  Beta  occ. eigenvalues --   -1.12377  -1.12345  -1.12269  -1.12222  -1.12148
  Beta  occ. eigenvalues --   -0.17520  -0.13472  -0.10313
  Beta virt. eigenvalues --   -0.07914  -0.07439  -0.05300  -0.03883  -0.03016
  Beta virt. eigenvalues --   -0.02702  -0.01997  -0.01695  -0.01489  -0.01087
  Beta virt. eigenvalues --   -0.00411  -0.00182   0.00145   0.00262   0.00573

 Mulliken charges and spin densities:
               1          2
     1  Na   0.326660   0.370684
     2  Na   0.103923   0.576722
     3  Na   0.340687   0.042668
     4  Na   0.318669  -0.120778
     5  Na  -0.553083   0.026494
     6  Na  -0.526982   0.138606
     7  Na  -0.009874  -0.034395
 Sum of Mulliken charges =  -0.00000   1.00000

 Dipole moment (field-independent basis, Debye):
    X=             -0.4971    Y=             -1.1821    Z=              0.3608  Tot=              1.3321
 Quadrupole moment (field-independent basis, Debye-Ang):
   XX=            -67.6210   YY=            -75.5058   ZZ=            -61.3564
   XY=              5.3163   XZ=             -6.1424   YZ=              7.3490

 Normal termination of Gaussian 16 at Thu Dec  7 03:24:09 2023.
