 Gaussian 16, Revision B.01,
 Gaussian 16:  ES64L-G16RevB.01 20-Dec-2017

 -------------------------
 #P B3LYP/6-311+g(d) force
 -------------------------

 -----
 DPGEN
 -----
 Symbolic Z-matrix:
 Charge =  0 Multiplicity = 2

                         Standard orientation:
 ---------------------------------------------------------------------
 Center     Atomic      Atomic             Coordinates (Angstroms)
 Number     Number       Type             X           Y           Z
 ---------------------------------------------------------------------
      1         11           0       -2.785896    0.156263   -0.376964
      2         11           0       -0.115228    0.383752    1.769365
      3         11           0       -0.737596    2.815885   -0.026464
      4         11           0        2.521704    1.420252   -0.092276
      5         11           0        0.152485   -0.291905   -1.622159
      6         11           0        2.234234   -1.904734    0.016186
      7         11           0       -1.269703   -2.579513    0.332312
 ---------------------------------------------------------------------

 SCF Done:  E(UB3LYP) =  -1136.13788264     A.U. after   19 cycles

 The electronic state is 2-A.
 Alpha  occ. eigenvalues --  -38.43594 -38.43581 -38.43440 -38.43423 -38.43408
 Alpha  occ. eigenvalues --  -38.43088 -38.42952  -2.19485  -2.19469  -2.19366
 Alpha  occ. eigenvalues --   -2.19322  -2.19303  -2.19093  -2.19005  -1.13216
 Alpha  occ. eigenvalues --   -1.13169  -1.13161  -1.13137  -1.13117  -1.13101
 Alpha  occ. eigenvalues --   -1.13070  -1.13068  -1.13042  -1.13014  -1.12968
 Alpha  occ. eigenvalues --   -1.12964  -1.12961  -1.12938  -1.12906  -1.12769
 Alpha  occ. eigenvalues --   -1.12705  -1.12701  -1.12670  -1.12630  -1.12614
 Alpha  occ. eigenvalues --   -0.19412  -0.13144  -0.12885  -0.10733
 Alpha virt. eigenvalues --   -0.05191  -0.05021  -0.04885  -0.03100  -0.02990
 Alpha virt. eigenvalues --   -0.02257  -0.01222  -0.01168  -0.00126  -0.00116
 Alpha virt. eigenvalues --    0.00060   0.00372   0.00925   0.00928   0.00954

  Beta  occ. eigenvalues --  -38.43588 -38.43577 -38.43427 -38.43417 -38.43399
  Beta  occ. eigenvalues --  -38.43007 -38.42881  -2.19478  -2.19464  -2.19347
  Beta  occ. eigenvalues --   -2.19315  -2.19289  -2.18947  -2.18876  -1.13210
  Beta  occ. eigenvalues --   -1.13161  -1.13144  -1.13118  -1.13093  -1.13089
  Beta  occ. eigenvalues --   -1.13067  -1.13060  -1.13010  -1.12981  -1.12956
  Beta  occ. eigenvalues --   -1.12947  -1.12933  -1.12922  -1.12899  -1.12677
  Beta  occ. eigenvalues --   -1.12604  -1.12595  -1.12580  -1.12535  -1.12524
  Beta  occ. eigenvalues --   -0.18678  -0.12863  -0.12622
  Beta virt. eigenvalues --   -0.06787  -0.05195  -0.04997  -0.04857  -0.02276
  Beta virt. eigenvalues --   -0.02192  -0.01227  -0.01140  -0.01097  -0.00172
  Beta virt. eigenvalues --   -0.00144   0.00163   0.00394   0.00918   0.00948

 Mulliken charges and spin densities:
               1          2
     1  Na   0.228433   0.006721
     2  Na  -0.464104   0.712729
     3  Na   0.242331  -0.071665
     4  Na   0.122679  -0.112354
     5  Na  -0.356327   0.532511
     6  Na   0.136833  -0.063822
     7  Na   0.090154  -0.004121
 Sum of Mulliken charges =  -0.00000   1.00000

 Dipole moment (field-independent basis, Debye):
    X=              0.1428    Y=              0.0124    Z=              0.0789  Tot=              0.1636
 Quadrupole moment (field-independent basis, Debye-Ang):
   XX=            -59.0932   YY=            -59.5569   ZZ=            -74.4848
   XY=             -0.0185   XZ=              0.6312   YZ=             -1.6540

 Normal termination of Gaussian 16 at Thu Dec  7 08:17:57 2023.
