 Gaussian 16, Revision B.01,
 Gaussian 16:  ES64L-G16RevB.01 20-Dec-2017

 -------------------------
 #P B3LYP/6-311+g(d) force
 -------------------------

 -----
 DPGEN
 -----
 Symbolic Z-matrix:
 Charge =  0 Multiplicity = 2

                         Standard orientation:
 ---------------------------------------------------------------------
 Center     Atomic      Atomic             Coordinates (Angstroms)
 Number     Number       Type             X           Y           Z
 ---------------------------------------------------------------------
      1         11           0       -0.094570   -3.040635    0.012354
      2         11           0       -1.675621    2.553258   -0.011742
      3         11           0       -3.150681   -0.810547   -0.196689
      4         11           0        1.657234    2.433308   -0.062318
      5         11           0        0.114325   -0.152309    2.057904
      6         11           0        0.132933   -0.134265   -1.615357
      7         11           0        3.016380   -0.848810   -0.184151
 ---------------------------------------------------------------------

 SCF Done:  E(UB3LYP) =  -1136.13971829     A.U. after   19 cycles

 The electronic state is 2-A.
 Alpha  occ. eigenvalues --  -38.44012 -38.43851 -38.43810 -38.43568 -38.43501
 Alpha  occ. eigenvalues --  -38.43459 -38.43108  -2.19800  -2.19688  -2.19638
 Alpha  occ. eigenvalues --   -2.19398  -2.19380  -2.19325  -2.19080  -1.13478
 Alpha  occ. eigenvalues --   -1.13458  -1.13442  -1.13378  -1.13349  -1.13331
 Alpha  occ. eigenvalues --   -1.13320  -1.13310  -1.13257  -1.13093  -1.13068
 Alpha  occ. eigenvalues --   -1.13049  -1.13043  -1.13008  -1.13006  -1.12997
 Alpha  occ. eigenvalues --   -1.12976  -1.12945  -1.12764  -1.12713  -1.12700
 Alpha  occ. eigenvalues --   -0.18504  -0.12704  -0.12686  -0.10587
 Alpha virt. eigenvalues --   -0.05640  -0.05103  -0.05031  -0.02980  -0.02917
 Alpha virt. eigenvalues --   -0.02500  -0.01493  -0.01250  -0.00559  -0.00432
 Alpha virt. eigenvalues --   -0.00009   0.00353   0.00810   0.00840   0.00884

  Beta  occ. eigenvalues --  -38.44010 -38.43845 -38.43805 -38.43566 -38.43454
  Beta  occ. eigenvalues --  -38.43402 -38.43047  -2.19799  -2.19680  -2.19632
  Beta  occ. eigenvalues --   -2.19397  -2.19320  -2.19198  -2.18968  -1.13463
  Beta  occ. eigenvalues --   -1.13456  -1.13444  -1.13366  -1.13330  -1.13324
  Beta  occ. eigenvalues --   -1.13312  -1.13284  -1.13257  -1.13092  -1.13049
  Beta  occ. eigenvalues --   -1.13045  -1.12999  -1.12963  -1.12944  -1.12924
  Beta  occ. eigenvalues --   -1.12872  -1.12867  -1.12686  -1.12634  -1.12616
  Beta  occ. eigenvalues --   -0.17778  -0.12476  -0.12465
  Beta virt. eigenvalues --   -0.06666  -0.05642  -0.05119  -0.04941  -0.02189
  Beta virt. eigenvalues --   -0.02174  -0.01443  -0.01392  -0.01172  -0.00619
  Beta virt. eigenvalues --   -0.00490   0.00136   0.00381   0.00822   0.00864

 Mulliken charges and spin densities:
               1          2
     1  Na   0.146825  -0.100175
     2  Na   0.018388  -0.063934
     3  Na   0.019458  -0.082483
     4  Na   0.200175  -0.024530
     5  Na  -0.464530   0.807026
     6  Na  -0.237072   0.511864
     7  Na   0.316756  -0.047768
 Sum of Mulliken charges =   0.00000   1.00000

 Dipole moment (field-independent basis, Debye):
    X=             -0.0198    Y=             -0.2433    Z=              0.0994  Tot=              0.2636
 Quadrupole moment (field-independent basis, Debye-Ang):
   XX=            -57.2577   YY=            -60.1611   ZZ=            -75.4399
   XY=             -0.1463   XZ=              0.0248   YZ=              0.1104

 Normal termination of Gaussian 16 at Thu Dec  7 19:07:43 2023.
