 Gaussian 16, Revision B.01,
 Gaussian 16:  ES64L-G16RevB.01 20-Dec-2017

 -------------------------
 #P B3LYP/6-311+g(d) force
 -------------------------

 -----
 DPGEN
 -----
 Symbolic Z-matrix:
 Charge =  0 Multiplicity = 2

                         Standard orientation:
 ---------------------------------------------------------------------
 Center     Atomic      Atomic             Coordinates (Angstroms)
 Number     Number       Type             X           Y           Z
 ---------------------------------------------------------------------
      1         11           0        2.704441    2.879391   -0.285546
      2         11           0       -0.309592    2.652468    0.237651
      3         11           0        2.599937   -3.044473   -0.309781
      4         11           0        4.359971   -0.511672    0.631553
      5         11           0       -0.927719   -1.693409   -0.645860
      6         11           0       -4.075080    1.375197   -0.298505
      7         11           0       -4.351958   -1.657503    0.670488
 ---------------------------------------------------------------------

 SCF Done:  E(UB3LYP) =  -1136.11007146     A.U. after   23 cycles

 The electronic state is 2-A.
 Alpha  occ. eigenvalues --  -38.45641 -38.45288 -38.44442 -38.44378 -38.43887
 Alpha  occ. eigenvalues --  -38.43775 -38.43585  -2.21431  -2.21092  -2.20223
 Alpha  occ. eigenvalues --   -2.20166  -2.19661  -2.19580  -2.19391  -1.15103
 Alpha  occ. eigenvalues --   -1.15091  -1.15068  -1.14751  -1.14743  -1.14724
 Alpha  occ. eigenvalues --   -1.13900  -1.13883  -1.13865  -1.13833  -1.13814
 Alpha  occ. eigenvalues --   -1.13808  -1.13370  -1.13340  -1.13314  -1.13235
 Alpha  occ. eigenvalues --   -1.13215  -1.13189  -1.13054  -1.13049  -1.13026
 Alpha  occ. eigenvalues --   -0.16128  -0.14114  -0.12416  -0.10527
 Alpha virt. eigenvalues --   -0.07578  -0.05268  -0.04749  -0.03490  -0.03140
 Alpha virt. eigenvalues --   -0.02602  -0.02197  -0.01681  -0.00923  -0.00805
 Alpha virt. eigenvalues --   -0.00190  -0.00085   0.00058   0.00288   0.00468

  Beta  occ. eigenvalues --  -38.45609 -38.45265 -38.44384 -38.44362 -38.43902
  Beta  occ. eigenvalues --  -38.43716 -38.43564  -2.21375  -2.21053  -2.20180
  Beta  occ. eigenvalues --   -2.20076  -2.19692  -2.19468  -2.19351  -1.15065
  Beta  occ. eigenvalues --   -1.15051  -1.15016  -1.14728  -1.14704  -1.14691
  Beta  occ. eigenvalues --   -1.13869  -1.13844  -1.13807  -1.13801  -1.13781
  Beta  occ. eigenvalues --   -1.13713  -1.13378  -1.13365  -1.13310  -1.13158
  Beta  occ. eigenvalues --   -1.13142  -1.13127  -1.13030  -1.13021  -1.13000
  Beta  occ. eigenvalues --   -0.15535  -0.13598  -0.12192
  Beta virt. eigenvalues --   -0.07487  -0.07159  -0.04771  -0.04343  -0.03067
  Beta virt. eigenvalues --   -0.02748  -0.02461  -0.02028  -0.01611  -0.00779
  Beta virt. eigenvalues --   -0.00472  -0.00077   0.00142   0.00256   0.00389

 Mulliken charges and spin densities:
               1          2
     1  Na   0.226580   0.014817
     2  Na  -0.295223  -0.037666
     3  Na   0.364727  -0.209893
     4  Na  -0.210124   0.357433
     5  Na  -0.922618   0.407009
     6  Na   0.296540   0.286588
     7  Na   0.540118   0.181712
 Sum of Mulliken charges =  -0.00000   1.00000

 Dipole moment (field-independent basis, Debye):
    X=             -2.1141    Y=             -0.0737    Z=              0.0498  Tot=              2.1160
 Quadrupole moment (field-independent basis, Debye-Ang):
   XX=            -61.2961   YY=            -64.9438   ZZ=            -72.1748
   XY=              2.9450   XZ=             -1.2529   YZ=             -2.7777

 Normal termination of Gaussian 16 at Sun Dec  3 22:50:20 2023.
