 Gaussian 16, Revision B.01,
 Gaussian 16:  ES64L-G16RevB.01 20-Dec-2017

 -------------------------
 #P B3LYP/6-311+g(d) force
 -------------------------

 -----
 DPGEN
 -----
 Symbolic Z-matrix:
 Charge =  0 Multiplicity = 2

                         Standard orientation:
 ---------------------------------------------------------------------
 Center     Atomic      Atomic             Coordinates (Angstroms)
 Number     Number       Type             X           Y           Z
 ---------------------------------------------------------------------
      1         11           0        0.178206    0.403745   -1.358485
      2         11           0        0.411429   -0.860629    2.180027
      3         11           0       -2.230132    2.442614   -0.618573
      4         11           0       -2.977162   -0.761681    0.663627
      5         11           0        2.079075    2.234542    0.679032
      6         11           0       -0.502721   -2.633924   -0.911494
      7         11           0        3.041304   -0.824667   -0.634135
 ---------------------------------------------------------------------

 SCF Done:  E(UB3LYP) =  -1136.13167317     A.U. after   20 cycles

 The electronic state is 2-A.
 Alpha  occ. eigenvalues --  -38.44339 -38.44161 -38.44131 -38.44023 -38.43305
 Alpha  occ. eigenvalues --  -38.43290 -38.42969  -2.20180  -2.19977  -2.19970
 Alpha  occ. eigenvalues --   -2.19842  -2.19168  -2.19098  -2.18987  -1.13882
 Alpha  occ. eigenvalues --   -1.13831  -1.13804  -1.13662  -1.13643  -1.13629
 Alpha  occ. eigenvalues --   -1.13609  -1.13607  -1.13576  -1.13516  -1.13505
 Alpha  occ. eigenvalues --   -1.13467  -1.12912  -1.12809  -1.12806  -1.12786
 Alpha  occ. eigenvalues --   -1.12751  -1.12731  -1.12662  -1.12619  -1.12603
 Alpha  occ. eigenvalues --   -0.18297  -0.13165  -0.11891  -0.11118
 Alpha virt. eigenvalues --   -0.05712  -0.05434  -0.04376  -0.03436  -0.02860
 Alpha virt. eigenvalues --   -0.02699  -0.01645  -0.01058  -0.00524  -0.00125
 Alpha virt. eigenvalues --    0.00005   0.00358   0.00678   0.00753   0.00809

  Beta  occ. eigenvalues --  -38.44328 -38.44153 -38.44043 -38.44009 -38.43287
  Beta  occ. eigenvalues --  -38.43286 -38.42920  -2.20162  -2.19963  -2.19819
  Beta  occ. eigenvalues --   -2.19808  -2.19137  -2.19091  -2.18901  -1.13862
  Beta  occ. eigenvalues --   -1.13814  -1.13784  -1.13640  -1.13629  -1.13596
  Beta  occ. eigenvalues --   -1.13530  -1.13503  -1.13496  -1.13477  -1.13459
  Beta  occ. eigenvalues --   -1.13448  -1.12879  -1.12792  -1.12784  -1.12755
  Beta  occ. eigenvalues --   -1.12744  -1.12729  -1.12598  -1.12564  -1.12536
  Beta  occ. eigenvalues --   -0.17582  -0.12979  -0.11655
  Beta virt. eigenvalues --   -0.07208  -0.05595  -0.05308  -0.04193  -0.02799
  Beta virt. eigenvalues --   -0.02293  -0.01724  -0.01551  -0.00946  -0.00401
  Beta virt. eigenvalues --   -0.00122   0.00112   0.00396   0.00786   0.00820

 Mulliken charges and spin densities:
               1          2
     1  Na   0.437322   0.112008
     2  Na  -0.387024   0.566570
     3  Na   0.040154  -0.025636
     4  Na  -0.066764   0.151288
     5  Na  -0.202847   0.218938
     6  Na   0.015839   0.044211
     7  Na   0.163319  -0.067378
 Sum of Mulliken charges =  -0.00000   1.00000

 Dipole moment (field-independent basis, Debye):
    X=              0.4912    Y=             -0.2504    Z=              0.4666  Tot=              0.7223
 Quadrupole moment (field-independent basis, Debye-Ang):
   XX=            -55.8312   YY=            -65.9479   ZZ=            -71.7005
   XY=              0.6901   XZ=             -1.1140   YZ=              2.3358

 Normal termination of Gaussian 16 at Thu Dec  7 05:28:49 2023.
