 Gaussian 16, Revision B.01,
 Gaussian 16:  ES64L-G16RevB.01 20-Dec-2017

 -------------------------
 #P B3LYP/6-311+g(d) force
 -------------------------

 -----
 DPGEN
 -----
 Symbolic Z-matrix:
 Charge =  0 Multiplicity = 2

                         Standard orientation:
 ---------------------------------------------------------------------
 Center     Atomic      Atomic             Coordinates (Angstroms)
 Number     Number       Type             X           Y           Z
 ---------------------------------------------------------------------
      1         11           0       -0.262986   -0.552711    2.001459
      2         11           0        2.917885   -1.946245    0.270601
      3         11           0       -2.834647    1.956417    0.057159
      4         11           0        0.822866    1.543797   -1.025215
      5         11           0        3.423355    1.826867    0.149869
      6         11           0       -0.066960   -1.972296   -1.420305
      7         11           0       -3.999513   -0.855829   -0.033567
 ---------------------------------------------------------------------

 SCF Done:  E(UB3LYP) =  -1136.10930654     A.U. after   28 cycles

 The electronic state is 2-A.
 Alpha  occ. eigenvalues --  -38.45977 -38.44810 -38.44807 -38.44642 -38.44137
 Alpha  occ. eigenvalues --  -38.43328 -38.42911  -2.21757  -2.20621  -2.20585
 Alpha  occ. eigenvalues --   -2.20435  -2.19969  -2.19216  -2.18753  -1.15459
 Alpha  occ. eigenvalues --   -1.15411  -1.15388  -1.14293  -1.14270  -1.14269
 Alpha  occ. eigenvalues --   -1.14262  -1.14239  -1.14231  -1.14121  -1.14081
 Alpha  occ. eigenvalues --   -1.14035  -1.13737  -1.13608  -1.13592  -1.12880
 Alpha  occ. eigenvalues --   -1.12874  -1.12837  -1.12428  -1.12399  -1.12370
 Alpha  occ. eigenvalues --   -0.17583  -0.14016  -0.11402  -0.10181
 Alpha virt. eigenvalues --   -0.07564  -0.06272  -0.03649  -0.03484  -0.03058
 Alpha virt. eigenvalues --   -0.02640  -0.02181  -0.01926  -0.00821  -0.00464
 Alpha virt. eigenvalues --   -0.00154   0.00093   0.00378   0.00402   0.00543

  Beta  occ. eigenvalues --  -38.45981 -38.44810 -38.44805 -38.44568 -38.44138
  Beta  occ. eigenvalues --  -38.43299 -38.42851  -2.21766  -2.20613  -2.20592
  Beta  occ. eigenvalues --   -2.20299  -2.19971  -2.19165  -2.18643  -1.15467
  Beta  occ. eigenvalues --   -1.15405  -1.15395  -1.14292  -1.14265  -1.14252
  Beta  occ. eigenvalues --   -1.14248  -1.14242  -1.14237  -1.14026  -1.13984
  Beta  occ. eigenvalues --   -1.13938  -1.13736  -1.13611  -1.13587  -1.12847
  Beta  occ. eigenvalues --   -1.12831  -1.12793  -1.12353  -1.12319  -1.12291
  Beta  occ. eigenvalues --   -0.16934  -0.13914  -0.11236
  Beta virt. eigenvalues --   -0.07340  -0.06420  -0.06212  -0.03308  -0.03025
  Beta virt. eigenvalues --   -0.02880  -0.02376  -0.01709  -0.01269  -0.00802
  Beta virt. eigenvalues --   -0.00171  -0.00070   0.00112   0.00443   0.00595

 Mulliken charges and spin densities:
               1          2
     1  Na  -0.255498   0.507777
     2  Na   0.141857   0.079712
     3  Na   0.426414   0.023080
     4  Na  -0.673981   0.129412
     5  Na   0.373486  -0.004917
     6  Na   0.025177   0.257616
     7  Na  -0.037455   0.007321
 Sum of Mulliken charges =  -0.00000   1.00000

 Dipole moment (field-independent basis, Debye):
    X=             -1.0151    Y=             -0.6023    Z=              0.3831  Tot=              1.2409
 Quadrupole moment (field-independent basis, Debye-Ang):
   XX=            -43.7742   YY=            -72.5729   ZZ=            -77.5006
   XY=             -0.9057   XZ=              2.4088   YZ=              1.5111

 Normal termination of Gaussian 16 at Sun Dec  3 19:23:53 2023.
