 Gaussian 16, Revision B.01,
 Gaussian 16:  ES64L-G16RevB.01 20-Dec-2017

 -------------------------
 #P B3LYP/6-311+g(d) force
 -------------------------

 -----
 DPGEN
 -----
 Symbolic Z-matrix:
 Charge =  0 Multiplicity = 2

                         Standard orientation:
 ---------------------------------------------------------------------
 Center     Atomic      Atomic             Coordinates (Angstroms)
 Number     Number       Type             X           Y           Z
 ---------------------------------------------------------------------
      1         11           0       -1.873631   -0.448418    1.698950
      2         11           0       -0.907603    2.522274    1.384095
      3         11           0       -2.114279   -2.640866   -0.770760
      4         11           0       -1.873448    0.965130   -1.492878
      5         11           0        1.110757   -0.977436    0.066721
      6         11           0        1.746027    1.619021   -1.572172
      7         11           0        3.912177   -1.039706    0.686045
 ---------------------------------------------------------------------

 SCF Done:  E(UB3LYP) =  -1136.12485565     A.U. after   23 cycles

 The electronic state is 2-A.
 Alpha  occ. eigenvalues --  -38.44399 -38.44361 -38.44159 -38.43737 -38.43417
 Alpha  occ. eigenvalues --  -38.43260 -38.43084  -2.20224  -2.20191  -2.20029
 Alpha  occ. eigenvalues --   -2.19673  -2.19280  -2.19091  -2.19056  -1.13944
 Alpha  occ. eigenvalues --   -1.13937  -1.13877  -1.13824  -1.13812  -1.13797
 Alpha  occ. eigenvalues --   -1.13706  -1.13701  -1.13637  -1.13373  -1.13328
 Alpha  occ. eigenvalues --   -1.13298  -1.12953  -1.12930  -1.12890  -1.12761
 Alpha  occ. eigenvalues --   -1.12753  -1.12744  -1.12731  -1.12720  -1.12668
 Alpha  occ. eigenvalues --   -0.18222  -0.13390  -0.11936  -0.11320
 Alpha virt. eigenvalues --   -0.06017  -0.04995  -0.04292  -0.03266  -0.03173
 Alpha virt. eigenvalues --   -0.02518  -0.01763  -0.01085  -0.00594  -0.00103
 Alpha virt. eigenvalues --    0.00098   0.00264   0.00368   0.00754   0.00785

  Beta  occ. eigenvalues --  -38.44359 -38.44347 -38.44121 -38.43686 -38.43380
  Beta  occ. eigenvalues --  -38.43248 -38.43074  -2.20164  -2.20151  -2.19961
  Beta  occ. eigenvalues --   -2.19583  -2.19216  -2.19068  -2.19041  -1.13918
  Beta  occ. eigenvalues --   -1.13894  -1.13824  -1.13805  -1.13782  -1.13755
  Beta  occ. eigenvalues --   -1.13664  -1.13635  -1.13587  -1.13311  -1.13271
  Beta  occ. eigenvalues --   -1.13213  -1.12901  -1.12889  -1.12834  -1.12738
  Beta  occ. eigenvalues --   -1.12723  -1.12722  -1.12716  -1.12706  -1.12663
  Beta  occ. eigenvalues --   -0.17539  -0.13128  -0.11678
  Beta virt. eigenvalues --   -0.07504  -0.05692  -0.04792  -0.04077  -0.02899
  Beta virt. eigenvalues --   -0.02690  -0.01780  -0.01569  -0.00960  -0.00254
  Beta virt. eigenvalues --   -0.00017   0.00232   0.00330   0.00469   0.00777

 Mulliken charges and spin densities:
               1          2
     1  Na   0.468002   0.137022
     2  Na  -0.100077   0.070946
     3  Na   1.029343  -0.086774
     4  Na   0.419466   0.402910
     5  Na  -1.845936   0.484539
     6  Na   0.202371  -0.010522
     7  Na  -0.173170   0.001879
 Sum of Mulliken charges =  -0.00000   1.00000

 Dipole moment (field-independent basis, Debye):
    X=              0.4277    Y=              0.4065    Z=             -0.2572  Tot=              0.6437
 Quadrupole moment (field-independent basis, Debye-Ang):
   XX=            -57.7428   YY=            -67.9598   ZZ=            -67.3369
   XY=              1.9365   XZ=              2.3648   YZ=             -0.0644

 Normal termination of Gaussian 16 at Wed Nov 29 16:34:45 2023.
