 Gaussian 16, Revision B.01,
 Gaussian 16:  ES64L-G16RevB.01 20-Dec-2017

 -------------------------
 #P B3LYP/6-311+g(d) force
 -------------------------

 -----
 DPGEN
 -----
 Symbolic Z-matrix:
 Charge =  0 Multiplicity = 2

                         Standard orientation:
 ---------------------------------------------------------------------
 Center     Atomic      Atomic             Coordinates (Angstroms)
 Number     Number       Type             X           Y           Z
 ---------------------------------------------------------------------
      1         11           0        5.516257   -0.404957   -0.557955
      2         11           0        2.216622   -0.760316   -0.711376
      3         11           0        0.727730    1.296474    1.106111
      4         11           0       -1.592227    3.963660    0.168067
      5         11           0       -3.551939   -2.415798   -0.738007
      6         11           0       -2.493960    0.403850   -1.255765
      7         11           0       -0.822483   -2.082913    1.988925
 ---------------------------------------------------------------------

 SCF Done:  E(UB3LYP) =  -1136.11325316     A.U. after   21 cycles

 The electronic state is 2-A.
 Alpha  occ. eigenvalues --  -38.45155 -38.44782 -38.44354 -38.44275 -38.44271
 Alpha  occ. eigenvalues --  -38.43668 -38.43633  -2.20926  -2.20567  -2.20179
 Alpha  occ. eigenvalues --   -2.20102  -2.20091  -2.19494  -2.19389  -1.14600
 Alpha  occ. eigenvalues --   -1.14567  -1.14534  -1.14212  -1.14212  -1.14192
 Alpha  occ. eigenvalues --   -1.13898  -1.13871  -1.13841  -1.13811  -1.13766
 Alpha  occ. eigenvalues --   -1.13759  -1.13750  -1.13714  -1.13670  -1.13173
 Alpha  occ. eigenvalues --   -1.13143  -1.13106  -1.13064  -1.13056  -1.13019
 Alpha  occ. eigenvalues --   -0.16669  -0.13578  -0.11929  -0.11383
 Alpha virt. eigenvalues --   -0.06742  -0.05065  -0.04782  -0.03494  -0.02755
 Alpha virt. eigenvalues --   -0.02712  -0.02069  -0.01638  -0.01183  -0.00647
 Alpha virt. eigenvalues --   -0.00270  -0.00226   0.00209   0.00430   0.00514

  Beta  occ. eigenvalues --  -38.45087 -38.44714 -38.44311 -38.44287 -38.44248
  Beta  occ. eigenvalues --  -38.43643 -38.43636  -2.20799  -2.20439  -2.20119
  Beta  occ. eigenvalues --   -2.20102  -2.20059  -2.19450  -2.19393  -1.14515
  Beta  occ. eigenvalues --   -1.14478  -1.14443  -1.14125  -1.14123  -1.14110
  Beta  occ. eigenvalues --   -1.13896  -1.13819  -1.13792  -1.13777  -1.13755
  Beta  occ. eigenvalues --   -1.13741  -1.13724  -1.13700  -1.13641  -1.13131
  Beta  occ. eigenvalues --   -1.13115  -1.13078  -1.13068  -1.13058  -1.13022
  Beta  occ. eigenvalues --   -0.16063  -0.12905  -0.11785
  Beta virt. eigenvalues --   -0.07941  -0.06296  -0.04774  -0.04495  -0.03083
  Beta virt. eigenvalues --   -0.02510  -0.02452  -0.01736  -0.01459  -0.00795
  Beta virt. eigenvalues --   -0.00533  -0.00170   0.00112   0.00327   0.00562

 Mulliken charges and spin densities:
               1          2
     1  Na   0.168861   0.202805
     2  Na  -0.286339   0.065660
     3  Na  -0.374471   0.125934
     4  Na   0.359816  -0.086191
     5  Na   0.329585   0.078404
     6  Na  -0.402715   0.375811
     7  Na   0.205263   0.237577
 Sum of Mulliken charges =  -0.00000   1.00000

 Dipole moment (field-independent basis, Debye):
    X=              0.5973    Y=             -0.5213    Z=              0.6377  Tot=              1.0174
 Quadrupole moment (field-independent basis, Debye-Ang):
   XX=            -61.6217   YY=            -65.6775   ZZ=            -68.0726
   XY=              1.7018   XZ=              0.4394   YZ=             -0.6188

 Normal termination of Gaussian 16 at Sun Dec  3 13:22:14 2023.
