 Gaussian 16, Revision B.01,
 Gaussian 16:  ES64L-G16RevB.01 20-Dec-2017

 -------------------------
 #P B3LYP/6-311+g(d) force
 -------------------------

 -----
 DPGEN
 -----
 Symbolic Z-matrix:
 Charge =  0 Multiplicity = 2

                         Standard orientation:
 ---------------------------------------------------------------------
 Center     Atomic      Atomic             Coordinates (Angstroms)
 Number     Number       Type             X           Y           Z
 ---------------------------------------------------------------------
      1         11           0        0.251965   -1.521647   -1.297284
      2         11           0        2.836874   -1.819332    1.291254
      3         11           0       -2.172933   -2.956192    0.076614
      4         11           0       -4.137779    0.310261    0.041427
      5         11           0        3.878239    0.533013   -0.418108
      6         11           0        1.552623    2.760850   -0.186270
      7         11           0       -2.208990    2.693047    0.492366
 ---------------------------------------------------------------------

 SCF Done:  E(UB3LYP) =  -1136.11317318     A.U. after   21 cycles

 The electronic state is 2-A.
 Alpha  occ. eigenvalues --  -38.44765 -38.44716 -38.44551 -38.44317 -38.44098
 Alpha  occ. eigenvalues --  -38.43818 -38.43672  -2.20620  -2.20523  -2.20395
 Alpha  occ. eigenvalues --   -2.20134  -2.19905  -2.19611  -2.19484  -1.14337
 Alpha  occ. eigenvalues --   -1.14290  -1.14270  -1.14213  -1.14181  -1.14157
 Alpha  occ. eigenvalues --   -1.14032  -1.14019  -1.14009  -1.13826  -1.13790
 Alpha  occ. eigenvalues --   -1.13750  -1.13568  -1.13559  -1.13539  -1.13284
 Alpha  occ. eigenvalues --   -1.13280  -1.13252  -1.13138  -1.13128  -1.13120
 Alpha  occ. eigenvalues --   -0.16620  -0.14208  -0.12700  -0.10443
 Alpha virt. eigenvalues --   -0.06908  -0.05823  -0.04050  -0.03345  -0.03213
 Alpha virt. eigenvalues --   -0.02552  -0.02139  -0.01752  -0.01135  -0.00582
 Alpha virt. eigenvalues --   -0.00109   0.00087   0.00313   0.00438   0.00612

  Beta  occ. eigenvalues --  -38.44749 -38.44695 -38.44475 -38.44270 -38.44083
  Beta  occ. eigenvalues --  -38.43816 -38.43614  -2.20600  -2.20485  -2.20257
  Beta  occ. eigenvalues --   -2.20050  -2.19880  -2.19613  -2.19377  -1.14303
  Beta  occ. eigenvalues --   -1.14271  -1.14231  -1.14188  -1.14155  -1.14124
  Beta  occ. eigenvalues --   -1.13939  -1.13930  -1.13910  -1.13767  -1.13733
  Beta  occ. eigenvalues --   -1.13687  -1.13544  -1.13541  -1.13523  -1.13288
  Beta  occ. eigenvalues --   -1.13285  -1.13223  -1.13065  -1.13059  -1.13050
  Beta  occ. eigenvalues --   -0.16121  -0.13531  -0.12107
  Beta virt. eigenvalues --   -0.07172  -0.06931  -0.05504  -0.03889  -0.02959
  Beta virt. eigenvalues --   -0.02722  -0.02158  -0.01989  -0.01515  -0.00837
  Beta virt. eigenvalues --   -0.00460   0.00109   0.00258   0.00435   0.00557

 Mulliken charges and spin densities:
               1          2
     1  Na  -0.368824   0.168029
     2  Na  -0.035269   0.295630
     3  Na   0.122930  -0.006928
     4  Na  -0.052299   0.205288
     5  Na   0.582577   0.109117
     6  Na  -0.286981   0.222432
     7  Na   0.037865   0.006433
 Sum of Mulliken charges =  -0.00000   1.00000

 Dipole moment (field-independent basis, Debye):
    X=              0.3719    Y=             -1.0462    Z=              0.1407  Tot=              1.1192
 Quadrupole moment (field-independent basis, Debye-Ang):
   XX=            -62.4529   YY=            -71.3103   ZZ=            -68.8532
   XY=              6.9806   XZ=             -2.3444   YZ=             -2.3099

 Normal termination of Gaussian 16 at Mon Dec  4 04:14:08 2023.
