 Gaussian 16, Revision B.01,
 Gaussian 16:  ES64L-G16RevB.01 20-Dec-2017

 -------------------------
 #P B3LYP/6-311+g(d) force
 -------------------------

 -----
 DPGEN
 -----
 Symbolic Z-matrix:
 Charge =  0 Multiplicity = 2

                         Standard orientation:
 ---------------------------------------------------------------------
 Center     Atomic      Atomic             Coordinates (Angstroms)
 Number     Number       Type             X           Y           Z
 ---------------------------------------------------------------------
      1         11           0        3.071229   -1.383606   -1.119813
      2         11           0       -3.484187    1.098736   -0.755582
      3         11           0       -0.183213    2.008113    1.158004
      4         11           0        2.280350    1.876972   -0.171191
      5         11           0        1.167412   -1.163078    1.972170
      6         11           0       -0.231256   -0.361225   -1.562337
      7         11           0       -2.620335   -2.075912    0.478750
 ---------------------------------------------------------------------

 SCF Done:  E(UB3LYP) =  -1136.12294220     A.U. after   23 cycles

 The electronic state is 2-A.
 Alpha  occ. eigenvalues --  -38.44835 -38.44502 -38.44212 -38.44182 -38.43836
 Alpha  occ. eigenvalues --  -38.43650 -38.42596  -2.20621  -2.20281  -2.20056
 Alpha  occ. eigenvalues --   -2.20047  -2.19749  -2.19479  -2.18517  -1.14299
 Alpha  occ. eigenvalues --   -1.14264  -1.14254  -1.13957  -1.13943  -1.13913
 Alpha  occ. eigenvalues --   -1.13762  -1.13718  -1.13716  -1.13675  -1.13671
 Alpha  occ. eigenvalues --   -1.13667  -1.13528  -1.13394  -1.13361  -1.13143
 Alpha  occ. eigenvalues --   -1.13133  -1.13114  -1.12216  -1.12158  -1.12125
 Alpha  occ. eigenvalues --   -0.18163  -0.13720  -0.11327  -0.11234
 Alpha virt. eigenvalues --   -0.06264  -0.05823  -0.04158  -0.03236  -0.03037
 Alpha virt. eigenvalues --   -0.02560  -0.02179  -0.01206  -0.00619  -0.00321
 Alpha virt. eigenvalues --    0.00209   0.00220   0.00381   0.00582   0.00698

  Beta  occ. eigenvalues --  -38.44819 -38.44493 -38.44149 -38.44128 -38.43830
  Beta  occ. eigenvalues --  -38.43629 -38.42580  -2.20592  -2.20265  -2.19995
  Beta  occ. eigenvalues --   -2.19894  -2.19740  -2.19442  -2.18490  -1.14274
  Beta  occ. eigenvalues --   -1.14244  -1.14237  -1.13947  -1.13929  -1.13893
  Beta  occ. eigenvalues --   -1.13716  -1.13672  -1.13622  -1.13611  -1.13567
  Beta  occ. eigenvalues --   -1.13558  -1.13518  -1.13369  -1.13358  -1.13116
  Beta  occ. eigenvalues --   -1.13098  -1.13090  -1.12204  -1.12137  -1.12085
  Beta  occ. eigenvalues --   -0.17470  -0.13489  -0.11126
  Beta virt. eigenvalues --   -0.07406  -0.06067  -0.05614  -0.03770  -0.03050
  Beta virt. eigenvalues --   -0.02367  -0.01994  -0.01700  -0.01080  -0.00336
  Beta virt. eigenvalues --   -0.00250   0.00214   0.00268   0.00492   0.00700

 Mulliken charges and spin densities:
               1          2
     1  Na   0.557926   0.157366
     2  Na   0.579435  -0.024368
     3  Na  -0.162915   0.165946
     4  Na   0.145018   0.014279
     5  Na  -0.340345   0.397782
     6  Na  -0.755010   0.172371
     7  Na  -0.024108   0.116624
 Sum of Mulliken charges =  -0.00000   1.00000

 Dipole moment (field-independent basis, Debye):
    X=             -0.7791    Y=             -0.2712    Z=             -0.1428  Tot=              0.8372
 Quadrupole moment (field-independent basis, Debye-Ang):
   XX=            -51.6211   YY=            -72.8139   ZZ=            -70.2953
   XY=             -0.7741   XZ=             -0.3604   YZ=             -3.2922

 Normal termination of Gaussian 16 at Thu Dec  7 08:41:00 2023.
