 Gaussian 16, Revision B.01,
 Gaussian 16:  ES64L-G16RevB.01 20-Dec-2017

 -------------------------
 #P B3LYP/6-311+g(d) force
 -------------------------

 -----
 DPGEN
 -----
 Symbolic Z-matrix:
 Charge =  0 Multiplicity = 2

                         Standard orientation:
 ---------------------------------------------------------------------
 Center     Atomic      Atomic             Coordinates (Angstroms)
 Number     Number       Type             X           Y           Z
 ---------------------------------------------------------------------
      1         11           0        3.243392    0.148174   -0.365478
      2         11           0       -3.482346    1.159018   -0.330939
      3         11           0        0.158032    0.009133    2.200480
      4         11           0        0.273969    0.139341   -1.331708
      5         11           0       -2.167849   -1.794476   -0.076462
      6         11           0        0.863094    3.020403    0.036623
      7         11           0        1.111708   -2.681593   -0.132517
 ---------------------------------------------------------------------

 SCF Done:  E(UB3LYP) =  -1136.13059046     A.U. after   20 cycles

 The electronic state is 2-A.
 Alpha  occ. eigenvalues --  -38.44543 -38.44401 -38.43696 -38.43681 -38.43414
 Alpha  occ. eigenvalues --  -38.43251 -38.43016  -2.20387  -2.20179  -2.19547
 Alpha  occ. eigenvalues --   -2.19505  -2.19298  -2.19275  -2.18903  -1.14094
 Alpha  occ. eigenvalues --   -1.14040  -1.13999  -1.13854  -1.13842  -1.13811
 Alpha  occ. eigenvalues --   -1.13219  -1.13206  -1.13175  -1.13170  -1.13145
 Alpha  occ. eigenvalues --   -1.13132  -1.13020  -1.12966  -1.12958  -1.12933
 Alpha  occ. eigenvalues --   -1.12916  -1.12895  -1.12584  -1.12553  -1.12537
 Alpha  occ. eigenvalues --   -0.18487  -0.13218  -0.12148  -0.10626
 Alpha virt. eigenvalues --   -0.06302  -0.04946  -0.04661  -0.03061  -0.02691
 Alpha virt. eigenvalues --   -0.02475  -0.01978  -0.01159  -0.00747  -0.00255
 Alpha virt. eigenvalues --   -0.00061   0.00270   0.00753   0.00790   0.00872

  Beta  occ. eigenvalues --  -38.44528 -38.44395 -38.43694 -38.43567 -38.43409
  Beta  occ. eigenvalues --  -38.43214 -38.43011  -2.20362  -2.20169  -2.19503
  Beta  occ. eigenvalues --   -2.19338  -2.19292  -2.19209  -2.18897  -1.14069
  Beta  occ. eigenvalues --   -1.14013  -1.13982  -1.13849  -1.13828  -1.13806
  Beta  occ. eigenvalues --   -1.13209  -1.13147  -1.13134  -1.13075  -1.13033
  Beta  occ. eigenvalues --   -1.13008  -1.12997  -1.12947  -1.12921  -1.12910
  Beta  occ. eigenvalues --   -1.12870  -1.12848  -1.12578  -1.12545  -1.12513
  Beta  occ. eigenvalues --   -0.17793  -0.12954  -0.11944
  Beta virt. eigenvalues --   -0.06748  -0.06142  -0.04905  -0.04634  -0.02379
  Beta virt. eigenvalues --   -0.01972  -0.01840  -0.01432  -0.01106  -0.00741
  Beta virt. eigenvalues --   -0.00282   0.00118   0.00328   0.00765   0.00853

 Mulliken charges and spin densities:
               1          2
     1  Na   0.482712   0.074431
     2  Na   0.043527   0.030526
     3  Na  -0.501559   0.659199
     4  Na  -0.624696   0.052022
     5  Na   0.228964   0.082422
     6  Na   0.025159   0.010385
     7  Na   0.345893   0.091016
 Sum of Mulliken charges =  -0.00000   1.00000

 Dipole moment (field-independent basis, Debye):
    X=              0.2644    Y=              0.3745    Z=              0.2491  Tot=              0.5217
 Quadrupole moment (field-independent basis, Debye-Ang):
   XX=            -54.8585   YY=            -62.8683   ZZ=            -75.1877
   XY=             -1.5115   XZ=              0.2241   YZ=             -0.0460

 Normal termination of Gaussian 16 at Thu Dec  7 03:07:05 2023.
