 Gaussian 16, Revision B.01,
 Gaussian 16:  ES64L-G16RevB.01 20-Dec-2017

 -------------------------
 #P B3LYP/6-311+g(d) force
 -------------------------

 -----
 DPGEN
 -----
 Symbolic Z-matrix:
 Charge =  0 Multiplicity = 2

                         Standard orientation:
 ---------------------------------------------------------------------
 Center     Atomic      Atomic             Coordinates (Angstroms)
 Number     Number       Type             X           Y           Z
 ---------------------------------------------------------------------
      1         11           0       -1.885842    1.863208    0.786830
      2         11           0        0.921331    3.179566   -0.205612
      3         11           0        3.336694    0.118312   -0.760391
      4         11           0       -4.938350   -0.561415    1.048196
      5         11           0        5.552639   -1.829568    1.305202
      6         11           0        0.092396   -0.300451   -1.436224
      7         11           0       -3.078868   -2.469652   -0.738002
 ---------------------------------------------------------------------

 SCF Done:  E(UB3LYP) =  -1136.11370424     A.U. after   21 cycles

 The electronic state is 2-A.
 Alpha  occ. eigenvalues --  -38.44702 -38.44651 -38.44630 -38.44543 -38.44365
 Alpha  occ. eigenvalues --  -38.44310 -38.43769  -2.20497  -2.20484  -2.20421
 Alpha  occ. eigenvalues --   -2.20348  -2.20174  -2.20075  -2.19551  -1.14191
 Alpha  occ. eigenvalues --   -1.14162  -1.14160  -1.14147  -1.14140  -1.14090
 Alpha  occ. eigenvalues --   -1.14088  -1.14067  -1.14029  -1.14027  -1.14016
 Alpha  occ. eigenvalues --   -1.13979  -1.13858  -1.13850  -1.13768  -1.13725
 Alpha  occ. eigenvalues --   -1.13724  -1.13686  -1.13256  -1.13237  -1.13178
 Alpha  occ. eigenvalues --   -0.16665  -0.13891  -0.12168  -0.11010
 Alpha virt. eigenvalues --   -0.06928  -0.06339  -0.04224  -0.03455  -0.03104
 Alpha virt. eigenvalues --   -0.02454  -0.02244  -0.01606  -0.01196  -0.01049
 Alpha virt. eigenvalues --   -0.00596  -0.00264   0.00113   0.00259   0.00560

  Beta  occ. eigenvalues --  -38.44682 -38.44614 -38.44582 -38.44538 -38.44342
  Beta  occ. eigenvalues --  -38.44240 -38.43789  -2.20459  -2.20391  -2.20355
  Beta  occ. eigenvalues --   -2.20339  -2.20132  -2.19943  -2.19592  -1.14169
  Beta  occ. eigenvalues --   -1.14134  -1.14109  -1.14077  -1.14071  -1.14069
  Beta  occ. eigenvalues --   -1.14043  -1.14021  -1.14014  -1.14003  -1.13989
  Beta  occ. eigenvalues --   -1.13961  -1.13831  -1.13816  -1.13739  -1.13636
  Beta  occ. eigenvalues --   -1.13635  -1.13601  -1.13281  -1.13268  -1.13183
  Beta  occ. eigenvalues --   -0.16193  -0.13751  -0.11580
  Beta virt. eigenvalues --   -0.07749  -0.06498  -0.05745  -0.03962  -0.03163
  Beta virt. eigenvalues --   -0.02837  -0.02344  -0.01930  -0.01398  -0.00911
  Beta virt. eigenvalues --   -0.00747  -0.00357   0.00008   0.00181   0.00438

 Mulliken charges and spin densities:
               1          2
     1  Na  -0.043410   0.147949
     2  Na   0.648371   0.092846
     3  Na  -0.247773  -0.034781
     4  Na  -0.106808   0.052311
     5  Na   0.260414   0.355476
     6  Na  -0.913537   0.399938
     7  Na   0.402744  -0.013738
 Sum of Mulliken charges =  -0.00000   1.00000

 Dipole moment (field-independent basis, Debye):
    X=             -1.2504    Y=              0.4017    Z=              0.2587  Tot=              1.3386
 Quadrupole moment (field-independent basis, Debye-Ang):
   XX=            -63.4823   YY=            -64.2832   ZZ=            -70.2466
   XY=              5.3878   XZ=             -0.2113   YZ=             -2.3300

 Normal termination of Gaussian 16 at Wed Nov 29 03:51:57 2023.
