 Gaussian 16, Revision B.01,
 Gaussian 16:  ES64L-G16RevB.01 20-Dec-2017

 -------------------------
 #P B3LYP/6-311+g(d) force
 -------------------------

 -----
 DPGEN
 -----
 Symbolic Z-matrix:
 Charge =  0 Multiplicity = 2

                         Standard orientation:
 ---------------------------------------------------------------------
 Center     Atomic      Atomic             Coordinates (Angstroms)
 Number     Number       Type             X           Y           Z
 ---------------------------------------------------------------------
      1         11           0        0.039884   -1.736257   -0.908169
      2         11           0       -1.692709    1.778026    1.668477
      3         11           0        4.149946   -1.044895    0.155045
      4         11           0        0.908617   -0.403443    1.495516
      5         11           0       -3.620488   -2.089942   -0.119020
      6         11           0        1.747586    1.699395   -0.940657
      7         11           0       -1.532837    1.797116   -1.351191
 ---------------------------------------------------------------------

 SCF Done:  E(UB3LYP) =  -1136.11446919     A.U. after   24 cycles

 The electronic state is 2-A.
 Alpha  occ. eigenvalues --  -38.45385 -38.44234 -38.44137 -38.44124 -38.43934
 Alpha  occ. eigenvalues --  -38.43855 -38.43646  -2.21145  -2.20184  -2.19974
 Alpha  occ. eigenvalues --   -2.19861  -2.19798  -2.19723  -2.19526  -1.14821
 Alpha  occ. eigenvalues --   -1.14811  -1.14762  -1.14051  -1.13837  -1.13758
 Alpha  occ. eigenvalues --   -1.13649  -1.13623  -1.13540  -1.13536  -1.13525
 Alpha  occ. eigenvalues --   -1.13491  -1.13483  -1.13471  -1.13459  -1.13399
 Alpha  occ. eigenvalues --   -1.13374  -1.13330  -1.13187  -1.13156  -1.13130
 Alpha  occ. eigenvalues --   -0.18207  -0.13302  -0.11473  -0.10914
 Alpha virt. eigenvalues --   -0.06996  -0.05569  -0.04080  -0.03240  -0.02762
 Alpha virt. eigenvalues --   -0.02499  -0.02260  -0.01726  -0.00699  -0.00166
 Alpha virt. eigenvalues --    0.00001   0.00147   0.00431   0.00574   0.00722

  Beta  occ. eigenvalues --  -38.45384 -38.44180 -38.44144 -38.44103 -38.43895
  Beta  occ. eigenvalues --  -38.43799 -38.43622  -2.21143  -2.20088  -2.19938
  Beta  occ. eigenvalues --   -2.19876  -2.19729  -2.19620  -2.19484  -1.14814
  Beta  occ. eigenvalues --   -1.14809  -1.14762  -1.13991  -1.13776  -1.13676
  Beta  occ. eigenvalues --   -1.13610  -1.13580  -1.13548  -1.13543  -1.13511
  Beta  occ. eigenvalues --   -1.13483  -1.13447  -1.13402  -1.13397  -1.13352
  Beta  occ. eigenvalues --   -1.13293  -1.13261  -1.13143  -1.13115  -1.13101
  Beta  occ. eigenvalues --   -0.17484  -0.13154  -0.11273
  Beta virt. eigenvalues --   -0.06952  -0.06910  -0.05477  -0.03425  -0.03083
  Beta virt. eigenvalues --   -0.02608  -0.01972  -0.01787  -0.01270  -0.00310
  Beta virt. eigenvalues --   -0.00137   0.00038   0.00166   0.00569   0.00617

 Mulliken charges and spin densities:
               1          2
     1  Na  -0.480698   0.316759
     2  Na   0.026793   0.151331
     3  Na   0.731009   0.058607
     4  Na  -0.116969   0.212127
     5  Na  -0.022810  -0.140462
     6  Na  -0.256926   0.168916
     7  Na   0.119602   0.232721
 Sum of Mulliken charges =  -0.00000   1.00000

 Dipole moment (field-independent basis, Debye):
    X=              1.3300    Y=              0.0554    Z=             -0.0534  Tot=              1.3322
 Quadrupole moment (field-independent basis, Debye-Ang):
   XX=            -45.5176   YY=            -73.9946   ZZ=            -72.3130
   XY=             -4.8852   XZ=             -1.6472   YZ=             -0.4531

 Normal termination of Gaussian 16 at Tue Dec  5 22:05:12 2023.
