 Gaussian 16, Revision B.01,
 Gaussian 16:  ES64L-G16RevB.01 20-Dec-2017

 -------------------------
 #P B3LYP/6-311+g(d) force
 -------------------------

 -----
 DPGEN
 -----
 Symbolic Z-matrix:
 Charge =  0 Multiplicity = 2

                         Standard orientation:
 ---------------------------------------------------------------------
 Center     Atomic      Atomic             Coordinates (Angstroms)
 Number     Number       Type             X           Y           Z
 ---------------------------------------------------------------------
      1         11           0       -3.988550    0.919555   -0.665380
      2         11           0       -0.408643    0.044356    0.084298
      3         11           0        0.563137    3.213691    0.001519
      4         11           0        3.085939    1.364996    0.378186
      5         11           0        3.555170   -1.692135   -0.239781
      6         11           0        0.536439   -2.369731   -0.376269
      7         11           0       -3.343492   -1.480733    0.817426
 ---------------------------------------------------------------------

 SCF Done:  E(UB3LYP) =  -1136.11197671     A.U. after   20 cycles

 The electronic state is 2-A.
 Alpha  occ. eigenvalues --  -38.44939 -38.44691 -38.43957 -38.43799 -38.43779
 Alpha  occ. eigenvalues --  -38.43567 -38.43089  -2.20810  -2.20552  -2.19837
 Alpha  occ. eigenvalues --   -2.19829  -2.19725  -2.19452  -2.18940  -1.14606
 Alpha  occ. eigenvalues --   -1.14469  -1.14431  -1.14180  -1.14168  -1.14147
 Alpha  occ. eigenvalues --   -1.13958  -1.13525  -1.13508  -1.13486  -1.13482
 Alpha  occ. eigenvalues --   -1.13405  -1.13332  -1.13307  -1.13187  -1.13104
 Alpha  occ. eigenvalues --   -1.13091  -1.13053  -1.12595  -1.12590  -1.12586
 Alpha  occ. eigenvalues --   -0.17719  -0.14710  -0.12384  -0.10614
 Alpha virt. eigenvalues --   -0.06385  -0.04835  -0.04528  -0.03766  -0.03290
 Alpha virt. eigenvalues --   -0.02007  -0.01770  -0.00969  -0.00807  -0.00417
 Alpha virt. eigenvalues --   -0.00122   0.00104   0.00605   0.00629   0.00644

  Beta  occ. eigenvalues --  -38.44926 -38.44631 -38.43926 -38.43768 -38.43732
  Beta  occ. eigenvalues --  -38.43518 -38.43079  -2.20792  -2.20443  -2.19784
  Beta  occ. eigenvalues --   -2.19755  -2.19664  -2.19362  -2.18920  -1.14572
  Beta  occ. eigenvalues --   -1.14461  -1.14389  -1.14106  -1.14091  -1.14077
  Beta  occ. eigenvalues --   -1.13886  -1.13482  -1.13476  -1.13429  -1.13425
  Beta  occ. eigenvalues --   -1.13364  -1.13296  -1.13273  -1.13124  -1.13035
  Beta  occ. eigenvalues --   -1.13031  -1.12993  -1.12582  -1.12576  -1.12572
  Beta  occ. eigenvalues --   -0.17179  -0.13965  -0.12215
  Beta virt. eigenvalues --   -0.06973  -0.06207  -0.04720  -0.04303  -0.03101
  Beta virt. eigenvalues --   -0.02839  -0.01709  -0.01577  -0.00849  -0.00715
  Beta virt. eigenvalues --   -0.00053   0.00107   0.00323   0.00677   0.00731

 Mulliken charges and spin densities:
               1          2
     1  Na   0.793116   0.295639
     2  Na  -4.342819   0.032926
     3  Na   0.539218   0.014989
     4  Na   0.194745   0.334301
     5  Na   0.136176   0.374505
     6  Na   1.792949  -0.189440
     7  Na   0.886615   0.137081
 Sum of Mulliken charges =  -0.00000   1.00000

 Dipole moment (field-independent basis, Debye):
    X=             -1.2072    Y=             -0.1937    Z=             -0.0009  Tot=              1.2226
 Quadrupole moment (field-independent basis, Debye-Ang):
   XX=            -67.2389   YY=            -62.9693   ZZ=            -69.1146
   XY=              0.6377   XZ=              0.1365   YZ=             -3.0138

 Normal termination of Gaussian 16 at Fri Dec  8 19:15:33 2023.
