 Gaussian 16, Revision B.01,
 Gaussian 16:  ES64L-G16RevB.01 20-Dec-2017

 -------------------------
 #P B3LYP/6-311+g(d) force
 -------------------------

 -----
 DPGEN
 -----
 Symbolic Z-matrix:
 Charge =  0 Multiplicity = 2

                         Standard orientation:
 ---------------------------------------------------------------------
 Center     Atomic      Atomic             Coordinates (Angstroms)
 Number     Number       Type             X           Y           Z
 ---------------------------------------------------------------------
      1         11           0        1.346631    1.640788   -1.166628
      2         11           0       -1.541559    3.186961    0.604652
      3         11           0        0.118819   -0.251135    1.551500
      4         11           0       -3.163923   -2.196872    0.418267
      5         11           0        1.063226   -1.890172   -0.982366
      6         11           0       -1.457731    0.084147   -1.223981
      7         11           0        3.634537   -0.573717    0.798556
 ---------------------------------------------------------------------

 SCF Done:  E(UB3LYP) =  -1136.12872152     A.U. after   21 cycles

 The electronic state is 2-A.
 Alpha  occ. eigenvalues --  -38.44085 -38.44009 -38.43987 -38.43791 -38.43541
 Alpha  occ. eigenvalues --  -38.43536 -38.42775  -2.19913  -2.19906  -2.19789
 Alpha  occ. eigenvalues --   -2.19718  -2.19432  -2.19327  -2.18788  -1.13683
 Alpha  occ. eigenvalues --   -1.13573  -1.13571  -1.13555  -1.13544  -1.13500
 Alpha  occ. eigenvalues --   -1.13473  -1.13446  -1.13427  -1.13414  -1.13372
 Alpha  occ. eigenvalues --   -1.13297  -1.13156  -1.13095  -1.13019  -1.12999
 Alpha  occ. eigenvalues --   -1.12988  -1.12947  -1.12522  -1.12444  -1.12367
 Alpha  occ. eigenvalues --   -0.18626  -0.13032  -0.11949  -0.10723
 Alpha virt. eigenvalues --   -0.06165  -0.05309  -0.04228  -0.03092  -0.02603
 Alpha virt. eigenvalues --   -0.02208  -0.01977  -0.01354  -0.00827  -0.00012
 Alpha virt. eigenvalues --    0.00208   0.00294   0.00569   0.00682   0.00777

  Beta  occ. eigenvalues --  -38.44065 -38.44006 -38.43939 -38.43756 -38.43529
  Beta  occ. eigenvalues --  -38.43501 -38.42737  -2.19870  -2.19826  -2.19784
  Beta  occ. eigenvalues --   -2.19660  -2.19374  -2.19305  -2.18724  -1.13620
  Beta  occ. eigenvalues --   -1.13549  -1.13529  -1.13525  -1.13490  -1.13471
  Beta  occ. eigenvalues --   -1.13443  -1.13435  -1.13410  -1.13381  -1.13293
  Beta  occ. eigenvalues --   -1.13264  -1.13109  -1.13034  -1.12986  -1.12981
  Beta  occ. eigenvalues --   -1.12966  -1.12933  -1.12481  -1.12352  -1.12331
  Beta  occ. eigenvalues --   -0.17834  -0.12807  -0.11796
  Beta virt. eigenvalues --   -0.06834  -0.05985  -0.05141  -0.04039  -0.02657
  Beta virt. eigenvalues --   -0.02164  -0.01897  -0.01276  -0.01249  -0.00450
  Beta virt. eigenvalues --    0.00013   0.00233   0.00380   0.00649   0.00763

 Mulliken charges and spin densities:
               1          2
     1  Na  -0.020585   0.051177
     2  Na  -0.183023  -0.122099
     3  Na  -0.613668   0.719269
     4  Na  -0.103049  -0.129955
     5  Na   0.051026   0.024088
     6  Na   0.449015   0.405532
     7  Na   0.420284   0.051988
 Sum of Mulliken charges =  -0.00000   1.00000

 Dipole moment (field-independent basis, Debye):
    X=              0.3756    Y=             -0.1044    Z=              0.1799  Tot=              0.4293
 Quadrupole moment (field-independent basis, Debye-Ang):
   XX=            -53.9837   YY=            -64.7772   ZZ=            -71.7976
   XY=              0.4857   XZ=             -1.4854   YZ=              0.6349

 Normal termination of Gaussian 16 at Fri Dec  8 04:35:42 2023.
