 Gaussian 16, Revision B.01,
 Gaussian 16:  ES64L-G16RevB.01 20-Dec-2017

 -------------------------
 #P B3LYP/6-311+g(d) force
 -------------------------

 -----
 DPGEN
 -----
 Symbolic Z-matrix:
 Charge =  0 Multiplicity = 2

                         Standard orientation:
 ---------------------------------------------------------------------
 Center     Atomic      Atomic             Coordinates (Angstroms)
 Number     Number       Type             X           Y           Z
 ---------------------------------------------------------------------
      1         11           0       -3.401388    0.384917   -0.002115
      2         11           0       -1.853439   -2.465774    0.041815
      3         11           0        2.827203    0.990642   -0.237199
      4         11           0       -0.047078    3.288564   -0.044453
      5         11           0        2.497362   -2.376029   -0.111636
      6         11           0       -0.291617    0.037144   -1.645672
      7         11           0        0.268957    0.140535    1.999261
 ---------------------------------------------------------------------

 SCF Done:  E(UB3LYP) =  -1136.13349568     A.U. after   19 cycles

 The electronic state is 2-A.
 Alpha  occ. eigenvalues --  -38.44682 -38.44029 -38.43974 -38.43795 -38.43473
 Alpha  occ. eigenvalues --  -38.43455 -38.43422  -2.20485  -2.19877  -2.19805
 Alpha  occ. eigenvalues --   -2.19580  -2.19335  -2.19328  -2.19245  -1.14153
 Alpha  occ. eigenvalues --   -1.14151  -1.14129  -1.13560  -1.13558  -1.13499
 Alpha  occ. eigenvalues --   -1.13487  -1.13466  -1.13438  -1.13246  -1.13241
 Alpha  occ. eigenvalues --   -1.13223  -1.13034  -1.12996  -1.12966  -1.12964
 Alpha  occ. eigenvalues --   -1.12953  -1.12947  -1.12911  -1.12900  -1.12890
 Alpha  occ. eigenvalues --   -0.18048  -0.13293  -0.11992  -0.10288
 Alpha virt. eigenvalues --   -0.05981  -0.05339  -0.05078  -0.03259  -0.02568
 Alpha virt. eigenvalues --   -0.02339  -0.01813  -0.01368  -0.00750  -0.00642
 Alpha virt. eigenvalues --   -0.00029   0.00331   0.00711   0.00776   0.00813

  Beta  occ. eigenvalues --  -38.44681 -38.44021 -38.43970 -38.43796 -38.43454
  Beta  occ. eigenvalues --  -38.43379 -38.43361  -2.20486  -2.19865  -2.19799
  Beta  occ. eigenvalues --   -2.19582  -2.19247  -2.19217  -2.19160  -1.14154
  Beta  occ. eigenvalues --   -1.14139  -1.14128  -1.13555  -1.13522  -1.13497
  Beta  occ. eigenvalues --   -1.13481  -1.13448  -1.13433  -1.13245  -1.13232
  Beta  occ. eigenvalues --   -1.13226  -1.12950  -1.12914  -1.12902  -1.12897
  Beta  occ. eigenvalues --   -1.12882  -1.12872  -1.12867  -1.12841  -1.12818
  Beta  occ. eigenvalues --   -0.17338  -0.13098  -0.11812
  Beta virt. eigenvalues --   -0.06420  -0.05919  -0.05338  -0.05013  -0.02488
  Beta virt. eigenvalues --   -0.01899  -0.01714  -0.01314  -0.01292  -0.00795
  Beta virt. eigenvalues --   -0.00672   0.00134   0.00364   0.00746   0.00802

 Mulliken charges and spin densities:
               1          2
     1  Na   0.134294  -0.093167
     2  Na   0.047181  -0.058901
     3  Na   0.234245   0.006478
     4  Na  -0.010508  -0.125247
     5  Na  -0.049328  -0.073724
     6  Na  -0.020750   0.555985
     7  Na  -0.335134   0.788576
 Sum of Mulliken charges =  -0.00000   1.00000

 Dipole moment (field-independent basis, Debye):
    X=             -0.5138    Y=             -0.0387    Z=              0.0195  Tot=              0.5156
 Quadrupole moment (field-independent basis, Debye-Ang):
   XX=            -55.0632   YY=            -60.5927   ZZ=            -77.0948
   XY=             -1.0321   XZ=             -1.1042   YZ=             -0.1723

 Normal termination of Gaussian 16 at Thu Dec  7 13:28:21 2023.
