 Gaussian 16, Revision B.01,
 Gaussian 16:  ES64L-G16RevB.01 20-Dec-2017

 -------------------------
 #P B3LYP/6-311+g(d) force
 -------------------------

 -----
 DPGEN
 -----
 Symbolic Z-matrix:
 Charge =  0 Multiplicity = 2

                         Standard orientation:
 ---------------------------------------------------------------------
 Center     Atomic      Atomic             Coordinates (Angstroms)
 Number     Number       Type             X           Y           Z
 ---------------------------------------------------------------------
      1         11           0        3.375418   -0.612798    0.251104
      2         11           0        0.076365    0.060400    2.077417
      3         11           0       -0.965440    0.336636   -1.589023
      4         11           0        1.557343    2.261724   -0.845185
      5         11           0       -2.711608   -2.008170   -0.020255
      6         11           0       -1.938670    2.575720    0.532521
      7         11           0        0.606592   -2.613513   -0.406579
 ---------------------------------------------------------------------

 SCF Done:  E(UB3LYP) =  -1136.13532096     A.U. after   19 cycles

 The electronic state is 2-A.
 Alpha  occ. eigenvalues --  -38.43951 -38.43926 -38.43925 -38.43844 -38.43639
 Alpha  occ. eigenvalues --  -38.43611 -38.43240  -2.19780  -2.19776  -2.19744
 Alpha  occ. eigenvalues --   -2.19680  -2.19458  -2.19439  -2.19193  -1.13466
 Alpha  occ. eigenvalues --   -1.13455  -1.13438  -1.13424  -1.13416  -1.13407
 Alpha  occ. eigenvalues --   -1.13398  -1.13391  -1.13387  -1.13386  -1.13332
 Alpha  occ. eigenvalues --   -1.13290  -1.13153  -1.13136  -1.13118  -1.13101
 Alpha  occ. eigenvalues --   -1.13087  -1.13051  -1.12869  -1.12851  -1.12800
 Alpha  occ. eigenvalues --   -0.18214  -0.12697  -0.12619  -0.10851
 Alpha virt. eigenvalues --   -0.05587  -0.05405  -0.04677  -0.03235  -0.03024
 Alpha virt. eigenvalues --   -0.02655  -0.01494  -0.01390  -0.00459  -0.00227
 Alpha virt. eigenvalues --    0.00001   0.00336   0.00787   0.00793   0.00858

  Beta  occ. eigenvalues --  -38.43940 -38.43925 -38.43834 -38.43816 -38.43641
  Beta  occ. eigenvalues --  -38.43605 -38.43189  -2.19759  -2.19746  -2.19632
  Beta  occ. eigenvalues --   -2.19609  -2.19451  -2.19444  -2.19102  -1.13451
  Beta  occ. eigenvalues --   -1.13419  -1.13416  -1.13403  -1.13390  -1.13383
  Beta  occ. eigenvalues --   -1.13347  -1.13331  -1.13300  -1.13288  -1.13265
  Beta  occ. eigenvalues --   -1.13261  -1.13148  -1.13121  -1.13114  -1.13093
  Beta  occ. eigenvalues --   -1.13090  -1.13048  -1.12809  -1.12780  -1.12732
  Beta  occ. eigenvalues --   -0.17506  -0.12460  -0.12444
  Beta virt. eigenvalues --   -0.06950  -0.05545  -0.05269  -0.04609  -0.02511
  Beta virt. eigenvalues --   -0.02384  -0.01651  -0.01427  -0.01267  -0.00381
  Beta virt. eigenvalues --   -0.00251   0.00128   0.00383   0.00800   0.00859

 Mulliken charges and spin densities:
               1          2
     1  Na   0.145747  -0.015057
     2  Na  -0.280284   0.678111
     3  Na   0.448098   0.240176
     4  Na  -0.232667   0.078407
     5  Na   0.227293  -0.016282
     6  Na  -0.005974   0.025702
     7  Na  -0.302215   0.008944
 Sum of Mulliken charges =  -0.00000   1.00000

 Dipole moment (field-independent basis, Debye):
    X=             -0.3313    Y=              0.0795    Z=              0.2292  Tot=              0.4106
 Quadrupole moment (field-independent basis, Debye-Ang):
   XX=            -57.7097   YY=            -62.7863   ZZ=            -73.5387
   XY=             -0.0541   XZ=             -1.7288   YZ=              0.2709

 Normal termination of Gaussian 16 at Thu Dec  7 08:22:35 2023.
