 Gaussian 16, Revision B.01,
 Gaussian 16:  ES64L-G16RevB.01 20-Dec-2017

 -------------------------
 #P B3LYP/6-311+g(d) force
 -------------------------

 -----
 DPGEN
 -----
 Symbolic Z-matrix:
 Charge =  0 Multiplicity = 2

                         Standard orientation:
 ---------------------------------------------------------------------
 Center     Atomic      Atomic             Coordinates (Angstroms)
 Number     Number       Type             X           Y           Z
 ---------------------------------------------------------------------
      1         11           0        2.983780    1.086850   -0.499836
      2         11           0       -2.015231    2.700553    0.179116
      3         11           0       -2.765218   -3.429745   -0.135626
      4         11           0       -3.883260    0.185266   -0.443151
      5         11           0        0.842833    3.743288    0.307995
      6         11           0        4.148401   -1.956328   -0.263171
      7         11           0        0.688695   -2.329884    0.854673
 ---------------------------------------------------------------------

 SCF Done:  E(UB3LYP) =  -1136.11487901     A.U. after   21 cycles

 The electronic state is 2-A.
 Alpha  occ. eigenvalues --  -38.45703 -38.45164 -38.44252 -38.44139 -38.44093
 Alpha  occ. eigenvalues --  -38.44014 -38.43391  -2.21439  -2.20959  -2.20062
 Alpha  occ. eigenvalues --   -2.19964  -2.19866  -2.19860  -2.19239  -1.15140
 Alpha  occ. eigenvalues --   -1.15132  -1.15027  -1.14650  -1.14636  -1.14588
 Alpha  occ. eigenvalues --   -1.13767  -1.13723  -1.13677  -1.13626  -1.13612
 Alpha  occ. eigenvalues --   -1.13584  -1.13539  -1.13529  -1.13525  -1.13520
 Alpha  occ. eigenvalues --   -1.13504  -1.13497  -1.12899  -1.12879  -1.12874
 Alpha  occ. eigenvalues --   -0.16019  -0.14071  -0.13337  -0.10716
 Alpha virt. eigenvalues --   -0.07118  -0.05466  -0.03967  -0.03562  -0.03100
 Alpha virt. eigenvalues --   -0.02571  -0.02198  -0.01828  -0.01695  -0.00534
 Alpha virt. eigenvalues --   -0.00177  -0.00090   0.00306   0.00466   0.00715

  Beta  occ. eigenvalues --  -38.45683 -38.45145 -38.44196 -38.44100 -38.44060
  Beta  occ. eigenvalues --  -38.43992 -38.43360  -2.21404  -2.20929  -2.19966
  Beta  occ. eigenvalues --   -2.19889  -2.19831  -2.19801  -2.19182  -1.15118
  Beta  occ. eigenvalues --   -1.15111  -1.14981  -1.14634  -1.14619  -1.14529
  Beta  occ. eigenvalues --   -1.13690  -1.13661  -1.13604  -1.13573  -1.13561
  Beta  occ. eigenvalues --   -1.13538  -1.13507  -1.13502  -1.13490  -1.13475
  Beta  occ. eigenvalues --   -1.13462  -1.13452  -1.12868  -1.12840  -1.12828
  Beta  occ. eigenvalues --   -0.15553  -0.13393  -0.12733
  Beta virt. eigenvalues --   -0.07343  -0.07147  -0.05136  -0.03759  -0.03196
  Beta virt. eigenvalues --   -0.02613  -0.02329  -0.02008  -0.01641  -0.01428
  Beta virt. eigenvalues --   -0.00298   0.00122   0.00229   0.00302   0.00467

 Mulliken charges and spin densities:
               1          2
     1  Na  -0.457830   0.192686
     2  Na   0.103095   0.062961
     3  Na   0.349132   0.159615
     4  Na  -0.158618   0.086223
     5  Na   0.119902   0.147670
     6  Na   0.742062   0.222352
     7  Na  -0.697743   0.128494
 Sum of Mulliken charges =  -0.00000   1.00000

 Dipole moment (field-independent basis, Debye):
    X=              1.0896    Y=             -0.9108    Z=             -0.0600  Tot=              1.4214
 Quadrupole moment (field-independent basis, Debye-Ang):
   XX=            -60.7387   YY=            -66.5814   ZZ=            -71.8690
   XY=              0.8258   XZ=              0.1913   YZ=              0.5779

 Normal termination of Gaussian 16 at Sun Dec  3 22:12:59 2023.
