 Gaussian 16, Revision B.01,
 Gaussian 16:  ES64L-G16RevB.01 20-Dec-2017

 -------------------------
 #P B3LYP/6-311+g(d) force
 -------------------------

 -----
 DPGEN
 -----
 Symbolic Z-matrix:
 Charge =  0 Multiplicity = 2

                         Standard orientation:
 ---------------------------------------------------------------------
 Center     Atomic      Atomic             Coordinates (Angstroms)
 Number     Number       Type             X           Y           Z
 ---------------------------------------------------------------------
      1         11           0        1.372650    2.588431    0.164667
      2         11           0       -2.810479   -0.914533   -0.000359
      3         11           0       -0.274904   -2.745649    0.009361
      4         11           0        0.551784   -0.111401   -1.684413
      5         11           0        0.026306    0.035565    1.752035
      6         11           0        2.975612   -0.976807    0.044569
      7         11           0       -1.840968    2.124394   -0.285859
 ---------------------------------------------------------------------

 SCF Done:  E(UB3LYP) =  -1136.13687432     A.U. after   18 cycles

 The electronic state is 2-A.
 Alpha  occ. eigenvalues --  -38.43988 -38.43626 -38.43500 -38.43475 -38.43396
 Alpha  occ. eigenvalues --  -38.43054 -38.43042  -2.19842  -2.19507  -2.19401
 Alpha  occ. eigenvalues --   -2.19391  -2.19296  -2.19064  -2.19043  -1.13552
 Alpha  occ. eigenvalues --   -1.13498  -1.13466  -1.13207  -1.13179  -1.13168
 Alpha  occ. eigenvalues --   -1.13141  -1.13109  -1.13072  -1.13060  -1.13040
 Alpha  occ. eigenvalues --   -1.12966  -1.12954  -1.12950  -1.12914  -1.12757
 Alpha  occ. eigenvalues --   -1.12702  -1.12688  -1.12681  -1.12667  -1.12652
 Alpha  occ. eigenvalues --   -0.19278  -0.13061  -0.12933  -0.10664
 Alpha virt. eigenvalues --   -0.05540  -0.05050  -0.04725  -0.03059  -0.02995
 Alpha virt. eigenvalues --   -0.02273  -0.01421  -0.01149  -0.00163  -0.00134
 Alpha virt. eigenvalues --    0.00031   0.00362   0.00867   0.00911   0.00957

  Beta  occ. eigenvalues --  -38.43983 -38.43619 -38.43496 -38.43467 -38.43388
  Beta  occ. eigenvalues --  -38.42982 -38.42959  -2.19837  -2.19498  -2.19397
  Beta  occ. eigenvalues --   -2.19381  -2.19285  -2.18933  -2.18892  -1.13540
  Beta  occ. eigenvalues --   -1.13477  -1.13465  -1.13202  -1.13166  -1.13141
  Beta  occ. eigenvalues --   -1.13140  -1.13108  -1.13058  -1.13030  -1.13006
  Beta  occ. eigenvalues --   -1.12965  -1.12949  -1.12915  -1.12910  -1.12668
  Beta  occ. eigenvalues --   -1.12604  -1.12594  -1.12585  -1.12558  -1.12545
  Beta  occ. eigenvalues --   -0.18545  -0.12805  -0.12658
  Beta virt. eigenvalues --   -0.06736  -0.05523  -0.05023  -0.04718  -0.02264
  Beta virt. eigenvalues --   -0.02165  -0.01357  -0.01228  -0.01082  -0.00208
  Beta virt. eigenvalues --   -0.00185   0.00156   0.00387   0.00880   0.00918

 Mulliken charges and spin densities:
               1          2
     1  Na   0.202126  -0.080249
     2  Na   0.023771  -0.014958
     3  Na   0.320311  -0.062054
     4  Na  -0.482874   0.633898
     5  Na  -0.464211   0.659066
     6  Na   0.253682  -0.146626
     7  Na   0.147196   0.010923
 Sum of Mulliken charges =  -0.00000   1.00000

 Dipole moment (field-independent basis, Debye):
    X=              0.3724    Y=              0.0022    Z=              0.0485  Tot=              0.3756
 Quadrupole moment (field-independent basis, Debye-Ang):
   XX=            -57.1986   YY=            -61.0621   ZZ=            -74.9310
   XY=             -0.0295   XZ=              1.2254   YZ=             -0.3640

 Normal termination of Gaussian 16 at Thu Dec  7 06:30:24 2023.
