 Gaussian 16, Revision B.01,
 Gaussian 16:  ES64L-G16RevB.01 20-Dec-2017

 -------------------------
 #P B3LYP/6-311+g(d) force
 -------------------------

 -----
 DPGEN
 -----
 Symbolic Z-matrix:
 Charge =  0 Multiplicity = 2

                         Standard orientation:
 ---------------------------------------------------------------------
 Center     Atomic      Atomic             Coordinates (Angstroms)
 Number     Number       Type             X           Y           Z
 ---------------------------------------------------------------------
      1         11           0       -0.747787   -0.121416    1.595218
      2         11           0        2.209881   -1.613380    0.775390
      3         11           0       -3.495608   -0.978036   -0.219257
      4         11           0        1.009552    1.284239   -0.691434
      5         11           0       -2.527685    2.067538    0.141991
      6         11           0       -0.482099   -1.453253   -1.379934
      7         11           0        4.033746    0.814310   -0.221974
 ---------------------------------------------------------------------

 SCF Done:  E(UB3LYP) =  -1136.11035029     A.U. after   50 cycles

 The electronic state is 2-A.
 Alpha  occ. eigenvalues --  -38.44872 -38.44400 -38.44389 -38.44134 -38.43623
 Alpha  occ. eigenvalues --  -38.43381 -38.43378  -2.20757  -2.20344  -2.20253
 Alpha  occ. eigenvalues --   -2.20043  -2.19547  -2.19414  -2.19258  -1.14419
 Alpha  occ. eigenvalues --   -1.14409  -1.14389  -1.14094  -1.14041  -1.14003
 Alpha  occ. eigenvalues --   -1.13932  -1.13880  -1.13838  -1.13719  -1.13697
 Alpha  occ. eigenvalues --   -1.13663  -1.13270  -1.13208  -1.13151  -1.13114
 Alpha  occ. eigenvalues --   -1.13081  -1.13007  -1.12913  -1.12910  -1.12885
 Alpha  occ. eigenvalues --   -0.19188  -0.14869  -0.11195  -0.10617
 Alpha virt. eigenvalues --   -0.07880  -0.05389  -0.03915  -0.03521  -0.03074
 Alpha virt. eigenvalues --   -0.02144  -0.01732  -0.01588  -0.00616  -0.00362
 Alpha virt. eigenvalues --   -0.00284   0.00242   0.00373   0.00640   0.00651

  Beta  occ. eigenvalues --  -38.44827 -38.44391 -38.44355 -38.44115 -38.43609
  Beta  occ. eigenvalues --  -38.43374 -38.43299  -2.20675  -2.20334  -2.20190
  Beta  occ. eigenvalues --   -2.20013  -2.19522  -2.19273  -2.19249  -1.14359
  Beta  occ. eigenvalues --   -1.14350  -1.14330  -1.14090  -1.14012  -1.13973
  Beta  occ. eigenvalues --   -1.13891  -1.13834  -1.13807  -1.13683  -1.13679
  Beta  occ. eigenvalues --   -1.13629  -1.13252  -1.13189  -1.13112  -1.13030
  Beta  occ. eigenvalues --   -1.12992  -1.12925  -1.12907  -1.12890  -1.12828
  Beta  occ. eigenvalues --   -0.18597  -0.14446  -0.10844
  Beta virt. eigenvalues --   -0.07657  -0.06961  -0.05288  -0.03326  -0.03177
  Beta virt. eigenvalues --   -0.02929  -0.01789  -0.01369  -0.01128  -0.00311
  Beta virt. eigenvalues --   -0.00182  -0.00161   0.00283   0.00559   0.00657

 Mulliken charges and spin densities:
               1          2
     1  Na  -0.429469   0.151605
     2  Na   0.569214   0.193531
     3  Na   0.053393   0.151364
     4  Na  -0.313864   0.202632
     5  Na   0.467040   0.194405
     6  Na  -0.109622   0.179137
     7  Na  -0.236691  -0.072675
 Sum of Mulliken charges =  -0.00000   1.00000

 Dipole moment (field-independent basis, Debye):
    X=              0.0785    Y=             -0.6957    Z=              0.6608  Tot=              0.9627
 Quadrupole moment (field-independent basis, Debye-Ang):
   XX=            -52.3364   YY=            -76.2227   ZZ=            -69.5690
   XY=             -3.3077   XZ=              0.7231   YZ=             -3.4726

 Normal termination of Gaussian 16 at Tue Nov 28 20:03:36 2023.
