 Gaussian 16, Revision B.01,
 Gaussian 16:  ES64L-G16RevB.01 20-Dec-2017

 -------------------------
 #P B3LYP/6-311+g(d) force
 -------------------------

 -----
 DPGEN
 -----
 Symbolic Z-matrix:
 Charge =  0 Multiplicity = 2

                         Standard orientation:
 ---------------------------------------------------------------------
 Center     Atomic      Atomic             Coordinates (Angstroms)
 Number     Number       Type             X           Y           Z
 ---------------------------------------------------------------------
      1         11           0        2.874838   -1.332519    0.369808
      2         11           0        6.026325   -1.332250   -0.146392
      3         11           0        3.807550    1.869595   -0.065209
      4         11           0        0.238052    2.270525    0.072040
      5         11           0       -1.031102   -0.979413   -0.271183
      6         11           0       -4.328983   -0.175623    0.024908
      7         11           0       -7.586679   -0.320315    0.016027
 ---------------------------------------------------------------------

 SCF Done:  E(UB3LYP) =  -1136.11652871     A.U. after   21 cycles

 The electronic state is 2-A.
 Alpha  occ. eigenvalues --  -38.45069 -38.45062 -38.44643 -38.44604 -38.43960
 Alpha  occ. eigenvalues --  -38.43834 -38.43352  -2.20901  -2.20895  -2.20444
 Alpha  occ. eigenvalues --   -2.20387  -2.19785  -2.19617  -2.19150  -1.14619
 Alpha  occ. eigenvalues --   -1.14588  -1.14567  -1.14538  -1.14519  -1.14472
 Alpha  occ. eigenvalues --   -1.14110  -1.14104  -1.14070  -1.14065  -1.14040
 Alpha  occ. eigenvalues --   -1.14023  -1.13445  -1.13441  -1.13407  -1.13267
 Alpha  occ. eigenvalues --   -1.13267  -1.13260  -1.12832  -1.12828  -1.12783
 Alpha  occ. eigenvalues --   -0.16694  -0.14038  -0.12250  -0.11232
 Alpha virt. eigenvalues --   -0.06914  -0.05727  -0.04307  -0.03634  -0.03321
 Alpha virt. eigenvalues --   -0.02546  -0.02043  -0.01624  -0.01327  -0.00874
 Alpha virt. eigenvalues --   -0.00726  -0.00289   0.00032   0.00336   0.00586

  Beta  occ. eigenvalues --  -38.45038 -38.44998 -38.44635 -38.44583 -38.43912
  Beta  occ. eigenvalues --  -38.43797 -38.43360  -2.20857  -2.20765  -2.20430
  Beta  occ. eigenvalues --   -2.20352  -2.19694  -2.19548  -2.19168  -1.14565
  Beta  occ. eigenvalues --   -1.14558  -1.14488  -1.14482  -1.14466  -1.14367
  Beta  occ. eigenvalues --   -1.14095  -1.14092  -1.14059  -1.14051  -1.14021
  Beta  occ. eigenvalues --   -1.13969  -1.13383  -1.13378  -1.13356  -1.13220
  Beta  occ. eigenvalues --   -1.13220  -1.13216  -1.12845  -1.12843  -1.12772
  Beta  occ. eigenvalues --   -0.16095  -0.13815  -0.11634
  Beta virt. eigenvalues --   -0.07909  -0.06537  -0.05273  -0.04111  -0.03376
  Beta virt. eigenvalues --   -0.02670  -0.02485  -0.01762  -0.01464  -0.01193
  Beta virt. eigenvalues --   -0.00535  -0.00346  -0.00017   0.00144   0.00408

 Mulliken charges and spin densities:
               1          2
     1  Na  -1.551564   0.237931
     2  Na   1.416396  -0.016579
     3  Na   0.307445   0.146721
     4  Na  -0.216595   0.290155
     5  Na  -1.254352   0.269475
     6  Na   0.977231   0.086305
     7  Na   0.321440  -0.014008
 Sum of Mulliken charges =  -0.00000   1.00000

 Dipole moment (field-independent basis, Debye):
    X=              3.0263    Y=              0.2446    Z=             -0.0788  Tot=              3.0371
 Quadrupole moment (field-independent basis, Debye-Ang):
   XX=            -52.7769   YY=            -67.9962   ZZ=            -74.0943
   XY=             -2.4246   XZ=             -1.3957   YZ=              0.1095

 Normal termination of Gaussian 16 at Wed Nov 29 02:30:41 2023.
