 Gaussian 16, Revision B.01,
 Gaussian 16:  ES64L-G16RevB.01 20-Dec-2017

 -------------------------
 #P B3LYP/6-311+g(d) force
 -------------------------

 -----
 DPGEN
 -----
 Symbolic Z-matrix:
 Charge =  0 Multiplicity = 2

                         Standard orientation:
 ---------------------------------------------------------------------
 Center     Atomic      Atomic             Coordinates (Angstroms)
 Number     Number       Type             X           Y           Z
 ---------------------------------------------------------------------
      1         11           0        2.435514   -2.181885    0.717066
      2         11           0       -2.250038    1.795812    0.352705
      3         11           0        1.553034   -0.399391   -2.158312
      4         11           0       -3.724836   -1.085916    0.074256
      5         11           0        1.295639    2.800589   -0.789142
      6         11           0        1.468295    0.703038    2.271025
      7         11           0       -0.777607   -1.632246   -0.467597
 ---------------------------------------------------------------------

 SCF Done:  E(UB3LYP) =  -1136.12656258     A.U. after   19 cycles

 The electronic state is 2-A.
 Alpha  occ. eigenvalues --  -38.44607 -38.44293 -38.44225 -38.43925 -38.43840
 Alpha  occ. eigenvalues --  -38.43402 -38.43258  -2.20419  -2.20108  -2.20087
 Alpha  occ. eigenvalues --   -2.19765  -2.19695  -2.19320  -2.19058  -1.14083
 Alpha  occ. eigenvalues --   -1.14067  -1.14024  -1.13815  -1.13777  -1.13768
 Alpha  occ. eigenvalues --   -1.13734  -1.13713  -1.13707  -1.13438  -1.13424
 Alpha  occ. eigenvalues --   -1.13414  -1.13391  -1.13336  -1.13329  -1.13031
 Alpha  occ. eigenvalues --   -1.12985  -1.12909  -1.12732  -1.12720  -1.12692
 Alpha  occ. eigenvalues --   -0.17753  -0.13497  -0.11917  -0.11637
 Alpha virt. eigenvalues --   -0.05582  -0.05530  -0.04444  -0.03471  -0.03360
 Alpha virt. eigenvalues --   -0.02950  -0.01604  -0.01114  -0.00401  -0.00217
 Alpha virt. eigenvalues --    0.00077   0.00325   0.00412   0.00642   0.00840

  Beta  occ. eigenvalues --  -38.44523 -38.44292 -38.44146 -38.43904 -38.43845
  Beta  occ. eigenvalues --  -38.43391 -38.43244  -2.20265  -2.20086  -2.19963
  Beta  occ. eigenvalues --   -2.19730  -2.19703  -2.19303  -2.19033  -1.13979
  Beta  occ. eigenvalues --   -1.13965  -1.13908  -1.13770  -1.13767  -1.13717
  Beta  occ. eigenvalues --   -1.13714  -1.13641  -1.13600  -1.13421  -1.13410
  Beta  occ. eigenvalues --   -1.13399  -1.13349  -1.13341  -1.13333  -1.13003
  Beta  occ. eigenvalues --   -1.12966  -1.12905  -1.12709  -1.12701  -1.12671
  Beta  occ. eigenvalues --   -0.17086  -0.13236  -0.11787
  Beta virt. eigenvalues --   -0.07635  -0.05523  -0.05271  -0.04078  -0.02941
  Beta virt. eigenvalues --   -0.02822  -0.02184  -0.01518  -0.01075  -0.00216
  Beta virt. eigenvalues --   -0.00060   0.00117   0.00380   0.00697   0.00785

 Mulliken charges and spin densities:
               1          2
     1  Na   0.160748   0.135055
     2  Na  -0.214606  -0.022790
     3  Na   0.508143  -0.096133
     4  Na   0.486640  -0.125661
     5  Na  -0.156106   0.275948
     6  Na  -0.036069   0.291299
     7  Na  -0.748750   0.542281
 Sum of Mulliken charges =  -0.00000   1.00000

 Dipole moment (field-independent basis, Debye):
    X=             -0.1456    Y=             -0.1659    Z=              0.2581  Tot=              0.3396
 Quadrupole moment (field-independent basis, Debye-Ang):
   XX=            -58.4694   YY=            -69.1886   ZZ=            -68.5769
   XY=             -1.4841   XZ=             -0.9982   YZ=             -1.0082

 Normal termination of Gaussian 16 at Sun Dec  3 18:17:52 2023.
