 Gaussian 16, Revision B.01,
 Gaussian 16:  ES64L-G16RevB.01 20-Dec-2017

 -------------------------
 #P B3LYP/6-311+g(d) force
 -------------------------

 -----
 DPGEN
 -----
 Symbolic Z-matrix:
 Charge =  0 Multiplicity = 2

                         Standard orientation:
 ---------------------------------------------------------------------
 Center     Atomic      Atomic             Coordinates (Angstroms)
 Number     Number       Type             X           Y           Z
 ---------------------------------------------------------------------
      1         11           0       -2.123622    3.128002   -0.330518
      2         11           0       -2.919811    0.055203   -0.644743
      3         11           0        0.329995    0.719206   -0.017616
      4         11           0        3.665523    1.811915    0.695642
      5         11           0       -1.307297   -1.752449    2.131974
      6         11           0       -0.469121   -2.679136   -0.862478
      7         11           0        2.824332   -1.282740   -0.972261
 ---------------------------------------------------------------------

 SCF Done:  E(UB3LYP) =  -1136.12778530     A.U. after   19 cycles

 The electronic state is 2-A.
 Alpha  occ. eigenvalues --  -38.44360 -38.44103 -38.44005 -38.43731 -38.43592
 Alpha  occ. eigenvalues --  -38.43402 -38.43341  -2.20231  -2.19891  -2.19835
 Alpha  occ. eigenvalues --   -2.19593  -2.19415  -2.19331  -2.19218  -1.13925
 Alpha  occ. eigenvalues --   -1.13908  -1.13845  -1.13551  -1.13549  -1.13529
 Alpha  occ. eigenvalues --   -1.13512  -1.13504  -1.13434  -1.13243  -1.13240
 Alpha  occ. eigenvalues --   -1.13213  -1.13083  -1.13070  -1.13067  -1.13055
 Alpha  occ. eigenvalues --   -1.13000  -1.12942  -1.12896  -1.12880  -1.12840
 Alpha  occ. eigenvalues --   -0.17785  -0.13490  -0.12488  -0.10287
 Alpha virt. eigenvalues --   -0.06212  -0.05510  -0.04815  -0.03114  -0.02684
 Alpha virt. eigenvalues --   -0.02030  -0.01963  -0.01446  -0.00923  -0.00458
 Alpha virt. eigenvalues --   -0.00246   0.00214   0.00398   0.00639   0.00748

  Beta  occ. eigenvalues --  -38.44354 -38.44068 -38.43972 -38.43651 -38.43593
  Beta  occ. eigenvalues --  -38.43395 -38.43318  -2.20222  -2.19825  -2.19778
  Beta  occ. eigenvalues --   -2.19443  -2.19419  -2.19322  -2.19181  -1.13918
  Beta  occ. eigenvalues --   -1.13897  -1.13833  -1.13504  -1.13502  -1.13493
  Beta  occ. eigenvalues --   -1.13470  -1.13468  -1.13372  -1.13145  -1.13136
  Beta  occ. eigenvalues --   -1.13114  -1.13086  -1.13073  -1.13063  -1.13015
  Beta  occ. eigenvalues --   -1.12998  -1.12943  -1.12870  -1.12859  -1.12781
  Beta  occ. eigenvalues --   -0.17294  -0.13145  -0.12163
  Beta virt. eigenvalues --   -0.06760  -0.05930  -0.05191  -0.04613  -0.02726
  Beta virt. eigenvalues --   -0.02262  -0.01849  -0.01539  -0.01160  -0.00795
  Beta virt. eigenvalues --   -0.00290   0.00063   0.00319   0.00601   0.00691

 Mulliken charges and spin densities:
               1          2
     1  Na   0.256571  -0.073900
     2  Na   1.467779   0.116967
     3  Na  -3.536623   0.288572
     4  Na   0.485359   0.089430
     5  Na   0.169964   0.314597
     6  Na   0.476853   0.152414
     7  Na   0.680096   0.111921
 Sum of Mulliken charges =  -0.00000   1.00000

 Dipole moment (field-independent basis, Debye):
    X=             -0.0711    Y=              0.1351    Z=              0.0641  Tot=              0.1655
 Quadrupole moment (field-independent basis, Debye-Ang):
   XX=            -57.9515   YY=            -63.4754   ZZ=            -72.0852
   XY=              1.0456   XZ=              2.1469   YZ=              2.8323

 Normal termination of Gaussian 16 at Tue Dec  5 13:55:25 2023.
