 Gaussian 16, Revision B.01,
 Gaussian 16:  ES64L-G16RevB.01 20-Dec-2017

 -------------------------
 #P B3LYP/6-311+g(d) force
 -------------------------

 -----
 DPGEN
 -----
 Symbolic Z-matrix:
 Charge =  0 Multiplicity = 2

                         Standard orientation:
 ---------------------------------------------------------------------
 Center     Atomic      Atomic             Coordinates (Angstroms)
 Number     Number       Type             X           Y           Z
 ---------------------------------------------------------------------
      1         11           0       -2.783936    2.038519   -0.160472
      2         11           0        3.817518    0.737046    0.710505
      3         11           0        0.179556   -0.230757    2.122332
      4         11           0        1.002278    1.534594   -1.233252
      5         11           0        2.492141   -1.654497   -0.704656
      6         11           0       -0.963532   -1.291460   -1.186066
      7         11           0       -3.744026   -1.133444    0.451609
 ---------------------------------------------------------------------

 SCF Done:  E(UB3LYP) =  -1136.11098485     A.U. after   29 cycles

 The electronic state is 2-A.
 Alpha  occ. eigenvalues --  -38.46222 -38.45303 -38.45210 -38.44029 -38.43509
 Alpha  occ. eigenvalues --  -38.43342 -38.42944  -2.21985  -2.21115  -2.21047
 Alpha  occ. eigenvalues --   -2.19907  -2.19294  -2.19205  -2.18851  -1.15674
 Alpha  occ. eigenvalues --   -1.15627  -1.15595  -1.14799  -1.14757  -1.14754
 Alpha  occ. eigenvalues --   -1.14748  -1.14684  -1.14674  -1.13579  -1.13565
 Alpha  occ. eigenvalues --   -1.13548  -1.12975  -1.12960  -1.12948  -1.12905
 Alpha  occ. eigenvalues --   -1.12865  -1.12810  -1.12551  -1.12505  -1.12471
 Alpha  occ. eigenvalues --   -0.18300  -0.14506  -0.11141  -0.10416
 Alpha virt. eigenvalues --   -0.07856  -0.05668  -0.04610  -0.03259  -0.03060
 Alpha virt. eigenvalues --   -0.02318  -0.02257  -0.01397  -0.01173  -0.00483
 Alpha virt. eigenvalues --   -0.00085   0.00179   0.00188   0.00523   0.00578

  Beta  occ. eigenvalues --  -38.46166 -38.45297 -38.45187 -38.44008 -38.43519
  Beta  occ. eigenvalues --  -38.43289 -38.42906  -2.21880  -2.21102  -2.21005
  Beta  occ. eigenvalues --   -2.19874  -2.19316  -2.19112  -2.18786  -1.15598
  Beta  occ. eigenvalues --   -1.15556  -1.15515  -1.14790  -1.14753  -1.14742
  Beta  occ. eigenvalues --   -1.14723  -1.14649  -1.14640  -1.13551  -1.13535
  Beta  occ. eigenvalues --   -1.13510  -1.12990  -1.12974  -1.12954  -1.12843
  Beta  occ. eigenvalues --   -1.12777  -1.12750  -1.12509  -1.12435  -1.12425
  Beta  occ. eigenvalues --   -0.17540  -0.14370  -0.10206
  Beta virt. eigenvalues --   -0.07586  -0.07235  -0.05712  -0.03988  -0.03000
  Beta virt. eigenvalues --   -0.02736  -0.01779  -0.01633  -0.01290  -0.00760
  Beta virt. eigenvalues --   -0.00457  -0.00028   0.00183   0.00372   0.00605

 Mulliken charges and spin densities:
               1          2
     1  Na  -0.155734  -0.104897
     2  Na   0.615154   0.232384
     3  Na  -0.460860   0.351948
     4  Na  -0.473238   0.167855
     5  Na   0.079613   0.095142
     6  Na  -0.349943   0.128814
     7  Na   0.745007   0.128753
 Sum of Mulliken charges =  -0.00000   1.00000

 Dipole moment (field-independent basis, Debye):
    X=              0.2640    Y=             -0.4927    Z=              0.9544  Tot=              1.1060
 Quadrupole moment (field-independent basis, Debye-Ang):
   XX=            -44.1055   YY=            -80.8667   ZZ=            -69.9927
   XY=              1.8401   XZ=             -1.3375   YZ=              1.0553

 Normal termination of Gaussian 16 at Tue Dec  5 11:15:23 2023.
