 Gaussian 16, Revision B.01,
 Gaussian 16:  ES64L-G16RevB.01 20-Dec-2017

 -------------------------
 #P B3LYP/6-311+g(d) force
 -------------------------

 -----
 DPGEN
 -----
 Symbolic Z-matrix:
 Charge =  0 Multiplicity = 2

                         Standard orientation:
 ---------------------------------------------------------------------
 Center     Atomic      Atomic             Coordinates (Angstroms)
 Number     Number       Type             X           Y           Z
 ---------------------------------------------------------------------
      1         11           0        3.529168   -1.409610   -0.522795
      2         11           0        1.869720    1.492493   -1.089603
      3         11           0        1.657560    0.512839    1.988766
      4         11           0       -4.073983   -0.857132   -0.699236
      5         11           0       -1.232533    2.048685   -0.752084
      6         11           0       -0.003384   -1.580048   -0.752885
      7         11           0       -1.746548   -0.207227    1.827838
 ---------------------------------------------------------------------

 SCF Done:  E(UB3LYP) =  -1136.12366345     A.U. after   25 cycles

 The electronic state is 2-A.
 Alpha  occ. eigenvalues --  -38.44768 -38.44660 -38.44392 -38.44157 -38.43482
 Alpha  occ. eigenvalues --  -38.43389 -38.42971  -2.20539  -2.20481  -2.20268
 Alpha  occ. eigenvalues --   -2.20047  -2.19324  -2.19312  -2.18841  -1.14214
 Alpha  occ. eigenvalues --   -1.14209  -1.14199  -1.14175  -1.14159  -1.14067
 Alpha  occ. eigenvalues --   -1.13949  -1.13929  -1.13870  -1.13745  -1.13696
 Alpha  occ. eigenvalues --   -1.13642  -1.13026  -1.13007  -1.12988  -1.12971
 Alpha  occ. eigenvalues --   -1.12954  -1.12906  -1.12532  -1.12493  -1.12450
 Alpha  occ. eigenvalues --   -0.18478  -0.13988  -0.11575  -0.10942
 Alpha virt. eigenvalues --   -0.06913  -0.05093  -0.04670  -0.03305  -0.02725
 Alpha virt. eigenvalues --   -0.02448  -0.02238  -0.01366  -0.00829  -0.00186
 Alpha virt. eigenvalues --    0.00058   0.00274   0.00348   0.00580   0.00748

  Beta  occ. eigenvalues --  -38.44754 -38.44655 -38.44328 -38.44104 -38.43477
  Beta  occ. eigenvalues --  -38.43357 -38.42943  -2.20513  -2.20475  -2.20153
  Beta  occ. eigenvalues --   -2.19952  -2.19305  -2.19267  -2.18790  -1.14194
  Beta  occ. eigenvalues --   -1.14188  -1.14181  -1.14164  -1.14144  -1.14067
  Beta  occ. eigenvalues --   -1.13861  -1.13844  -1.13790  -1.13681  -1.13636
  Beta  occ. eigenvalues --   -1.13549  -1.12991  -1.12977  -1.12965  -1.12954
  Beta  occ. eigenvalues --   -1.12945  -1.12871  -1.12491  -1.12452  -1.12416
  Beta  occ. eigenvalues --   -0.17780  -0.13818  -0.10717
  Beta virt. eigenvalues --   -0.07523  -0.06723  -0.05008  -0.04129  -0.02889
  Beta virt. eigenvalues --   -0.02567  -0.01910  -0.01689  -0.01128  -0.00422
  Beta virt. eigenvalues --   -0.00089   0.00102   0.00297   0.00476   0.00713

 Mulliken charges and spin densities:
               1          2
     1  Na   0.702492  -0.023870
     2  Na   0.242522   0.264972
     3  Na  -0.303523   0.170183
     4  Na   0.641425   0.111518
     5  Na  -0.516033   0.121610
     6  Na  -1.077808   0.154224
     7  Na   0.310925   0.201362
 Sum of Mulliken charges =  -0.00000   1.00000

 Dipole moment (field-independent basis, Debye):
    X=             -0.5075    Y=              0.0610    Z=              0.1744  Tot=              0.5401
 Quadrupole moment (field-independent basis, Debye-Ang):
   XX=            -50.1642   YY=            -77.5770   ZZ=            -67.9191
   XY=              0.6118   XZ=              2.6276   YZ=              0.1502

 Normal termination of Gaussian 16 at Thu Dec  7 16:59:45 2023.
