 Gaussian 16, Revision B.01,
 Gaussian 16:  ES64L-G16RevB.01 20-Dec-2017

 -------------------------
 #P B3LYP/6-311+g(d) force
 -------------------------

 -----
 DPGEN
 -----
 Symbolic Z-matrix:
 Charge =  0 Multiplicity = 2

                         Standard orientation:
 ---------------------------------------------------------------------
 Center     Atomic      Atomic             Coordinates (Angstroms)
 Number     Number       Type             X           Y           Z
 ---------------------------------------------------------------------
      1         11           0        0.079018    0.008633   -1.692925
      2         11           0       -0.908303   -2.806590   -0.620996
      3         11           0        2.249068    1.919961    0.192616
      4         11           0       -0.113112   -0.306396    2.021187
      5         11           0       -0.819231    2.909402   -0.432640
      6         11           0        2.733773   -1.692002    0.122054
      7         11           0       -3.221214   -0.033007    0.410704
 ---------------------------------------------------------------------

 SCF Done:  E(UB3LYP) =  -1136.13821244     A.U. after   19 cycles

 The electronic state is 2-A.
 Alpha  occ. eigenvalues --  -38.43905 -38.43785 -38.43777 -38.43770 -38.43559
 Alpha  occ. eigenvalues --  -38.43421 -38.43305  -2.19702  -2.19659  -2.19612
 Alpha  occ. eigenvalues --   -2.19581  -2.19414  -2.19269  -2.19267  -1.13388
 Alpha  occ. eigenvalues --   -1.13359  -1.13348  -1.13334  -1.13326  -1.13299
 Alpha  occ. eigenvalues --   -1.13273  -1.13257  -1.13256  -1.13235  -1.13229
 Alpha  occ. eigenvalues --   -1.13213  -1.13110  -1.13089  -1.13052  -1.12988
 Alpha  occ. eigenvalues --   -1.12938  -1.12916  -1.12894  -1.12886  -1.12866
 Alpha  occ. eigenvalues --   -0.18407  -0.12769  -0.12490  -0.10887
 Alpha virt. eigenvalues --   -0.05484  -0.05071  -0.04906  -0.03188  -0.03007
 Alpha virt. eigenvalues --   -0.02650  -0.01466  -0.01222  -0.00459  -0.00281
 Alpha virt. eigenvalues --   -0.00008   0.00354   0.00831   0.00844   0.00882

  Beta  occ. eigenvalues --  -38.43897 -38.43776 -38.43750 -38.43700 -38.43555
  Beta  occ. eigenvalues --  -38.43414 -38.43237  -2.19689  -2.19583  -2.19577
  Beta  occ. eigenvalues --   -2.19501  -2.19410  -2.19258  -2.19145  -1.13362
  Beta  occ. eigenvalues --   -1.13343  -1.13341  -1.13299  -1.13252  -1.13250
  Beta  occ. eigenvalues --   -1.13231  -1.13222  -1.13217  -1.13197  -1.13183
  Beta  occ. eigenvalues --   -1.13149  -1.13105  -1.13076  -1.13041  -1.12957
  Beta  occ. eigenvalues --   -1.12906  -1.12881  -1.12854  -1.12806  -1.12788
  Beta  occ. eigenvalues --   -0.17696  -0.12503  -0.12248
  Beta virt. eigenvalues --   -0.07020  -0.05422  -0.05038  -0.04834  -0.02437
  Beta virt. eigenvalues --   -0.02299  -0.01626  -0.01353  -0.01124  -0.00472
  Beta virt. eigenvalues --   -0.00317   0.00112   0.00383   0.00845   0.00870

 Mulliken charges and spin densities:
               1          2
     1  Na   0.007385   0.432120
     2  Na   0.139172  -0.032003
     3  Na   0.036462  -0.016792
     4  Na  -0.318391   0.708961
     5  Na   0.121661  -0.026255
     6  Na   0.013906  -0.068640
     7  Na  -0.000197   0.002607
 Sum of Mulliken charges =  -0.00000   1.00000

 Dipole moment (field-independent basis, Debye):
    X=             -0.0407    Y=             -0.1859    Z=              0.1745  Tot=              0.2582
 Quadrupole moment (field-independent basis, Debye-Ang):
   XX=            -58.4155   YY=            -61.4132   ZZ=            -73.7699
   XY=             -0.6814   XZ=              0.5476   YZ=              0.6628

 Normal termination of Gaussian 16 at Thu Dec  7 09:15:46 2023.
