 Gaussian 16, Revision B.01,
 Gaussian 16:  ES64L-G16RevB.01 20-Dec-2017

 -------------------------
 #P B3LYP/6-311+g(d) force
 -------------------------

 -----
 DPGEN
 -----
 Symbolic Z-matrix:
 Charge =  0 Multiplicity = 2

                         Standard orientation:
 ---------------------------------------------------------------------
 Center     Atomic      Atomic             Coordinates (Angstroms)
 Number     Number       Type             X           Y           Z
 ---------------------------------------------------------------------
      1         11           0        0.032568   -0.871532    0.444619
      2         11           0       -5.103112    0.346428    0.360210
      3         11           0        1.925973    2.326001   -0.027012
      4         11           0       -2.576408   -2.366163   -0.880602
      5         11           0       -1.879928    1.980414   -0.049884
      6         11           0        3.467949   -1.190975    1.680890
      7         11           0        4.132958   -0.224173   -1.528222
 ---------------------------------------------------------------------

 SCF Done:  E(UB3LYP) =  -1136.11048689     A.U. after   28 cycles

 The electronic state is 2-A.
 Alpha  occ. eigenvalues --  -38.45703 -38.45055 -38.44564 -38.44077 -38.43817
 Alpha  occ. eigenvalues --  -38.43673 -38.43361  -2.21495  -2.20811  -2.20357
 Alpha  occ. eigenvalues --   -2.19875  -2.19684  -2.19471  -2.19140  -1.15155
 Alpha  occ. eigenvalues --   -1.15128  -1.15115  -1.14503  -1.14490  -1.14460
 Alpha  occ. eigenvalues --   -1.14006  -1.13998  -1.13962  -1.13562  -1.13537
 Alpha  occ. eigenvalues --   -1.13490  -1.13377  -1.13326  -1.13298  -1.13166
 Alpha  occ. eigenvalues --   -1.13150  -1.13069  -1.12841  -1.12817  -1.12772
 Alpha  occ. eigenvalues --   -0.16787  -0.14505  -0.11096  -0.10996
 Alpha virt. eigenvalues --   -0.07277  -0.05672  -0.04571  -0.03548  -0.02984
 Alpha virt. eigenvalues --   -0.02373  -0.01954  -0.01512  -0.01265  -0.00907
 Alpha virt. eigenvalues --   -0.00625  -0.00004   0.00232   0.00464   0.00530

  Beta  occ. eigenvalues --  -38.45645 -38.45103 -38.44465 -38.44031 -38.43759
  Beta  occ. eigenvalues --  -38.43645 -38.43383  -2.21386  -2.20905  -2.20172
  Beta  occ. eigenvalues --   -2.19792  -2.19580  -2.19423  -2.19185  -1.15076
  Beta  occ. eigenvalues --   -1.15064  -1.15044  -1.14559  -1.14557  -1.14518
  Beta  occ. eigenvalues --   -1.13881  -1.13864  -1.13842  -1.13491  -1.13483
  Beta  occ. eigenvalues --   -1.13427  -1.13309  -1.13273  -1.13203  -1.13136
  Beta  occ. eigenvalues --   -1.13114  -1.13014  -1.12876  -1.12847  -1.12786
  Beta  occ. eigenvalues --   -0.16360  -0.13705  -0.10760
  Beta virt. eigenvalues --   -0.07656  -0.07060  -0.05370  -0.04151  -0.03201
  Beta virt. eigenvalues --   -0.02830  -0.02031  -0.01551  -0.01379  -0.00819
  Beta virt. eigenvalues --   -0.00737  -0.00356   0.00072   0.00312   0.00534

 Mulliken charges and spin densities:
               1          2
     1  Na  -2.187675   0.226871
     2  Na   0.127182   0.499962
     3  Na  -0.110705  -0.233916
     4  Na   0.983443   0.115179
     5  Na   0.228097   0.142322
     6  Na   0.439367  -0.046295
     7  Na   0.520290   0.295877
 Sum of Mulliken charges =  -0.00000   1.00000

 Dipole moment (field-independent basis, Debye):
    X=              1.3941    Y=             -0.4465    Z=             -0.3410  Tot=              1.5030
 Quadrupole moment (field-independent basis, Debye-Ang):
   XX=            -58.1302   YY=            -76.4931   ZZ=            -63.0619
   XY=              2.5171   XZ=             -1.5304   YZ=              1.5660

 Normal termination of Gaussian 16 at Sun Dec  3 12:19:57 2023.
