 Gaussian 16, Revision B.01,
 Gaussian 16:  ES64L-G16RevB.01 20-Dec-2017

 -------------------------
 #P B3LYP/6-311+g(d) force
 -------------------------

 -----
 DPGEN
 -----
 Symbolic Z-matrix:
 Charge =  0 Multiplicity = 2

                         Standard orientation:
 ---------------------------------------------------------------------
 Center     Atomic      Atomic             Coordinates (Angstroms)
 Number     Number       Type             X           Y           Z
 ---------------------------------------------------------------------
      1         11           0       -3.628878   -0.747142    0.124717
      2         11           0        3.284378   -1.089955   -0.095330
      3         11           0        2.078756    2.074680   -0.135089
      4         11           0       -0.253917   -0.336336   -1.817508
      5         11           0       -0.311687   -2.702640    0.034173
      6         11           0        0.311604   -0.125688    1.892956
      7         11           0       -1.480257    2.927081   -0.003919
 ---------------------------------------------------------------------

 SCF Done:  E(UB3LYP) =  -1136.12847165     A.U. after   22 cycles

 The electronic state is 2-A.
 Alpha  occ. eigenvalues --  -38.45308 -38.44468 -38.43674 -38.43571 -38.43556
 Alpha  occ. eigenvalues --  -38.43505 -38.43457  -2.21036  -2.20265  -2.19476
 Alpha  occ. eigenvalues --   -2.19437  -2.19402  -2.19396  -2.19343  -1.14717
 Alpha  occ. eigenvalues --   -1.14693  -1.14671  -1.13938  -1.13930  -1.13901
 Alpha  occ. eigenvalues --   -1.13267  -1.13138  -1.13115  -1.13113  -1.13099
 Alpha  occ. eigenvalues --   -1.13093  -1.13083  -1.13074  -1.13061  -1.13037
 Alpha  occ. eigenvalues --   -1.13018  -1.13004  -1.12983  -1.12978  -1.12921
 Alpha  occ. eigenvalues --   -0.18114  -0.12888  -0.12131  -0.10381
 Alpha virt. eigenvalues --   -0.06597  -0.05293  -0.04523  -0.03121  -0.02679
 Alpha virt. eigenvalues --   -0.02377  -0.02274  -0.01278  -0.00568  -0.00481
 Alpha virt. eigenvalues --   -0.00089   0.00268   0.00651   0.00710   0.00784

  Beta  occ. eigenvalues --  -38.45311 -38.44466 -38.43676 -38.43550 -38.43495
  Beta  occ. eigenvalues --  -38.43442 -38.43421  -2.21044  -2.20264  -2.19442
  Beta  occ. eigenvalues --   -2.19387  -2.19339  -2.19320  -2.19246  -1.14711
  Beta  occ. eigenvalues --   -1.14700  -1.14677  -1.13940  -1.13909  -1.13903
  Beta  occ. eigenvalues --   -1.13199  -1.13107  -1.13105  -1.13092  -1.13077
  Beta  occ. eigenvalues --   -1.13048  -1.13037  -1.13019  -1.13016  -1.12970
  Beta  occ. eigenvalues --   -1.12950  -1.12924  -1.12914  -1.12898  -1.12889
  Beta  occ. eigenvalues --   -0.17370  -0.12724  -0.11918
  Beta virt. eigenvalues --   -0.06549  -0.06477  -0.05310  -0.04453  -0.02415
  Beta virt. eigenvalues --   -0.02164  -0.01947  -0.01354  -0.01236  -0.00613
  Beta virt. eigenvalues --   -0.00501   0.00072   0.00295   0.00697   0.00797

 Mulliken charges and spin densities:
               1          2
     1  Na  -0.030218  -0.133498
     2  Na   0.274771  -0.030491
     3  Na  -0.034694  -0.076553
     4  Na  -0.147167   0.751109
     5  Na   0.281705  -0.147002
     6  Na  -0.166335   0.791609
     7  Na  -0.178061  -0.155174
 Sum of Mulliken charges =  -0.00000   1.00000

 Dipole moment (field-independent basis, Debye):
    X=             -0.3818    Y=             -0.2830    Z=              0.0411  Tot=              0.4770
 Quadrupole moment (field-independent basis, Debye-Ang):
   XX=            -49.5271   YY=            -65.6499   ZZ=            -76.4836
   XY=             -0.7960   XZ=             -1.3677   YZ=             -0.4106

 Normal termination of Gaussian 16 at Thu Dec  7 12:57:14 2023.
