 Gaussian 16, Revision B.01,
 Gaussian 16:  ES64L-G16RevB.01 20-Dec-2017

 -------------------------
 #P B3LYP/6-311+g(d) force
 -------------------------

 -----
 DPGEN
 -----
 Symbolic Z-matrix:
 Charge =  0 Multiplicity = 2

                         Standard orientation:
 ---------------------------------------------------------------------
 Center     Atomic      Atomic             Coordinates (Angstroms)
 Number     Number       Type             X           Y           Z
 ---------------------------------------------------------------------
      1         11           0        1.943853    2.193722    0.082176
      2         11           0        1.212467   -0.284766   -2.188363
      3         11           0       -4.013195   -0.139619   -0.147500
      4         11           0       -1.205524    1.990129   -0.039515
      5         11           0        0.453787   -0.456460    2.486689
      6         11           0       -1.414349   -1.828094   -0.295329
      7         11           0        3.022961   -1.474911    0.101844
 ---------------------------------------------------------------------

 SCF Done:  E(UB3LYP) =  -1136.12465067     A.U. after   22 cycles

 The electronic state is 2-A.
 Alpha  occ. eigenvalues --  -38.44915 -38.44872 -38.44367 -38.44262 -38.43628
 Alpha  occ. eigenvalues --  -38.42945 -38.42720  -2.20746  -2.20685  -2.20253
 Alpha  occ. eigenvalues --   -2.20081  -2.19483  -2.18811  -2.18582  -1.14398
 Alpha  occ. eigenvalues --   -1.14371  -1.14367  -1.14352  -1.14337  -1.14326
 Alpha  occ. eigenvalues --   -1.13947  -1.13911  -1.13862  -1.13742  -1.13732
 Alpha  occ. eigenvalues --   -1.13715  -1.13170  -1.13164  -1.13103  -1.12514
 Alpha  occ. eigenvalues --   -1.12472  -1.12453  -1.12269  -1.12260  -1.12192
 Alpha  occ. eigenvalues --   -0.18241  -0.13640  -0.11764  -0.11283
 Alpha virt. eigenvalues --   -0.06714  -0.04941  -0.04079  -0.03638  -0.03206
 Alpha virt. eigenvalues --   -0.02803  -0.02216  -0.00983  -0.00396  -0.00136
 Alpha virt. eigenvalues --    0.00061   0.00130   0.00227   0.00765   0.00860

  Beta  occ. eigenvalues --  -38.44876 -38.44800 -38.44295 -38.44263 -38.43620
  Beta  occ. eigenvalues --  -38.42941 -38.42718  -2.20691  -2.20534  -2.20120
  Beta  occ. eigenvalues --   -2.20086  -2.19471  -2.18806  -2.18581  -1.14372
  Beta  occ. eigenvalues --   -1.14338  -1.14331  -1.14254  -1.14228  -1.14201
  Beta  occ. eigenvalues --   -1.13879  -1.13820  -1.13769  -1.13739  -1.13718
  Beta  occ. eigenvalues --   -1.13696  -1.13162  -1.13134  -1.13099  -1.12514
  Beta  occ. eigenvalues --   -1.12456  -1.12442  -1.12270  -1.12241  -1.12194
  Beta  occ. eigenvalues --   -0.17476  -0.13493  -0.11093
  Beta virt. eigenvalues --   -0.07736  -0.06519  -0.04957  -0.03310  -0.03096
  Beta virt. eigenvalues --   -0.02740  -0.02152  -0.02016  -0.00950  -0.00162
  Beta virt. eigenvalues --   -0.00077   0.00167   0.00222   0.00371   0.00845

 Mulliken charges and spin densities:
               1          2
     1  Na   0.095017   0.079346
     2  Na   0.197681   0.258461
     3  Na   0.412986  -0.281961
     4  Na  -0.410773   0.090141
     5  Na  -0.159896   0.504057
     6  Na  -0.344577   0.324877
     7  Na   0.209562   0.025080
 Sum of Mulliken charges =  -0.00000   1.00000

 Dipole moment (field-independent basis, Debye):
    X=             -0.4549    Y=             -0.2851    Z=              0.2164  Tot=              0.5788
 Quadrupole moment (field-independent basis, Debye-Ang):
   XX=            -50.6227   YY=            -77.8772   ZZ=            -67.2968
   XY=             -0.7382   XZ=              0.8874   YZ=             -1.0275

 Normal termination of Gaussian 16 at Sun Dec  3 22:14:19 2023.
