 Gaussian 16, Revision B.01,
 Gaussian 16:  ES64L-G16RevB.01 20-Dec-2017

 -------------------------
 #P B3LYP/6-311+g(d) force
 -------------------------

 -----
 DPGEN
 -----
 Symbolic Z-matrix:
 Charge =  0 Multiplicity = 2

                         Standard orientation:
 ---------------------------------------------------------------------
 Center     Atomic      Atomic             Coordinates (Angstroms)
 Number     Number       Type             X           Y           Z
 ---------------------------------------------------------------------
      1         11           0       -3.384203    0.226826    0.142404
      2         11           0       -0.275952    2.976685   -0.568874
      3         11           0        2.739805    1.220532    0.279161
      4         11           0        2.398119   -2.087742   -0.350204
      5         11           0       -1.280550   -2.520370    0.020650
      6         11           0       -0.228181   -0.071466   -1.588337
      7         11           0        0.030962    0.255534    2.065200
 ---------------------------------------------------------------------

 SCF Done:  E(UB3LYP) =  -1136.13648950     A.U. after   19 cycles

 The electronic state is 2-A.
 Alpha  occ. eigenvalues --  -38.44494 -38.43826 -38.43764 -38.43522 -38.43493
 Alpha  occ. eigenvalues --  -38.43349 -38.43143  -2.20285  -2.19678  -2.19639
 Alpha  occ. eigenvalues --   -2.19363  -2.19344  -2.19184  -2.19128  -1.13958
 Alpha  occ. eigenvalues --   -1.13938  -1.13930  -1.13381  -1.13345  -1.13315
 Alpha  occ. eigenvalues --   -1.13302  -1.13262  -1.13250  -1.13109  -1.13028
 Alpha  occ. eigenvalues --   -1.13020  -1.12997  -1.12995  -1.12960  -1.12916
 Alpha  occ. eigenvalues --   -1.12834  -1.12810  -1.12799  -1.12746  -1.12726
 Alpha  occ. eigenvalues --   -0.18489  -0.13043  -0.12299  -0.10745
 Alpha virt. eigenvalues --   -0.05911  -0.05006  -0.04683  -0.03239  -0.02824
 Alpha virt. eigenvalues --   -0.02536  -0.01756  -0.01111  -0.00432  -0.00304
 Alpha virt. eigenvalues --   -0.00012   0.00345   0.00779   0.00850   0.00891

  Beta  occ. eigenvalues --  -38.44492 -38.43819 -38.43672 -38.43518 -38.43487
  Beta  occ. eigenvalues --  -38.43333 -38.43080  -2.20285  -2.19669  -2.19469
  Beta  occ. eigenvalues --   -2.19356  -2.19340  -2.19159  -2.19015  -1.13948
  Beta  occ. eigenvalues --   -1.13935  -1.13931  -1.13358  -1.13325  -1.13307
  Beta  occ. eigenvalues --   -1.13193  -1.13147  -1.13130  -1.13093  -1.13011
  Beta  occ. eigenvalues --   -1.13008  -1.12991  -1.12984  -1.12956  -1.12880
  Beta  occ. eigenvalues --   -1.12805  -1.12794  -1.12724  -1.12673  -1.12646
  Beta  occ. eigenvalues --   -0.17776  -0.12836  -0.12025
  Beta virt. eigenvalues --   -0.06858  -0.05857  -0.04981  -0.04615  -0.02470
  Beta virt. eigenvalues --   -0.02117  -0.01664  -0.01492  -0.01025  -0.00449
  Beta virt. eigenvalues --   -0.00343   0.00122   0.00370   0.00819   0.00856

 Mulliken charges and spin densities:
               1          2
     1  Na   0.078947  -0.053381
     2  Na   0.038907  -0.042671
     3  Na   0.262998   0.071585
     4  Na   0.006442  -0.043790
     5  Na   0.136596   0.000934
     6  Na  -0.154568   0.419107
     7  Na  -0.369321   0.648216
 Sum of Mulliken charges =  -0.00000   1.00000

 Dipole moment (field-independent basis, Debye):
    X=             -0.3883    Y=              0.0776    Z=              0.2258  Tot=              0.4559
 Quadrupole moment (field-independent basis, Debye-Ang):
   XX=            -54.7658   YY=            -63.5811   ZZ=            -74.6031
   XY=             -0.6952   XZ=             -0.6798   YZ=             -0.4530

 Normal termination of Gaussian 16 at Thu Dec  7 07:25:03 2023.
