 Gaussian 16, Revision B.01,
 Gaussian 16:  ES64L-G16RevB.01 20-Dec-2017

 -------------------------
 #P B3LYP/6-311+g(d) force
 -------------------------

 -----
 DPGEN
 -----
 Symbolic Z-matrix:
 Charge =  0 Multiplicity = 2

                         Standard orientation:
 ---------------------------------------------------------------------
 Center     Atomic      Atomic             Coordinates (Angstroms)
 Number     Number       Type             X           Y           Z
 ---------------------------------------------------------------------
      1         11           0       -1.591903   -2.861442   -0.352978
      2         11           0        3.420426    0.441597    1.485093
      3         11           0        1.842754    1.867394   -1.329820
      4         11           0       -3.617347    0.258371    0.004929
      5         11           0       -1.945813    2.847743   -0.032105
      6         11           0        0.003599   -0.950342    1.942130
      7         11           0        1.888284   -1.603320   -1.717250
 ---------------------------------------------------------------------

 SCF Done:  E(UB3LYP) =  -1136.12059424     A.U. after   21 cycles

 The electronic state is 2-A.
 Alpha  occ. eigenvalues --  -38.44718 -38.44660 -38.44653 -38.44353 -38.44340
 Alpha  occ. eigenvalues --  -38.43560 -38.43478  -2.20514  -2.20452  -2.20448
 Alpha  occ. eigenvalues --   -2.20156  -2.20128  -2.19354  -2.19270  -1.14178
 Alpha  occ. eigenvalues --   -1.14167  -1.14139  -1.14132  -1.14120  -1.14109
 Alpha  occ. eigenvalues --   -1.14090  -1.14067  -1.14064  -1.13849  -1.13831
 Alpha  occ. eigenvalues --   -1.13806  -1.13786  -1.13783  -1.13754  -1.13028
 Alpha  occ. eigenvalues --   -1.13016  -1.12998  -1.12944  -1.12931  -1.12911
 Alpha  occ. eigenvalues --   -0.16924  -0.13473  -0.11900  -0.11170
 Alpha virt. eigenvalues --   -0.06257  -0.05976  -0.04828  -0.03483  -0.02840
 Alpha virt. eigenvalues --   -0.02759  -0.01943  -0.01143  -0.00860  -0.00553
 Alpha virt. eigenvalues --   -0.00429   0.00066   0.00294   0.00343   0.00670

  Beta  occ. eigenvalues --  -38.44667 -38.44602 -38.44593 -38.44356 -38.44317
  Beta  occ. eigenvalues --  -38.43560 -38.43482  -2.20421  -2.20355  -2.20329
  Beta  occ. eigenvalues --   -2.20161  -2.20087  -2.19355  -2.19277  -1.14116
  Beta  occ. eigenvalues --   -1.14095  -1.14070  -1.14059  -1.14048  -1.14042
  Beta  occ. eigenvalues --   -1.14009  -1.13987  -1.13977  -1.13854  -1.13831
  Beta  occ. eigenvalues --   -1.13789  -1.13773  -1.13750  -1.13728  -1.13027
  Beta  occ. eigenvalues --   -1.13018  -1.12993  -1.12950  -1.12934  -1.12917
  Beta  occ. eigenvalues --   -0.16311  -0.13280  -0.11808
  Beta virt. eigenvalues --   -0.07292  -0.06063  -0.05749  -0.04382  -0.03228
  Beta virt. eigenvalues --   -0.02392  -0.02003  -0.01742  -0.01074  -0.00621
  Beta virt. eigenvalues --   -0.00558  -0.00157   0.00269   0.00422   0.00462

 Mulliken charges and spin densities:
               1          2
     1  Na   0.285168   0.041376
     2  Na   0.103643   0.133841
     3  Na   0.107568   0.312537
     4  Na   0.008089  -0.022062
     5  Na  -0.074386  -0.088765
     6  Na  -0.131459   0.350078
     7  Na  -0.298622   0.272995
 Sum of Mulliken charges =  -0.00000   1.00000

 Dipole moment (field-independent basis, Debye):
    X=              0.5956    Y=             -0.3699    Z=             -0.0104  Tot=              0.7012
 Quadrupole moment (field-independent basis, Debye-Ang):
   XX=            -58.5413   YY=            -69.2041   ZZ=            -71.3953
   XY=              3.9677   XZ=              1.1516   YZ=              1.8660

 Normal termination of Gaussian 16 at Mon Dec  4 01:33:40 2023.
