 Gaussian 16, Revision B.01,
 Gaussian 16:  ES64L-G16RevB.01 20-Dec-2017

 -------------------------
 #P B3LYP/6-311+g(d) force
 -------------------------

 -----
 DPGEN
 -----
 Symbolic Z-matrix:
 Charge =  0 Multiplicity = 2

                         Standard orientation:
 ---------------------------------------------------------------------
 Center     Atomic      Atomic             Coordinates (Angstroms)
 Number     Number       Type             X           Y           Z
 ---------------------------------------------------------------------
      1         11           0       -1.604377    2.561451    0.268517
      2         11           0       -2.866093   -0.600377    0.171175
      3         11           0        2.901482   -1.597693    0.055067
      4         11           0       -0.202815    0.391825   -1.598890
      5         11           0        0.335245   -0.264637    1.615495
      6         11           0       -0.798227   -2.732919   -0.342417
      7         11           0        2.234785    2.242350   -0.168947
 ---------------------------------------------------------------------

 SCF Done:  E(UB3LYP) =  -1136.13459386     A.U. after   20 cycles

 The electronic state is 2-A.
 Alpha  occ. eigenvalues --  -38.44220 -38.44195 -38.43636 -38.43605 -38.43422
 Alpha  occ. eigenvalues --  -38.42899 -38.42865  -2.20019  -2.20003  -2.19531
 Alpha  occ. eigenvalues --   -2.19497  -2.19328  -2.18882  -2.18872  -1.13705
 Alpha  occ. eigenvalues --   -1.13688  -1.13673  -1.13668  -1.13655  -1.13625
 Alpha  occ. eigenvalues --   -1.13285  -1.13224  -1.13180  -1.13174  -1.13148
 Alpha  occ. eigenvalues --   -1.13114  -1.12995  -1.12979  -1.12939  -1.12624
 Alpha  occ. eigenvalues --   -1.12531  -1.12505  -1.12499  -1.12493  -1.12482
 Alpha  occ. eigenvalues --   -0.18912  -0.13108  -0.12688  -0.10213
 Alpha virt. eigenvalues --   -0.05810  -0.05369  -0.04725  -0.02979  -0.02782
 Alpha virt. eigenvalues --   -0.01910  -0.01578  -0.01422  -0.00480  -0.00355
 Alpha virt. eigenvalues --    0.00045   0.00346   0.00798   0.00812   0.00910

  Beta  occ. eigenvalues --  -38.44218 -38.44189 -38.43627 -38.43596 -38.43410
  Beta  occ. eigenvalues --  -38.42832 -38.42797  -2.20018  -2.19995  -2.19519
  Beta  occ. eigenvalues --   -2.19484  -2.19309  -2.18759  -2.18746  -1.13694
  Beta  occ. eigenvalues --   -1.13673  -1.13665  -1.13657  -1.13654  -1.13623
  Beta  occ. eigenvalues --   -1.13279  -1.13219  -1.13161  -1.13136  -1.13126
  Beta  occ. eigenvalues --   -1.13101  -1.12984  -1.12942  -1.12922  -1.12538
  Beta  occ. eigenvalues --   -1.12442  -1.12420  -1.12412  -1.12399  -1.12386
  Beta  occ. eigenvalues --   -0.18206  -0.12842  -0.12435
  Beta virt. eigenvalues --   -0.06370  -0.05774  -0.05314  -0.04707  -0.02211
  Beta virt. eigenvalues --   -0.02044  -0.01504  -0.01345  -0.00939  -0.00511
  Beta virt. eigenvalues --   -0.00394   0.00179   0.00388   0.00800   0.00851

 Mulliken charges and spin densities:
               1          2
     1  Na   0.156024  -0.013005
     2  Na   0.273676   0.081318
     3  Na   0.047093  -0.118076
     4  Na  -0.272151   0.546535
     5  Na  -0.350526   0.623584
     6  Na   0.175566   0.017944
     7  Na  -0.029681  -0.138299
 Sum of Mulliken charges =  -0.00000   1.00000

 Dipole moment (field-independent basis, Debye):
    X=              0.5207    Y=              0.1892    Z=              0.0137  Tot=              0.5541
 Quadrupole moment (field-independent basis, Debye-Ang):
   XX=            -55.2094   YY=            -59.1228   ZZ=            -76.9643
   XY=             -0.2933   XZ=             -1.3443   YZ=              1.5825

 Normal termination of Gaussian 16 at Tue Dec  5 18:15:47 2023.
