 Gaussian 16, Revision B.01,
 Gaussian 16:  ES64L-G16RevB.01 20-Dec-2017

 -------------------------
 #P B3LYP/6-311+g(d) force
 -------------------------

 -----
 DPGEN
 -----
 Symbolic Z-matrix:
 Charge =  0 Multiplicity = 2

                         Standard orientation:
 ---------------------------------------------------------------------
 Center     Atomic      Atomic             Coordinates (Angstroms)
 Number     Number       Type             X           Y           Z
 ---------------------------------------------------------------------
      1         11           0        2.768848   -1.758736   -1.073631
      2         11           0       -0.439557   -1.463446    0.233030
      3         11           0        0.183043    2.416469    1.510887
      4         11           0        2.361524   -0.492710    1.889312
      5         11           0       -1.974227    1.461116   -0.883359
      6         11           0        1.218898    1.341874   -1.931766
      7         11           0       -4.118528   -1.504567    0.255526
 ---------------------------------------------------------------------

 SCF Done:  E(UB3LYP) =  -1136.12949625     A.U. after   21 cycles

 The electronic state is 2-A.
 Alpha  occ. eigenvalues --  -38.44364 -38.44095 -38.44019 -38.43806 -38.43652
 Alpha  occ. eigenvalues --  -38.43632 -38.43600  -2.20230  -2.19949  -2.19875
 Alpha  occ. eigenvalues --   -2.19636  -2.19516  -2.19492  -2.19355  -1.13911
 Alpha  occ. eigenvalues --   -1.13877  -1.13854  -1.13637  -1.13598  -1.13562
 Alpha  occ. eigenvalues --   -1.13541  -1.13515  -1.13504  -1.13319  -1.13295
 Alpha  occ. eigenvalues --   -1.13263  -1.13236  -1.13210  -1.13201  -1.13171
 Alpha  occ. eigenvalues --   -1.13093  -1.13074  -1.13031  -1.13026  -1.12979
 Alpha  occ. eigenvalues --   -0.18138  -0.13219  -0.11833  -0.11588
 Alpha virt. eigenvalues --   -0.06009  -0.05136  -0.04858  -0.03335  -0.03100
 Alpha virt. eigenvalues --   -0.02650  -0.01921  -0.01094  -0.00721  -0.00024
 Alpha virt. eigenvalues --    0.00183   0.00205   0.00290   0.00538   0.00714

  Beta  occ. eigenvalues --  -38.44307 -38.44029 -38.43995 -38.43766 -38.43646
  Beta  occ. eigenvalues --  -38.43621 -38.43610  -2.20127  -2.19834  -2.19827
  Beta  occ. eigenvalues --   -2.19564  -2.19505  -2.19474  -2.19374  -1.13837
  Beta  occ. eigenvalues --   -1.13813  -1.13771  -1.13551  -1.13523  -1.13511
  Beta  occ. eigenvalues --   -1.13491  -1.13471  -1.13449  -1.13277  -1.13243
  Beta  occ. eigenvalues --   -1.13223  -1.13211  -1.13176  -1.13170  -1.13160
  Beta  occ. eigenvalues --   -1.13089  -1.13069  -1.13044  -1.13037  -1.12990
  Beta  occ. eigenvalues --   -0.17378  -0.13104  -0.11517
  Beta virt. eigenvalues --   -0.07738  -0.05797  -0.04951  -0.04218  -0.03113
  Beta virt. eigenvalues --   -0.02388  -0.02164  -0.01738  -0.00998  -0.00336
  Beta virt. eigenvalues --   -0.00014   0.00240   0.00360   0.00446   0.00702

 Mulliken charges and spin densities:
               1          2
     1  Na   1.187166   0.120536
     2  Na  -1.543516   0.312460
     3  Na  -0.133770   0.185176
     4  Na   0.361096   0.084911
     5  Na   0.705384   0.071465
     6  Na  -0.519781   0.306709
     7  Na  -0.056579  -0.081257
 Sum of Mulliken charges =  -0.00000   1.00000

 Dipole moment (field-independent basis, Debye):
    X=              0.8014    Y=              0.3353    Z=              0.0256  Tot=              0.8691
 Quadrupole moment (field-independent basis, Debye-Ang):
   XX=            -57.9935   YY=            -70.7404   ZZ=            -66.5080
   XY=             -2.7732   XZ=             -0.8380   YZ=              1.3582

 Normal termination of Gaussian 16 at Wed Nov 29 15:53:10 2023.
