 Gaussian 16, Revision B.01,
 Gaussian 16:  ES64L-G16RevB.01 20-Dec-2017

 -------------------------
 #P B3LYP/6-311+g(d) force
 -------------------------

 -----
 DPGEN
 -----
 Symbolic Z-matrix:
 Charge =  0 Multiplicity = 2

                         Standard orientation:
 ---------------------------------------------------------------------
 Center     Atomic      Atomic             Coordinates (Angstroms)
 Number     Number       Type             X           Y           Z
 ---------------------------------------------------------------------
      1         11           0        0.163360   -0.644758    1.768624
      2         11           0       -2.383102    1.839381   -0.243025
      3         11           0       -1.318144   -0.808751   -1.627474
      4         11           0        4.160905    0.015529    0.886198
      5         11           0       -3.618287   -0.890807    1.048851
      6         11           0        1.668548   -1.504865   -1.385352
      7         11           0        1.326720    1.994271   -0.447822
 ---------------------------------------------------------------------

 SCF Done:  E(UB3LYP) =  -1136.11738103     A.U. after   53 cycles

 The electronic state is 2-A.
 Alpha  occ. eigenvalues --  -38.45623 -38.44730 -38.44651 -38.44531 -38.44157
 Alpha  occ. eigenvalues --  -38.42839 -38.42317  -2.21404  -2.20569  -2.20533
 Alpha  occ. eigenvalues --   -2.20305  -2.19995  -2.18738  -2.18260  -1.15122
 Alpha  occ. eigenvalues --   -1.15084  -1.14998  -1.14270  -1.14218  -1.14206
 Alpha  occ. eigenvalues --   -1.14192  -1.14168  -1.14150  -1.13978  -1.13974
 Alpha  occ. eigenvalues --   -1.13922  -1.13653  -1.13648  -1.13623  -1.12449
 Alpha  occ. eigenvalues --   -1.12395  -1.12362  -1.11946  -1.11934  -1.11879
 Alpha  occ. eigenvalues --   -0.18455  -0.14218  -0.11726  -0.10525
 Alpha virt. eigenvalues --   -0.07293  -0.05387  -0.04635  -0.03329  -0.02942
 Alpha virt. eigenvalues --   -0.02375  -0.02175  -0.01516  -0.00929  -0.00315
 Alpha virt. eigenvalues --   -0.00008   0.00153   0.00329   0.00537   0.00668

  Beta  occ. eigenvalues --  -38.45610 -38.44660 -38.44604 -38.44519 -38.44129
  Beta  occ. eigenvalues --  -38.42822 -38.42312  -2.21382  -2.20448  -2.20442
  Beta  occ. eigenvalues --   -2.20283  -2.19941  -2.18707  -2.18255  -1.15096
  Beta  occ. eigenvalues --   -1.15061  -1.14984  -1.14186  -1.14167  -1.14130
  Beta  occ. eigenvalues --   -1.14120  -1.14076  -1.14057  -1.13962  -1.13955
  Beta  occ. eigenvalues --   -1.13909  -1.13616  -1.13608  -1.13588  -1.12421
  Beta  occ. eigenvalues --   -1.12370  -1.12343  -1.11933  -1.11916  -1.11873
  Beta  occ. eigenvalues --   -0.17738  -0.14010  -0.10386
  Beta virt. eigenvalues --   -0.07722  -0.07101  -0.04758  -0.04478  -0.02848
  Beta virt. eigenvalues --   -0.02830  -0.01852  -0.01722  -0.01130  -0.00673
  Beta virt. eigenvalues --   -0.00162   0.00032   0.00275   0.00375   0.00649

 Mulliken charges and spin densities:
               1          2
     1  Na  -0.713735   0.228763
     2  Na   0.177367   0.125915
     3  Na  -0.431749   0.291962
     4  Na   0.692141   0.132816
     5  Na   0.616565  -0.003616
     6  Na   0.000370  -0.060032
     7  Na  -0.340959   0.284192
 Sum of Mulliken charges =  -0.00000   1.00000

 Dipole moment (field-independent basis, Debye):
    X=              0.1507    Y=              0.1169    Z=              0.1509  Tot=              0.2432
 Quadrupole moment (field-independent basis, Debye-Ang):
   XX=            -52.7192   YY=            -67.8802   ZZ=            -77.7952
   XY=             -0.9726   XZ=             -0.2380   YZ=             -4.7059

 Normal termination of Gaussian 16 at Wed Dec  6 00:01:13 2023.
