 Gaussian 16, Revision B.01,
 Gaussian 16:  ES64L-G16RevB.01 20-Dec-2017

 -------------------------
 #P B3LYP/6-311+g(d) force
 -------------------------

 -----
 DPGEN
 -----
 Symbolic Z-matrix:
 Charge =  0 Multiplicity = 2

                         Standard orientation:
 ---------------------------------------------------------------------
 Center     Atomic      Atomic             Coordinates (Angstroms)
 Number     Number       Type             X           Y           Z
 ---------------------------------------------------------------------
      1         11           0       -3.295009    1.782335    0.958189
      2         11           0        3.384752    1.408451   -1.577155
      3         11           0       -2.347604   -1.570737   -1.012017
      4         11           0        2.121401   -1.510658    1.654525
      5         11           0       -5.469254   -0.872335   -0.542726
      6         11           0        0.049171    1.522970    0.588916
      7         11           0        5.556543   -0.760026   -0.069732
 ---------------------------------------------------------------------

 SCF Done:  E(UB3LYP) =  -1136.10527149     A.U. after   28 cycles

 The electronic state is 2-A.
 Alpha  occ. eigenvalues --  -38.45731 -38.45050 -38.44907 -38.44601 -38.44348
 Alpha  occ. eigenvalues --  -38.43767 -38.42736  -2.21512  -2.20854  -2.20692
 Alpha  occ. eigenvalues --   -2.20383  -2.20093  -2.19570  -2.18532  -1.15192
 Alpha  occ. eigenvalues --   -1.15153  -1.15135  -1.14528  -1.14503  -1.14458
 Alpha  occ. eigenvalues --   -1.14360  -1.14323  -1.14309  -1.14045  -1.14009
 Alpha  occ. eigenvalues --   -1.13992  -1.13780  -1.13766  -1.13751  -1.13239
 Alpha  occ. eigenvalues --   -1.13234  -1.13216  -1.12221  -1.12211  -1.12188
 Alpha  occ. eigenvalues --   -0.16080  -0.14408  -0.11342  -0.10791
 Alpha virt. eigenvalues --   -0.07596  -0.05794  -0.04211  -0.03666  -0.03034
 Alpha virt. eigenvalues --   -0.02696  -0.02297  -0.01869  -0.01489  -0.00854
 Alpha virt. eigenvalues --   -0.00274   0.00058   0.00131   0.00278   0.00441

  Beta  occ. eigenvalues --  -38.45697 -38.44994 -38.44840 -38.44502 -38.44388
  Beta  occ. eigenvalues --  -38.43771 -38.42749  -2.21448  -2.20749  -2.20566
  Beta  occ. eigenvalues --   -2.20198  -2.20171  -2.19579  -2.18562  -1.15148
  Beta  occ. eigenvalues --   -1.15109  -1.15086  -1.14456  -1.14436  -1.14384
  Beta  occ. eigenvalues --   -1.14272  -1.14238  -1.14234  -1.13916  -1.13887
  Beta  occ. eigenvalues --   -1.13872  -1.13836  -1.13808  -1.13795  -1.13242
  Beta  occ. eigenvalues --   -1.13233  -1.13226  -1.12246  -1.12225  -1.12183
  Beta  occ. eigenvalues --   -0.15656  -0.14083  -0.11069
  Beta virt. eigenvalues --   -0.07319  -0.06973  -0.05758  -0.03814  -0.03428
  Beta virt. eigenvalues --   -0.02549  -0.02469  -0.01870  -0.01667  -0.01328
  Beta virt. eigenvalues --   -0.00420  -0.00331   0.00216   0.00390   0.00458

 Mulliken charges and spin densities:
               1          2
     1  Na  -0.085994   0.180921
     2  Na   0.298375   0.393310
     3  Na  -0.216175   0.254106
     4  Na   0.180937   0.575394
     5  Na   0.394480  -0.069471
     6  Na  -0.669186  -0.088554
     7  Na   0.097562  -0.245706
 Sum of Mulliken charges =  -0.00000   1.00000

 Dipole moment (field-independent basis, Debye):
    X=             -0.7980    Y=             -0.2886    Z=             -0.2808  Tot=              0.8938
 Quadrupole moment (field-independent basis, Debye-Ang):
   XX=            -58.8221   YY=            -71.5198   ZZ=            -70.5450
   XY=             -6.4018   XZ=             -0.6580   YZ=              0.0313

 Normal termination of Gaussian 16 at Sun Dec  3 15:56:56 2023.
