 Gaussian 16, Revision B.01,
 Gaussian 16:  ES64L-G16RevB.01 20-Dec-2017

 -------------------------
 #P B3LYP/6-311+g(d) force
 -------------------------

 -----
 DPGEN
 -----
 Symbolic Z-matrix:
 Charge =  0 Multiplicity = 2

                         Standard orientation:
 ---------------------------------------------------------------------
 Center     Atomic      Atomic             Coordinates (Angstroms)
 Number     Number       Type             X           Y           Z
 ---------------------------------------------------------------------
      1         11           0       -0.970071   -0.025146    1.926434
      2         11           0        2.965089   -1.000597    1.740557
      3         11           0        3.073175    1.590612   -0.811774
      4         11           0       -3.731996    0.379944    0.954073
      5         11           0        0.613257   -2.650546   -1.130703
      6         11           0       -0.211982    2.662302   -0.784906
      7         11           0       -1.737471   -0.956569   -1.893681
 ---------------------------------------------------------------------

 SCF Done:  E(UB3LYP) =  -1136.11470152     A.U. after   22 cycles

 The electronic state is 2-A.
 Alpha  occ. eigenvalues --  -38.44927 -38.44752 -38.44750 -38.44365 -38.44295
 Alpha  occ. eigenvalues --  -38.43794 -38.43026  -2.20779  -2.20585  -2.20525
 Alpha  occ. eigenvalues --   -2.20129  -2.20079  -2.19654  -2.18837  -1.14542
 Alpha  occ. eigenvalues --   -1.14428  -1.14408  -1.14226  -1.14213  -1.14190
 Alpha  occ. eigenvalues --   -1.14185  -1.14160  -1.14156  -1.13811  -1.13799
 Alpha  occ. eigenvalues --   -1.13774  -1.13750  -1.13737  -1.13681  -1.13365
 Alpha  occ. eigenvalues --   -1.13302  -1.13265  -1.12533  -1.12494  -1.12463
 Alpha  occ. eigenvalues --   -0.17239  -0.13392  -0.11758  -0.11672
 Alpha virt. eigenvalues --   -0.06407  -0.05603  -0.04484  -0.03611  -0.03162
 Alpha virt. eigenvalues --   -0.02781  -0.02167  -0.01209  -0.00585  -0.00499
 Alpha virt. eigenvalues --    0.00000   0.00184   0.00285   0.00425   0.00644

  Beta  occ. eigenvalues --  -38.44876 -38.44732 -38.44699 -38.44365 -38.44247
  Beta  occ. eigenvalues --  -38.43747 -38.43029  -2.20685  -2.20553  -2.20426
  Beta  occ. eigenvalues --   -2.20132  -2.19993  -2.19569  -2.18846  -1.14478
  Beta  occ. eigenvalues --   -1.14363  -1.14347  -1.14194  -1.14185  -1.14159
  Beta  occ. eigenvalues --   -1.14116  -1.14097  -1.14091  -1.13808  -1.13795
  Beta  occ. eigenvalues --   -1.13766  -1.13686  -1.13683  -1.13622  -1.13310
  Beta  occ. eigenvalues --   -1.13239  -1.13208  -1.12529  -1.12502  -1.12460
  Beta  occ. eigenvalues --   -0.16614  -0.13068  -0.11281
  Beta virt. eigenvalues --   -0.08192  -0.06259  -0.04887  -0.04371  -0.03270
  Beta virt. eigenvalues --   -0.02700  -0.02170  -0.02032  -0.00810  -0.00502
  Beta virt. eigenvalues --   -0.00321   0.00126   0.00272   0.00380   0.00511

 Mulliken charges and spin densities:
               1          2
     1  Na  -0.729065   0.344404
     2  Na   0.182297   0.245564
     3  Na  -0.014759  -0.108764
     4  Na   0.884759  -0.060347
     5  Na  -0.007542   0.019234
     6  Na  -0.169242   0.317349
     7  Na  -0.146448   0.242560
 Sum of Mulliken charges =  -0.00000   1.00000

 Dipole moment (field-independent basis, Debye):
    X=             -0.4513    Y=              0.3961    Z=              0.4347  Tot=              0.7413
 Quadrupole moment (field-independent basis, Debye-Ang):
   XX=            -53.1086   YY=            -76.3864   ZZ=            -69.0491
   XY=             -3.5485   XZ=              1.4898   YZ=             -4.3698

 Normal termination of Gaussian 16 at Sun Dec  3 17:13:44 2023.
