 Gaussian 16, Revision B.01,
 Gaussian 16:  ES64L-G16RevB.01 20-Dec-2017

 -------------------------
 #P B3LYP/6-311+g(d) force
 -------------------------

 -----
 DPGEN
 -----
 Symbolic Z-matrix:
 Charge =  0 Multiplicity = 2

                         Standard orientation:
 ---------------------------------------------------------------------
 Center     Atomic      Atomic             Coordinates (Angstroms)
 Number     Number       Type             X           Y           Z
 ---------------------------------------------------------------------
      1         11           0        2.718114   -1.457690    0.029117
      2         11           0       -3.431165    0.491928    0.192273
      3         11           0       -1.253234   -2.498264   -0.155690
      4         11           0        0.204472   -0.194979    2.304833
      5         11           0       -0.655343   -0.341295   -1.905489
      6         11           0       -0.621896    2.682850   -0.021506
      7         11           0        3.039052    1.317450   -0.443538
 ---------------------------------------------------------------------

 SCF Done:  E(UB3LYP) =  -1136.12275345     A.U. after   21 cycles

 The electronic state is 2-A.
 Alpha  occ. eigenvalues --  -38.45184 -38.44349 -38.44278 -38.44176 -38.44154
 Alpha  occ. eigenvalues --  -38.43088 -38.42990  -2.20968  -2.20183  -2.20125
 Alpha  occ. eigenvalues --   -2.20079  -2.20035  -2.18973  -2.18800  -1.14647
 Alpha  occ. eigenvalues --   -1.14618  -1.14609  -1.14029  -1.13838  -1.13832
 Alpha  occ. eigenvalues --   -1.13809  -1.13807  -1.13765  -1.13740  -1.13712
 Alpha  occ. eigenvalues --   -1.13676  -1.13672  -1.13648  -1.13593  -1.12696
 Alpha  occ. eigenvalues --   -1.12611  -1.12571  -1.12489  -1.12476  -1.12426
 Alpha  occ. eigenvalues --   -0.18201  -0.13551  -0.11691  -0.11160
 Alpha virt. eigenvalues --   -0.06556  -0.05046  -0.04030  -0.03701  -0.03085
 Alpha virt. eigenvalues --   -0.02808  -0.02136  -0.00939  -0.00297  -0.00204
 Alpha virt. eigenvalues --   -0.00145   0.00313   0.00473   0.00755   0.00859

  Beta  occ. eigenvalues --  -38.45185 -38.44270 -38.44243 -38.44174 -38.44092
  Beta  occ. eigenvalues --  -38.43081 -38.42988  -2.20972  -2.20112  -2.20033
  Beta  occ. eigenvalues --   -2.19987  -2.19964  -2.18966  -2.18798  -1.14634
  Beta  occ. eigenvalues --   -1.14623  -1.14613  -1.14026  -1.13760  -1.13745
  Beta  occ. eigenvalues --   -1.13735  -1.13704  -1.13675  -1.13669  -1.13650
  Beta  occ. eigenvalues --   -1.13641  -1.13630  -1.13591  -1.13590  -1.12680
  Beta  occ. eigenvalues --   -1.12588  -1.12567  -1.12487  -1.12456  -1.12427
  Beta  occ. eigenvalues --   -0.17476  -0.13372  -0.11469
  Beta virt. eigenvalues --   -0.07257  -0.06424  -0.05023  -0.03913  -0.03000
  Beta virt. eigenvalues --   -0.02109  -0.02032  -0.01997  -0.00891  -0.00340
  Beta virt. eigenvalues --   -0.00219   0.00032   0.00363   0.00694   0.00848

 Mulliken charges and spin densities:
               1          2
     1  Na   0.286050   0.002862
     2  Na   0.174380  -0.078661
     3  Na   0.238072  -0.105523
     4  Na  -0.390085   0.714899
     5  Na  -0.042166   0.525593
     6  Na  -0.139081  -0.038367
     7  Na  -0.127168  -0.020803
 Sum of Mulliken charges =  -0.00000   1.00000

 Dipole moment (field-independent basis, Debye):
    X=             -0.5348    Y=              0.0011    Z=              0.2067  Tot=              0.5734
 Quadrupole moment (field-independent basis, Debye-Ang):
   XX=            -53.5325   YY=            -71.2475   ZZ=            -71.5645
   XY=              0.1853   XZ=             -1.9644   YZ=             -1.1436

 Normal termination of Gaussian 16 at Tue Dec  5 14:47:43 2023.
