 Gaussian 16, Revision B.01,
 Gaussian 16:  ES64L-G16RevB.01 20-Dec-2017

 -------------------------
 #P B3LYP/6-311+g(d) force
 -------------------------

 -----
 DPGEN
 -----
 Symbolic Z-matrix:
 Charge =  0 Multiplicity = 2

                         Standard orientation:
 ---------------------------------------------------------------------
 Center     Atomic      Atomic             Coordinates (Angstroms)
 Number     Number       Type             X           Y           Z
 ---------------------------------------------------------------------
      1         11           0       -0.015045   -0.464368    2.139767
      2         11           0       -0.074280    0.175103   -1.734547
      3         11           0       -0.463500    2.862381    0.193090
      4         11           0        2.427664    1.424376   -0.147106
      5         11           0       -3.050658    0.375319   -0.044850
      6         11           0        2.674413   -1.805238   -0.094849
      7         11           0       -1.498594   -2.567573   -0.311503
 ---------------------------------------------------------------------

 SCF Done:  E(UB3LYP) =  -1136.13775336     A.U. after   19 cycles

 The electronic state is 2-A.
 Alpha  occ. eigenvalues --  -38.44040 -38.43835 -38.43827 -38.43632 -38.43487
 Alpha  occ. eigenvalues --  -38.43381 -38.43027  -2.19886  -2.19687  -2.19650
 Alpha  occ. eigenvalues --   -2.19476  -2.19395  -2.19350  -2.18898  -1.13567
 Alpha  occ. eigenvalues --   -1.13549  -1.13529  -1.13352  -1.13339  -1.13320
 Alpha  occ. eigenvalues --   -1.13318  -1.13304  -1.13284  -1.13165  -1.13135
 Alpha  occ. eigenvalues --   -1.13131  -1.13105  -1.13055  -1.13023  -1.13016
 Alpha  occ. eigenvalues --   -1.12972  -1.12960  -1.12570  -1.12554  -1.12540
 Alpha  occ. eigenvalues --   -0.18667  -0.13172  -0.12315  -0.10934
 Alpha virt. eigenvalues --   -0.05650  -0.05095  -0.04592  -0.03334  -0.03028
 Alpha virt. eigenvalues --   -0.02681  -0.01472  -0.01047  -0.00380  -0.00167
 Alpha virt. eigenvalues --   -0.00037   0.00372   0.00805   0.00863   0.00914

  Beta  occ. eigenvalues --  -38.44037 -38.43834 -38.43731 -38.43625 -38.43481
  Beta  occ. eigenvalues --  -38.43315 -38.43022  -2.19883  -2.19653  -2.19510
  Beta  occ. eigenvalues --   -2.19466  -2.19387  -2.19229  -2.18892  -1.13561
  Beta  occ. eigenvalues --   -1.13534  -1.13524  -1.13345  -1.13298  -1.13294
  Beta  occ. eigenvalues --   -1.13232  -1.13198  -1.13177  -1.13147  -1.13113
  Beta  occ. eigenvalues --   -1.13108  -1.13097  -1.13032  -1.13017  -1.12942
  Beta  occ. eigenvalues --   -1.12889  -1.12879  -1.12568  -1.12543  -1.12522
  Beta  occ. eigenvalues --   -0.17924  -0.12942  -0.12103
  Beta virt. eigenvalues --   -0.06999  -0.05628  -0.05058  -0.04543  -0.02522
  Beta virt. eigenvalues --   -0.02228  -0.01662  -0.01381  -0.00968  -0.00442
  Beta virt. eigenvalues --   -0.00208   0.00114   0.00393   0.00858   0.00880

 Mulliken charges and spin densities:
               1          2
     1  Na  -0.609986   0.729310
     2  Na  -0.183236   0.409648
     3  Na   0.077655   0.021492
     4  Na   0.245417   0.037905
     5  Na   0.201586  -0.003099
     6  Na   0.117373  -0.095464
     7  Na   0.151192  -0.099793
 Sum of Mulliken charges =  -0.00000   1.00000

 Dipole moment (field-independent basis, Debye):
    X=             -0.1911    Y=             -0.3068    Z=              0.1289  Tot=              0.3837
 Quadrupole moment (field-independent basis, Debye-Ang):
   XX=            -58.0948   YY=            -63.3011   ZZ=            -73.1429
   XY=             -1.0313   XZ=             -0.2622   YZ=              1.3913

 Normal termination of Gaussian 16 at Fri Dec  8 05:10:31 2023.
