 Gaussian 16, Revision B.01,
 Gaussian 16:  ES64L-G16RevB.01 20-Dec-2017

 -------------------------
 #P B3LYP/6-311+g(d) force
 -------------------------

 -----
 DPGEN
 -----
 Symbolic Z-matrix:
 Charge =  0 Multiplicity = 2

                         Standard orientation:
 ---------------------------------------------------------------------
 Center     Atomic      Atomic             Coordinates (Angstroms)
 Number     Number       Type             X           Y           Z
 ---------------------------------------------------------------------
      1         11           0       -1.737714    2.275283    0.221052
      2         11           0        1.722710    2.433044   -0.496365
      3         11           0       -3.092781   -0.791143   -0.122328
      4         11           0        3.049652   -0.673957    0.232648
      5         11           0       -0.048454    0.128127    1.698121
      6         11           0       -0.131936   -0.489170   -1.617876
      7         11           0        0.238523   -2.882184    0.084746
 ---------------------------------------------------------------------

 SCF Done:  E(UB3LYP) =  -1136.13647447     A.U. after   19 cycles

 The electronic state is 2-A.
 Alpha  occ. eigenvalues --  -38.44133 -38.44080 -38.43499 -38.43444 -38.43381
 Alpha  occ. eigenvalues --  -38.43034 -38.43031  -2.19975  -2.19916  -2.19390
 Alpha  occ. eigenvalues --   -2.19335  -2.19225  -2.19042  -2.19024  -1.13659
 Alpha  occ. eigenvalues --   -1.13633  -1.13615  -1.13591  -1.13579  -1.13556
 Alpha  occ. eigenvalues --   -1.13168  -1.13070  -1.13051  -1.12990  -1.12989
 Alpha  occ. eigenvalues --   -1.12962  -1.12894  -1.12882  -1.12863  -1.12752
 Alpha  occ. eigenvalues --   -1.12678  -1.12662  -1.12648  -1.12640  -1.12625
 Alpha  occ. eigenvalues --   -0.18966  -0.13168  -0.12628  -0.10436
 Alpha virt. eigenvalues --   -0.05779  -0.05028  -0.04784  -0.03068  -0.02862
 Alpha virt. eigenvalues --   -0.02090  -0.01690  -0.01111  -0.00356  -0.00289
 Alpha virt. eigenvalues --    0.00045   0.00351   0.00834   0.00864   0.00910

  Beta  occ. eigenvalues --  -38.44129 -38.44075 -38.43492 -38.43436 -38.43369
  Beta  occ. eigenvalues --  -38.42966 -38.42953  -2.19970  -2.19910  -2.19381
  Beta  occ. eigenvalues --   -2.19323  -2.19204  -2.18919  -2.18883  -1.13650
  Beta  occ. eigenvalues --   -1.13619  -1.13607  -1.13581  -1.13563  -1.13550
  Beta  occ. eigenvalues --   -1.13151  -1.13051  -1.13022  -1.12984  -1.12963
  Beta  occ. eigenvalues --   -1.12954  -1.12876  -1.12859  -1.12849  -1.12665
  Beta  occ. eigenvalues --   -1.12588  -1.12576  -1.12548  -1.12546  -1.12525
  Beta  occ. eigenvalues --   -0.18263  -0.12906  -0.12353
  Beta virt. eigenvalues --   -0.06574  -0.05762  -0.04997  -0.04734  -0.02298
  Beta virt. eigenvalues --   -0.02087  -0.01614  -0.01098  -0.01031  -0.00409
  Beta virt. eigenvalues --   -0.00306   0.00166   0.00381   0.00857   0.00876

 Mulliken charges and spin densities:
               1          2
     1  Na   0.186658   0.011527
     2  Na  -0.058130   0.014898
     3  Na   0.130820  -0.112297
     4  Na   0.089555  -0.020794
     5  Na  -0.194167   0.578680
     6  Na  -0.293218   0.675280
     7  Na   0.138481  -0.147293
 Sum of Mulliken charges =  -0.00000   1.00000

 Dipole moment (field-independent basis, Debye):
    X=             -0.0516    Y=             -0.1963    Z=              0.0465  Tot=              0.2082
 Quadrupole moment (field-independent basis, Debye-Ang):
   XX=            -54.2176   YY=            -61.7774   ZZ=            -75.9618
   XY=              0.1150   XZ=              0.0539   YZ=             -1.5088

 Normal termination of Gaussian 16 at Thu Dec  7 15:05:31 2023.
