 Gaussian 16, Revision B.01,
 Gaussian 16:  ES64L-G16RevB.01 20-Dec-2017

 -------------------------
 #P B3LYP/6-311+g(d) force
 -------------------------

 -----
 DPGEN
 -----
 Symbolic Z-matrix:
 Charge =  0 Multiplicity = 2

                         Standard orientation:
 ---------------------------------------------------------------------
 Center     Atomic      Atomic             Coordinates (Angstroms)
 Number     Number       Type             X           Y           Z
 ---------------------------------------------------------------------
      1         11           0        2.863696    1.384686    0.089378
      2         11           0        2.492523   -1.820688   -0.219761
      3         11           0       -0.516310    2.625086   -0.114030
      4         11           0       -0.207433    0.059125    2.015101
      5         11           0       -0.039827   -0.202226   -1.756455
      6         11           0       -1.265393   -2.364440    0.258805
      7         11           0       -3.327256    0.318457   -0.273038
 ---------------------------------------------------------------------

 SCF Done:  E(UB3LYP) =  -1136.13596333     A.U. after   19 cycles

 The electronic state is 2-A.
 Alpha  occ. eigenvalues --  -38.44620 -38.44037 -38.43662 -38.43642 -38.43493
 Alpha  occ. eigenvalues --  -38.43076 -38.42843  -2.20435  -2.19866  -2.19564
 Alpha  occ. eigenvalues --   -2.19506  -2.19456  -2.18981  -2.18716  -1.14105
 Alpha  occ. eigenvalues --   -1.14090  -1.14078  -1.13549  -1.13533  -1.13507
 Alpha  occ. eigenvalues --   -1.13248  -1.13207  -1.13200  -1.13173  -1.13163
 Alpha  occ. eigenvalues --   -1.13149  -1.13134  -1.13109  -1.13055  -1.12672
 Alpha  occ. eigenvalues --   -1.12651  -1.12585  -1.12411  -1.12393  -1.12327
 Alpha  occ. eigenvalues --   -0.18808  -0.13335  -0.12079  -0.10930
 Alpha virt. eigenvalues --   -0.06138  -0.05072  -0.04079  -0.03353  -0.02793
 Alpha virt. eigenvalues --   -0.02679  -0.01952  -0.00997  -0.00217  -0.00138
 Alpha virt. eigenvalues --   -0.00037   0.00334   0.00767   0.00880   0.00903

  Beta  occ. eigenvalues --  -38.44614 -38.44037 -38.43659 -38.43546 -38.43425
  Beta  occ. eigenvalues --  -38.43063 -38.42837  -2.20428  -2.19868  -2.19503
  Beta  occ. eigenvalues --   -2.19387  -2.19331  -2.18964  -2.18708  -1.14090
  Beta  occ. eigenvalues --   -1.14076  -1.14075  -1.13553  -1.13519  -1.13507
  Beta  occ. eigenvalues --   -1.13185  -1.13158  -1.13140  -1.13128  -1.13077
  Beta  occ. eigenvalues --   -1.13061  -1.13046  -1.13023  -1.12965  -1.12660
  Beta  occ. eigenvalues --   -1.12600  -1.12579  -1.12408  -1.12360  -1.12322
  Beta  occ. eigenvalues --   -0.18060  -0.13116  -0.11811
  Beta virt. eigenvalues --   -0.06992  -0.06075  -0.05083  -0.04064  -0.02589
  Beta virt. eigenvalues --   -0.01988  -0.01853  -0.01592  -0.00950  -0.00258
  Beta virt. eigenvalues --   -0.00165   0.00091   0.00355   0.00827   0.00884

 Mulliken charges and spin densities:
               1          2
     1  Na   0.020280  -0.070705
     2  Na   0.211244  -0.063293
     3  Na   0.059985  -0.098110
     4  Na  -0.418075   0.694841
     5  Na  -0.338406   0.628436
     6  Na   0.285417  -0.039446
     7  Na   0.179555  -0.051722
 Sum of Mulliken charges =  -0.00000   1.00000

 Dipole moment (field-independent basis, Debye):
    X=             -0.2050    Y=              0.0513    Z=              0.0314  Tot=              0.2137
 Quadrupole moment (field-independent basis, Debye-Ang):
   XX=            -52.0806   YY=            -67.8302   ZZ=            -73.3859
   XY=             -0.1769   XZ=              0.7696   YZ=             -0.3297

 Normal termination of Gaussian 16 at Thu Dec  7 16:55:51 2023.
