 Gaussian 16, Revision B.01,
 Gaussian 16:  ES64L-G16RevB.01 20-Dec-2017

 -------------------------
 #P B3LYP/6-311+g(d) force
 -------------------------

 -----
 DPGEN
 -----
 Symbolic Z-matrix:
 Charge =  0 Multiplicity = 2

                         Standard orientation:
 ---------------------------------------------------------------------
 Center     Atomic      Atomic             Coordinates (Angstroms)
 Number     Number       Type             X           Y           Z
 ---------------------------------------------------------------------
      1         11           0        0.887223   -0.208906    2.305400
      2         11           0        1.563712   -1.905510   -1.298100
      3         11           0        3.136155    0.064680    0.335300
      4         11           0        1.371037    2.089091   -1.001200
      5         11           0       -0.600676   -0.069296   -0.303200
      6         11           0       -3.229485   -1.477280   -0.038500
      7         11           0       -3.127966    1.507220    0.000300
 ---------------------------------------------------------------------

 SCF Done:  E(UB3LYP) =  -1136.09648011     A.U. after   30 cycles

 The electronic state is 2-A.
 Alpha  occ. eigenvalues --  -38.45090 -38.44879 -38.44824 -38.44711 -38.43414
 Alpha  occ. eigenvalues --  -38.43383 -38.42888  -2.21086  -2.20758  -2.20704
 Alpha  occ. eigenvalues --   -2.20636  -2.19589  -2.19330  -2.18801  -1.14816
 Alpha  occ. eigenvalues --   -1.14763  -1.14728  -1.14569  -1.14436  -1.14394
 Alpha  occ. eigenvalues --   -1.14385  -1.14337  -1.14335  -1.14255  -1.14255
 Alpha  occ. eigenvalues --   -1.14185  -1.13342  -1.13285  -1.13234  -1.12987
 Alpha  occ. eigenvalues --   -1.12974  -1.12913  -1.12489  -1.12461  -1.12400
 Alpha  occ. eigenvalues --   -0.19245  -0.14849  -0.11444  -0.10766
 Alpha virt. eigenvalues --   -0.06977  -0.05548  -0.03943  -0.03411  -0.02629
 Alpha virt. eigenvalues --   -0.02242  -0.02114  -0.01148  -0.00501  -0.00229
 Alpha virt. eigenvalues --    0.00189   0.00219   0.00336   0.00703   0.00795

  Beta  occ. eigenvalues --  -38.45071 -38.44887 -38.44827 -38.44596 -38.43366
  Beta  occ. eigenvalues --  -38.43361 -38.42865  -2.21061  -2.20775  -2.20710
  Beta  occ. eigenvalues --   -2.20423  -2.19556  -2.19245  -2.18759  -1.14765
  Beta  occ. eigenvalues --   -1.14717  -1.14712  -1.14579  -1.14447  -1.14400
  Beta  occ. eigenvalues --   -1.14390  -1.14335  -1.14266  -1.14192  -1.14115
  Beta  occ. eigenvalues --   -1.14038  -1.13291  -1.13233  -1.13217  -1.12933
  Beta  occ. eigenvalues --   -1.12920  -1.12842  -1.12462  -1.12435  -1.12354
  Beta  occ. eigenvalues --   -0.18487  -0.14667  -0.10572
  Beta virt. eigenvalues --   -0.07267  -0.06743  -0.05566  -0.03328  -0.02958
  Beta virt. eigenvalues --   -0.02576  -0.01540  -0.01458  -0.01104  -0.00347
  Beta virt. eigenvalues --    0.00014   0.00240   0.00254   0.00637   0.00740

 Mulliken charges and spin densities:
               1          2
     1  Na   0.280583   0.341621
     2  Na   0.511781   0.324246
     3  Na   0.431657   0.104260
     4  Na   0.916685   0.195357
     5  Na  -3.055225   0.089193
     6  Na   0.371062   0.010677
     7  Na   0.543458  -0.065354
 Sum of Mulliken charges =  -0.00000   1.00000

 Dipole moment (field-independent basis, Debye):
    X=             -0.9972    Y=             -0.1191    Z=              0.4404  Tot=              1.0966
 Quadrupole moment (field-independent basis, Debye-Ang):
   XX=            -46.5918   YY=            -75.2570   ZZ=            -70.8797
   XY=              0.0565   XZ=             -0.8094   YZ=              0.7358

 Normal termination of Gaussian 16 at Thu Dec  7 22:52:54 2023.
