 Gaussian 16, Revision B.01,
 Gaussian 16:  ES64L-G16RevB.01 20-Dec-2017

 -------------------------
 #P B3LYP/6-311+g(d) force
 -------------------------

 -----
 DPGEN
 -----
 Symbolic Z-matrix:
 Charge =  0 Multiplicity = 2

                         Standard orientation:
 ---------------------------------------------------------------------
 Center     Atomic      Atomic             Coordinates (Angstroms)
 Number     Number       Type             X           Y           Z
 ---------------------------------------------------------------------
      1         11           0        0.030530    0.323010   -1.643660
      2         11           0        0.399980   -2.703276   -0.153646
      3         11           0       -2.160778    2.445628   -0.273286
      4         11           0       -0.552278    0.160812    2.134957
      5         11           0        2.005667    2.187822    0.086586
      6         11           0        3.218855   -0.818930    0.013384
      7         11           0       -2.941976   -1.595065   -0.164335
 ---------------------------------------------------------------------

 SCF Done:  E(UB3LYP) =  -1136.13425692     A.U. after   19 cycles

 The electronic state is 2-A.
 Alpha  occ. eigenvalues --  -38.44453 -38.44009 -38.44006 -38.43910 -38.43682
 Alpha  occ. eigenvalues --  -38.43284 -38.43147  -2.20237  -2.19841  -2.19803
 Alpha  occ. eigenvalues --   -2.19757  -2.19531  -2.19230  -2.19000  -1.13911
 Alpha  occ. eigenvalues --   -1.13890  -1.13881  -1.13542  -1.13500  -1.13500
 Alpha  occ. eigenvalues --   -1.13488  -1.13461  -1.13450  -1.13438  -1.13411
 Alpha  occ. eigenvalues --   -1.13364  -1.13192  -1.13157  -1.13150  -1.12916
 Alpha  occ. eigenvalues --   -1.12878  -1.12849  -1.12685  -1.12667  -1.12625
 Alpha  occ. eigenvalues --   -0.18265  -0.13065  -0.12262  -0.10579
 Alpha virt. eigenvalues --   -0.05953  -0.05662  -0.04374  -0.03220  -0.02797
 Alpha virt. eigenvalues --   -0.02552  -0.01739  -0.01444  -0.00554  -0.00291
 Alpha virt. eigenvalues --   -0.00045   0.00324   0.00717   0.00776   0.00893

  Beta  occ. eigenvalues --  -38.44452 -38.44010 -38.44000 -38.43905 -38.43585
  Beta  occ. eigenvalues --  -38.43222 -38.43140  -2.20237  -2.19844  -2.19795
  Beta  occ. eigenvalues --   -2.19750  -2.19351  -2.19118  -2.18992  -1.13893
  Beta  occ. eigenvalues --   -1.13891  -1.13885  -1.13546  -1.13504  -1.13486
  Beta  occ. eigenvalues --   -1.13472  -1.13445  -1.13441  -1.13435  -1.13389
  Beta  occ. eigenvalues --   -1.13364  -1.13072  -1.13031  -1.13021  -1.12838
  Beta  occ. eigenvalues --   -1.12799  -1.12769  -1.12675  -1.12639  -1.12623
  Beta  occ. eigenvalues --   -0.17562  -0.12877  -0.12036
  Beta virt. eigenvalues --   -0.06678  -0.05943  -0.05587  -0.04337  -0.02480
  Beta virt. eigenvalues --   -0.02045  -0.01658  -0.01494  -0.01377  -0.00611
  Beta virt. eigenvalues --   -0.00320   0.00121   0.00357   0.00768   0.00793

 Mulliken charges and spin densities:
               1          2
     1  Na  -0.194035   0.452086
     2  Na   0.121298  -0.007862
     3  Na   0.144009  -0.116946
     4  Na  -0.536432   0.757257
     5  Na   0.357823  -0.004423
     6  Na  -0.047057  -0.007953
     7  Na   0.154394  -0.072158
 Sum of Mulliken charges =  -0.00000   1.00000

 Dipole moment (field-independent basis, Debye):
    X=             -0.3247    Y=              0.1636    Z=              0.0769  Tot=              0.3716
 Quadrupole moment (field-independent basis, Debye-Ang):
   XX=            -53.4988   YY=            -64.2266   ZZ=            -75.4467
   XY=             -0.0177   XZ=              1.2136   YZ=              0.3684

 Normal termination of Gaussian 16 at Thu Dec  7 22:07:57 2023.
