 Gaussian 16, Revision B.01,
 Gaussian 16:  ES64L-G16RevB.01 20-Dec-2017

 -------------------------
 #P B3LYP/6-311+g(d) force
 -------------------------

 -----
 DPGEN
 -----
 Symbolic Z-matrix:
 Charge =  0 Multiplicity = 2

                         Standard orientation:
 ---------------------------------------------------------------------
 Center     Atomic      Atomic             Coordinates (Angstroms)
 Number     Number       Type             X           Y           Z
 ---------------------------------------------------------------------
      1         11           0        1.975484    1.517249   -1.059789
      2         11           0       -1.345411    2.835222    0.328232
      3         11           0       -3.949832    0.697885    0.347055
      4         11           0        4.548054   -0.514386   -1.230354
      5         11           0       -4.322609   -2.569247   -1.070470
      6         11           0       -0.039471   -0.305888    1.115803
      7         11           0        3.133785   -1.660835    1.569524
 ---------------------------------------------------------------------

 SCF Done:  E(UB3LYP) =  -1136.11474550     A.U. after   24 cycles

 The electronic state is 2-A.
 Alpha  occ. eigenvalues --  -38.44816 -38.44772 -38.44462 -38.44377 -38.44108
 Alpha  occ. eigenvalues --  -38.43929 -38.43831  -2.20657  -2.20599  -2.20289
 Alpha  occ. eigenvalues --   -2.20216  -2.19895  -2.19751  -2.19576  -1.14360
 Alpha  occ. eigenvalues --   -1.14322  -1.14291  -1.14266  -1.14259  -1.14212
 Alpha  occ. eigenvalues --   -1.13953  -1.13947  -1.13933  -1.13868  -1.13866
 Alpha  occ. eigenvalues --   -1.13822  -1.13586  -1.13566  -1.13535  -1.13420
 Alpha  occ. eigenvalues --   -1.13402  -1.13381  -1.13246  -1.13244  -1.13200
 Alpha  occ. eigenvalues --   -0.17071  -0.14311  -0.11555  -0.11183
 Alpha virt. eigenvalues --   -0.07335  -0.05337  -0.04146  -0.04026  -0.03147
 Alpha virt. eigenvalues --   -0.02721  -0.01965  -0.01574  -0.01224  -0.00611
 Alpha virt. eigenvalues --   -0.00258  -0.00082   0.00175   0.00274   0.00451

  Beta  occ. eigenvalues --  -38.44758 -38.44734 -38.44413 -38.44335 -38.44108
  Beta  occ. eigenvalues --  -38.43923 -38.43819  -2.20552  -2.20531  -2.20202
  Beta  occ. eigenvalues --   -2.20139  -2.19897  -2.19740  -2.19553  -1.14296
  Beta  occ. eigenvalues --   -1.14258  -1.14247  -1.14212  -1.14163  -1.14143
  Beta  occ. eigenvalues --   -1.13897  -1.13885  -1.13863  -1.13816  -1.13802
  Beta  occ. eigenvalues --   -1.13769  -1.13587  -1.13567  -1.13531  -1.13410
  Beta  occ. eigenvalues --   -1.13395  -1.13377  -1.13230  -1.13228  -1.13185
  Beta  occ. eigenvalues --   -0.16445  -0.14033  -0.11205
  Beta virt. eigenvalues --   -0.07370  -0.07235  -0.04978  -0.03904  -0.03750
  Beta virt. eigenvalues --   -0.02615  -0.02423  -0.01678  -0.01339  -0.00912
  Beta virt. eigenvalues --   -0.00499  -0.00074   0.00109   0.00204   0.00491

 Mulliken charges and spin densities:
               1          2
     1  Na  -0.068328   0.286440
     2  Na   0.697078   0.038306
     3  Na   0.311941   0.072960
     4  Na   0.145159   0.108935
     5  Na   0.115547   0.030281
     6  Na  -1.378395   0.542012
     7  Na   0.176998  -0.078935
 Sum of Mulliken charges =  -0.00000   1.00000

 Dipole moment (field-independent basis, Debye):
    X=              1.4692    Y=              0.4595    Z=              0.1035  Tot=              1.5428
 Quadrupole moment (field-independent basis, Debye-Ang):
   XX=            -67.9851   YY=            -63.4135   ZZ=            -70.4970
   XY=             -8.2339   XZ=             -0.8292   YZ=              2.0195

 Normal termination of Gaussian 16 at Tue Nov 28 23:01:36 2023.
