 Gaussian 16, Revision B.01,
 Gaussian 16:  ES64L-G16RevB.01 20-Dec-2017

 -------------------------
 #P B3LYP/6-311+g(d) force
 -------------------------

 -----
 DPGEN
 -----
 Symbolic Z-matrix:
 Charge =  0 Multiplicity = 2

                         Standard orientation:
 ---------------------------------------------------------------------
 Center     Atomic      Atomic             Coordinates (Angstroms)
 Number     Number       Type             X           Y           Z
 ---------------------------------------------------------------------
      1         11           0       -3.359926    1.055380    0.905004
      2         11           0       -2.480702   -1.930302   -1.030060
      3         11           0        3.289750   -0.291539    1.798084
      4         11           0        2.399998    1.810495   -1.116811
      5         11           0       -0.421005   -1.431074    1.811076
      6         11           0       -0.783284    2.944963   -0.571032
      7         11           0        1.355168   -2.157923   -1.796262
 ---------------------------------------------------------------------

 SCF Done:  E(UB3LYP) =  -1136.11945289     A.U. after   20 cycles

 The electronic state is 2-A.
 Alpha  occ. eigenvalues --  -38.44784 -38.44750 -38.44723 -38.44691 -38.44187
 Alpha  occ. eigenvalues --  -38.43892 -38.43452  -2.20558  -2.20506  -2.20491
 Alpha  occ. eigenvalues --   -2.20466  -2.19970  -2.19671  -2.19223  -1.14242
 Alpha  occ. eigenvalues --   -1.14224  -1.14186  -1.14176  -1.14153  -1.14147
 Alpha  occ. eigenvalues --   -1.14143  -1.14133  -1.14129  -1.14118  -1.14115
 Alpha  occ. eigenvalues --   -1.14097  -1.13652  -1.13629  -1.13600  -1.13348
 Alpha  occ. eigenvalues --   -1.13341  -1.13303  -1.12902  -1.12897  -1.12858
 Alpha  occ. eigenvalues --   -0.16618  -0.13172  -0.12060  -0.11142
 Alpha virt. eigenvalues --   -0.06162  -0.06018  -0.05170  -0.03490  -0.02947
 Alpha virt. eigenvalues --   -0.02658  -0.01846  -0.01157  -0.00848  -0.00633
 Alpha virt. eigenvalues --   -0.00298  -0.00086   0.00110   0.00348   0.00510

  Beta  occ. eigenvalues --  -38.44751 -38.44688 -38.44682 -38.44666 -38.44182
  Beta  occ. eigenvalues --  -38.43878 -38.43451  -2.20497  -2.20450  -2.20391
  Beta  occ. eigenvalues --   -2.20385  -2.19960  -2.19645  -2.19223  -1.14203
  Beta  occ. eigenvalues --   -1.14179  -1.14144  -1.14132  -1.14101  -1.14093
  Beta  occ. eigenvalues --   -1.14079  -1.14074  -1.14068  -1.14054  -1.14049
  Beta  occ. eigenvalues --   -1.14043  -1.13642  -1.13624  -1.13597  -1.13328
  Beta  occ. eigenvalues --   -1.13317  -1.13286  -1.12901  -1.12897  -1.12853
  Beta  occ. eigenvalues --   -0.16099  -0.12923  -0.11744
  Beta virt. eigenvalues --   -0.07597  -0.05975  -0.05764  -0.04553  -0.03314
  Beta virt. eigenvalues --   -0.02527  -0.01972  -0.01657  -0.01005  -0.00678
  Beta virt. eigenvalues --   -0.00395  -0.00217   0.00039   0.00263   0.00394

 Mulliken charges and spin densities:
               1          2
     1  Na   0.228417  -0.063505
     2  Na   0.259132   0.099838
     3  Na   0.182374   0.174640
     4  Na  -0.168753   0.215099
     5  Na  -0.284929   0.318528
     6  Na  -0.040406  -0.045191
     7  Na  -0.175834   0.300591
 Sum of Mulliken charges =  -0.00000   1.00000

 Dipole moment (field-independent basis, Debye):
    X=             -0.2394    Y=             -0.8346    Z=              0.1144  Tot=              0.8757
 Quadrupole moment (field-independent basis, Debye-Ang):
   XX=            -56.2819   YY=            -73.9101   ZZ=            -68.4661
   XY=              0.8183   XZ=              0.1237   YZ=              1.8237

 Normal termination of Gaussian 16 at Sun Dec  3 22:23:37 2023.
