 Gaussian 16, Revision B.01,
 Gaussian 16:  ES64L-G16RevB.01 20-Dec-2017

 -------------------------
 #P B3LYP/6-311+g(d) force
 -------------------------

 -----
 DPGEN
 -----
 Symbolic Z-matrix:
 Charge =  0 Multiplicity = 2

                         Standard orientation:
 ---------------------------------------------------------------------
 Center     Atomic      Atomic             Coordinates (Angstroms)
 Number     Number       Type             X           Y           Z
 ---------------------------------------------------------------------
      1         11           0       -2.832068    1.105221   -0.241518
      2         11           0        3.176002    0.545369   -0.020150
      3         11           0        1.538381   -2.408169   -0.275744
      4         11           0       -0.057562   -0.185177   -1.676253
      5         11           0       -2.138650   -2.035725    0.194131
      6         11           0        0.246067    3.008686   -0.079083
      7         11           0        0.067830   -0.030205    2.098616
 ---------------------------------------------------------------------

 SCF Done:  E(UB3LYP) =  -1136.13849512     A.U. after   19 cycles

 The electronic state is 2-A.
 Alpha  occ. eigenvalues --  -38.44206 -38.43812 -38.43724 -38.43455 -38.43371
 Alpha  occ. eigenvalues --  -38.43329 -38.43282  -2.20015  -2.19669  -2.19601
 Alpha  occ. eigenvalues --   -2.19332  -2.19270  -2.19253  -2.19139  -1.13688
 Alpha  occ. eigenvalues --   -1.13677  -1.13657  -1.13361  -1.13335  -1.13307
 Alpha  occ. eigenvalues --   -1.13268  -1.13226  -1.13222  -1.13069  -1.13014
 Alpha  occ. eigenvalues --   -1.12992  -1.12969  -1.12933  -1.12900  -1.12882
 Alpha  occ. eigenvalues --   -1.12862  -1.12847  -1.12812  -1.12802  -1.12774
 Alpha  occ. eigenvalues --   -0.18691  -0.13115  -0.12317  -0.10868
 Alpha virt. eigenvalues --   -0.05719  -0.05017  -0.04678  -0.03262  -0.02868
 Alpha virt. eigenvalues --   -0.02683  -0.01544  -0.01046  -0.00377  -0.00287
 Alpha virt. eigenvalues --   -0.00017   0.00366   0.00796   0.00893   0.00912

  Beta  occ. eigenvalues --  -38.44205 -38.43806 -38.43626 -38.43448 -38.43361
  Beta  occ. eigenvalues --  -38.43328 -38.43216  -2.20016  -2.19661  -2.19421
  Beta  occ. eigenvalues --   -2.19324  -2.19244  -2.19148  -2.19139  -1.13681
  Beta  occ. eigenvalues --   -1.13672  -1.13657  -1.13355  -1.13312  -1.13302
  Beta  occ. eigenvalues --   -1.13151  -1.13101  -1.13092  -1.13030  -1.12999
  Beta  occ. eigenvalues --   -1.12966  -1.12955  -1.12882  -1.12864  -1.12849
  Beta  occ. eigenvalues --   -1.12816  -1.12798  -1.12783  -1.12776  -1.12771
  Beta  occ. eigenvalues --   -0.17949  -0.12887  -0.12083
  Beta virt. eigenvalues --   -0.06922  -0.05692  -0.05027  -0.04620  -0.02464
  Beta virt. eigenvalues --   -0.02087  -0.01613  -0.01455  -0.00973  -0.00428
  Beta virt. eigenvalues --   -0.00342   0.00122   0.00387   0.00850   0.00888

 Mulliken charges and spin densities:
               1          2
     1  Na   0.117074  -0.055494
     2  Na   0.014752  -0.084906
     3  Na   0.332237  -0.022021
     4  Na  -0.188305   0.463231
     5  Na   0.300712   0.027229
     6  Na  -0.047183  -0.110219
     7  Na  -0.529286   0.782179
 Sum of Mulliken charges =  -0.00000   1.00000

 Dipole moment (field-independent basis, Debye):
    X=              0.1722    Y=              0.0602    Z=              0.1614  Tot=              0.2436
 Quadrupole moment (field-independent basis, Debye-Ang):
   XX=            -56.2852   YY=            -63.6289   ZZ=            -73.8751
   XY=              0.5149   XZ=             -0.0798   YZ=             -0.4208

 Normal termination of Gaussian 16 at Fri Dec  8 00:40:44 2023.
