 Gaussian 16, Revision B.01,
 Gaussian 16:  ES64L-G16RevB.01 20-Dec-2017

 -------------------------
 #P B3LYP/6-311+g(d) force
 -------------------------

 -----
 DPGEN
 -----
 Symbolic Z-matrix:
 Charge =  0 Multiplicity = 2

                         Standard orientation:
 ---------------------------------------------------------------------
 Center     Atomic      Atomic             Coordinates (Angstroms)
 Number     Number       Type             X           Y           Z
 ---------------------------------------------------------------------
      1         11           0       -2.094858    1.363958    2.036996
      2         11           0       -1.404731   -1.949344    0.322669
      3         11           0        1.197176   -0.512812   -1.180097
      4         11           0       -4.331887   -0.697480   -0.121460
      5         11           0        4.132722   -1.651969    0.323851
      6         11           0       -1.699594    1.685461   -1.707333
      7         11           0        4.201172    1.762186    0.325374
 ---------------------------------------------------------------------

 SCF Done:  E(UB3LYP) =  -1136.10158769     A.U. after   30 cycles

 The electronic state is 2-A.
 Alpha  occ. eigenvalues --  -38.45230 -38.44983 -38.44849 -38.44522 -38.44404
 Alpha  occ. eigenvalues --  -38.43654 -38.42013  -2.20986  -2.20764  -2.20668
 Alpha  occ. eigenvalues --   -2.20335  -2.20163  -2.19534  -2.17869  -1.14677
 Alpha  occ. eigenvalues --   -1.14647  -1.14608  -1.14439  -1.14420  -1.14389
 Alpha  occ. eigenvalues --   -1.14354  -1.14330  -1.14270  -1.14015  -1.13963
 Alpha  occ. eigenvalues --   -1.13937  -1.13835  -1.13831  -1.13788  -1.13232
 Alpha  occ. eigenvalues --   -1.13176  -1.13136  -1.11572  -1.11555  -1.11485
 Alpha  occ. eigenvalues --   -0.17011  -0.14128  -0.11167  -0.10130
 Alpha virt. eigenvalues --   -0.07368  -0.06307  -0.04242  -0.03108  -0.02925
 Alpha virt. eigenvalues --   -0.02526  -0.02114  -0.01920  -0.01274  -0.00697
 Alpha virt. eigenvalues --   -0.00460  -0.00040   0.00211   0.00304   0.00462

  Beta  occ. eigenvalues --  -38.45224 -38.44977 -38.44811 -38.44440 -38.44404
  Beta  occ. eigenvalues --  -38.43594 -38.42013  -2.20976  -2.20754  -2.20601
  Beta  occ. eigenvalues --   -2.20183  -2.20163  -2.19424  -2.17871  -1.14669
  Beta  occ. eigenvalues --   -1.14626  -1.14602  -1.14433  -1.14413  -1.14382
  Beta  occ. eigenvalues --   -1.14297  -1.14275  -1.14225  -1.13904  -1.13862
  Beta  occ. eigenvalues --   -1.13836  -1.13831  -1.13831  -1.13788  -1.13152
  Beta  occ. eigenvalues --   -1.13105  -1.13051  -1.11576  -1.11536  -1.11490
  Beta  occ. eigenvalues --   -0.16318  -0.13967  -0.10002
  Beta virt. eigenvalues --   -0.07395  -0.07106  -0.05939  -0.04051  -0.02848
  Beta virt. eigenvalues --   -0.02656  -0.01976  -0.01742  -0.01286  -0.01045
  Beta virt. eigenvalues --   -0.00610  -0.00364   0.00106   0.00227   0.00401

 Mulliken charges and spin densities:
               1          2
     1  Na  -0.156092   0.031646
     2  Na  -0.061090   0.388327
     3  Na  -0.537258  -0.019248
     4  Na   0.459942   0.048544
     5  Na   0.246977  -0.029868
     6  Na   0.001828   0.579428
     7  Na   0.045694   0.001171
 Sum of Mulliken charges =  -0.00000   1.00000

 Dipole moment (field-independent basis, Debye):
    X=             -0.1255    Y=              0.0391    Z=              0.1505  Tot=              0.1998
 Quadrupole moment (field-independent basis, Debye-Ang):
   XX=            -66.7893   YY=            -65.5315   ZZ=            -70.0969
   XY=             -2.2333   XZ=              7.2551   YZ=             -3.0794

 Normal termination of Gaussian 16 at Thu Dec  7 21:37:00 2023.
