 Gaussian 16, Revision B.01,
 Gaussian 16:  ES64L-G16RevB.01 20-Dec-2017

 -------------------------
 #P B3LYP/6-311+g(d) force
 -------------------------

 -----
 DPGEN
 -----
 Symbolic Z-matrix:
 Charge =  0 Multiplicity = 2

                         Standard orientation:
 ---------------------------------------------------------------------
 Center     Atomic      Atomic             Coordinates (Angstroms)
 Number     Number       Type             X           Y           Z
 ---------------------------------------------------------------------
      1         11           0        0.876562   -2.757171   -0.389117
      2         11           0       -0.644713   -0.360888    2.062214
      3         11           0        2.891940   -0.214630    0.182833
      4         11           0       -2.495442   -1.630751   -0.149741
      5         11           0        1.453874    2.559908    0.175529
      6         11           0       -2.226367    2.249651   -0.330838
      7         11           0        0.144146    0.153881   -1.550881
 ---------------------------------------------------------------------

 SCF Done:  E(UB3LYP) =  -1136.13638565     A.U. after   19 cycles

 The electronic state is 2-A.
 Alpha  occ. eigenvalues --  -38.43886 -38.43864 -38.43637 -38.43620 -38.43452
 Alpha  occ. eigenvalues --  -38.43424 -38.42989  -2.19727  -2.19694  -2.19528
 Alpha  occ. eigenvalues --   -2.19491  -2.19335  -2.19328  -2.19015  -1.13452
 Alpha  occ. eigenvalues --   -1.13395  -1.13377  -1.13353  -1.13346  -1.13324
 Alpha  occ. eigenvalues --   -1.13226  -1.13179  -1.13158  -1.13151  -1.13139
 Alpha  occ. eigenvalues --   -1.13127  -1.13068  -1.13015  -1.12987  -1.12971
 Alpha  occ. eigenvalues --   -1.12963  -1.12923  -1.12693  -1.12648  -1.12634
 Alpha  occ. eigenvalues --   -0.18828  -0.13035  -0.12689  -0.10740
 Alpha virt. eigenvalues --   -0.05572  -0.05028  -0.04801  -0.03277  -0.02923
 Alpha virt. eigenvalues --   -0.02466  -0.01329  -0.01216  -0.00333  -0.00219
 Alpha virt. eigenvalues --   -0.00005   0.00360   0.00848   0.00874   0.00938

  Beta  occ. eigenvalues --  -38.43879 -38.43858 -38.43616 -38.43546 -38.43441
  Beta  occ. eigenvalues --  -38.43419 -38.42929  -2.19720  -2.19683  -2.19487
  Beta  occ. eigenvalues --   -2.19360  -2.19321  -2.19317  -2.18907  -1.13432
  Beta  occ. eigenvalues --   -1.13367  -1.13359  -1.13346  -1.13339  -1.13320
  Beta  occ. eigenvalues --   -1.13224  -1.13136  -1.13124  -1.13075  -1.13055
  Beta  occ. eigenvalues --   -1.13033  -1.13022  -1.12992  -1.12980  -1.12949
  Beta  occ. eigenvalues --   -1.12940  -1.12917  -1.12617  -1.12572  -1.12553
  Beta  occ. eigenvalues --   -0.18122  -0.12784  -0.12439
  Beta virt. eigenvalues --   -0.06851  -0.05544  -0.04939  -0.04785  -0.02461
  Beta virt. eigenvalues --   -0.02194  -0.01435  -0.01240  -0.01139  -0.00372
  Beta virt. eigenvalues --   -0.00259   0.00148   0.00396   0.00856   0.00900

 Mulliken charges and spin densities:
               1          2
     1  Na   0.340479   0.042331
     2  Na  -0.636536   0.697135
     3  Na   0.088022   0.058429
     4  Na   0.353830  -0.058379
     5  Na   0.091112   0.007647
     6  Na   0.094912  -0.065461
     7  Na  -0.331819   0.318300
 Sum of Mulliken charges =  -0.00000   1.00000

 Dipole moment (field-independent basis, Debye):
    X=             -0.3372    Y=              0.0575    Z=              0.1643  Tot=              0.3795
 Quadrupole moment (field-independent basis, Debye-Ang):
   XX=            -59.4938   YY=            -60.2104   ZZ=            -74.1201
   XY=             -0.3765   XZ=              1.7940   YZ=              1.2136

 Normal termination of Gaussian 16 at Fri Dec  8 01:40:45 2023.
