 Gaussian 16, Revision B.01,
 Gaussian 16:  ES64L-G16RevB.01 20-Dec-2017

 -------------------------
 #P B3LYP/6-311+g(d) force
 -------------------------

 -----
 DPGEN
 -----
 Symbolic Z-matrix:
 Charge =  0 Multiplicity = 2

                         Standard orientation:
 ---------------------------------------------------------------------
 Center     Atomic      Atomic             Coordinates (Angstroms)
 Number     Number       Type             X           Y           Z
 ---------------------------------------------------------------------
      1         11           0        2.417717    2.900348    0.874872
      2         11           0        1.866806   -2.419084   -1.016813
      3         11           0       -0.282630    2.947688   -1.169136
      4         11           0       -3.686443    1.619469   -0.361874
      5         11           0       -3.311549   -0.992625    1.360109
      6         11           0       -1.239641   -3.323805   -0.236968
      7         11           0        4.235739   -0.731992    0.549809
 ---------------------------------------------------------------------

 SCF Done:  E(UB3LYP) =  -1136.10770486     A.U. after   23 cycles

 The electronic state is 2-A.
 Alpha  occ. eigenvalues --  -38.45102 -38.44953 -38.44474 -38.44443 -38.44400
 Alpha  occ. eigenvalues --  -38.43959 -38.43653  -2.20856  -2.20752  -2.20244
 Alpha  occ. eigenvalues --   -2.20236  -2.20210  -2.19766  -2.19469  -1.14530
 Alpha  occ. eigenvalues --   -1.14515  -1.14492  -1.14438  -1.14419  -1.14400
 Alpha  occ. eigenvalues --   -1.13917  -1.13915  -1.13907  -1.13906  -1.13899
 Alpha  occ. eigenvalues --   -1.13881  -1.13867  -1.13860  -1.13836  -1.13411
 Alpha  occ. eigenvalues --   -1.13408  -1.13387  -1.13121  -1.13117  -1.13102
 Alpha  occ. eigenvalues --   -0.15712  -0.13833  -0.13286  -0.10600
 Alpha virt. eigenvalues --   -0.07637  -0.04707  -0.04496  -0.03690  -0.03628
 Alpha virt. eigenvalues --   -0.02117  -0.01866  -0.01516  -0.01313  -0.01167
 Alpha virt. eigenvalues --   -0.00753  -0.00081   0.00223   0.00340   0.00726

  Beta  occ. eigenvalues --  -38.45082 -38.44944 -38.44452 -38.44435 -38.44362
  Beta  occ. eigenvalues --  -38.43882 -38.43595  -2.20823  -2.20740  -2.20229
  Beta  occ. eigenvalues --   -2.20206  -2.20141  -2.19622  -2.19364  -1.14510
  Beta  occ. eigenvalues --   -1.14492  -1.14452  -1.14421  -1.14414  -1.14372
  Beta  occ. eigenvalues --   -1.13917  -1.13909  -1.13891  -1.13882  -1.13843
  Beta  occ. eigenvalues --   -1.13843  -1.13817  -1.13815  -1.13788  -1.13314
  Beta  occ. eigenvalues --   -1.13312  -1.13292  -1.13048  -1.13046  -1.13033
  Beta  occ. eigenvalues --   -0.15239  -0.13018  -0.12575
  Beta virt. eigenvalues --   -0.07824  -0.07472  -0.04245  -0.04023  -0.03533
  Beta virt. eigenvalues --   -0.03393  -0.01857  -0.01489  -0.01359  -0.01069
  Beta virt. eigenvalues --   -0.00867  -0.00591   0.00111   0.00233   0.00388

 Mulliken charges and spin densities:
               1          2
     1  Na   0.188509   0.075218
     2  Na  -0.184065   0.034501
     3  Na  -0.386870   0.095418
     4  Na   0.274127   0.157279
     5  Na  -0.126612   0.051255
     6  Na   0.052678   0.236639
     7  Na   0.182233   0.349691
 Sum of Mulliken charges =  -0.00000   1.00000

 Dipole moment (field-independent basis, Debye):
    X=             -0.3886    Y=              0.7036    Z=              0.3694  Tot=              0.8846
 Quadrupole moment (field-independent basis, Debye-Ang):
   XX=            -66.0084   YY=            -71.6483   ZZ=            -65.0657
   XY=              3.2467   XZ=              2.5003   YZ=             -0.2190

 Normal termination of Gaussian 16 at Sun Dec  3 14:16:10 2023.
