 Gaussian 16, Revision B.01,
 Gaussian 16:  ES64L-G16RevB.01 20-Dec-2017

 -------------------------
 #P B3LYP/6-311+g(d) force
 -------------------------

 -----
 DPGEN
 -----
 Symbolic Z-matrix:
 Charge =  0 Multiplicity = 2

                         Standard orientation:
 ---------------------------------------------------------------------
 Center     Atomic      Atomic             Coordinates (Angstroms)
 Number     Number       Type             X           Y           Z
 ---------------------------------------------------------------------
      1         11           0        1.768940   -2.137635    0.069067
      2         11           0       -2.944460    0.468447   -0.515850
      3         11           0       -0.274176    2.959095    0.301689
      4         11           0       -0.007208    0.376934    1.905277
      5         11           0       -1.444823   -2.491614    0.375634
      6         11           0        0.010182    0.003507   -1.795647
      7         11           0        2.891545    0.821265   -0.340170
 ---------------------------------------------------------------------

 SCF Done:  E(UB3LYP) =  -1136.13838110     A.U. after   19 cycles

 The electronic state is 2-A.
 Alpha  occ. eigenvalues --  -38.43759 -38.43676 -38.43558 -38.43533 -38.43435
 Alpha  occ. eigenvalues --  -38.43260 -38.43241  -2.19612  -2.19544  -2.19507
 Alpha  occ. eigenvalues --   -2.19410  -2.19392  -2.19157  -2.19136  -1.13322
 Alpha  occ. eigenvalues --   -1.13272  -1.13261  -1.13247  -1.13235  -1.13219
 Alpha  occ. eigenvalues --   -1.13176  -1.13160  -1.13117  -1.13082  -1.13056
 Alpha  occ. eigenvalues --   -1.13032  -1.13025  -1.13014  -1.13004  -1.12871
 Alpha  occ. eigenvalues --   -1.12815  -1.12813  -1.12796  -1.12781  -1.12739
 Alpha  occ. eigenvalues --   -0.19009  -0.12969  -0.12670  -0.11122
 Alpha virt. eigenvalues --   -0.05329  -0.04853  -0.04740  -0.03254  -0.03145
 Alpha virt. eigenvalues --   -0.02701  -0.01316  -0.01071  -0.00228  -0.00012
 Alpha virt. eigenvalues --    0.00030   0.00364   0.00885   0.00914   0.00969

  Beta  occ. eigenvalues --  -38.43745 -38.43668 -38.43524 -38.43474 -38.43360
  Beta  occ. eigenvalues --  -38.43253 -38.43235  -2.19589  -2.19532  -2.19381
  Beta  occ. eigenvalues --   -2.19352  -2.19273  -2.19151  -2.19125  -1.13291
  Beta  occ. eigenvalues --   -1.13244  -1.13237  -1.13224  -1.13199  -1.13186
  Beta  occ. eigenvalues --   -1.13156  -1.13064  -1.13022  -1.13018  -1.12994
  Beta  occ. eigenvalues --   -1.12994  -1.12959  -1.12948  -1.12926  -1.12864
  Beta  occ. eigenvalues --   -1.12811  -1.12787  -1.12779  -1.12760  -1.12728
  Beta  occ. eigenvalues --   -0.18280  -0.12685  -0.12388
  Beta virt. eigenvalues --   -0.07212  -0.05296  -0.04778  -0.04738  -0.02473
  Beta virt. eigenvalues --   -0.02353  -0.01664  -0.01210  -0.00984  -0.00229
  Beta virt. eigenvalues --   -0.00052   0.00120   0.00390   0.00898   0.00927

 Mulliken charges and spin densities:
               1          2
     1  Na   0.083139  -0.009692
     2  Na   0.136423   0.002665
     3  Na   0.133877  -0.082206
     4  Na  -0.351305   0.607599
     5  Na   0.064956   0.004610
     6  Na  -0.284883   0.528040
     7  Na   0.217793  -0.051015
 Sum of Mulliken charges =  -0.00000   1.00000

 Dipole moment (field-independent basis, Debye):
    X=             -0.0528    Y=              0.2523    Z=             -0.0045  Tot=              0.2578
 Quadrupole moment (field-independent basis, Debye-Ang):
   XX=            -59.4232   YY=            -62.5228   ZZ=            -72.5514
   XY=              0.4090   XZ=              0.0789   YZ=             -1.2009

 Normal termination of Gaussian 16 at Thu Dec  7 04:05:47 2023.
