 Gaussian 16, Revision B.01,
 Gaussian 16:  ES64L-G16RevB.01 20-Dec-2017

 -------------------------
 #P B3LYP/6-311+g(d) force
 -------------------------

 -----
 DPGEN
 -----
 Symbolic Z-matrix:
 Charge =  0 Multiplicity = 2

                         Standard orientation:
 ---------------------------------------------------------------------
 Center     Atomic      Atomic             Coordinates (Angstroms)
 Number     Number       Type             X           Y           Z
 ---------------------------------------------------------------------
      1         11           0        1.700444    2.243887   -0.019520
      2         11           0        0.339274   -0.169881   -1.718482
      3         11           0        3.046185   -0.861725   -0.129325
      4         11           0       -2.879569   -0.770055   -0.458072
      5         11           0       -1.855064    2.200130    0.044119
      6         11           0       -0.278154   -2.622741    0.293739
      7         11           0       -0.073117   -0.019615    1.987541
 ---------------------------------------------------------------------

 SCF Done:  E(UB3LYP) =  -1136.13727657     A.U. after   19 cycles

 The electronic state is 2-A.
 Alpha  occ. eigenvalues --  -38.44093 -38.43794 -38.43573 -38.43371 -38.43354
 Alpha  occ. eigenvalues --  -38.43224 -38.42988  -2.19944  -2.19681  -2.19524
 Alpha  occ. eigenvalues --   -2.19371  -2.19237  -2.19099  -2.18912  -1.13640
 Alpha  occ. eigenvalues --   -1.13601  -1.13576  -1.13363  -1.13344  -1.13331
 Alpha  occ. eigenvalues --   -1.13211  -1.13167  -1.13134  -1.13062  -1.13040
 Alpha  occ. eigenvalues --   -1.12989  -1.12903  -1.12900  -1.12859  -1.12770
 Alpha  occ. eigenvalues --   -1.12759  -1.12734  -1.12603  -1.12574  -1.12519
 Alpha  occ. eigenvalues --   -0.19172  -0.13318  -0.12386  -0.11087
 Alpha virt. eigenvalues --   -0.05634  -0.04994  -0.04292  -0.03372  -0.02934
 Alpha virt. eigenvalues --   -0.02704  -0.01572  -0.00906  -0.00134  -0.00036
 Alpha virt. eigenvalues --    0.00040   0.00360   0.00830   0.00935   0.00953

  Beta  occ. eigenvalues --  -38.44089 -38.43783 -38.43477 -38.43349 -38.43305
  Beta  occ. eigenvalues --  -38.43220 -38.42975  -2.19940  -2.19664  -2.19347
  Beta  occ. eigenvalues --   -2.19250  -2.19231  -2.19096  -2.18895  -1.13628
  Beta  occ. eigenvalues --   -1.13593  -1.13568  -1.13352  -1.13333  -1.13299
  Beta  occ. eigenvalues --   -1.13097  -1.13042  -1.13013  -1.12991  -1.12965
  Beta  occ. eigenvalues --   -1.12902  -1.12883  -1.12871  -1.12846  -1.12769
  Beta  occ. eigenvalues --   -1.12738  -1.12727  -1.12589  -1.12525  -1.12513
  Beta  occ. eigenvalues --   -0.18424  -0.13055  -0.12118
  Beta virt. eigenvalues --   -0.07134  -0.05581  -0.04998  -0.04278  -0.02572
  Beta virt. eigenvalues --   -0.02114  -0.01632  -0.01467  -0.00853  -0.00123
  Beta virt. eigenvalues --   -0.00075   0.00120   0.00387   0.00886   0.00938

 Mulliken charges and spin densities:
               1          2
     1  Na   0.091931  -0.086839
     2  Na  -0.412301   0.536031
     3  Na   0.261252  -0.084019
     4  Na   0.115822   0.019675
     5  Na   0.085852  -0.045451
     6  Na   0.338561  -0.009868
     7  Na  -0.481117   0.670471
 Sum of Mulliken charges =  -0.00000   1.00000

 Dipole moment (field-independent basis, Debye):
    X=              0.2922    Y=             -0.0417    Z=              0.0392  Tot=              0.2978
 Quadrupole moment (field-independent basis, Debye-Ang):
   XX=            -55.9112   YY=            -65.7099   ZZ=            -72.5937
   XY=             -0.3582   XZ=              1.1066   YZ=             -0.0217

 Normal termination of Gaussian 16 at Thu Dec  7 07:24:02 2023.
