 Gaussian 16, Revision B.01,
 Gaussian 16:  ES64L-G16RevB.01 20-Dec-2017

 -------------------------
 #P B3LYP/6-311+g(d) force
 -------------------------

 -----
 DPGEN
 -----
 Symbolic Z-matrix:
 Charge =  0 Multiplicity = 2

                         Standard orientation:
 ---------------------------------------------------------------------
 Center     Atomic      Atomic             Coordinates (Angstroms)
 Number     Number       Type             X           Y           Z
 ---------------------------------------------------------------------
      1         11           0        0.209984   -0.002561   -1.816610
      2         11           0        0.497209   -2.539636   -0.076984
      3         11           0        2.655328   -0.467923    0.290802
      4         11           0        1.214635    2.357064   -0.191570
      5         11           0       -0.198619    0.142054    1.900953
      6         11           0       -1.930904    1.783800   -0.005973
      7         11           0       -2.447633   -1.272799   -0.100619
 ---------------------------------------------------------------------

 SCF Done:  E(UB3LYP) =  -1136.12991206     A.U. after   17 cycles

 The electronic state is 2-A.
 Alpha  occ. eigenvalues --  -38.43600 -38.43500 -38.43401 -38.43323 -38.43273
 Alpha  occ. eigenvalues --  -38.43155 -38.43125  -2.19635  -2.19577  -2.19372
 Alpha  occ. eigenvalues --   -2.19271  -2.19255  -2.19127  -2.19107  -1.13357
 Alpha  occ. eigenvalues --   -1.13309  -1.13277  -1.13265  -1.13256  -1.13210
 Alpha  occ. eigenvalues --   -1.13089  -1.13034  -1.13015  -1.13008  -1.12951
 Alpha  occ. eigenvalues --   -1.12931  -1.12919  -1.12898  -1.12835  -1.12796
 Alpha  occ. eigenvalues --   -1.12768  -1.12766  -1.12743  -1.12727  -1.12702
 Alpha  occ. eigenvalues --   -0.20159  -0.13254  -0.12948  -0.11576
 Alpha virt. eigenvalues --   -0.04903  -0.04725  -0.04512  -0.03409  -0.03201
 Alpha virt. eigenvalues --   -0.02863  -0.01009  -0.00827  -0.00060   0.00355
 Alpha virt. eigenvalues --    0.00372   0.00396   0.00984   0.01043   0.01047

  Beta  occ. eigenvalues --  -38.43511 -38.43415 -38.43391 -38.43317 -38.43265
  Beta  occ. eigenvalues --  -38.43145 -38.43117  -2.19474  -2.19422  -2.19358
  Beta  occ. eigenvalues --   -2.19264  -2.19244  -2.19115  -2.19097  -1.13266
  Beta  occ. eigenvalues --   -1.13213  -1.13174  -1.13161  -1.13145  -1.13113
  Beta  occ. eigenvalues --   -1.13073  -1.13023  -1.13001  -1.12958  -1.12944
  Beta  occ. eigenvalues --   -1.12920  -1.12877  -1.12850  -1.12833  -1.12780
  Beta  occ. eigenvalues --   -1.12756  -1.12727  -1.12723  -1.12703  -1.12697
  Beta  occ. eigenvalues --   -0.19365  -0.12955  -0.12637
  Beta virt. eigenvalues --   -0.07529  -0.04896  -0.04726  -0.04519  -0.02521
  Beta virt. eigenvalues --   -0.02324  -0.01752  -0.00943  -0.00770   0.00078
  Beta virt. eigenvalues --    0.00314   0.00319   0.00382   0.01020   0.01029

 Mulliken charges and spin densities:
               1          2
     1  Na  -0.852538   0.527980
     2  Na   0.338829  -0.016894
     3  Na   0.287617   0.012389
     4  Na   0.444608  -0.021457
     5  Na  -0.862392   0.575972
     6  Na   0.450461  -0.019023
     7  Na   0.193415  -0.058966
 Sum of Mulliken charges =  -0.00000   1.00000

 Dipole moment (field-independent basis, Debye):
    X=             -0.0295    Y=              0.0197    Z=              0.0921  Tot=              0.0987
 Quadrupole moment (field-independent basis, Debye-Ang):
   XX=            -61.3450   YY=            -64.2636   ZZ=            -70.3436
   XY=              0.3914   XZ=              0.9177   YZ=             -0.2641

 Normal termination of Gaussian 16 at Sat Dec  9 06:37:22 2023.
