 Gaussian 16, Revision B.01,
 Gaussian 16:  ES64L-G16RevB.01 20-Dec-2017

 -------------------------
 #P B3LYP/6-311+g(d) force
 -------------------------

 -----
 DPGEN
 -----
 Symbolic Z-matrix:
 Charge =  0 Multiplicity = 2

                         Standard orientation:
 ---------------------------------------------------------------------
 Center     Atomic      Atomic             Coordinates (Angstroms)
 Number     Number       Type             X           Y           Z
 ---------------------------------------------------------------------
      1         11           0        1.833259    2.341713   -0.191813
      2         11           0       -3.009104   -0.676145   -0.588296
      3         11           0        0.265914   -0.131002    1.897820
      4         11           0        2.754838   -1.403664   -0.202535
      5         11           0       -0.474986   -2.725874    0.170848
      6         11           0        0.335942    0.345803   -1.536270
      7         11           0       -1.705864    2.249170    0.450247
 ---------------------------------------------------------------------

 SCF Done:  E(UB3LYP) =  -1136.13525385     A.U. after   18 cycles

 The electronic state is 2-A.
 Alpha  occ. eigenvalues --  -38.43892 -38.43783 -38.43578 -38.43526 -38.43336
 Alpha  occ. eigenvalues --  -38.43322 -38.43162  -2.19746  -2.19682  -2.19423
 Alpha  occ. eigenvalues --   -2.19400  -2.19285  -2.19223  -2.19211  -1.13516
 Alpha  occ. eigenvalues --   -1.13439  -1.13411  -1.13374  -1.13321  -1.13277
 Alpha  occ. eigenvalues --   -1.13120  -1.13097  -1.13087  -1.13075  -1.13057
 Alpha  occ. eigenvalues --   -1.13008  -1.13006  -1.12940  -1.12896  -1.12886
 Alpha  occ. eigenvalues --   -1.12862  -1.12855  -1.12834  -1.12826  -1.12806
 Alpha  occ. eigenvalues --   -0.19069  -0.12993  -0.12776  -0.10800
 Alpha virt. eigenvalues --   -0.05449  -0.05107  -0.04657  -0.03112  -0.03053
 Alpha virt. eigenvalues --   -0.02392  -0.01419  -0.01152  -0.00261  -0.00089
 Alpha virt. eigenvalues --    0.00060   0.00355   0.00879   0.00890   0.00937

  Beta  occ. eigenvalues --  -38.43887 -38.43775 -38.43566 -38.43514 -38.43329
  Beta  occ. eigenvalues --  -38.43232 -38.43102  -2.19740  -2.19672  -2.19403
  Beta  occ. eigenvalues --   -2.19382  -2.19214  -2.19119  -2.19103  -1.13495
  Beta  occ. eigenvalues --   -1.13428  -1.13395  -1.13365  -1.13297  -1.13268
  Beta  occ. eigenvalues --   -1.13109  -1.13083  -1.13058  -1.13052  -1.13031
  Beta  occ. eigenvalues --   -1.12996  -1.12949  -1.12866  -1.12845  -1.12835
  Beta  occ. eigenvalues --   -1.12787  -1.12780  -1.12756  -1.12755  -1.12726
  Beta  occ. eigenvalues --   -0.18357  -0.12716  -0.12507
  Beta virt. eigenvalues --   -0.06903  -0.05440  -0.05019  -0.04627  -0.02372
  Beta virt. eigenvalues --   -0.02242  -0.01367  -0.01336  -0.01087  -0.00241
  Beta virt. eigenvalues --   -0.00127   0.00156   0.00385   0.00875   0.00913

 Mulliken charges and spin densities:
               1          2
     1  Na   0.262063  -0.070501
     2  Na  -0.069495   0.005683
     3  Na  -0.203473   0.543715
     4  Na   0.067139  -0.097569
     5  Na   0.147966   0.038349
     6  Na  -0.365486   0.483151
     7  Na   0.161286   0.097171
 Sum of Mulliken charges =  -0.00000   1.00000

 Dipole moment (field-independent basis, Debye):
    X=              0.2733    Y=              0.0317    Z=              0.1300  Tot=              0.3042
 Quadrupole moment (field-independent basis, Debye-Ang):
   XX=            -57.4007   YY=            -61.7234   ZZ=            -74.1115
   XY=             -0.5373   XZ=              0.3602   YZ=              1.2912

 Normal termination of Gaussian 16 at Tue Dec  5 11:24:35 2023.
