 Gaussian 16, Revision B.01,
 Gaussian 16:  ES64L-G16RevB.01 20-Dec-2017

 -------------------------
 #P B3LYP/6-311+g(d) force
 -------------------------

 -----
 DPGEN
 -----
 Symbolic Z-matrix:
 Charge =  0 Multiplicity = 2

                         Standard orientation:
 ---------------------------------------------------------------------
 Center     Atomic      Atomic             Coordinates (Angstroms)
 Number     Number       Type             X           Y           Z
 ---------------------------------------------------------------------
      1         11           0       -2.753056    1.449059   -0.868810
      2         11           0       -0.338685   -0.311070    1.895578
      3         11           0       -3.396439   -1.694076    0.601469
      4         11           0        0.425042    3.015907    0.171966
      5         11           0       -0.214962   -1.183129   -1.742244
      6         11           0        3.320086    1.023034    0.046444
      7         11           0        2.958013   -2.299725   -0.104405
 ---------------------------------------------------------------------

 SCF Done:  E(UB3LYP) =  -1136.12381270     A.U. after   21 cycles

 The electronic state is 2-A.
 Alpha  occ. eigenvalues --  -38.44807 -38.44671 -38.44527 -38.44527 -38.44384
 Alpha  occ. eigenvalues --  -38.43913 -38.42657  -2.20592  -2.20462  -2.20340
 Alpha  occ. eigenvalues --   -2.20318  -2.20193  -2.19700  -2.18452  -1.14278
 Alpha  occ. eigenvalues --   -1.14251  -1.14230  -1.14135  -1.14121  -1.14099
 Alpha  occ. eigenvalues --   -1.14029  -1.13999  -1.13984  -1.13980  -1.13943
 Alpha  occ. eigenvalues --   -1.13919  -1.13864  -1.13843  -1.13818  -1.13370
 Alpha  occ. eigenvalues --   -1.13364  -1.13345  -1.12129  -1.12122  -1.12100
 Alpha  occ. eigenvalues --   -0.17432  -0.13610  -0.11682  -0.10541
 Alpha virt. eigenvalues --   -0.06790  -0.06001  -0.04439  -0.03378  -0.02589
 Alpha virt. eigenvalues --   -0.02540  -0.02337  -0.01628  -0.00950  -0.00359
 Alpha virt. eigenvalues --   -0.00247   0.00202   0.00428   0.00527   0.00625

  Beta  occ. eigenvalues --  -38.44808 -38.44652 -38.44472 -38.44452 -38.44348
  Beta  occ. eigenvalues --  -38.43917 -38.42660  -2.20595  -2.20431  -2.20217
  Beta  occ. eigenvalues --   -2.20200  -2.20129  -2.19709  -2.18460  -1.14276
  Beta  occ. eigenvalues --   -1.14253  -1.14235  -1.14116  -1.14083  -1.14072
  Beta  occ. eigenvalues --   -1.13947  -1.13917  -1.13905  -1.13890  -1.13846
  Beta  occ. eigenvalues --   -1.13837  -1.13807  -1.13797  -1.13778  -1.13378
  Beta  occ. eigenvalues --   -1.13364  -1.13349  -1.12134  -1.12127  -1.12096
  Beta  occ. eigenvalues --   -0.16787  -0.13455  -0.11471
  Beta virt. eigenvalues --   -0.06847  -0.06578  -0.05814  -0.04241  -0.02918
  Beta virt. eigenvalues --   -0.02241  -0.01980  -0.01778  -0.01313  -0.00948
  Beta virt. eigenvalues --   -0.00290  -0.00053   0.00257   0.00600   0.00661

 Mulliken charges and spin densities:
               1          2
     1  Na   0.089609   0.231423
     2  Na  -0.260608   0.523895
     3  Na   0.265063   0.040953
     4  Na  -0.005509  -0.076285
     5  Na  -0.245567   0.337675
     6  Na  -0.151464  -0.005974
     7  Na   0.308476  -0.051688
 Sum of Mulliken charges =  -0.00000   1.00000

 Dipole moment (field-independent basis, Debye):
    X=             -0.2972    Y=             -0.6758    Z=             -0.0340  Tot=              0.7390
 Quadrupole moment (field-independent basis, Debye-Ang):
   XX=            -50.7545   YY=            -69.5886   ZZ=            -75.1493
   XY=              0.8918   XZ=              0.9685   YZ=             -1.4977

 Normal termination of Gaussian 16 at Fri Dec  8 07:03:51 2023.
