 Gaussian 16, Revision B.01,
 Gaussian 16:  ES64L-G16RevB.01 20-Dec-2017

 -------------------------
 #P B3LYP/6-311+g(d) force
 -------------------------

 -----
 DPGEN
 -----
 Symbolic Z-matrix:
 Charge =  0 Multiplicity = 2

                         Standard orientation:
 ---------------------------------------------------------------------
 Center     Atomic      Atomic             Coordinates (Angstroms)
 Number     Number       Type             X           Y           Z
 ---------------------------------------------------------------------
      1         11           0        2.170673    2.239798    0.128854
      2         11           0       -1.094483    2.516994   -0.067707
      3         11           0        2.781005   -1.171029   -0.295971
      4         11           0       -0.465340   -2.810442   -0.223470
      5         11           0       -0.076618   -0.618792    2.384296
      6         11           0       -0.028815   -0.221041   -1.774822
      7         11           0       -3.286423    0.064512   -0.151180
 ---------------------------------------------------------------------

 SCF Done:  E(UB3LYP) =  -1136.13480054     A.U. after   19 cycles

 The electronic state is 2-A.
 Alpha  occ. eigenvalues --  -38.44342 -38.44054 -38.43960 -38.43621 -38.43522
 Alpha  occ. eigenvalues --  -38.43388 -38.43201  -2.20171  -2.19861  -2.19796
 Alpha  occ. eigenvalues --   -2.19585  -2.19395  -2.19214  -2.19071  -1.13814
 Alpha  occ. eigenvalues --   -1.13801  -1.13790  -1.13535  -1.13528  -1.13499
 Alpha  occ. eigenvalues --   -1.13496  -1.13458  -1.13425  -1.13324  -1.13243
 Alpha  occ. eigenvalues --   -1.13192  -1.13057  -1.13051  -1.12999  -1.12904
 Alpha  occ. eigenvalues --   -1.12875  -1.12862  -1.12752  -1.12731  -1.12695
 Alpha  occ. eigenvalues --   -0.18404  -0.12780  -0.12502  -0.11217
 Alpha virt. eigenvalues --   -0.05706  -0.04976  -0.04615  -0.03283  -0.03184
 Alpha virt. eigenvalues --   -0.03022  -0.01517  -0.00978  -0.00333  -0.00154
 Alpha virt. eigenvalues --   -0.00089   0.00354   0.00795   0.00864   0.00919

  Beta  occ. eigenvalues --  -38.44232 -38.44054 -38.43954 -38.43557 -38.43514
  Beta  occ. eigenvalues --  -38.43388 -38.43198  -2.19968  -2.19863  -2.19788
  Beta  occ. eigenvalues --   -2.19470  -2.19384  -2.19216  -2.19068  -1.13680
  Beta  occ. eigenvalues --   -1.13657  -1.13648  -1.13539  -1.13513  -1.13502
  Beta  occ. eigenvalues --   -1.13481  -1.13438  -1.13424  -1.13263  -1.13161
  Beta  occ. eigenvalues --   -1.13108  -1.13039  -1.13008  -1.12995  -1.12907
  Beta  occ. eigenvalues --   -1.12867  -1.12862  -1.12746  -1.12716  -1.12696
  Beta  occ. eigenvalues --   -0.17681  -0.12590  -0.12288
  Beta virt. eigenvalues --   -0.07210  -0.05695  -0.04932  -0.04513  -0.02447
  Beta virt. eigenvalues --   -0.02399  -0.02020  -0.01439  -0.00922  -0.00401
  Beta virt. eigenvalues --   -0.00179   0.00088   0.00392   0.00836   0.00893

 Mulliken charges and spin densities:
               1          2
     1  Na  -0.083233  -0.000193
     2  Na   0.001725   0.025530
     3  Na   0.261814   0.021703
     4  Na   0.323583  -0.038911
     5  Na  -0.672467   0.728748
     6  Na  -0.009613   0.304060
     7  Na   0.178191  -0.040937
 Sum of Mulliken charges =  -0.00000   1.00000

 Dipole moment (field-independent basis, Debye):
    X=             -0.0809    Y=             -0.3562    Z=              0.2142  Tot=              0.4234
 Quadrupole moment (field-independent basis, Debye-Ang):
   XX=            -58.3486   YY=            -65.6084   ZZ=            -71.7593
   XY=              0.3144   XZ=              0.1162   YZ=              0.7513

 Normal termination of Gaussian 16 at Thu Dec  7 20:29:04 2023.
