 Gaussian 16, Revision B.01,
 Gaussian 16:  ES64L-G16RevB.01 20-Dec-2017

 -------------------------
 #P B3LYP/6-311+g(d) force
 -------------------------

 -----
 DPGEN
 -----
 Symbolic Z-matrix:
 Charge =  0 Multiplicity = 2

                         Standard orientation:
 ---------------------------------------------------------------------
 Center     Atomic      Atomic             Coordinates (Angstroms)
 Number     Number       Type             X           Y           Z
 ---------------------------------------------------------------------
      1         11           0        1.600074    2.111090   -0.374792
      2         11           0       -2.074691   -1.903583   -0.716915
      3         11           0       -3.760841    0.432841    1.469871
      4         11           0       -1.494971    1.372104   -1.347012
      5         11           0        1.661208   -1.092258   -1.715094
      6         11           0        3.946603   -0.450013    1.345861
      7         11           0        0.122618   -0.470179    1.338081
 ---------------------------------------------------------------------

 SCF Done:  E(UB3LYP) =  -1136.12296601     A.U. after   28 cycles

 The electronic state is 2-A.
 Alpha  occ. eigenvalues --  -38.44792 -38.44482 -38.44478 -38.44447 -38.43620
 Alpha  occ. eigenvalues --  -38.43389 -38.42742  -2.20627  -2.20348  -2.20313
 Alpha  occ. eigenvalues --   -2.20268  -2.19393  -2.19271  -2.18627  -1.14323
 Alpha  occ. eigenvalues --   -1.14278  -1.14228  -1.14101  -1.14035  -1.13999
 Alpha  occ. eigenvalues --   -1.13977  -1.13935  -1.13928  -1.13927  -1.13905
 Alpha  occ. eigenvalues --   -1.13870  -1.13069  -1.13064  -1.13020  -1.12972
 Alpha  occ. eigenvalues --   -1.12922  -1.12868  -1.12320  -1.12306  -1.12234
 Alpha  occ. eigenvalues --   -0.18341  -0.13885  -0.11474  -0.10627
 Alpha virt. eigenvalues --   -0.06597  -0.05569  -0.04795  -0.03132  -0.02626
 Alpha virt. eigenvalues --   -0.02324  -0.02161  -0.01501  -0.00864  -0.00305
 Alpha virt. eigenvalues --    0.00065   0.00257   0.00343   0.00448   0.00532

  Beta  occ. eigenvalues --  -38.44748 -38.44471 -38.44443 -38.44398 -38.43619
  Beta  occ. eigenvalues --  -38.43356 -38.42729  -2.20547  -2.20334  -2.20225
  Beta  occ. eigenvalues --   -2.20203  -2.19391  -2.19209  -2.18607  -1.14266
  Beta  occ. eigenvalues --   -1.14212  -1.14171  -1.14050  -1.14027  -1.13957
  Beta  occ. eigenvalues --   -1.13923  -1.13903  -1.13888  -1.13878  -1.13851
  Beta  occ. eigenvalues --   -1.13808  -1.13065  -1.13060  -1.13019  -1.12926
  Beta  occ. eigenvalues --   -1.12884  -1.12821  -1.12304  -1.12273  -1.12221
  Beta  occ. eigenvalues --   -0.17615  -0.13664  -0.10464
  Beta virt. eigenvalues --   -0.07617  -0.06352  -0.05187  -0.04428  -0.02710
  Beta virt. eigenvalues --   -0.02454  -0.01874  -0.01724  -0.01167  -0.00536
  Beta virt. eigenvalues --   -0.00147   0.00108   0.00339   0.00455   0.00540

 Mulliken charges and spin densities:
               1          2
     1  Na   0.062147   0.007055
     2  Na   0.379135   0.214808
     3  Na   0.260520   0.072202
     4  Na  -0.207898   0.275517
     5  Na  -0.017753   0.193894
     6  Na   0.301350  -0.023371
     7  Na  -0.777500   0.259895
 Sum of Mulliken charges =  -0.00000   1.00000

 Dipole moment (field-independent basis, Debye):
    X=             -0.3653    Y=             -0.0843    Z=             -0.5696  Tot=              0.6819
 Quadrupole moment (field-independent basis, Debye-Ang):
   XX=            -54.3199   YY=            -70.4896   ZZ=            -71.3507
   XY=              0.0154   XZ=             -2.3670   YZ=              7.1699

 Normal termination of Gaussian 16 at Wed Nov 29 16:52:21 2023.
