 Gaussian 16, Revision B.01,
 Gaussian 16:  ES64L-G16RevB.01 20-Dec-2017

 -------------------------
 #P B3LYP/6-311+g(d) force
 -------------------------

 -----
 DPGEN
 -----
 Symbolic Z-matrix:
 Charge =  0 Multiplicity = 2

                         Standard orientation:
 ---------------------------------------------------------------------
 Center     Atomic      Atomic             Coordinates (Angstroms)
 Number     Number       Type             X           Y           Z
 ---------------------------------------------------------------------
      1         11           0        3.103410   -1.060367   -0.142782
      2         11           0        0.217701   -3.018563   -0.253399
      3         11           0       -2.109811    2.305098   -0.363889
      4         11           0       -3.117191   -1.217979    0.504790
      5         11           0        0.438673    0.301747    1.968134
      6         11           0       -0.314439   -0.042651   -1.666152
      7         11           0        1.781658    2.732716   -0.046701
 ---------------------------------------------------------------------

 SCF Done:  E(UB3LYP) =  -1136.13519453     A.U. after   19 cycles

 The electronic state is 2-A.
 Alpha  occ. eigenvalues --  -38.44177 -38.44081 -38.43980 -38.43979 -38.43611
 Alpha  occ. eigenvalues --  -38.43568 -38.43273  -2.19971  -2.19860  -2.19794
 Alpha  occ. eigenvalues --   -2.19770  -2.19471  -2.19393  -2.19196  -1.13651
 Alpha  occ. eigenvalues --   -1.13631  -1.13611  -1.13529  -1.13511  -1.13509
 Alpha  occ. eigenvalues --   -1.13497  -1.13455  -1.13449  -1.13433  -1.13415
 Alpha  occ. eigenvalues --   -1.13400  -1.13144  -1.13102  -1.13094  -1.13086
 Alpha  occ. eigenvalues --   -1.13054  -1.13018  -1.12878  -1.12832  -1.12812
 Alpha  occ. eigenvalues --   -0.18002  -0.12746  -0.12457  -0.10377
 Alpha virt. eigenvalues --   -0.05688  -0.05574  -0.04966  -0.03099  -0.02894
 Alpha virt. eigenvalues --   -0.02321  -0.01604  -0.01409  -0.00719  -0.00615
 Alpha virt. eigenvalues --   -0.00021   0.00340   0.00763   0.00784   0.00828

  Beta  occ. eigenvalues --  -38.44175 -38.44067 -38.43980 -38.43968 -38.43562
  Beta  occ. eigenvalues --  -38.43530 -38.43210  -2.19971  -2.19835  -2.19777
  Beta  occ. eigenvalues --   -2.19771  -2.19386  -2.19321  -2.19081  -1.13641
  Beta  occ. eigenvalues --   -1.13630  -1.13605  -1.13501  -1.13496  -1.13494
  Beta  occ. eigenvalues --   -1.13475  -1.13444  -1.13433  -1.13427  -1.13408
  Beta  occ. eigenvalues --   -1.13395  -1.13083  -1.13046  -1.13039  -1.13010
  Beta  occ. eigenvalues --   -1.12999  -1.12976  -1.12798  -1.12745  -1.12735
  Beta  occ. eigenvalues --   -0.17322  -0.12512  -0.12219
  Beta virt. eigenvalues --   -0.06630  -0.05691  -0.05416  -0.04891  -0.02401
  Beta virt. eigenvalues --   -0.02182  -0.01499  -0.01375  -0.01280  -0.00755
  Beta virt. eigenvalues --   -0.00649   0.00121   0.00376   0.00776   0.00816

 Mulliken charges and spin densities:
               1          2
     1  Na   0.026973  -0.118917
     2  Na   0.081147  -0.028128
     3  Na   0.124868  -0.051043
     4  Na  -0.098879   0.079259
     5  Na  -0.276417   0.798336
     6  Na   0.116284   0.480241
     7  Na   0.026023  -0.159747
 Sum of Mulliken charges =  -0.00000   1.00000

 Dipole moment (field-independent basis, Debye):
    X=              0.1306    Y=              0.1572    Z=              0.0562  Tot=              0.2119
 Quadrupole moment (field-independent basis, Debye-Ang):
   XX=            -56.1934   YY=            -60.4321   ZZ=            -76.0033
   XY=              0.3504   XZ=             -1.9352   YZ=             -1.0203

 Normal termination of Gaussian 16 at Thu Dec  7 10:10:24 2023.
