 Gaussian 16, Revision B.01,
 Gaussian 16:  ES64L-G16RevB.01 20-Dec-2017

 -------------------------
 #P B3LYP/6-311+g(d) force
 -------------------------

 -----
 DPGEN
 -----
 Symbolic Z-matrix:
 Charge =  0 Multiplicity = 2

                         Standard orientation:
 ---------------------------------------------------------------------
 Center     Atomic      Atomic             Coordinates (Angstroms)
 Number     Number       Type             X           Y           Z
 ---------------------------------------------------------------------
      1         11           0        0.303289   -0.221371   -1.789760
      2         11           0       -0.198280   -0.043124    1.948290
      3         11           0       -0.891581   -2.683688    0.159567
      4         11           0        2.672364   -1.551699   -0.004507
      5         11           0        2.158918    1.894455    0.028539
      6         11           0       -3.015147   -0.203991   -0.337218
      7         11           0       -1.029562    2.809418   -0.004912
 ---------------------------------------------------------------------

 SCF Done:  E(UB3LYP) =  -1136.14103205     A.U. after   19 cycles

 The electronic state is 2-A.
 Alpha  occ. eigenvalues --  -38.43715 -38.43648 -38.43512 -38.43466 -38.43430
 Alpha  occ. eigenvalues --  -38.43365 -38.43317  -2.19564  -2.19497  -2.19394
 Alpha  occ. eigenvalues --   -2.19388  -2.19322  -2.19279  -2.19210  -1.13243
 Alpha  occ. eigenvalues --   -1.13229  -1.13212  -1.13200  -1.13162  -1.13139
 Alpha  occ. eigenvalues --   -1.13095  -1.13091  -1.13068  -1.13032  -1.13024
 Alpha  occ. eigenvalues --   -1.13010  -1.13007  -1.12963  -1.12941  -1.12935
 Alpha  occ. eigenvalues --   -1.12897  -1.12891  -1.12874  -1.12864  -1.12848
 Alpha  occ. eigenvalues --   -0.18886  -0.12980  -0.12634  -0.10870
 Alpha virt. eigenvalues --   -0.05290  -0.05104  -0.04845  -0.03216  -0.02998
 Alpha virt. eigenvalues --   -0.02600  -0.01330  -0.01091  -0.00260  -0.00209
 Alpha virt. eigenvalues --   -0.00010   0.00376   0.00857   0.00913   0.00923

  Beta  occ. eigenvalues --  -38.43708 -38.43645 -38.43507 -38.43421 -38.43377
  Beta  occ. eigenvalues --  -38.43363 -38.43244  -2.19553  -2.19495  -2.19384
  Beta  occ. eigenvalues --   -2.19311  -2.19231  -2.19209  -2.19146  -1.13237
  Beta  occ. eigenvalues --   -1.13209  -1.13198  -1.13190  -1.13150  -1.13130
  Beta  occ. eigenvalues --   -1.13084  -1.13035  -1.13032  -1.13022  -1.12969
  Beta  occ. eigenvalues --   -1.12943  -1.12935  -1.12898  -1.12885  -1.12865
  Beta  occ. eigenvalues --   -1.12855  -1.12852  -1.12845  -1.12806  -1.12793
  Beta  occ. eigenvalues --   -0.18137  -0.12731  -0.12397
  Beta virt. eigenvalues --   -0.06946  -0.05267  -0.05111  -0.04785  -0.02396
  Beta virt. eigenvalues --   -0.02213  -0.01547  -0.01246  -0.01021  -0.00316
  Beta virt. eigenvalues --   -0.00261   0.00120   0.00392   0.00900   0.00904

 Mulliken charges and spin densities:
               1          2
     1  Na  -0.321383   0.650917
     2  Na  -0.393225   0.720370
     3  Na   0.293228  -0.057299
     4  Na   0.237374  -0.099422
     5  Na   0.118598  -0.087168
     6  Na   0.051981  -0.042742
     7  Na   0.013427  -0.084655
 Sum of Mulliken charges =  -0.00000   1.00000

 Dipole moment (field-independent basis, Debye):
    X=              0.0211    Y=             -0.0805    Z=              0.0402  Tot=              0.0925
 Quadrupole moment (field-independent basis, Debye-Ang):
   XX=            -58.5781   YY=            -61.8818   ZZ=            -73.5289
   XY=             -0.7123   XZ=              1.2667   YZ=             -0.4194

 Normal termination of Gaussian 16 at Tue Dec  5 16:44:13 2023.
