 Gaussian 16, Revision B.01,
 Gaussian 16:  ES64L-G16RevB.01 20-Dec-2017

 -------------------------
 #P B3LYP/6-311+g(d) force
 -------------------------

 -----
 DPGEN
 -----
 Symbolic Z-matrix:
 Charge =  0 Multiplicity = 2

                         Standard orientation:
 ---------------------------------------------------------------------
 Center     Atomic      Atomic             Coordinates (Angstroms)
 Number     Number       Type             X           Y           Z
 ---------------------------------------------------------------------
      1         11           0        0.853058    2.919838   -0.330157
      2         11           0       -0.341179    0.053879   -1.549488
      3         11           0        3.796836    0.007841    0.263730
      4         11           0        1.071807   -2.844292   -0.425051
      5         11           0        0.099931    0.025914    1.691108
      6         11           0       -2.769082   -1.755695    0.228339
      7         11           0       -2.711371    1.592516    0.121519
 ---------------------------------------------------------------------

 SCF Done:  E(UB3LYP) =  -1136.13026270     A.U. after   22 cycles

 The electronic state is 2-A.
 Alpha  occ. eigenvalues --  -38.45122 -38.44005 -38.43975 -38.43722 -38.43571
 Alpha  occ. eigenvalues --  -38.43436 -38.42810  -2.20853  -2.19867  -2.19805
 Alpha  occ. eigenvalues --   -2.19619  -2.19374  -2.19254  -2.18800  -1.14531
 Alpha  occ. eigenvalues --   -1.14506  -1.14483  -1.13570  -1.13538  -1.13509
 Alpha  occ. eigenvalues --   -1.13475  -1.13454  -1.13430  -1.13343  -1.13254
 Alpha  occ. eigenvalues --   -1.13218  -1.13061  -1.13040  -1.12993  -1.12946
 Alpha  occ. eigenvalues --   -1.12920  -1.12875  -1.12500  -1.12433  -1.12400
 Alpha  occ. eigenvalues --   -0.18292  -0.12988  -0.12215  -0.10062
 Alpha virt. eigenvalues --   -0.06540  -0.05245  -0.04757  -0.02954  -0.02567
 Alpha virt. eigenvalues --   -0.02254  -0.01913  -0.01354  -0.00740  -0.00581
 Alpha virt. eigenvalues --   -0.00051   0.00253   0.00656   0.00748   0.00791

  Beta  occ. eigenvalues --  -38.45113 -38.43997 -38.43968 -38.43665 -38.43557
  Beta  occ. eigenvalues --  -38.43428 -38.42738  -2.20837  -2.19856  -2.19795
  Beta  occ. eigenvalues --   -2.19515  -2.19350  -2.19241  -2.18669  -1.14511
  Beta  occ. eigenvalues --   -1.14497  -1.14473  -1.13566  -1.13516  -1.13491
  Beta  occ. eigenvalues --   -1.13455  -1.13447  -1.13411  -1.13267  -1.13186
  Beta  occ. eigenvalues --   -1.13137  -1.13037  -1.13016  -1.12977  -1.12930
  Beta  occ. eigenvalues --   -1.12902  -1.12864  -1.12408  -1.12346  -1.12297
  Beta  occ. eigenvalues --   -0.17635  -0.12723  -0.11926
  Beta virt. eigenvalues --   -0.06574  -0.06154  -0.05259  -0.04680  -0.02339
  Beta virt. eigenvalues --   -0.02068  -0.01884  -0.01299  -0.01013  -0.00743
  Beta virt. eigenvalues --   -0.00588   0.00110   0.00312   0.00707   0.00797

 Mulliken charges and spin densities:
               1          2
     1  Na  -0.075093  -0.080526
     2  Na   0.178982   0.435659
     3  Na  -0.098821   0.002824
     4  Na  -0.104990  -0.042883
     5  Na  -0.245716   0.635986
     6  Na   0.100885   0.027786
     7  Na   0.244755   0.021154
 Sum of Mulliken charges =  -0.00000   1.00000

 Dipole moment (field-independent basis, Debye):
    X=              0.2596    Y=              0.0246    Z=              0.0716  Tot=              0.2704
 Quadrupole moment (field-independent basis, Debye-Ang):
   XX=            -50.9833   YY=            -62.4035   ZZ=            -77.2381
   XY=              0.4315   XZ=             -0.7585   YZ=             -0.0786

 Normal termination of Gaussian 16 at Thu Dec  7 15:16:38 2023.
