 Gaussian 16, Revision B.01,
 Gaussian 16:  ES64L-G16RevB.01 20-Dec-2017

 -------------------------
 #P B3LYP/6-311+g(d) force
 -------------------------

 -----
 DPGEN
 -----
 Symbolic Z-matrix:
 Charge =  0 Multiplicity = 2

                         Standard orientation:
 ---------------------------------------------------------------------
 Center     Atomic      Atomic             Coordinates (Angstroms)
 Number     Number       Type             X           Y           Z
 ---------------------------------------------------------------------
      1         11           0        4.033089    0.724173   -0.324906
      2         11           0        0.740986    1.875542   -0.300971
      3         11           0       -1.105965    0.387355    1.928716
      4         11           0       -2.395356    2.163062   -0.321479
      5         11           0       -2.584996   -1.597674   -0.384620
      6         11           0        1.442755   -2.093935    1.159563
      7         11           0       -0.130513   -1.458522   -1.756303
 ---------------------------------------------------------------------

 SCF Done:  E(UB3LYP) =  -1136.12130985     A.U. after   21 cycles

 The electronic state is 2-A.
 Alpha  occ. eigenvalues --  -38.44754 -38.44228 -38.44221 -38.43812 -38.43724
 Alpha  occ. eigenvalues --  -38.43704 -38.43194  -2.20502  -2.20117  -2.20036
 Alpha  occ. eigenvalues --   -2.19726  -2.19672  -2.19586  -2.19089  -1.14172
 Alpha  occ. eigenvalues --   -1.14170  -1.14132  -1.13959  -1.13762  -1.13720
 Alpha  occ. eigenvalues --   -1.13711  -1.13709  -1.13642  -1.13382  -1.13362
 Alpha  occ. eigenvalues --   -1.13350  -1.13341  -1.13331  -1.13295  -1.13271
 Alpha  occ. eigenvalues --   -1.13209  -1.13186  -1.12787  -1.12773  -1.12686
 Alpha  occ. eigenvalues --   -0.18477  -0.13033  -0.12240  -0.11064
 Alpha virt. eigenvalues --   -0.06581  -0.05292  -0.03760  -0.03558  -0.03027
 Alpha virt. eigenvalues --   -0.02547  -0.02147  -0.01262  -0.00502  -0.00178
 Alpha virt. eigenvalues --    0.00175   0.00209   0.00401   0.00696   0.00770

  Beta  occ. eigenvalues --  -38.44754 -38.44204 -38.44188 -38.43766 -38.43700
  Beta  occ. eigenvalues --  -38.43651 -38.43182  -2.20503  -2.20091  -2.19965
  Beta  occ. eigenvalues --   -2.19643  -2.19580  -2.19536  -2.19068  -1.14173
  Beta  occ. eigenvalues --   -1.14166  -1.14133  -1.13922  -1.13731  -1.13697
  Beta  occ. eigenvalues --   -1.13668  -1.13643  -1.13595  -1.13328  -1.13310
  Beta  occ. eigenvalues --   -1.13279  -1.13269  -1.13267  -1.13252  -1.13216
  Beta  occ. eigenvalues --   -1.13196  -1.13120  -1.12768  -1.12742  -1.12675
  Beta  occ. eigenvalues --   -0.17773  -0.12879  -0.11967
  Beta virt. eigenvalues --   -0.07189  -0.06432  -0.05115  -0.03606  -0.03029
  Beta virt. eigenvalues --   -0.02392  -0.02086  -0.01582  -0.01173  -0.00358
  Beta virt. eigenvalues --   -0.00001   0.00209   0.00254   0.00566   0.00735

 Mulliken charges and spin densities:
               1          2
     1  Na   0.336777  -0.078377
     2  Na  -0.837361   0.095656
     3  Na   0.116650   0.428841
     4  Na   0.394384   0.120394
     5  Na   0.268442   0.049391
     6  Na  -0.150271   0.046395
     7  Na  -0.128620   0.337700
 Sum of Mulliken charges =  -0.00000   1.00000

 Dipole moment (field-independent basis, Debye):
    X=              0.1979    Y=             -0.2048    Z=              0.0694  Tot=              0.2932
 Quadrupole moment (field-independent basis, Debye-Ang):
   XX=            -51.7185   YY=            -71.3186   ZZ=            -71.3563
   XY=             -2.5304   XZ=              0.0820   YZ=             -2.9073

 Normal termination of Gaussian 16 at Tue Dec  5 16:05:57 2023.
