 Gaussian 16, Revision B.01,
 Gaussian 16:  ES64L-G16RevB.01 20-Dec-2017

 -------------------------
 #P B3LYP/6-311+g(d) force
 -------------------------

 -----
 DPGEN
 -----
 Symbolic Z-matrix:
 Charge =  0 Multiplicity = 2

                         Standard orientation:
 ---------------------------------------------------------------------
 Center     Atomic      Atomic             Coordinates (Angstroms)
 Number     Number       Type             X           Y           Z
 ---------------------------------------------------------------------
      1         11           0       -3.111653    0.095777    0.086409
      2         11           0       -1.431919   -2.100791    0.468781
      3         11           0       -0.739721    2.808208   -0.051723
      4         11           0        1.554193   -2.062496   -0.655286
      5         11           0        2.941669    0.832022   -0.166211
      6         11           0        0.949358    0.174865    2.214323
      7         11           0       -0.161928    0.252416   -1.896293
 ---------------------------------------------------------------------

 SCF Done:  E(UB3LYP) =  -1136.12775148     A.U. after   19 cycles

 The electronic state is 2-A.
 Alpha  occ. eigenvalues --  -38.44384 -38.44300 -38.44226 -38.43767 -38.43265
 Alpha  occ. eigenvalues --  -38.43220 -38.43105  -2.20257  -2.20184  -2.20092
 Alpha  occ. eigenvalues --   -2.19735  -2.19203  -2.19053  -2.19048  -1.13977
 Alpha  occ. eigenvalues --   -1.13949  -1.13898  -1.13868  -1.13824  -1.13789
 Alpha  occ. eigenvalues --   -1.13762  -1.13748  -1.13717  -1.13425  -1.13395
 Alpha  occ. eigenvalues --   -1.13349  -1.12905  -1.12870  -1.12828  -1.12740
 Alpha  occ. eigenvalues --   -1.12729  -1.12711  -1.12675  -1.12669  -1.12668
 Alpha  occ. eigenvalues --   -0.18968  -0.13403  -0.12126  -0.11593
 Alpha virt. eigenvalues --   -0.05900  -0.04645  -0.04187  -0.03774  -0.03228
 Alpha virt. eigenvalues --   -0.03064  -0.01469  -0.00727  -0.00164  -0.00061
 Alpha virt. eigenvalues --    0.00196   0.00395   0.00693   0.00872   0.00938

  Beta  occ. eigenvalues --  -38.44299 -38.44293 -38.44221 -38.43691 -38.43244
  Beta  occ. eigenvalues --  -38.43218 -38.43095  -2.20184  -2.20091  -2.20085
  Beta  occ. eigenvalues --   -2.19598  -2.19170  -2.19047  -2.19037  -1.13978
  Beta  occ. eigenvalues --   -1.13863  -1.13811  -1.13791  -1.13781  -1.13755
  Beta  occ. eigenvalues --   -1.13745  -1.13717  -1.13695  -1.13334  -1.13293
  Beta  occ. eigenvalues --   -1.13252  -1.12885  -1.12833  -1.12791  -1.12731
  Beta  occ. eigenvalues --   -1.12722  -1.12702  -1.12670  -1.12666  -1.12632
  Beta  occ. eigenvalues --   -0.18202  -0.13162  -0.11893
  Beta virt. eigenvalues --   -0.07626  -0.05795  -0.04595  -0.04115  -0.03024
  Beta virt. eigenvalues --   -0.02317  -0.02144  -0.01403  -0.00665  -0.00109
  Beta virt. eigenvalues --    0.00032   0.00181   0.00426   0.00900   0.00932

 Mulliken charges and spin densities:
               1          2
     1  Na   0.025179  -0.039249
     2  Na   0.018487   0.110084
     3  Na   0.006023  -0.064490
     4  Na   0.366570   0.170991
     5  Na   0.335719  -0.036939
     6  Na  -0.555266   0.550009
     7  Na  -0.196712   0.309596
 Sum of Mulliken charges =  -0.00000   1.00000

 Dipole moment (field-independent basis, Debye):
    X=              0.3122    Y=              0.3793    Z=              0.2122  Tot=              0.5352
 Quadrupole moment (field-independent basis, Debye-Ang):
   XX=            -58.4459   YY=            -69.3174   ZZ=            -69.0863
   XY=             -0.1756   XZ=             -1.5219   YZ=              0.5726

 Normal termination of Gaussian 16 at Thu Dec  7 13:49:10 2023.
