 Gaussian 16, Revision B.01,
 Gaussian 16:  ES64L-G16RevB.01 20-Dec-2017

 -------------------------
 #P B3LYP/6-311+g(d) force
 -------------------------

 -----
 DPGEN
 -----
 Symbolic Z-matrix:
 Charge =  0 Multiplicity = 2

                         Standard orientation:
 ---------------------------------------------------------------------
 Center     Atomic      Atomic             Coordinates (Angstroms)
 Number     Number       Type             X           Y           Z
 ---------------------------------------------------------------------
      1         11           0        0.040792   -0.422383   -1.839577
      2         11           0       -0.211603   -0.005487    2.259194
      3         11           0        2.797331    1.120663   -0.174080
      4         11           0       -2.932446    0.823203   -0.078144
      5         11           0       -1.479198   -2.429144   -0.218053
      6         11           0       -0.142219    2.927157   -0.188791
      7         11           0        1.927343   -2.014009    0.239451
 ---------------------------------------------------------------------

 SCF Done:  E(UB3LYP) =  -1136.13836697     A.U. after   18 cycles

 The electronic state is 2-A.
 Alpha  occ. eigenvalues --  -38.44193 -38.43693 -38.43662 -38.43476 -38.43397
 Alpha  occ. eigenvalues --  -38.43393 -38.43367  -2.20052  -2.19635  -2.19521
 Alpha  occ. eigenvalues --   -2.19324  -2.19296  -2.19268  -2.19219  -1.13707
 Alpha  occ. eigenvalues --   -1.13678  -1.13675  -1.13378  -1.13287  -1.13261
 Alpha  occ. eigenvalues --   -1.13192  -1.13183  -1.13165  -1.13022  -1.12994
 Alpha  occ. eigenvalues --   -1.12982  -1.12971  -1.12954  -1.12932  -1.12925
 Alpha  occ. eigenvalues --   -1.12908  -1.12892  -1.12881  -1.12868  -1.12850
 Alpha  occ. eigenvalues --   -0.18760  -0.12802  -0.12583  -0.11321
 Alpha virt. eigenvalues --   -0.05259  -0.04963  -0.04744  -0.03344  -0.03210
 Alpha virt. eigenvalues --   -0.03040  -0.01176  -0.00971  -0.00185  -0.00145
 Alpha virt. eigenvalues --   -0.00057   0.00385   0.00851   0.00932   0.00949

  Beta  occ. eigenvalues --  -38.44091 -38.43691 -38.43593 -38.43474 -38.43390
  Beta  occ. eigenvalues --  -38.43389 -38.43359  -2.19864  -2.19521  -2.19509
  Beta  occ. eigenvalues --   -2.19323  -2.19285  -2.19257  -2.19217  -1.13583
  Beta  occ. eigenvalues --   -1.13546  -1.13538  -1.13302  -1.13202  -1.13195
  Beta  occ. eigenvalues --   -1.13176  -1.13168  -1.13154  -1.13021  -1.12989
  Beta  occ. eigenvalues --   -1.12967  -1.12954  -1.12933  -1.12907  -1.12906
  Beta  occ. eigenvalues --   -1.12886  -1.12882  -1.12873  -1.12866  -1.12851
  Beta  occ. eigenvalues --   -0.17993  -0.12586  -0.12356
  Beta virt. eigenvalues --   -0.07337  -0.05256  -0.04974  -0.04610  -0.02516
  Beta virt. eigenvalues --   -0.02383  -0.02015  -0.01102  -0.00907  -0.00237
  Beta virt. eigenvalues --   -0.00178   0.00080   0.00409   0.00911   0.00931

 Mulliken charges and spin densities:
               1          2
     1  Na  -0.282572   0.460558
     2  Na  -0.614985   0.689515
     3  Na   0.018917  -0.073373
     4  Na   0.080851  -0.075101
     5  Na   0.471706  -0.004248
     6  Na   0.001192  -0.067359
     7  Na   0.324891   0.070008
 Sum of Mulliken charges =  -0.00000   1.00000

 Dipole moment (field-independent basis, Debye):
    X=             -0.1464    Y=              0.0122    Z=              0.2057  Tot=              0.2528
 Quadrupole moment (field-independent basis, Debye-Ang):
   XX=            -60.8778   YY=            -64.0970   ZZ=            -70.8284
   XY=              0.0804   XZ=              0.3631   YZ=             -0.8815

 Normal termination of Gaussian 16 at Thu Dec  7 06:45:56 2023.
