 Gaussian 16, Revision B.01,
 Gaussian 16:  ES64L-G16RevB.01 20-Dec-2017

 -------------------------
 #P B3LYP/6-311+g(d) force
 -------------------------

 -----
 DPGEN
 -----
 Symbolic Z-matrix:
 Charge =  0 Multiplicity = 2

                         Standard orientation:
 ---------------------------------------------------------------------
 Center     Atomic      Atomic             Coordinates (Angstroms)
 Number     Number       Type             X           Y           Z
 ---------------------------------------------------------------------
      1         11           0       -3.374069   -1.938469   -0.058041
      2         11           0        1.164006    0.233643    2.656585
      3         11           0        0.432915    2.918175   -0.311308
      4         11           0       -2.751639    1.543433   -0.108385
      5         11           0        2.953386    0.313261   -1.126926
      6         11           0        1.734320   -2.768751   -0.153445
      7         11           0       -0.158918   -0.301293   -0.898480
 ---------------------------------------------------------------------

 SCF Done:  E(UB3LYP) =  -1136.12681823     A.U. after   21 cycles

 The electronic state is 2-A.
 Alpha  occ. eigenvalues --  -38.44356 -38.44332 -38.44176 -38.44041 -38.44025
 Alpha  occ. eigenvalues --  -38.43025 -38.42979  -2.20209  -2.20137  -2.19937
 Alpha  occ. eigenvalues --   -2.19871  -2.19843  -2.19037  -2.18820  -1.13910
 Alpha  occ. eigenvalues --   -1.13856  -1.13821  -1.13779  -1.13751  -1.13747
 Alpha  occ. eigenvalues --   -1.13612  -1.13595  -1.13589  -1.13567  -1.13543
 Alpha  occ. eigenvalues --   -1.13539  -1.13492  -1.13474  -1.13471  -1.12738
 Alpha  occ. eigenvalues --   -1.12709  -1.12679  -1.12493  -1.12476  -1.12463
 Alpha  occ. eigenvalues --   -0.17852  -0.13245  -0.11869  -0.10943
 Alpha virt. eigenvalues --   -0.06199  -0.05333  -0.04598  -0.03172  -0.02867
 Alpha virt. eigenvalues --   -0.02426  -0.01813  -0.01294  -0.00931  -0.00464
 Alpha virt. eigenvalues --   -0.00196   0.00254   0.00585   0.00705   0.00812

  Beta  occ. eigenvalues --  -38.44324 -38.44199 -38.44182 -38.44041 -38.44023
  Beta  occ. eigenvalues --  -38.43006 -38.42976  -2.20152  -2.19949  -2.19889
  Beta  occ. eigenvalues --   -2.19871  -2.19841  -2.19006  -2.18817  -1.13867
  Beta  occ. eigenvalues --   -1.13810  -1.13782  -1.13619  -1.13610  -1.13603
  Beta  occ. eigenvalues --   -1.13594  -1.13585  -1.13574  -1.13567  -1.13539
  Beta  occ. eigenvalues --   -1.13538  -1.13479  -1.13476  -1.13468  -1.12700
  Beta  occ. eigenvalues --   -1.12690  -1.12651  -1.12490  -1.12463  -1.12456
  Beta  occ. eigenvalues --   -0.17247  -0.13081  -0.11761
  Beta virt. eigenvalues --   -0.06686  -0.06098  -0.05243  -0.04567  -0.02469
  Beta virt. eigenvalues --   -0.02008  -0.01841  -0.01549  -0.01268  -0.00897
  Beta virt. eigenvalues --   -0.00448   0.00112   0.00321   0.00706   0.00769

 Mulliken charges and spin densities:
               1          2
     1  Na   0.289712  -0.011761
     2  Na  -0.630149   0.684574
     3  Na   0.476086   0.015741
     4  Na   0.323921  -0.003741
     5  Na   0.983790   0.016632
     6  Na  -0.001609   0.046867
     7  Na  -1.441751   0.251689
 Sum of Mulliken charges =  -0.00000   1.00000

 Dipole moment (field-independent basis, Debye):
    X=              0.1014    Y=             -0.2764    Z=              0.0483  Tot=              0.2984
 Quadrupole moment (field-independent basis, Debye-Ang):
   XX=            -56.5195   YY=            -61.9112   ZZ=            -74.9929
   XY=              0.0872   XZ=             -2.7552   YZ=             -0.9264

 Normal termination of Gaussian 16 at Tue Dec  5 19:42:39 2023.
