 Gaussian 16, Revision B.01,
 Gaussian 16:  ES64L-G16RevB.01 20-Dec-2017

 -------------------------
 #P B3LYP/6-311+g(d) force
 -------------------------

 -----
 DPGEN
 -----
 Symbolic Z-matrix:
 Charge =  0 Multiplicity = 2

                         Standard orientation:
 ---------------------------------------------------------------------
 Center     Atomic      Atomic             Coordinates (Angstroms)
 Number     Number       Type             X           Y           Z
 ---------------------------------------------------------------------
      1         11           0       -1.710534    0.044728   -1.434416
      2         11           0        0.076360    0.171388    2.174742
      3         11           0       -2.555393   -2.248792    0.510925
      4         11           0        0.825086   -2.108671   -0.810979
      5         11           0        1.376092    1.624705   -0.736066
      6         11           0        3.634390   -0.385698    0.161888
      7         11           0       -1.646002    2.902340    0.133906
 ---------------------------------------------------------------------

 SCF Done:  E(UB3LYP) =  -1136.13459784     A.U. after   19 cycles

 The electronic state is 2-A.
 Alpha  occ. eigenvalues --  -38.44055 -38.44035 -38.43881 -38.43727 -38.43364
 Alpha  occ. eigenvalues --  -38.43362 -38.43233  -2.19900  -2.19867  -2.19707
 Alpha  occ. eigenvalues --   -2.19587  -2.19282  -2.19202  -2.19182  -1.13568
 Alpha  occ. eigenvalues --   -1.13562  -1.13523  -1.13519  -1.13518  -1.13505
 Alpha  occ. eigenvalues --   -1.13414  -1.13352  -1.13345  -1.13301  -1.13264
 Alpha  occ. eigenvalues --   -1.13174  -1.12986  -1.12962  -1.12919  -1.12905
 Alpha  occ. eigenvalues --   -1.12867  -1.12852  -1.12832  -1.12823  -1.12756
 Alpha  occ. eigenvalues --   -0.18439  -0.13138  -0.12365  -0.10898
 Alpha virt. eigenvalues --   -0.05857  -0.05147  -0.04387  -0.03356  -0.02956
 Alpha virt. eigenvalues --   -0.02761  -0.01715  -0.01281  -0.00350  -0.00072
 Alpha virt. eigenvalues --    0.00147   0.00302   0.00742   0.00789   0.00869

  Beta  occ. eigenvalues --  -38.44037 -38.43952 -38.43877 -38.43709 -38.43364
  Beta  occ. eigenvalues --  -38.43346 -38.43193  -2.19872  -2.19710  -2.19702
  Beta  occ. eigenvalues --   -2.19555  -2.19256  -2.19205  -2.19110  -1.13568
  Beta  occ. eigenvalues --   -1.13521  -1.13502  -1.13438  -1.13411  -1.13387
  Beta  occ. eigenvalues --   -1.13383  -1.13344  -1.13332  -1.13276  -1.13224
  Beta  occ. eigenvalues --   -1.13156  -1.12970  -1.12914  -1.12907  -1.12898
  Beta  occ. eigenvalues --   -1.12835  -1.12824  -1.12817  -1.12776  -1.12713
  Beta  occ. eigenvalues --   -0.17696  -0.12993  -0.12174
  Beta virt. eigenvalues --   -0.06931  -0.05712  -0.05122  -0.04297  -0.02715
  Beta virt. eigenvalues --   -0.02273  -0.01698  -0.01640  -0.01206  -0.00121
  Beta virt. eigenvalues --   -0.00105   0.00215   0.00348   0.00802   0.00824

 Mulliken charges and spin densities:
               1          2
     1  Na   0.563978   0.216894
     2  Na  -0.427355   0.741438
     3  Na  -0.086363  -0.083975
     4  Na  -0.402446   0.076366
     5  Na  -0.449446   0.132354
     6  Na   0.673691  -0.017741
     7  Na   0.127940  -0.065335
 Sum of Mulliken charges =  -0.00000   1.00000

 Dipole moment (field-independent basis, Debye):
    X=              0.1835    Y=             -0.2173    Z=              0.3592  Tot=              0.4582
 Quadrupole moment (field-independent basis, Debye-Ang):
   XX=            -55.8935   YY=            -65.3914   ZZ=            -72.4290
   XY=             -0.7266   XZ=             -0.8437   YZ=             -0.4134

 Normal termination of Gaussian 16 at Thu Dec  7 12:57:54 2023.
