 Gaussian 16, Revision B.01,
 Gaussian 16:  ES64L-G16RevB.01 20-Dec-2017

 -------------------------
 #P B3LYP/6-311+g(d) force
 -------------------------

 -----
 DPGEN
 -----
 Symbolic Z-matrix:
 Charge =  0 Multiplicity = 2

                         Standard orientation:
 ---------------------------------------------------------------------
 Center     Atomic      Atomic             Coordinates (Angstroms)
 Number     Number       Type             X           Y           Z
 ---------------------------------------------------------------------
      1         11           0        0.910124   -0.246820   -1.539684
      2         11           0        0.949772    3.076965   -1.011401
      3         11           0        3.239045   -0.065921    0.651344
      4         11           0       -3.491362    1.285358    0.591798
      5         11           0       -2.110916   -1.984741   -1.122621
      6         11           0       -0.238953    0.666011    1.891063
      7         11           0        0.742290   -2.730851    0.539501
 ---------------------------------------------------------------------

 SCF Done:  E(UB3LYP) =  -1136.12772921     A.U. after   20 cycles

 The electronic state is 2-A.
 Alpha  occ. eigenvalues --  -38.44458 -38.44164 -38.44097 -38.44030 -38.43660
 Alpha  occ. eigenvalues --  -38.43430 -38.43413  -2.20285  -2.19915  -2.19885
 Alpha  occ. eigenvalues --   -2.19860  -2.19476  -2.19376  -2.19296  -1.13981
 Alpha  occ. eigenvalues --   -1.13942  -1.13902  -1.13589  -1.13570  -1.13567
 Alpha  occ. eigenvalues --   -1.13562  -1.13541  -1.13524  -1.13512  -1.13505
 Alpha  occ. eigenvalues --   -1.13466  -1.13165  -1.13147  -1.13096  -1.13080
 Alpha  occ. eigenvalues --   -1.13045  -1.13003  -1.12969  -1.12930  -1.12914
 Alpha  occ. eigenvalues --   -0.17961  -0.12699  -0.12194  -0.11043
 Alpha virt. eigenvalues --   -0.06108  -0.05008  -0.04837  -0.03167  -0.03102
 Alpha virt. eigenvalues --   -0.02519  -0.01783  -0.01240  -0.00766  -0.00119
 Alpha virt. eigenvalues --   -0.00075   0.00295   0.00456   0.00752   0.00846

  Beta  occ. eigenvalues --  -38.44442 -38.44157 -38.44058 -38.43972 -38.43636
  Beta  occ. eigenvalues --  -38.43426 -38.43365  -2.20259  -2.19903  -2.19814
  Beta  occ. eigenvalues --   -2.19754  -2.19434  -2.19293  -2.19288  -1.13963
  Beta  occ. eigenvalues --   -1.13916  -1.13876  -1.13572  -1.13561  -1.13553
  Beta  occ. eigenvalues --   -1.13508  -1.13477  -1.13471  -1.13465  -1.13436
  Beta  occ. eigenvalues --   -1.13385  -1.13127  -1.13122  -1.13065  -1.13034
  Beta  occ. eigenvalues --   -1.12993  -1.12962  -1.12953  -1.12893  -1.12881
  Beta  occ. eigenvalues --   -0.17300  -0.12421  -0.11831
  Beta virt. eigenvalues --   -0.07390  -0.05970  -0.04778  -0.04616  -0.02650
  Beta virt. eigenvalues --   -0.02596  -0.01806  -0.01523  -0.01089  -0.00633
  Beta virt. eigenvalues --   -0.00103   0.00042   0.00358   0.00538   0.00770

 Mulliken charges and spin densities:
               1          2
     1  Na   0.439952   0.278403
     2  Na  -0.261134   0.024726
     3  Na   0.146724   0.086036
     4  Na  -0.095444   0.027824
     5  Na  -0.075869   0.010738
     6  Na  -0.132718   0.306149
     7  Na  -0.021512   0.266123
 Sum of Mulliken charges =  -0.00000   1.00000

 Dipole moment (field-independent basis, Debye):
    X=              0.3931    Y=              0.1920    Z=              0.1961  Tot=              0.4794
 Quadrupole moment (field-independent basis, Debye-Ang):
   XX=            -57.4549   YY=            -64.7848   ZZ=            -71.7266
   XY=             -0.1090   XZ=              3.5835   YZ=             -1.9232

 Normal termination of Gaussian 16 at Fri Dec  8 05:25:57 2023.
