 Gaussian 16, Revision B.01,
 Gaussian 16:  ES64L-G16RevB.01 20-Dec-2017

 -------------------------
 #P B3LYP/6-311+g(d) force
 -------------------------

 -----
 DPGEN
 -----
 Symbolic Z-matrix:
 Charge =  0 Multiplicity = 2

                         Standard orientation:
 ---------------------------------------------------------------------
 Center     Atomic      Atomic             Coordinates (Angstroms)
 Number     Number       Type             X           Y           Z
 ---------------------------------------------------------------------
      1         11           0        0.238883    3.147000    1.279080
      2         11           0       -3.248381    1.628893   -0.190395
      3         11           0        2.427757   -2.791596    1.026874
      4         11           0       -1.121168   -1.846137   -0.189512
      5         11           0        1.839497    2.199700   -0.935111
      6         11           0       -4.145568   -1.787111   -0.253021
      7         11           0        4.008980   -0.550750   -0.737915
 ---------------------------------------------------------------------

 SCF Done:  E(UB3LYP) =  -1136.10902797     A.U. after   26 cycles

 The electronic state is 2-A.
 Alpha  occ. eigenvalues --  -38.46417 -38.45148 -38.44222 -38.43974 -38.43771
 Alpha  occ. eigenvalues --  -38.43738 -38.43443  -2.22157  -2.20953  -2.20078
 Alpha  occ. eigenvalues --   -2.19826  -2.19598  -2.19554  -2.19246  -1.15856
 Alpha  occ. eigenvalues --   -1.15823  -1.15762  -1.14658  -1.14635  -1.14574
 Alpha  occ. eigenvalues --   -1.13758  -1.13715  -1.13690  -1.13634  -1.13481
 Alpha  occ. eigenvalues --   -1.13463  -1.13237  -1.13226  -1.13222  -1.13210
 Alpha  occ. eigenvalues --   -1.13208  -1.13195  -1.12906  -1.12891  -1.12884
 Alpha  occ. eigenvalues --   -0.16328  -0.14172  -0.12788  -0.09951
 Alpha virt. eigenvalues --   -0.07347  -0.05550  -0.04145  -0.03650  -0.03171
 Alpha virt. eigenvalues --   -0.02461  -0.02273  -0.01671  -0.01019  -0.00595
 Alpha virt. eigenvalues --   -0.00348   0.00015   0.00240   0.00473   0.00545

  Beta  occ. eigenvalues --  -38.46400 -38.45126 -38.44191 -38.43950 -38.43763
  Beta  occ. eigenvalues --  -38.43702 -38.43413  -2.22127  -2.20915  -2.20019
  Beta  occ. eigenvalues --   -2.19786  -2.19583  -2.19492  -2.19190  -1.15839
  Beta  occ. eigenvalues --   -1.15806  -1.15719  -1.14634  -1.14607  -1.14527
  Beta  occ. eigenvalues --   -1.13717  -1.13674  -1.13650  -1.13609  -1.13457
  Beta  occ. eigenvalues --   -1.13423  -1.13227  -1.13201  -1.13189  -1.13184
  Beta  occ. eigenvalues --   -1.13171  -1.13137  -1.12869  -1.12858  -1.12835
  Beta  occ. eigenvalues --   -0.15918  -0.13701  -0.12447
  Beta virt. eigenvalues --   -0.07316  -0.06472  -0.05262  -0.03805  -0.03275
  Beta virt. eigenvalues --   -0.02805  -0.02319  -0.01979  -0.01511  -0.00770
  Beta virt. eigenvalues --   -0.00482  -0.00004   0.00228   0.00381   0.00533

 Mulliken charges and spin densities:
               1          2
     1  Na   0.284715   0.049438
     2  Na  -0.030489   0.129019
     3  Na   0.254647   0.059132
     4  Na  -1.457323   0.118105
     5  Na  -0.342404   0.184696
     6  Na   1.124863   0.341305
     7  Na   0.165992   0.118305
 Sum of Mulliken charges =  -0.00000   1.00000

 Dipole moment (field-independent basis, Debye):
    X=             -2.4484    Y=              0.2171    Z=              0.1087  Tot=              2.4604
 Quadrupole moment (field-independent basis, Debye-Ang):
   XX=            -59.2374   YY=            -70.1368   ZZ=            -70.1437
   XY=             -3.6773   XZ=              2.3446   YZ=              0.5199

 Normal termination of Gaussian 16 at Sun Dec  3 11:48:31 2023.
