 Gaussian 16, Revision B.01,
 Gaussian 16:  ES64L-G16RevB.01 20-Dec-2017

 -------------------------
 #P B3LYP/6-311+g(d) force
 -------------------------

 -----
 DPGEN
 -----
 Symbolic Z-matrix:
 Charge =  0 Multiplicity = 2

                         Standard orientation:
 ---------------------------------------------------------------------
 Center     Atomic      Atomic             Coordinates (Angstroms)
 Number     Number       Type             X           Y           Z
 ---------------------------------------------------------------------
      1         11           0       -0.629944   -3.058953   -0.267923
      2         11           0       -0.331399   -0.223074   -1.533948
      3         11           0        2.357698    1.985690   -0.392637
      4         11           0        3.173425   -1.378112    0.296544
      5         11           0        0.089844   -0.023763    1.624836
      6         11           0       -3.481272   -0.378806    0.224327
      7         11           0       -1.178352    3.077018    0.048802
 ---------------------------------------------------------------------

 SCF Done:  E(UB3LYP) =  -1136.13125264     A.U. after   22 cycles

 The electronic state is 2-A.
 Alpha  occ. eigenvalues --  -38.44846 -38.44152 -38.43861 -38.43837 -38.43835
 Alpha  occ. eigenvalues --  -38.43298 -38.42955  -2.20612  -2.19939  -2.19691
 Alpha  occ. eigenvalues --   -2.19657  -2.19617  -2.19215  -2.18916  -1.14292
 Alpha  occ. eigenvalues --   -1.14259  -1.14248  -1.13610  -1.13597  -1.13580
 Alpha  occ. eigenvalues --   -1.13406  -1.13348  -1.13334  -1.13327  -1.13304
 Alpha  occ. eigenvalues --   -1.13297  -1.13290  -1.13272  -1.13252  -1.12959
 Alpha  occ. eigenvalues --   -1.12842  -1.12811  -1.12618  -1.12536  -1.12523
 Alpha  occ. eigenvalues --   -0.18121  -0.12936  -0.12361  -0.09820
 Alpha virt. eigenvalues --   -0.06248  -0.05331  -0.05141  -0.02904  -0.02565
 Alpha virt. eigenvalues --   -0.02067  -0.01782  -0.01481  -0.00886  -0.00710
 Alpha virt. eigenvalues --   -0.00005   0.00286   0.00685   0.00748   0.00801

  Beta  occ. eigenvalues --  -38.44837 -38.44144 -38.43847 -38.43835 -38.43827
  Beta  occ. eigenvalues --  -38.43236 -38.42889  -2.20598  -2.19926  -2.19670
  Beta  occ. eigenvalues --   -2.19641  -2.19620  -2.19101  -2.18797  -1.14272
  Beta  occ. eigenvalues --   -1.14249  -1.14237  -1.13593  -1.13583  -1.13573
  Beta  occ. eigenvalues --   -1.13384  -1.13319  -1.13315  -1.13310  -1.13294
  Beta  occ. eigenvalues --   -1.13290  -1.13281  -1.13270  -1.13246  -1.12875
  Beta  occ. eigenvalues --   -1.12766  -1.12724  -1.12531  -1.12447  -1.12437
  Beta  occ. eigenvalues --   -0.17476  -0.12687  -0.12096
  Beta virt. eigenvalues --   -0.06289  -0.06012  -0.05297  -0.05050  -0.02245
  Beta virt. eigenvalues --   -0.01944  -0.01867  -0.01395  -0.00940  -0.00881
  Beta virt. eigenvalues --   -0.00700   0.00144   0.00345   0.00714   0.00794

 Mulliken charges and spin densities:
               1          2
     1  Na   0.104162  -0.077553
     2  Na   0.068450   0.437143
     3  Na   0.045847   0.008695
     4  Na   0.075878   0.005165
     5  Na  -0.198299   0.751703
     6  Na  -0.024375  -0.038872
     7  Na  -0.071663  -0.086281
 Sum of Mulliken charges =  -0.00000   1.00000

 Dipole moment (field-independent basis, Debye):
    X=             -0.3515    Y=             -0.1405    Z=              0.0294  Tot=              0.3797
 Quadrupole moment (field-independent basis, Debye-Ang):
   XX=            -52.1791   YY=            -58.9931   ZZ=            -78.7291
   XY=             -0.4822   XZ=             -0.9615   YZ=             -0.7345

 Normal termination of Gaussian 16 at Fri Dec  8 04:26:56 2023.
