 Gaussian 16, Revision B.01,
 Gaussian 16:  ES64L-G16RevB.01 20-Dec-2017

 -------------------------
 #P B3LYP/6-311+g(d) force
 -------------------------

 -----
 DPGEN
 -----
 Symbolic Z-matrix:
 Charge =  0 Multiplicity = 2

                         Standard orientation:
 ---------------------------------------------------------------------
 Center     Atomic      Atomic             Coordinates (Angstroms)
 Number     Number       Type             X           Y           Z
 ---------------------------------------------------------------------
      1         11           0       -4.462133   -1.058922   -0.531574
      2         11           0        0.133939   -0.928001   -1.674938
      3         11           0       -1.023829    2.487649   -0.427731
      4         11           0        1.142568   -0.846737    1.975787
      5         11           0        3.788652   -1.410249   -0.578529
      6         11           0        2.311030    1.803340   -0.074498
      7         11           0       -1.890226   -0.047081    1.311482
 ---------------------------------------------------------------------

 SCF Done:  E(UB3LYP) =  -1136.11639587     A.U. after   32 cycles

 The electronic state is 2-A.
 Alpha  occ. eigenvalues --  -38.45906 -38.44579 -38.44270 -38.44244 -38.44064
 Alpha  occ. eigenvalues --  -38.43529 -38.42902  -2.21687  -2.20329  -2.20131
 Alpha  occ. eigenvalues --   -2.20112  -2.19855  -2.19457  -2.18753  -1.15389
 Alpha  occ. eigenvalues --   -1.15338  -1.15286  -1.14009  -1.13997  -1.13971
 Alpha  occ. eigenvalues --   -1.13822  -1.13811  -1.13783  -1.13750  -1.13731
 Alpha  occ. eigenvalues --   -1.13719  -1.13531  -1.13520  -1.13487  -1.13160
 Alpha  occ. eigenvalues --   -1.13126  -1.13067  -1.12434  -1.12412  -1.12376
 Alpha  occ. eigenvalues --   -0.18206  -0.13596  -0.11415  -0.11048
 Alpha virt. eigenvalues --   -0.07405  -0.05401  -0.04270  -0.03370  -0.02888
 Alpha virt. eigenvalues --   -0.02548  -0.02348  -0.01660  -0.00852  -0.00370
 Alpha virt. eigenvalues --   -0.00084   0.00180   0.00247   0.00469   0.00674

  Beta  occ. eigenvalues --  -38.45858 -38.44597 -38.44250 -38.44141 -38.44066
  Beta  occ. eigenvalues --  -38.43492 -38.42896  -2.21599  -2.20362  -2.20076
  Beta  occ. eigenvalues --   -2.19944  -2.19860  -2.19393  -2.18741  -1.15321
  Beta  occ. eigenvalues --   -1.15276  -1.15220  -1.14034  -1.14019  -1.13991
  Beta  occ. eigenvalues --   -1.13766  -1.13753  -1.13706  -1.13691  -1.13631
  Beta  occ. eigenvalues --   -1.13587  -1.13533  -1.13513  -1.13491  -1.13106
  Beta  occ. eigenvalues --   -1.13085  -1.13001  -1.12423  -1.12400  -1.12366
  Beta  occ. eigenvalues --   -0.17390  -0.13610  -0.10903
  Beta virt. eigenvalues --   -0.07374  -0.07089  -0.05344  -0.03813  -0.02943
  Beta virt. eigenvalues --   -0.02695  -0.01844  -0.01803  -0.01402  -0.00565
  Beta virt. eigenvalues --   -0.00393  -0.00051   0.00256   0.00393   0.00568

 Mulliken charges and spin densities:
               1          2
     1  Na   0.172641  -0.118725
     2  Na  -0.478783   0.410717
     3  Na  -0.104048  -0.053787
     4  Na  -0.046138   0.194555
     5  Na   0.482035   0.058203
     6  Na   0.008563   0.243443
     7  Na  -0.034270   0.265595
 Sum of Mulliken charges =  -0.00000   1.00000

 Dipole moment (field-independent basis, Debye):
    X=              0.5696    Y=             -0.0025    Z=             -0.6570  Tot=              0.8696
 Quadrupole moment (field-independent basis, Debye-Ang):
   XX=            -52.9142   YY=            -74.0849   ZZ=            -70.1928
   XY=             -0.3366   XZ=              2.1633   YZ=              1.7322

 Normal termination of Gaussian 16 at Thu Dec  7 09:15:07 2023.
