 Gaussian 16, Revision B.01,
 Gaussian 16:  ES64L-G16RevB.01 20-Dec-2017

 -------------------------
 #P B3LYP/6-311+g(d) force
 -------------------------

 -----
 DPGEN
 -----
 Symbolic Z-matrix:
 Charge =  0 Multiplicity = 2

                         Standard orientation:
 ---------------------------------------------------------------------
 Center     Atomic      Atomic             Coordinates (Angstroms)
 Number     Number       Type             X           Y           Z
 ---------------------------------------------------------------------
      1         11           0        1.835377   -1.112736    1.331110
      2         11           0       -2.938705   -2.175314   -0.249345
      3         11           0       -2.456441    1.816479   -1.110272
      4         11           0        3.496747   -0.677662   -1.160457
      5         11           0       -0.047742   -0.481085   -1.318221
      6         11           0       -1.103586    0.317405    2.136757
      7         11           0        1.214351    2.312914    0.370427
 ---------------------------------------------------------------------

 SCF Done:  E(UB3LYP) =  -1136.12646554     A.U. after   22 cycles

 The electronic state is 2-A.
 Alpha  occ. eigenvalues --  -38.44658 -38.44118 -38.44066 -38.43982 -38.43474
 Alpha  occ. eigenvalues --  -38.43352 -38.43064  -2.20463  -2.20002  -2.19969
 Alpha  occ. eigenvalues --   -2.19861  -2.19419  -2.19126  -2.18899  -1.14160
 Alpha  occ. eigenvalues --   -1.14104  -1.14061  -1.13782  -1.13706  -1.13627
 Alpha  occ. eigenvalues --   -1.13618  -1.13592  -1.13558  -1.13524  -1.13489
 Alpha  occ. eigenvalues --   -1.13461  -1.13140  -1.13075  -1.13031  -1.12800
 Alpha  occ. eigenvalues --   -1.12787  -1.12765  -1.12589  -1.12572  -1.12517
 Alpha  occ. eigenvalues --   -0.18451  -0.13542  -0.11679  -0.10990
 Alpha virt. eigenvalues --   -0.05855  -0.05467  -0.04633  -0.03114  -0.02846
 Alpha virt. eigenvalues --   -0.02491  -0.01962  -0.01070  -0.00931   0.00006
 Alpha virt. eigenvalues --    0.00223   0.00288   0.00457   0.00541   0.00727

  Beta  occ. eigenvalues --  -38.44615 -38.44101 -38.44029 -38.43909 -38.43444
  Beta  occ. eigenvalues --  -38.43354 -38.43062  -2.20384  -2.19946  -2.19930
  Beta  occ. eigenvalues --   -2.19730  -2.19367  -2.19131  -2.18898  -1.14095
  Beta  occ. eigenvalues --   -1.14055  -1.14007  -1.13739  -1.13662  -1.13592
  Beta  occ. eigenvalues --   -1.13586  -1.13560  -1.13496  -1.13448  -1.13389
  Beta  occ. eigenvalues --   -1.13369  -1.13090  -1.13032  -1.12994  -1.12802
  Beta  occ. eigenvalues --   -1.12784  -1.12769  -1.12591  -1.12547  -1.12520
  Beta  occ. eigenvalues --   -0.17677  -0.13308  -0.10843
  Beta virt. eigenvalues --   -0.07688  -0.05672  -0.05234  -0.04138  -0.02876
  Beta virt. eigenvalues --   -0.02146  -0.01975  -0.01746  -0.00926  -0.00525
  Beta virt. eigenvalues --    0.00046   0.00261   0.00385   0.00536   0.00654

 Mulliken charges and spin densities:
               1          2
     1  Na   0.009390   0.074165
     2  Na  -0.123050  -0.080797
     3  Na   0.161275   0.019789
     4  Na   0.347782   0.088385
     5  Na  -0.350229   0.495924
     6  Na   0.311681   0.331868
     7  Na  -0.356850   0.070667
 Sum of Mulliken charges =  -0.00000   1.00000

 Dipole moment (field-independent basis, Debye):
    X=              0.1512    Y=              0.6034    Z=             -0.0023  Tot=              0.6220
 Quadrupole moment (field-independent basis, Debye-Ang):
   XX=            -53.9745   YY=            -72.4827   ZZ=            -67.3233
   XY=             -1.7261   XZ=             -1.7508   YZ=             -3.9403

 Normal termination of Gaussian 16 at Thu Dec  7 22:27:42 2023.
