 Gaussian 16, Revision B.01,
 Gaussian 16:  ES64L-G16RevB.01 20-Dec-2017

 -------------------------
 #P B3LYP/6-311+g(d) force
 -------------------------

 -----
 DPGEN
 -----
 Symbolic Z-matrix:
 Charge =  0 Multiplicity = 2

                         Standard orientation:
 ---------------------------------------------------------------------
 Center     Atomic      Atomic             Coordinates (Angstroms)
 Number     Number       Type             X           Y           Z
 ---------------------------------------------------------------------
      1         11           0       -1.309935   -1.776476    0.816937
      2         11           0       -0.337580    2.388752   -0.567722
      3         11           0       -3.215970   -0.129417   -0.369303
      4         11           0       -0.351358   -0.577534   -2.083930
      5         11           0       -0.206853    0.963890    2.384487
      6         11           0        2.588656   -2.136443    0.150898
      7         11           0        2.833041    1.267227   -0.331367
 ---------------------------------------------------------------------

 SCF Done:  E(UB3LYP) =  -1136.12435272     A.U. after   21 cycles

 The electronic state is 2-A.
 Alpha  occ. eigenvalues --  -38.44586 -38.44543 -38.44519 -38.44156 -38.43617
 Alpha  occ. eigenvalues --  -38.43293 -38.42655  -2.20485  -2.20417  -2.20397
 Alpha  occ. eigenvalues --   -2.19963  -2.19574  -2.19072  -2.18549  -1.14296
 Alpha  occ. eigenvalues --   -1.14148  -1.14094  -1.14082  -1.14066  -1.14061
 Alpha  occ. eigenvalues --   -1.14030  -1.14007  -1.14005  -1.13647  -1.13626
 Alpha  occ. eigenvalues --   -1.13596  -1.13235  -1.13220  -1.13189  -1.12744
 Alpha  occ. eigenvalues --   -1.12734  -1.12717  -1.12242  -1.12218  -1.12171
 Alpha  occ. eigenvalues --   -0.18630  -0.13173  -0.12026  -0.11582
 Alpha virt. eigenvalues --   -0.05949  -0.04978  -0.04054  -0.03624  -0.03526
 Alpha virt. eigenvalues --   -0.02987  -0.01652  -0.00744  -0.00348   0.00010
 Alpha virt. eigenvalues --    0.00144   0.00359   0.00505   0.00720   0.00898

  Beta  occ. eigenvalues --  -38.44581 -38.44454 -38.44450 -38.44156 -38.43587
  Beta  occ. eigenvalues --  -38.43295 -38.42640  -2.20480  -2.20291  -2.20234
  Beta  occ. eigenvalues --   -2.19964  -2.19524  -2.19076  -2.18526  -1.14293
  Beta  occ. eigenvalues --   -1.14110  -1.14080  -1.14019  -1.13965  -1.13955
  Beta  occ. eigenvalues --   -1.13917  -1.13916  -1.13889  -1.13636  -1.13628
  Beta  occ. eigenvalues --   -1.13602  -1.13208  -1.13177  -1.13130  -1.12744
  Beta  occ. eigenvalues --   -1.12735  -1.12720  -1.12224  -1.12178  -1.12156
  Beta  occ. eigenvalues --   -0.17781  -0.13031  -0.11427
  Beta virt. eigenvalues --   -0.07917  -0.05792  -0.04909  -0.03535  -0.03206
  Beta virt. eigenvalues --   -0.02836  -0.02116  -0.01570  -0.00673  -0.00124
  Beta virt. eigenvalues --    0.00005   0.00158   0.00414   0.00681   0.00824

 Mulliken charges and spin densities:
               1          2
     1  Na  -0.178215   0.270523
     2  Na   0.024856   0.047301
     3  Na   0.724020  -0.021768
     4  Na  -0.400509   0.534252
     5  Na  -0.170238   0.307095
     6  Na   0.002362  -0.069525
     7  Na  -0.002276  -0.067878
 Sum of Mulliken charges =  -0.00000   1.00000

 Dipole moment (field-independent basis, Debye):
    X=             -0.3589    Y=              0.2843    Z=              0.0013  Tot=              0.4578
 Quadrupole moment (field-independent basis, Debye-Ang):
   XX=            -57.9834   YY=            -73.5376   ZZ=            -65.6378
   XY=              0.4387   XZ=              1.0311   YZ=             -1.4369

 Normal termination of Gaussian 16 at Tue Dec  5 14:31:29 2023.
