 Gaussian 16, Revision B.01,
 Gaussian 16:  ES64L-G16RevB.01 20-Dec-2017

 -------------------------
 #P B3LYP/6-311+g(d) force
 -------------------------

 -----
 DPGEN
 -----
 Symbolic Z-matrix:
 Charge =  0 Multiplicity = 2

                         Standard orientation:
 ---------------------------------------------------------------------
 Center     Atomic      Atomic             Coordinates (Angstroms)
 Number     Number       Type             X           Y           Z
 ---------------------------------------------------------------------
      1         11           0        2.896816   -1.695237   -1.176193
      2         11           0        0.502040    0.188555   -1.634804
      3         11           0       -1.919460   -1.159213    1.486578
      4         11           0       -3.820119   -0.272055   -1.367068
      5         11           0       -1.245222    2.045580    0.497282
      6         11           0        2.676462    1.860457    0.273151
      7         11           0        0.909483   -0.968087    1.921055
 ---------------------------------------------------------------------

 SCF Done:  E(UB3LYP) =  -1136.11817283     A.U. after   27 cycles

 The electronic state is 2-A.
 Alpha  occ. eigenvalues --  -38.45014 -38.44831 -38.44743 -38.44707 -38.43865
 Alpha  occ. eigenvalues --  -38.42746 -38.42003  -2.20833  -2.20681  -2.20547
 Alpha  occ. eigenvalues --   -2.20515  -2.19774  -2.18659  -2.17914  -1.14497
 Alpha  occ. eigenvalues --   -1.14489  -1.14461  -1.14385  -1.14292  -1.14289
 Alpha  occ. eigenvalues --   -1.14258  -1.14193  -1.14184  -1.14175  -1.14155
 Alpha  occ. eigenvalues --   -1.14123  -1.13486  -1.13439  -1.13386  -1.12425
 Alpha  occ. eigenvalues --   -1.12318  -1.12277  -1.11605  -1.11558  -1.11532
 Alpha  occ. eigenvalues --   -0.18306  -0.13898  -0.11742  -0.10827
 Alpha virt. eigenvalues --   -0.06675  -0.05294  -0.04562  -0.03241  -0.02673
 Alpha virt. eigenvalues --   -0.02560  -0.02191  -0.01362  -0.00636  -0.00268
 Alpha virt. eigenvalues --    0.00152   0.00198   0.00342   0.00542   0.00707

  Beta  occ. eigenvalues --  -38.44977 -38.44760 -38.44709 -38.44672 -38.43850
  Beta  occ. eigenvalues --  -38.42745 -38.41998  -2.20766  -2.20550  -2.20483
  Beta  occ. eigenvalues --   -2.20451  -2.19752  -2.18658  -2.17907  -1.14450
  Beta  occ. eigenvalues --   -1.14445  -1.14400  -1.14288  -1.14219  -1.14207
  Beta  occ. eigenvalues --   -1.14201  -1.14149  -1.14137  -1.14131  -1.14096
  Beta  occ. eigenvalues --   -1.14078  -1.13439  -1.13410  -1.13380  -1.12419
  Beta  occ. eigenvalues --   -1.12312  -1.12279  -1.11602  -1.11545  -1.11519
  Beta  occ. eigenvalues --   -0.17626  -0.13517  -0.10683
  Beta virt. eigenvalues --   -0.07997  -0.06249  -0.04785  -0.04440  -0.02955
  Beta virt. eigenvalues --   -0.02297  -0.02025  -0.01812  -0.00830  -0.00559
  Beta virt. eigenvalues --   -0.00029   0.00212   0.00290   0.00405   0.00616

 Mulliken charges and spin densities:
               1          2
     1  Na   0.376507   0.032610
     2  Na  -0.546619   0.353338
     3  Na  -0.172627  -0.084763
     4  Na   0.258160   0.116826
     5  Na   0.203400   0.246913
     6  Na   0.159339   0.175641
     7  Na  -0.278160   0.159434
 Sum of Mulliken charges =  -0.00000   1.00000

 Dipole moment (field-independent basis, Debye):
    X=              0.5719    Y=              0.4230    Z=             -0.5287  Tot=              0.8863
 Quadrupole moment (field-independent basis, Debye-Ang):
   XX=            -49.8413   YY=            -68.0595   ZZ=            -76.2093
   XY=              1.0111   XZ=              2.4555   YZ=              9.2013

 Normal termination of Gaussian 16 at Thu Dec  7 19:48:13 2023.
