 Gaussian 16, Revision B.01,
 Gaussian 16:  ES64L-G16RevB.01 20-Dec-2017

 -------------------------
 #P B3LYP/6-311+g(d) force
 -------------------------

 -----
 DPGEN
 -----
 Symbolic Z-matrix:
 Charge =  0 Multiplicity = 2

                         Standard orientation:
 ---------------------------------------------------------------------
 Center     Atomic      Atomic             Coordinates (Angstroms)
 Number     Number       Type             X           Y           Z
 ---------------------------------------------------------------------
      1         11           0       -1.249211   -1.912163    0.500252
      2         11           0       -4.138073   -2.643000   -0.343009
      3         11           0       -2.597565    0.904425   -0.714417
      4         11           0       -1.088245    3.820158   -0.403730
      5         11           0        0.435145    1.454015    1.233268
      6         11           0        2.768046   -0.669808    0.653634
      7         11           0        5.869902   -0.953628   -0.925998
 ---------------------------------------------------------------------

 SCF Done:  E(UB3LYP) =  -1136.12314403     A.U. after   20 cycles

 The electronic state is 2-A.
 Alpha  occ. eigenvalues --  -38.44641 -38.44603 -38.44272 -38.44211 -38.43855
 Alpha  occ. eigenvalues --  -38.43798 -38.42897  -2.20488  -2.20418  -2.20136
 Alpha  occ. eigenvalues --   -2.20007  -2.19747  -2.19640  -2.18710  -1.14207
 Alpha  occ. eigenvalues --   -1.14185  -1.14116  -1.14075  -1.14072  -1.14042
 Alpha  occ. eigenvalues --   -1.13831  -1.13815  -1.13715  -1.13640  -1.13640
 Alpha  occ. eigenvalues --   -1.13618  -1.13435  -1.13418  -1.13403  -1.13294
 Alpha  occ. eigenvalues --   -1.13287  -1.13253  -1.12414  -1.12390  -1.12350
 Alpha  occ. eigenvalues --   -0.17125  -0.13588  -0.13015  -0.10973
 Alpha virt. eigenvalues --   -0.06273  -0.05077  -0.04826  -0.03837  -0.02424
 Alpha virt. eigenvalues --   -0.02239  -0.02044  -0.01827  -0.01363  -0.00845
 Alpha virt. eigenvalues --   -0.00140  -0.00050   0.00203   0.00356   0.00600

  Beta  occ. eigenvalues --  -38.44626 -38.44593 -38.44253 -38.44098 -38.43824
  Beta  occ. eigenvalues --  -38.43781 -38.42900  -2.20461  -2.20399  -2.20103
  Beta  occ. eigenvalues --   -2.19797  -2.19691  -2.19609  -2.18726  -1.14180
  Beta  occ. eigenvalues --   -1.14168  -1.14103  -1.14059  -1.14055  -1.14026
  Beta  occ. eigenvalues --   -1.13811  -1.13795  -1.13672  -1.13498  -1.13497
  Beta  occ. eigenvalues --   -1.13480  -1.13403  -1.13379  -1.13360  -1.13268
  Beta  occ. eigenvalues --   -1.13262  -1.13228  -1.12427  -1.12409  -1.12300
  Beta  occ. eigenvalues --   -0.16677  -0.13317  -0.12227
  Beta virt. eigenvalues --   -0.07504  -0.06136  -0.04742  -0.04404  -0.03614
  Beta virt. eigenvalues --   -0.02312  -0.02129  -0.01655  -0.01364  -0.01020
  Beta virt. eigenvalues --   -0.00487   0.00052   0.00173   0.00367   0.00475

 Mulliken charges and spin densities:
               1          2
     1  Na  -0.922104   0.037358
     2  Na   1.485120   0.082334
     3  Na  -0.645953   0.217178
     4  Na   1.088888   0.032195
     5  Na  -0.944294   0.092233
     6  Na  -0.055581  -0.055527
     7  Na  -0.006077   0.594228
 Sum of Mulliken charges =  -0.00000   1.00000

 Dipole moment (field-independent basis, Debye):
    X=             -2.1988    Y=              0.0725    Z=             -0.3572  Tot=              2.2288
 Quadrupole moment (field-independent basis, Debye-Ang):
   XX=            -63.2457   YY=            -60.5984   ZZ=            -70.8424
   XY=              7.4952   XZ=             -0.1506   YZ=              0.5752

 Normal termination of Gaussian 16 at Wed Nov 29 02:08:17 2023.
