 Gaussian 16, Revision B.01,
 Gaussian 16:  ES64L-G16RevB.01 20-Dec-2017

 -------------------------
 #P B3LYP/6-311+g(d) force
 -------------------------

 -----
 DPGEN
 -----
 Symbolic Z-matrix:
 Charge =  0 Multiplicity = 2

                         Standard orientation:
 ---------------------------------------------------------------------
 Center     Atomic      Atomic             Coordinates (Angstroms)
 Number     Number       Type             X           Y           Z
 ---------------------------------------------------------------------
      1         11           0        2.860784    0.776764    0.170749
      2         11           0        0.016418   -0.476810    2.075995
      3         11           0        2.158493   -2.520944   -0.208464
      4         11           0       -2.655760    1.044424    0.112462
      5         11           0        0.434736    2.914146   -0.093786
      6         11           0        0.113879   -0.116558   -1.892254
      7         11           0       -2.928549   -1.621022   -0.164702
 ---------------------------------------------------------------------

 SCF Done:  E(UB3LYP) =  -1136.12799065     A.U. after   19 cycles

 The electronic state is 2-A.
 Alpha  occ. eigenvalues --  -38.44551 -38.44241 -38.44158 -38.44109 -38.43864
 Alpha  occ. eigenvalues --  -38.43501 -38.42625  -2.20433  -2.20112  -2.20087
 Alpha  occ. eigenvalues --   -2.19955  -2.19753  -2.19316  -2.18478  -1.14388
 Alpha  occ. eigenvalues --   -1.14048  -1.14039  -1.13791  -1.13788  -1.13745
 Alpha  occ. eigenvalues --   -1.13717  -1.13710  -1.13652  -1.13620  -1.13587
 Alpha  occ. eigenvalues --   -1.13572  -1.13430  -1.13383  -1.13379  -1.12979
 Alpha  occ. eigenvalues --   -1.12977  -1.12965  -1.12152  -1.12138  -1.12130
 Alpha  occ. eigenvalues --   -0.18505  -0.13735  -0.11864  -0.10987
 Alpha virt. eigenvalues --   -0.06038  -0.05341  -0.04239  -0.03771  -0.02891
 Alpha virt. eigenvalues --   -0.02641  -0.01729  -0.01077  -0.00519  -0.00127
 Alpha virt. eigenvalues --   -0.00036   0.00376   0.00690   0.00726   0.00833

  Beta  occ. eigenvalues --  -38.44551 -38.44236 -38.44152 -38.44020 -38.43787
  Beta  occ. eigenvalues --  -38.43500 -38.42624  -2.20434  -2.20106  -2.20080
  Beta  occ. eigenvalues --   -2.19791  -2.19613  -2.19316  -2.18478  -1.14393
  Beta  occ. eigenvalues --   -1.14043  -1.14026  -1.13789  -1.13756  -1.13748
  Beta  occ. eigenvalues --   -1.13711  -1.13675  -1.13654  -1.13512  -1.13470
  Beta  occ. eigenvalues --   -1.13455  -1.13337  -1.13282  -1.13275  -1.12980
  Beta  occ. eigenvalues --   -1.12971  -1.12955  -1.12155  -1.12137  -1.12112
  Beta  occ. eigenvalues --   -0.17745  -0.13539  -0.11672
  Beta virt. eigenvalues --   -0.07082  -0.05922  -0.05291  -0.04231  -0.02933
  Beta virt. eigenvalues --   -0.02040  -0.01771  -0.01603  -0.00980  -0.00594
  Beta virt. eigenvalues --   -0.00120   0.00108   0.00397   0.00800   0.00832

 Mulliken charges and spin densities:
               1          2
     1  Na   0.150032   0.083047
     2  Na  -0.208045   0.477216
     3  Na  -0.010743  -0.088793
     4  Na   0.000257   0.170206
     5  Na  -0.136228   0.006726
     6  Na  -0.021984   0.452932
     7  Na   0.226711  -0.101334
 Sum of Mulliken charges =  -0.00000   1.00000

 Dipole moment (field-independent basis, Debye):
    X=             -0.0553    Y=             -0.4723    Z=              0.0693  Tot=              0.4805
 Quadrupole moment (field-independent basis, Debye-Ang):
   XX=            -57.5892   YY=            -65.7465   ZZ=            -72.9911
   XY=              0.9249   XZ=              0.4350   YZ=              1.0476

 Normal termination of Gaussian 16 at Fri Dec  8 03:00:04 2023.
