 Gaussian 16, Revision B.01,
 Gaussian 16:  ES64L-G16RevB.01 20-Dec-2017

 -------------------------
 #P B3LYP/6-311+g(d) force
 -------------------------

 -----
 DPGEN
 -----
 Symbolic Z-matrix:
 Charge =  0 Multiplicity = 2

                         Standard orientation:
 ---------------------------------------------------------------------
 Center     Atomic      Atomic             Coordinates (Angstroms)
 Number     Number       Type             X           Y           Z
 ---------------------------------------------------------------------
      1         11           0       -2.889608   -2.684877    0.274173
      2         11           0        2.719267   -2.093566    0.013763
      3         11           0        0.519178   -1.218785   -1.693001
      4         11           0       -0.313595   -0.194323    1.836727
      5         11           0       -2.558364    1.589194   -0.592526
      6         11           0        2.726138    1.197149    0.248040
      7         11           0       -0.203015    3.405208   -0.087176
 ---------------------------------------------------------------------

 SCF Done:  E(UB3LYP) =  -1136.12149034     A.U. after   20 cycles

 The electronic state is 2-A.
 Alpha  occ. eigenvalues --  -38.44409 -38.44405 -38.44184 -38.44162 -38.44098
 Alpha  occ. eigenvalues --  -38.43978 -38.43514  -2.20283  -2.20139  -2.20014
 Alpha  occ. eigenvalues --   -2.19994  -2.19974  -2.19809  -2.19348  -1.14071
 Alpha  occ. eigenvalues --   -1.13925  -1.13912  -1.13812  -1.13808  -1.13768
 Alpha  occ. eigenvalues --   -1.13718  -1.13676  -1.13668  -1.13659  -1.13640
 Alpha  occ. eigenvalues --   -1.13621  -1.13621  -1.13616  -1.13559  -1.13491
 Alpha  occ. eigenvalues --   -1.13460  -1.13407  -1.13026  -1.13003  -1.12980
 Alpha  occ. eigenvalues --   -0.17736  -0.13413  -0.12231  -0.10297
 Alpha virt. eigenvalues --   -0.06282  -0.05667  -0.04963  -0.03280  -0.02813
 Alpha virt. eigenvalues --   -0.02241  -0.01938  -0.01562  -0.00821  -0.00626
 Alpha virt. eigenvalues --   -0.00067   0.00263   0.00593   0.00643   0.00794

  Beta  occ. eigenvalues --  -38.44407 -38.44396 -38.44160 -38.44145 -38.44040
  Beta  occ. eigenvalues --  -38.43906 -38.43511  -2.20271  -2.20136  -2.19970
  Beta  occ. eigenvalues --   -2.19965  -2.19867  -2.19676  -2.19346  -1.14043
  Beta  occ. eigenvalues --   -1.13920  -1.13884  -1.13808  -1.13802  -1.13767
  Beta  occ. eigenvalues --   -1.13692  -1.13648  -1.13639  -1.13627  -1.13603
  Beta  occ. eigenvalues --   -1.13599  -1.13554  -1.13542  -1.13483  -1.13402
  Beta  occ. eigenvalues --   -1.13372  -1.13304  -1.13020  -1.13001  -1.12966
  Beta  occ. eigenvalues --   -0.17123  -0.13048  -0.12022
  Beta virt. eigenvalues --   -0.06763  -0.06076  -0.05446  -0.04851  -0.02629
  Beta virt. eigenvalues --   -0.02287  -0.01846  -0.01558  -0.01286  -0.00823
  Beta virt. eigenvalues --   -0.00540   0.00104   0.00335   0.00678   0.00725

 Mulliken charges and spin densities:
               1          2
     1  Na  -0.108814  -0.059829
     2  Na   0.506223   0.087105
     3  Na  -0.041126   0.287956
     4  Na   0.030574   0.448858
     5  Na  -0.070656   0.123714
     6  Na  -0.182574   0.126020
     7  Na  -0.133626  -0.013824
 Sum of Mulliken charges =  -0.00000   1.00000

 Dipole moment (field-independent basis, Debye):
    X=              0.3472    Y=             -0.5176    Z=              0.1100  Tot=              0.6329
 Quadrupole moment (field-independent basis, Debye-Ang):
   XX=            -58.6120   YY=            -62.4124   ZZ=            -75.0844
   XY=              1.6442   XZ=              2.0881   YZ=             -1.4711

 Normal termination of Gaussian 16 at Thu Dec  7 07:43:31 2023.
