 Gaussian 16, Revision B.01,
 Gaussian 16:  ES64L-G16RevB.01 20-Dec-2017

 -------------------------
 #P B3LYP/6-311+g(d) force
 -------------------------

 -----
 DPGEN
 -----
 Symbolic Z-matrix:
 Charge =  0 Multiplicity = 2

                         Standard orientation:
 ---------------------------------------------------------------------
 Center     Atomic      Atomic             Coordinates (Angstroms)
 Number     Number       Type             X           Y           Z
 ---------------------------------------------------------------------
      1         11           0       -0.050365   -0.052319    1.777839
      2         11           0       -3.872215    0.175612    0.974358
      3         11           0        3.710231   -1.292178    1.032263
      4         11           0       -2.137129   -1.862525   -1.065145
      5         11           0        1.332031   -0.772936   -1.644794
      6         11           0       -1.292993    1.739714   -0.674276
      7         11           0        2.310441    2.064631   -0.400244
 ---------------------------------------------------------------------

 SCF Done:  E(UB3LYP) =  -1136.12172381     A.U. after   28 cycles

 The electronic state is 2-A.
 Alpha  occ. eigenvalues --  -38.45415 -38.45027 -38.43942 -38.43885 -38.43773
 Alpha  occ. eigenvalues --  -38.43721 -38.42785  -2.21237  -2.20847  -2.19824
 Alpha  occ. eigenvalues --   -2.19724  -2.19612  -2.19497  -2.18677  -1.14944
 Alpha  occ. eigenvalues --   -1.14888  -1.14841  -1.14519  -1.14495  -1.14481
 Alpha  occ. eigenvalues --   -1.13517  -1.13501  -1.13438  -1.13387  -1.13386
 Alpha  occ. eigenvalues --   -1.13349  -1.13297  -1.13259  -1.13217  -1.13166
 Alpha  occ. eigenvalues --   -1.13164  -1.13132  -1.12392  -1.12354  -1.12277
 Alpha  occ. eigenvalues --   -0.18284  -0.14123  -0.11347  -0.10663
 Alpha virt. eigenvalues --   -0.07001  -0.05309  -0.04976  -0.03120  -0.02822
 Alpha virt. eigenvalues --   -0.02383  -0.02172  -0.01261  -0.01152  -0.00188
 Alpha virt. eigenvalues --    0.00044   0.00218   0.00242   0.00489   0.00550

  Beta  occ. eigenvalues --  -38.45373 -38.45012 -38.43888 -38.43840 -38.43761
  Beta  occ. eigenvalues --  -38.43716 -38.42779  -2.21159  -2.20819  -2.19728
  Beta  occ. eigenvalues --   -2.19643  -2.19590  -2.19487  -2.18669  -1.14885
  Beta  occ. eigenvalues --   -1.14836  -1.14777  -1.14498  -1.14477  -1.14459
  Beta  occ. eigenvalues --   -1.13453  -1.13426  -1.13363  -1.13333  -1.13326
  Beta  occ. eigenvalues --   -1.13281  -1.13267  -1.13243  -1.13206  -1.13158
  Beta  occ. eigenvalues --   -1.13155  -1.13125  -1.12393  -1.12320  -1.12273
  Beta  occ. eigenvalues --   -0.17577  -0.14001  -0.10456
  Beta virt. eigenvalues --   -0.07482  -0.06727  -0.05207  -0.04429  -0.02753
  Beta virt. eigenvalues --   -0.02587  -0.01867  -0.01562  -0.01095  -0.00755
  Beta virt. eigenvalues --   -0.00185   0.00075   0.00240   0.00359   0.00601

 Mulliken charges and spin densities:
               1          2
     1  Na  -0.616037   0.426719
     2  Na   0.940730   0.097125
     3  Na   0.100817  -0.015357
     4  Na  -0.272692   0.097030
     5  Na  -0.077507   0.264305
     6  Na  -0.267200   0.114697
     7  Na   0.191889   0.015480
 Sum of Mulliken charges =  -0.00000   1.00000

 Dipole moment (field-independent basis, Debye):
    X=             -0.8442    Y=              0.4979    Z=              0.4883  Tot=              1.0950
 Quadrupole moment (field-independent basis, Debye-Ang):
   XX=            -50.4790   YY=            -76.8879   ZZ=            -68.6420
   XY=              2.0623   XZ=             -2.3344   YZ=              1.0282

 Normal termination of Gaussian 16 at Wed Dec  6 01:24:09 2023.
