 Gaussian 16, Revision B.01,
 Gaussian 16:  ES64L-G16RevB.01 20-Dec-2017

 -------------------------
 #P B3LYP/6-311+g(d) force
 -------------------------

 -----
 DPGEN
 -----
 Symbolic Z-matrix:
 Charge =  0 Multiplicity = 2

                         Standard orientation:
 ---------------------------------------------------------------------
 Center     Atomic      Atomic             Coordinates (Angstroms)
 Number     Number       Type             X           Y           Z
 ---------------------------------------------------------------------
      1         11           0        0.288573    0.335962    1.876445
      2         11           0        2.394965   -1.970018    0.316278
      3         11           0        2.890161    1.233223   -0.512934
      4         11           0       -0.796820    3.070273   -0.225229
      5         11           0       -0.182456   -0.341091   -1.370194
      6         11           0       -3.044471    0.112175    0.252077
      7         11           0       -1.549953   -2.440524   -0.336443
 ---------------------------------------------------------------------

 SCF Done:  E(UB3LYP) =  -1136.12807975     A.U. after   21 cycles

 The electronic state is 2-A.
 Alpha  occ. eigenvalues --  -38.44318 -38.44189 -38.43829 -38.43629 -38.43472
 Alpha  occ. eigenvalues --  -38.43222 -38.43208  -2.20143  -2.20077  -2.19675
 Alpha  occ. eigenvalues --   -2.19585  -2.19278  -2.19269  -2.19140  -1.13817
 Alpha  occ. eigenvalues --   -1.13808  -1.13803  -1.13778  -1.13736  -1.13706
 Alpha  occ. eigenvalues --   -1.13531  -1.13345  -1.13338  -1.13315  -1.13199
 Alpha  occ. eigenvalues --   -1.13167  -1.12960  -1.12946  -1.12926  -1.12912
 Alpha  occ. eigenvalues --   -1.12857  -1.12835  -1.12817  -1.12763  -1.12743
 Alpha  occ. eigenvalues --   -0.18823  -0.13504  -0.12272  -0.10365
 Alpha virt. eigenvalues --   -0.05879  -0.05291  -0.04661  -0.03311  -0.02652
 Alpha virt. eigenvalues --   -0.02063  -0.01716  -0.01238  -0.00453  -0.00369
 Alpha virt. eigenvalues --    0.00037   0.00339   0.00765   0.00838   0.00868

  Beta  occ. eigenvalues --  -38.44302 -38.44184 -38.43820 -38.43619 -38.43471
  Beta  occ. eigenvalues --  -38.43155 -38.43137  -2.20117  -2.20071  -2.19663
  Beta  occ. eigenvalues --   -2.19570  -2.19269  -2.19184  -2.18984  -1.13807
  Beta  occ. eigenvalues --   -1.13794  -1.13775  -1.13762  -1.13721  -1.13691
  Beta  occ. eigenvalues --   -1.13501  -1.13336  -1.13311  -1.13304  -1.13185
  Beta  occ. eigenvalues --   -1.13141  -1.12939  -1.12930  -1.12908  -1.12873
  Beta  occ. eigenvalues --   -1.12795  -1.12775  -1.12716  -1.12653  -1.12628
  Beta  occ. eigenvalues --   -0.18127  -0.13249  -0.12036
  Beta virt. eigenvalues --   -0.06520  -0.05812  -0.05249  -0.04609  -0.02531
  Beta virt. eigenvalues --   -0.01961  -0.01611  -0.01155  -0.01107  -0.00456
  Beta virt. eigenvalues --   -0.00379   0.00170   0.00383   0.00806   0.00858

 Mulliken charges and spin densities:
               1          2
     1  Na  -0.321264   0.605817
     2  Na   0.218970   0.057915
     3  Na  -0.070040  -0.002154
     4  Na  -0.147183  -0.045785
     5  Na  -0.505686   0.261187
     6  Na   0.186703   0.029057
     7  Na   0.638499   0.093964
 Sum of Mulliken charges =  -0.00000   1.00000

 Dipole moment (field-independent basis, Debye):
    X=              0.2565    Y=              0.1554    Z=              0.2284  Tot=              0.3770
 Quadrupole moment (field-independent basis, Debye-Ang):
   XX=            -54.1717   YY=            -61.7561   ZZ=            -76.2856
   XY=             -0.5100   XZ=             -1.3298   YZ=             -1.6453

 Normal termination of Gaussian 16 at Thu Dec  7 12:42:36 2023.
