 Gaussian 16, Revision B.01,
 Gaussian 16:  ES64L-G16RevB.01 20-Dec-2017

 -------------------------
 #P B3LYP/6-311+g(d) force
 -------------------------

 -----
 DPGEN
 -----
 Symbolic Z-matrix:
 Charge =  0 Multiplicity = 2

                         Standard orientation:
 ---------------------------------------------------------------------
 Center     Atomic      Atomic             Coordinates (Angstroms)
 Number     Number       Type             X           Y           Z
 ---------------------------------------------------------------------
      1         11           0       -2.840183    2.842153   -0.027445
      2         11           0       -4.830877   -0.420992   -0.657424
      3         11           0       -2.025414   -1.843332    0.772540
      4         11           0        0.584057   -2.360630   -0.749676
      5         11           0       -0.162259    1.164626    0.333780
      6         11           0        3.487548   -0.128380    1.346607
      7         11           0        5.787128    0.746555   -1.018383
 ---------------------------------------------------------------------

 SCF Done:  E(UB3LYP) =  -1136.11247945     A.U. after   21 cycles

 The electronic state is 2-A.
 Alpha  occ. eigenvalues --  -38.44801 -38.44522 -38.44495 -38.44430 -38.44039
 Alpha  occ. eigenvalues --  -38.43927 -38.43557  -2.20595  -2.20290  -2.20287
 Alpha  occ. eigenvalues --   -2.20250  -2.19906  -2.19750  -2.19364  -1.14253
 Alpha  occ. eigenvalues --   -1.14246  -1.14195  -1.13974  -1.13951  -1.13945
 Alpha  occ. eigenvalues --   -1.13943  -1.13941  -1.13934  -1.13911  -1.13898
 Alpha  occ. eigenvalues --   -1.13858  -1.13629  -1.13577  -1.13554  -1.13416
 Alpha  occ. eigenvalues --   -1.13380  -1.13367  -1.13047  -1.13025  -1.12981
 Alpha  occ. eigenvalues --   -0.16741  -0.13689  -0.11861  -0.11424
 Alpha virt. eigenvalues --   -0.06365  -0.05703  -0.04662  -0.03417  -0.03091
 Alpha virt. eigenvalues --   -0.02427  -0.01971  -0.01668  -0.00867  -0.00734
 Alpha virt. eigenvalues --   -0.00522  -0.00244   0.00241   0.00356   0.00553

  Beta  occ. eigenvalues --  -38.44719 -38.44509 -38.44476 -38.44361 -38.44022
  Beta  occ. eigenvalues --  -38.43931 -38.43536  -2.20442  -2.20280  -2.20203
  Beta  occ. eigenvalues --   -2.20162  -2.19877  -2.19757  -2.19329  -1.14145
  Beta  occ. eigenvalues --   -1.14138  -1.14096  -1.13962  -1.13948  -1.13907
  Beta  occ. eigenvalues --   -1.13891  -1.13885  -1.13883  -1.13866  -1.13830
  Beta  occ. eigenvalues --   -1.13793  -1.13619  -1.13548  -1.13525  -1.13419
  Beta  occ. eigenvalues --   -1.13381  -1.13363  -1.13010  -1.13003  -1.12953
  Beta  occ. eigenvalues --   -0.16149  -0.13181  -0.11477
  Beta virt. eigenvalues --   -0.07934  -0.05895  -0.05532  -0.04389  -0.03053
  Beta virt. eigenvalues --   -0.02773  -0.02066  -0.01610  -0.01550  -0.00754
  Beta virt. eigenvalues --   -0.00448  -0.00246  -0.00062   0.00297   0.00475

 Mulliken charges and spin densities:
               1          2
     1  Na   0.653088  -0.108891
     2  Na  -0.015334   0.255432
     3  Na  -0.041966   0.347664
     4  Na   0.394306  -0.078286
     5  Na  -1.276947   0.366087
     6  Na   0.088374  -0.013269
     7  Na   0.198480   0.231263
 Sum of Mulliken charges =  -0.00000   1.00000

 Dipole moment (field-independent basis, Debye):
    X=              0.0415    Y=             -0.4867    Z=             -0.5899  Tot=              0.7658
 Quadrupole moment (field-independent basis, Debye-Ang):
   XX=            -62.9679   YY=            -71.8165   ZZ=            -64.6555
   XY=             -0.7698   XZ=             -2.9751   YZ=             -0.6197

 Normal termination of Gaussian 16 at Wed Nov 29 00:50:28 2023.
