 Gaussian 16, Revision B.01,
 Gaussian 16:  ES64L-G16RevB.01 20-Dec-2017

 -------------------------
 #P B3LYP/6-311+g(d) force
 -------------------------

 -----
 DPGEN
 -----
 Symbolic Z-matrix:
 Charge =  0 Multiplicity = 2

                         Standard orientation:
 ---------------------------------------------------------------------
 Center     Atomic      Atomic             Coordinates (Angstroms)
 Number     Number       Type             X           Y           Z
 ---------------------------------------------------------------------
      1         11           0       -0.479563   -0.266091    2.174065
      2         11           0        2.460703   -1.732846    0.322531
      3         11           0        1.173565    0.000905   -1.696025
      4         11           0       -1.092511    1.750780   -0.587933
      5         11           0       -3.617929    0.226183    0.071244
      6         11           0       -1.038334   -1.875275   -0.713353
      7         11           0        2.594070    1.896345    0.429471
 ---------------------------------------------------------------------

 SCF Done:  E(UB3LYP) =  -1136.12315344     A.U. after   23 cycles

 The electronic state is 2-A.
 Alpha  occ. eigenvalues --  -38.45016 -38.44490 -38.43898 -38.43523 -38.43503
 Alpha  occ. eigenvalues --  -38.43052 -38.42860  -2.20864  -2.20357  -2.19776
 Alpha  occ. eigenvalues --   -2.19566  -2.19357  -2.19004  -2.18805  -1.14565
 Alpha  occ. eigenvalues --   -1.14516  -1.14493  -1.14037  -1.13988  -1.13962
 Alpha  occ. eigenvalues --   -1.13569  -1.13426  -1.13385  -1.13296  -1.13205
 Alpha  occ. eigenvalues --   -1.13162  -1.13017  -1.13007  -1.12986  -1.12707
 Alpha  occ. eigenvalues --   -1.12668  -1.12610  -1.12521  -1.12471  -1.12388
 Alpha  occ. eigenvalues --   -0.19187  -0.13918  -0.11481  -0.11321
 Alpha virt. eigenvalues --   -0.06551  -0.04954  -0.04111  -0.03264  -0.02826
 Alpha virt. eigenvalues --   -0.02562  -0.02162  -0.00924  -0.00367   0.00050
 Alpha virt. eigenvalues --    0.00266   0.00308   0.00530   0.00765   0.00879

  Beta  occ. eigenvalues --  -38.45019 -38.44402 -38.43894 -38.43518 -38.43441
  Beta  occ. eigenvalues --  -38.43031 -38.42835  -2.20872  -2.20193  -2.19771
  Beta  occ. eigenvalues --   -2.19456  -2.19350  -2.18972  -2.18764  -1.14571
  Beta  occ. eigenvalues --   -1.14515  -1.14491  -1.13929  -1.13872  -1.13842
  Beta  occ. eigenvalues --   -1.13552  -1.13406  -1.13382  -1.13219  -1.13140
  Beta  occ. eigenvalues --   -1.13095  -1.13000  -1.12993  -1.12971  -1.12682
  Beta  occ. eigenvalues --   -1.12620  -1.12587  -1.12490  -1.12411  -1.12365
  Beta  occ. eigenvalues --   -0.18386  -0.13766  -0.11097
  Beta virt. eigenvalues --   -0.07437  -0.06365  -0.04958  -0.03451  -0.03009
  Beta virt. eigenvalues --   -0.02084  -0.01986  -0.01759  -0.00853  -0.00143
  Beta virt. eigenvalues --    0.00098   0.00287   0.00302   0.00751   0.00826

 Mulliken charges and spin densities:
               1          2
     1  Na  -0.474887   0.634857
     2  Na  -0.000278   0.066076
     3  Na   0.702203   0.019185
     4  Na  -0.513233   0.133206
     5  Na   0.646930  -0.034879
     6  Na  -0.195564   0.105940
     7  Na  -0.165170   0.075614
 Sum of Mulliken charges =  -0.00000   1.00000

 Dipole moment (field-independent basis, Debye):
    X=             -0.6255    Y=             -0.2066    Z=              0.7094  Tot=              0.9680
 Quadrupole moment (field-independent basis, Debye-Ang):
   XX=            -48.7660   YY=            -75.2688   ZZ=            -69.3949
   XY=             -0.1969   XZ=              1.6054   YZ=              0.9513

 Normal termination of Gaussian 16 at Thu Dec  7 08:32:53 2023.
