 Gaussian 16, Revision B.01,
 Gaussian 16:  ES64L-G16RevB.01 20-Dec-2017

 -------------------------
 #P B3LYP/6-311+g(d) force
 -------------------------

 -----
 DPGEN
 -----
 Symbolic Z-matrix:
 Charge =  0 Multiplicity = 2

                         Standard orientation:
 ---------------------------------------------------------------------
 Center     Atomic      Atomic             Coordinates (Angstroms)
 Number     Number       Type             X           Y           Z
 ---------------------------------------------------------------------
      1         11           0        3.100520   -1.172699   -0.461532
      2         11           0        1.926192    2.144050   -0.037189
      3         11           0       -1.328729    2.533724    0.076829
      4         11           0       -0.210644   -2.803178    0.076166
      5         11           0        0.481764   -0.141866    1.983584
      6         11           0       -0.377023    0.105428   -1.623047
      7         11           0       -3.592079   -0.665459   -0.014812
 ---------------------------------------------------------------------

 SCF Done:  E(UB3LYP) =  -1136.13426887     A.U. after   20 cycles

 The electronic state is 2-A.
 Alpha  occ. eigenvalues --  -38.44752 -38.44170 -38.43543 -38.43428 -38.43342
 Alpha  occ. eigenvalues --  -38.43334 -38.43326  -2.20501  -2.19975  -2.19379
 Alpha  occ. eigenvalues --   -2.19305  -2.19293  -2.19236  -2.19223  -1.14181
 Alpha  occ. eigenvalues --   -1.14156  -1.14139  -1.13642  -1.13635  -1.13612
 Alpha  occ. eigenvalues --   -1.13104  -1.13093  -1.13069  -1.12983  -1.12981
 Alpha  occ. eigenvalues --   -1.12961  -1.12949  -1.12923  -1.12915  -1.12890
 Alpha  occ. eigenvalues --   -1.12887  -1.12866  -1.12844  -1.12839  -1.12833
 Alpha  occ. eigenvalues --   -0.18480  -0.12846  -0.12470  -0.10498
 Alpha virt. eigenvalues --   -0.06258  -0.05044  -0.04607  -0.03044  -0.02866
 Alpha virt. eigenvalues --   -0.02343  -0.02013  -0.01160  -0.00446  -0.00324
 Alpha virt. eigenvalues --   -0.00054   0.00287   0.00737   0.00839   0.00861

  Beta  occ. eigenvalues --  -38.44757 -38.44156 -38.43535 -38.43423 -38.43325
  Beta  occ. eigenvalues --  -38.43286 -38.43233  -2.20512  -2.19952  -2.19368
  Beta  occ. eigenvalues --   -2.19297  -2.19213  -2.19193  -2.19064  -1.14179
  Beta  occ. eigenvalues --   -1.14164  -1.14147  -1.13623  -1.13607  -1.13598
  Beta  occ. eigenvalues --   -1.13085  -1.13072  -1.13030  -1.12980  -1.12954
  Beta  occ. eigenvalues --   -1.12938  -1.12910  -1.12888  -1.12861  -1.12837
  Beta  occ. eigenvalues --   -1.12829  -1.12805  -1.12782  -1.12736  -1.12721
  Beta  occ. eigenvalues --   -0.17756  -0.12651  -0.12222
  Beta virt. eigenvalues --   -0.06622  -0.06182  -0.05029  -0.04556  -0.02371
  Beta virt. eigenvalues --   -0.02077  -0.01927  -0.01299  -0.01103  -0.00461
  Beta virt. eigenvalues --   -0.00368   0.00103   0.00328   0.00786   0.00854

 Mulliken charges and spin densities:
               1          2
     1  Na   0.058373   0.043591
     2  Na   0.274107   0.051907
     3  Na   0.101053  -0.111992
     4  Na   0.018870  -0.123375
     5  Na  -0.289766   0.665532
     6  Na  -0.177150   0.595909
     7  Na   0.014513  -0.121573
 Sum of Mulliken charges =  -0.00000   1.00000

 Dipole moment (field-independent basis, Debye):
    X=             -0.3269    Y=             -0.2154    Z=              0.0758  Tot=              0.3988
 Quadrupole moment (field-independent basis, Debye-Ang):
   XX=            -52.2758   YY=            -64.3829   ZZ=            -75.4228
   XY=             -0.0271   XZ=             -1.9839   YZ=              0.7506

 Normal termination of Gaussian 16 at Thu Dec  7 10:40:01 2023.
