 Gaussian 16, Revision B.01,
 Gaussian 16:  ES64L-G16RevB.01 20-Dec-2017

 -------------------------
 #P B3LYP/6-311+g(d) force
 -------------------------

 -----
 DPGEN
 -----
 Symbolic Z-matrix:
 Charge =  0 Multiplicity = 2

                         Standard orientation:
 ---------------------------------------------------------------------
 Center     Atomic      Atomic             Coordinates (Angstroms)
 Number     Number       Type             X           Y           Z
 ---------------------------------------------------------------------
      1         11           0        3.370301    2.119126   -0.739329
      2         11           0        1.574422   -3.256327    1.182266
      3         11           0       -0.066527    3.698884    0.536003
      4         11           0        4.211783   -0.895974   -0.255804
      5         11           0       -1.856635   -3.394118   -0.649933
      6         11           0       -3.116487    2.817397    0.235282
      7         11           0       -4.116855   -1.088988   -0.308486
 ---------------------------------------------------------------------

 SCF Done:  E(UB3LYP) =  -1136.10552914     A.U. after   20 cycles

 The electronic state is 2-A.
 Alpha  occ. eigenvalues --  -38.44851 -38.44721 -38.44669 -38.44633 -38.44586
 Alpha  occ. eigenvalues --  -38.44454 -38.44378  -2.20626  -2.20483  -2.20446
 Alpha  occ. eigenvalues --   -2.20413  -2.20362  -2.20245  -2.20182  -1.14318
 Alpha  occ. eigenvalues --   -1.14302  -1.14277  -1.14169  -1.14166  -1.14162
 Alpha  occ. eigenvalues --   -1.14138  -1.14115  -1.14101  -1.14074  -1.14058
 Alpha  occ. eigenvalues --   -1.14012  -1.14008  -1.13998  -1.13978  -1.13899
 Alpha  occ. eigenvalues --   -1.13887  -1.13870  -1.13832  -1.13825  -1.13812
 Alpha  occ. eigenvalues --   -0.15276  -0.13813  -0.13512  -0.11043
 Alpha virt. eigenvalues --   -0.07704  -0.04951  -0.04584  -0.03544  -0.03407
 Alpha virt. eigenvalues --   -0.02397  -0.02174  -0.01860  -0.01481  -0.01154
 Alpha virt. eigenvalues --   -0.00791  -0.00186  -0.00073   0.00312   0.00618

  Beta  occ. eigenvalues --  -38.44854 -38.44726 -38.44655 -38.44615 -38.44491
  Beta  occ. eigenvalues --  -38.44402 -38.44325  -2.20637  -2.20498  -2.20423
  Beta  occ. eigenvalues --   -2.20383  -2.20185  -2.20149  -2.20084  -1.14318
  Beta  occ. eigenvalues --   -1.14315  -1.14255  -1.14178  -1.14176  -1.14137
  Beta  occ. eigenvalues --   -1.14116  -1.14101  -1.14082  -1.14056  -1.14039
  Beta  occ. eigenvalues --   -1.13975  -1.13891  -1.13880  -1.13862  -1.13834
  Beta  occ. eigenvalues --   -1.13825  -1.13803  -1.13766  -1.13762  -1.13744
  Beta  occ. eigenvalues --   -0.14727  -0.13148  -0.12767
  Beta virt. eigenvalues --   -0.07891  -0.07832  -0.04466  -0.04075  -0.03334
  Beta virt. eigenvalues --   -0.03130  -0.02251  -0.01975  -0.01694  -0.01368
  Beta virt. eigenvalues --   -0.00808  -0.00431   0.00041   0.00158   0.00315

 Mulliken charges and spin densities:
               1          2
     1  Na   0.128533   0.231092
     2  Na  -0.176299   0.450206
     3  Na  -0.047522   0.040252
     4  Na   0.086738   0.010390
     5  Na  -0.195165  -0.050264
     6  Na   0.066427   0.062609
     7  Na   0.137288   0.255714
 Sum of Mulliken charges =  -0.00000   1.00000

 Dipole moment (field-independent basis, Debye):
    X=             -0.0831    Y=              0.2114    Z=             -0.0328  Tot=              0.2295
 Quadrupole moment (field-independent basis, Debye-Ang):
   XX=            -61.4086   YY=            -66.8960   ZZ=            -72.8219
   XY=             -2.2144   XZ=             -0.0799   YZ=              0.6174

 Normal termination of Gaussian 16 at Sun Dec  3 14:17:12 2023.
