 Gaussian 16, Revision B.01,
 Gaussian 16:  ES64L-G16RevB.01 20-Dec-2017

 -------------------------
 #P B3LYP/6-311+g(d) force
 -------------------------

 -----
 DPGEN
 -----
 Symbolic Z-matrix:
 Charge =  0 Multiplicity = 2

                         Standard orientation:
 ---------------------------------------------------------------------
 Center     Atomic      Atomic             Coordinates (Angstroms)
 Number     Number       Type             X           Y           Z
 ---------------------------------------------------------------------
      1         11           0        0.171375   -0.276803   -1.088488
      2         11           0       -0.385860   -2.833139    1.431179
      3         11           0        0.044431    3.483019    0.818971
      4         11           0       -3.136323   -1.680481   -0.636687
      5         11           0       -2.649173    1.864440   -0.048607
      6         11           0        3.015453    1.405588   -0.300843
      7         11           0        2.940097   -1.962624   -0.175525
 ---------------------------------------------------------------------

 SCF Done:  E(UB3LYP) =  -1136.12720925     A.U. after   21 cycles

 The electronic state is 2-A.
 Alpha  occ. eigenvalues --  -38.44564 -38.44327 -38.44317 -38.44151 -38.43950
 Alpha  occ. eigenvalues --  -38.43482 -38.43176  -2.20384  -2.20143  -2.20141
 Alpha  occ. eigenvalues --   -2.20033  -2.19764  -2.19306  -2.18998  -1.14073
 Alpha  occ. eigenvalues --   -1.14058  -1.14018  -1.13825  -1.13824  -1.13822
 Alpha  occ. eigenvalues --   -1.13810  -1.13776  -1.13760  -1.13744  -1.13691
 Alpha  occ. eigenvalues --   -1.13644  -1.13436  -1.13407  -1.13403  -1.12965
 Alpha  occ. eigenvalues --   -1.12942  -1.12926  -1.12657  -1.12652  -1.12627
 Alpha  occ. eigenvalues --   -0.17304  -0.13601  -0.13112  -0.09791
 Alpha virt. eigenvalues --   -0.06487  -0.05913  -0.04432  -0.03475  -0.03052
 Alpha virt. eigenvalues --   -0.02061  -0.01705  -0.01293  -0.01150  -0.00870
 Alpha virt. eigenvalues --    0.00002   0.00211   0.00390   0.00604   0.00793

  Beta  occ. eigenvalues --  -38.44561 -38.44317 -38.44300 -38.44139 -38.43925
  Beta  occ. eigenvalues --  -38.43406 -38.43132  -2.20384  -2.20128  -2.20112
  Beta  occ. eigenvalues --   -2.20011  -2.19719  -2.19164  -2.18916  -1.14079
  Beta  occ. eigenvalues --   -1.14062  -1.13980  -1.13821  -1.13816  -1.13803
  Beta  occ. eigenvalues --   -1.13790  -1.13731  -1.13728  -1.13719  -1.13686
  Beta  occ. eigenvalues --   -1.13624  -1.13405  -1.13377  -1.13359  -1.12869
  Beta  occ. eigenvalues --   -1.12849  -1.12826  -1.12600  -1.12596  -1.12572
  Beta  occ. eigenvalues --   -0.16920  -0.13138  -0.12484
  Beta virt. eigenvalues --   -0.06536  -0.06498  -0.05723  -0.04133  -0.02895
  Beta virt. eigenvalues --   -0.02456  -0.01907  -0.01729  -0.01161  -0.00766
  Beta virt. eigenvalues --   -0.00644   0.00259   0.00367   0.00535   0.00644

 Mulliken charges and spin densities:
               1          2
     1  Na  -0.628826   0.074947
     2  Na  -0.352940   0.392659
     3  Na  -0.116222   0.216500
     4  Na   0.602574   0.109567
     5  Na  -0.026815   0.089007
     6  Na   0.206191   0.048197
     7  Na   0.316039   0.069124
 Sum of Mulliken charges =  -0.00000   1.00000

 Dipole moment (field-independent basis, Debye):
    X=              0.5042    Y=             -0.3046    Z=             -0.1964  Tot=              0.6209
 Quadrupole moment (field-independent basis, Debye-Ang):
   XX=            -54.4880   YY=            -69.2750   ZZ=            -73.5519
   XY=              1.6550   XZ=              0.2269   YZ=              1.7319

 Normal termination of Gaussian 16 at Tue Dec  5 18:14:42 2023.
