 Gaussian 16, Revision B.01,
 Gaussian 16:  ES64L-G16RevB.01 20-Dec-2017

 -------------------------
 #P B3LYP/6-311+g(d) force
 -------------------------

 -----
 DPGEN
 -----
 Symbolic Z-matrix:
 Charge =  0 Multiplicity = 2

                         Standard orientation:
 ---------------------------------------------------------------------
 Center     Atomic      Atomic             Coordinates (Angstroms)
 Number     Number       Type             X           Y           Z
 ---------------------------------------------------------------------
      1         11           0       -1.464974   -2.305046   -1.057117
      2         11           0       -2.844448    0.791177   -1.568100
      3         11           0       -2.701732   -0.679544    1.658044
      4         11           0       -1.383980    2.336102    1.212659
      5         11           0        0.874361   -0.042488   -0.556130
      6         11           0        3.509974   -1.417339    1.219623
      7         11           0        4.010799    1.317137   -0.908978
 ---------------------------------------------------------------------

 SCF Done:  E(UB3LYP) =  -1136.11256039     A.U. after   29 cycles

 The electronic state is 2-A.
 Alpha  occ. eigenvalues --  -38.45497 -38.45446 -38.44872 -38.44274 -38.44143
 Alpha  occ. eigenvalues --  -38.42457 -38.42157  -2.21279  -2.21232  -2.20715
 Alpha  occ. eigenvalues --   -2.20145  -2.20025  -2.18293  -2.18026  -1.14955
 Alpha  occ. eigenvalues --   -1.14938  -1.14914  -1.14900  -1.14887  -1.14832
 Alpha  occ. eigenvalues --   -1.14398  -1.14366  -1.14325  -1.13820  -1.13788
 Alpha  occ. eigenvalues --   -1.13753  -1.13742  -1.13700  -1.13646  -1.11979
 Alpha  occ. eigenvalues --   -1.11948  -1.11940  -1.11713  -1.11688  -1.11669
 Alpha  occ. eigenvalues --   -0.17553  -0.14589  -0.10839  -0.10197
 Alpha virt. eigenvalues --   -0.06993  -0.06787  -0.03635  -0.03406  -0.02852
 Alpha virt. eigenvalues --   -0.02483  -0.02089  -0.01611  -0.00960  -0.00637
 Alpha virt. eigenvalues --   -0.00113   0.00060   0.00185   0.00278   0.00407

  Beta  occ. eigenvalues --  -38.45484 -38.45412 -38.44834 -38.44210 -38.44124
  Beta  occ. eigenvalues --  -38.42455 -38.42157  -2.21257  -2.21168  -2.20646
  Beta  occ. eigenvalues --   -2.20025  -2.19995  -2.18291  -2.18031  -1.14933
  Beta  occ. eigenvalues --   -1.14921  -1.14896  -1.14855  -1.14843  -1.14791
  Beta  occ. eigenvalues --   -1.14340  -1.14321  -1.14275  -1.13733  -1.13710
  Beta  occ. eigenvalues --   -1.13701  -1.13671  -1.13667  -1.13624  -1.11978
  Beta  occ. eigenvalues --   -1.11944  -1.11921  -1.11718  -1.11692  -1.11649
  Beta  occ. eigenvalues --   -0.17000  -0.14318  -0.10643
  Beta virt. eigenvalues --   -0.06987  -0.06653  -0.05959  -0.03517  -0.03363
  Beta virt. eigenvalues --   -0.02692  -0.01980  -0.01429  -0.01183  -0.00605
  Beta virt. eigenvalues --   -0.00416  -0.00109   0.00113   0.00339   0.00466

 Mulliken charges and spin densities:
               1          2
     1  Na   1.042459  -0.002564
     2  Na   0.443453   0.063366
     3  Na   0.177494   0.323961
     4  Na  -0.016176   0.006730
     5  Na  -2.915615   0.679805
     6  Na   0.769919  -0.002088
     7  Na   0.498465  -0.069210
 Sum of Mulliken charges =  -0.00000   1.00000

 Dipole moment (field-independent basis, Debye):
    X=              2.0390    Y=              0.1528    Z=             -0.1904  Tot=              2.0536
 Quadrupole moment (field-independent basis, Debye-Ang):
   XX=            -46.8064   YY=            -74.2863   ZZ=            -70.5734
   XY=              2.2226   XZ=              3.1442   YZ=             -6.3517

 Normal termination of Gaussian 16 at Tue Dec  5 19:45:33 2023.
