 Gaussian 16, Revision B.01,
 Gaussian 16:  ES64L-G16RevB.01 20-Dec-2017

 -------------------------
 #P B3LYP/6-311+g(d) force
 -------------------------

 -----
 DPGEN
 -----
 Symbolic Z-matrix:
 Charge =  0 Multiplicity = 2

                         Standard orientation:
 ---------------------------------------------------------------------
 Center     Atomic      Atomic             Coordinates (Angstroms)
 Number     Number       Type             X           Y           Z
 ---------------------------------------------------------------------
      1         11           0        0.163924   -0.018072   -0.660144
      2         11           0       -1.985159    2.794000    0.531742
      3         11           0        3.880198   -0.165635   -0.796132
      4         11           0       -3.829741   -0.434303   -0.584418
      5         11           0        1.500397    2.994211    0.323130
      6         11           0        1.666908   -2.345048    1.040009
      7         11           0       -1.396526   -2.825152    0.145814
 ---------------------------------------------------------------------

 SCF Done:  E(UB3LYP) =  -1136.12752142     A.U. after   20 cycles

 The electronic state is 2-A.
 Alpha  occ. eigenvalues --  -38.44383 -38.44312 -38.44181 -38.44001 -38.43705
 Alpha  occ. eigenvalues --  -38.43517 -38.43362  -2.20167  -2.20111  -2.20086
 Alpha  occ. eigenvalues --   -2.19876  -2.19578  -2.19336  -2.19178  -1.13851
 Alpha  occ. eigenvalues --   -1.13838  -1.13828  -1.13811  -1.13796  -1.13787
 Alpha  occ. eigenvalues --   -1.13734  -1.13719  -1.13709  -1.13552  -1.13534
 Alpha  occ. eigenvalues --   -1.13504  -1.13256  -1.13241  -1.13204  -1.12995
 Alpha  occ. eigenvalues --   -1.12977  -1.12950  -1.12836  -1.12819  -1.12800
 Alpha  occ. eigenvalues --   -0.17319  -0.13447  -0.13356  -0.09913
 Alpha virt. eigenvalues --   -0.06343  -0.05722  -0.04421  -0.03554  -0.02741
 Alpha virt. eigenvalues --   -0.02353  -0.01849  -0.01246  -0.00963  -0.00673
 Alpha virt. eigenvalues --   -0.00321   0.00122   0.00536   0.00578   0.00749

  Beta  occ. eigenvalues --  -38.44373 -38.44299 -38.44190 -38.43972 -38.43688
  Beta  occ. eigenvalues --  -38.43442 -38.43296  -2.20152  -2.20101  -2.20090
  Beta  occ. eigenvalues --   -2.19827  -2.19552  -2.19196  -2.19055  -1.13844
  Beta  occ. eigenvalues --   -1.13833  -1.13826  -1.13802  -1.13777  -1.13768
  Beta  occ. eigenvalues --   -1.13740  -1.13728  -1.13681  -1.13519  -1.13504
  Beta  occ. eigenvalues --   -1.13445  -1.13247  -1.13228  -1.13143  -1.12898
  Beta  occ. eigenvalues --   -1.12883  -1.12859  -1.12751  -1.12737  -1.12720
  Beta  occ. eigenvalues --   -0.17014  -0.12777  -0.12716
  Beta virt. eigenvalues --   -0.06677  -0.06398  -0.05495  -0.04134  -0.02982
  Beta virt. eigenvalues --   -0.02315  -0.02095  -0.01656  -0.01046  -0.00801
  Beta virt. eigenvalues --   -0.00416   0.00005   0.00331   0.00608   0.00683

 Mulliken charges and spin densities:
               1          2
     1  Na  -2.419268  -0.112420
     2  Na   0.234881   0.035159
     3  Na   0.710528   0.461899
     4  Na   0.562613   0.412154
     5  Na   0.264080   0.058009
     6  Na   0.420305   0.047315
     7  Na   0.226860   0.097884
 Sum of Mulliken charges =  -0.00000   1.00000

 Dipole moment (field-independent basis, Debye):
    X=              0.2216    Y=              0.2906    Z=              0.7888  Tot=              0.8693
 Quadrupole moment (field-independent basis, Debye-Ang):
   XX=            -66.1073   YY=            -62.1955   ZZ=            -70.5922
   XY=             -0.8607   XZ=              0.8295   YZ=              0.1911

 Normal termination of Gaussian 16 at Wed Nov 29 16:14:50 2023.
