 Gaussian 16, Revision B.01,
 Gaussian 16:  ES64L-G16RevB.01 20-Dec-2017

 -------------------------
 #P B3LYP/6-311+g(d) force
 -------------------------

 -----
 DPGEN
 -----
 Symbolic Z-matrix:
 Charge =  0 Multiplicity = 2

                         Standard orientation:
 ---------------------------------------------------------------------
 Center     Atomic      Atomic             Coordinates (Angstroms)
 Number     Number       Type             X           Y           Z
 ---------------------------------------------------------------------
      1         11           0       -2.495284   -1.600750    1.688927
      2         11           0        4.120608   -1.525591    0.226065
      3         11           0       -0.268012    1.159100    2.277905
      4         11           0        1.694222    0.049077   -0.720652
      5         11           0       -1.792209    0.934167   -1.822153
      6         11           0       -1.441335   -2.473084   -1.323770
      7         11           0        0.182010    3.457081   -0.326321
 ---------------------------------------------------------------------

 SCF Done:  E(UB3LYP) =  -1136.12209946     A.U. after   22 cycles

 The electronic state is 2-A.
 Alpha  occ. eigenvalues --  -38.45185 -38.44951 -38.44638 -38.44280 -38.43895
 Alpha  occ. eigenvalues --  -38.42936 -38.42639  -2.20999  -2.20779  -2.20445
 Alpha  occ. eigenvalues --   -2.20093  -2.19706  -2.18732  -2.18512  -1.14662
 Alpha  occ. eigenvalues --   -1.14646  -1.14609  -1.14464  -1.14425  -1.14384
 Alpha  occ. eigenvalues --   -1.14110  -1.14102  -1.14077  -1.13763  -1.13746
 Alpha  occ. eigenvalues --   -1.13725  -1.13373  -1.13368  -1.13347  -1.12457
 Alpha  occ. eigenvalues --   -1.12382  -1.12380  -1.12200  -1.12174  -1.12112
 Alpha  occ. eigenvalues --   -0.17615  -0.12901  -0.12288  -0.11589
 Alpha virt. eigenvalues --   -0.05775  -0.05671  -0.04886  -0.03522  -0.03138
 Alpha virt. eigenvalues --   -0.02689  -0.01492  -0.01341  -0.00823  -0.00305
 Alpha virt. eigenvalues --   -0.00115   0.00215   0.00352   0.00501   0.00709

  Beta  occ. eigenvalues --  -38.45106 -38.44886 -38.44595 -38.44267 -38.43894
  Beta  occ. eigenvalues --  -38.42943 -38.42631  -2.20853  -2.20660  -2.20368
  Beta  occ. eigenvalues --   -2.20070  -2.19707  -2.18744  -2.18499  -1.14564
  Beta  occ. eigenvalues --   -1.14544  -1.14499  -1.14376  -1.14347  -1.14296
  Beta  occ. eigenvalues --   -1.14061  -1.14044  -1.14017  -1.13734  -1.13727
  Beta  occ. eigenvalues --   -1.13715  -1.13371  -1.13358  -1.13350  -1.12462
  Beta  occ. eigenvalues --   -1.12390  -1.12388  -1.12187  -1.12159  -1.12107
  Beta  occ. eigenvalues --   -0.16795  -0.12789  -0.11556
  Beta virt. eigenvalues --   -0.08204  -0.05402  -0.05363  -0.04341  -0.03020
  Beta virt. eigenvalues --   -0.02741  -0.02231  -0.01407  -0.01207  -0.00467
  Beta virt. eigenvalues --   -0.00154   0.00046   0.00271   0.00502   0.00605

 Mulliken charges and spin densities:
               1          2
     1  Na  -0.071314   0.089321
     2  Na   0.010135  -0.085109
     3  Na  -0.193310   0.378966
     4  Na  -1.273747   0.320216
     5  Na   0.472823   0.196810
     6  Na   0.112150   0.168211
     7  Na   0.943263  -0.068415
 Sum of Mulliken charges =  -0.00000   1.00000

 Dipole moment (field-independent basis, Debye):
    X=             -1.6642    Y=              0.4568    Z=              0.3406  Tot=              1.7590
 Quadrupole moment (field-independent basis, Debye-Ang):
   XX=            -70.5899   YY=            -61.8076   ZZ=            -64.8517
   XY=              2.1834   XZ=              2.3952   YZ=             -0.7431

 Normal termination of Gaussian 16 at Thu Dec  7 17:39:28 2023.
