 Gaussian 16, Revision B.01,
 Gaussian 16:  ES64L-G16RevB.01 20-Dec-2017

 -------------------------
 #P B3LYP/6-311+g(d) force
 -------------------------

 -----
 DPGEN
 -----
 Symbolic Z-matrix:
 Charge =  0 Multiplicity = 2

                         Standard orientation:
 ---------------------------------------------------------------------
 Center     Atomic      Atomic             Coordinates (Angstroms)
 Number     Number       Type             X           Y           Z
 ---------------------------------------------------------------------
      1         11           0       -2.536566    1.665706   -1.004158
      2         11           0        0.481913   -0.070234   -1.540914
      3         11           0        3.300260    0.069418   -1.018975
      4         11           0       -2.185297   -2.068284   -0.577507
      5         11           0        1.346678   -1.835218    1.191262
      6         11           0        0.926385    2.197784    1.162038
      7         11           0       -1.333373    0.040828    1.788254
 ---------------------------------------------------------------------

 SCF Done:  E(UB3LYP) =  -1136.12922022     A.U. after   21 cycles

 The electronic state is 2-A.
 Alpha  occ. eigenvalues --  -38.44194 -38.44019 -38.43621 -38.43604 -38.43566
 Alpha  occ. eigenvalues --  -38.43339 -38.43301  -2.20071  -2.19839  -2.19580
 Alpha  occ. eigenvalues --   -2.19574  -2.19492  -2.19182  -2.19149  -1.13872
 Alpha  occ. eigenvalues --   -1.13693  -1.13675  -1.13525  -1.13495  -1.13456
 Alpha  occ. eigenvalues --   -1.13309  -1.13260  -1.13224  -1.13216  -1.13208
 Alpha  occ. eigenvalues --   -1.13190  -1.13152  -1.13133  -1.13092  -1.12865
 Alpha  occ. eigenvalues --   -1.12850  -1.12841  -1.12799  -1.12796  -1.12754
 Alpha  occ. eigenvalues --   -0.18822  -0.13419  -0.11903  -0.11389
 Alpha virt. eigenvalues --   -0.05464  -0.05096  -0.04423  -0.03312  -0.03009
 Alpha virt. eigenvalues --   -0.02836  -0.01583  -0.00835  -0.00646   0.00188
 Alpha virt. eigenvalues --    0.00333   0.00437   0.00634   0.00665   0.00824

  Beta  occ. eigenvalues --  -38.44173 -38.43996 -38.43590 -38.43544 -38.43516
  Beta  occ. eigenvalues --  -38.43334 -38.43271  -2.20034  -2.19797  -2.19489
  Beta  occ. eigenvalues --   -2.19469  -2.19437  -2.19175  -2.19099  -1.13831
  Beta  occ. eigenvalues --   -1.13667  -1.13651  -1.13487  -1.13471  -1.13424
  Beta  occ. eigenvalues --   -1.13237  -1.13188  -1.13151  -1.13150  -1.13138
  Beta  occ. eigenvalues --   -1.13129  -1.13095  -1.13076  -1.13054  -1.12852
  Beta  occ. eigenvalues --   -1.12841  -1.12801  -1.12785  -1.12749  -1.12726
  Beta  occ. eigenvalues --   -0.18048  -0.13146  -0.11179
  Beta virt. eigenvalues --   -0.07887  -0.05305  -0.04937  -0.03976  -0.03022
  Beta virt. eigenvalues --   -0.02392  -0.01916  -0.01458  -0.00774  -0.00349
  Beta virt. eigenvalues --    0.00269   0.00370   0.00454   0.00712   0.00791

 Mulliken charges and spin densities:
               1          2
     1  Na   0.063705   0.032919
     2  Na  -0.499696   0.416608
     3  Na   0.465004   0.036103
     4  Na   0.130777   0.012879
     5  Na  -0.143333   0.092500
     6  Na  -0.323895   0.022811
     7  Na   0.307438   0.386179
 Sum of Mulliken charges =  -0.00000   1.00000

 Dipole moment (field-independent basis, Debye):
    X=              0.1458    Y=              0.0570    Z=             -0.1573  Tot=              0.2219
 Quadrupole moment (field-independent basis, Debye-Ang):
   XX=            -54.9935   YY=            -71.9200   ZZ=            -66.8102
   XY=              0.0110   XZ=              2.0382   YZ=             -1.0509

 Normal termination of Gaussian 16 at Wed Nov 29 15:41:42 2023.
