 Gaussian 16, Revision B.01,
 Gaussian 16:  ES64L-G16RevB.01 20-Dec-2017

 -------------------------
 #P B3LYP/6-311+g(d) force
 -------------------------

 -----
 DPGEN
 -----
 Symbolic Z-matrix:
 Charge =  0 Multiplicity = 2

                         Standard orientation:
 ---------------------------------------------------------------------
 Center     Atomic      Atomic             Coordinates (Angstroms)
 Number     Number       Type             X           Y           Z
 ---------------------------------------------------------------------
      1         11           0       -2.890447    1.562131   -0.128063
      2         11           0        0.049102    0.100632   -1.679892
      3         11           0       -2.557458   -1.989699   -0.279949
      4         11           0        1.113684   -2.596961    0.067958
      5         11           0       -0.088299    0.097182    2.347955
      6         11           0        1.032236    3.084543   -0.096990
      7         11           0        3.341182   -0.257829   -0.231019
 ---------------------------------------------------------------------

 SCF Done:  E(UB3LYP) =  -1136.13335462     A.U. after   19 cycles

 The electronic state is 2-A.
 Alpha  occ. eigenvalues --  -38.44444 -38.44350 -38.44078 -38.43805 -38.43718
 Alpha  occ. eigenvalues --  -38.43570 -38.43209  -2.20220  -2.20156  -2.19896
 Alpha  occ. eigenvalues --   -2.19604  -2.19488  -2.19475  -2.19071  -1.13900
 Alpha  occ. eigenvalues --   -1.13881  -1.13854  -1.13829  -1.13824  -1.13791
 Alpha  occ. eigenvalues --   -1.13544  -1.13520  -1.13515  -1.13281  -1.13262
 Alpha  occ. eigenvalues --   -1.13249  -1.13180  -1.13168  -1.13152  -1.13127
 Alpha  occ. eigenvalues --   -1.13109  -1.13090  -1.12754  -1.12734  -1.12705
 Alpha  occ. eigenvalues --   -0.17923  -0.12887  -0.12052  -0.10813
 Alpha virt. eigenvalues --   -0.06032  -0.05345  -0.04687  -0.03178  -0.02884
 Alpha virt. eigenvalues --   -0.02810  -0.01735  -0.01275  -0.00738  -0.00431
 Alpha virt. eigenvalues --   -0.00076   0.00327   0.00697   0.00781   0.00840

  Beta  occ. eigenvalues --  -38.44442 -38.44348 -38.43964 -38.43802 -38.43719
  Beta  occ. eigenvalues --  -38.43518 -38.43204  -2.20219  -2.20153  -2.19685
  Beta  occ. eigenvalues --   -2.19601  -2.19490  -2.19380  -2.19064  -1.13885
  Beta  occ. eigenvalues --   -1.13881  -1.13856  -1.13830  -1.13807  -1.13792
  Beta  occ. eigenvalues --   -1.13403  -1.13374  -1.13365  -1.13268  -1.13257
  Beta  occ. eigenvalues --   -1.13247  -1.13166  -1.13149  -1.13130  -1.13105
  Beta  occ. eigenvalues --   -1.13046  -1.13023  -1.12750  -1.12708  -1.12699
  Beta  occ. eigenvalues --   -0.17215  -0.12712  -0.11877
  Beta virt. eigenvalues --   -0.06819  -0.06023  -0.05307  -0.04597  -0.02449
  Beta virt. eigenvalues --   -0.02101  -0.01788  -0.01631  -0.01209  -0.00794
  Beta virt. eigenvalues --   -0.00468   0.00098   0.00370   0.00754   0.00813

 Mulliken charges and spin densities:
               1          2
     1  Na   0.087456  -0.059293
     2  Na   0.030520   0.335443
     3  Na   0.113722   0.005538
     4  Na   0.168136   0.066564
     5  Na  -0.533408   0.785543
     6  Na  -0.030410  -0.096002
     7  Na   0.163983  -0.037793
 Sum of Mulliken charges =  -0.00000   1.00000

 Dipole moment (field-independent basis, Debye):
    X=             -0.0767    Y=              0.2266    Z=              0.0341  Tot=              0.2416
 Quadrupole moment (field-independent basis, Debye-Ang):
   XX=            -55.4602   YY=            -64.0295   ZZ=            -74.5863
   XY=              0.0845   XZ=              0.1112   YZ=              0.2361

 Normal termination of Gaussian 16 at Thu Dec  7 12:59:20 2023.
