 Gaussian 16, Revision B.01,
 Gaussian 16:  ES64L-G16RevB.01 20-Dec-2017

 -------------------------
 #P B3LYP/6-311+g(d) force
 -------------------------

 -----
 DPGEN
 -----
 Symbolic Z-matrix:
 Charge =  0 Multiplicity = 2

                         Standard orientation:
 ---------------------------------------------------------------------
 Center     Atomic      Atomic             Coordinates (Angstroms)
 Number     Number       Type             X           Y           Z
 ---------------------------------------------------------------------
      1         11           0        3.779058   -2.432396    0.061818
      2         11           0        4.900752    0.537914    1.024675
      3         11           0        1.747587    2.821012    0.340504
      4         11           0       -1.167353    1.852120   -1.453391
      5         11           0       -3.494525   -0.188448   -0.821029
      6         11           0       -0.124783   -2.081433   -1.021762
      7         11           0       -5.640737   -0.508769    1.869184
 ---------------------------------------------------------------------

 SCF Done:  E(UB3LYP) =  -1136.10524535     A.U. after   21 cycles

 The electronic state is 2-A.
 Alpha  occ. eigenvalues --  -38.45957 -38.45148 -38.44769 -38.44223 -38.44216
 Alpha  occ. eigenvalues --  -38.44107 -38.43920  -2.21709  -2.20936  -2.20540
 Alpha  occ. eigenvalues --   -2.20042  -2.19975  -2.19845  -2.19734  -1.15380
 Alpha  occ. eigenvalues --   -1.15361  -1.15298  -1.14571  -1.14571  -1.14553
 Alpha  occ. eigenvalues --   -1.14212  -1.14195  -1.14175  -1.13759  -1.13717
 Alpha  occ. eigenvalues --   -1.13693  -1.13655  -1.13640  -1.13621  -1.13534
 Alpha  occ. eigenvalues --   -1.13521  -1.13481  -1.13413  -1.13390  -1.13352
 Alpha  occ. eigenvalues --   -0.16038  -0.13974  -0.12097  -0.11679
 Alpha virt. eigenvalues --   -0.07032  -0.06310  -0.04089  -0.03642  -0.02863
 Alpha virt. eigenvalues --   -0.02738  -0.02376  -0.01603  -0.01348  -0.00815
 Alpha virt. eigenvalues --   -0.00692  -0.00654  -0.00299   0.00189   0.00624

  Beta  occ. eigenvalues --  -38.45866 -38.45046 -38.44746 -38.44231 -38.44223
  Beta  occ. eigenvalues --  -38.44117 -38.43916  -2.21539  -2.20747  -2.20497
  Beta  occ. eigenvalues --   -2.20064  -2.19989  -2.19864  -2.19724  -1.15266
  Beta  occ. eigenvalues --   -1.15248  -1.15172  -1.14443  -1.14442  -1.14426
  Beta  occ. eigenvalues --   -1.14181  -1.14170  -1.14146  -1.13774  -1.13737
  Beta  occ. eigenvalues --   -1.13666  -1.13666  -1.13650  -1.13619  -1.13547
  Beta  occ. eigenvalues --   -1.13535  -1.13492  -1.13407  -1.13382  -1.13353
  Beta  occ. eigenvalues --   -0.15473  -0.13574  -0.11442
  Beta virt. eigenvalues --   -0.08560  -0.06472  -0.05860  -0.03662  -0.03454
  Beta virt. eigenvalues --   -0.02692  -0.02458  -0.02148  -0.01298  -0.01007
  Beta virt. eigenvalues --   -0.00688  -0.00481  -0.00318  -0.00090   0.00266

 Mulliken charges and spin densities:
               1          2
     1  Na   0.192896  -0.078800
     2  Na  -0.118698   0.104066
     3  Na   0.098943   0.017088
     4  Na  -0.149399   0.052181
     5  Na  -0.184051  -0.113058
     6  Na  -0.077726   0.532443
     7  Na   0.238034   0.486081
 Sum of Mulliken charges =  -0.00000   1.00000

 Dipole moment (field-independent basis, Debye):
    X=             -0.2893    Y=             -0.4515    Z=              0.4864  Tot=              0.7240
 Quadrupole moment (field-independent basis, Debye-Ang):
   XX=            -59.4717   YY=            -71.1922   ZZ=            -67.8959
   XY=              1.0246   XZ=             -0.3188   YZ=              1.5488

 Normal termination of Gaussian 16 at Sun Dec  3 12:45:06 2023.
