 Gaussian 16, Revision B.01,
 Gaussian 16:  ES64L-G16RevB.01 20-Dec-2017

 -------------------------
 #P B3LYP/6-311+g(d) force
 -------------------------

 -----
 DPGEN
 -----
 Symbolic Z-matrix:
 Charge =  0 Multiplicity = 2

                         Standard orientation:
 ---------------------------------------------------------------------
 Center     Atomic      Atomic             Coordinates (Angstroms)
 Number     Number       Type             X           Y           Z
 ---------------------------------------------------------------------
      1         11           0       -1.013120   -0.209431    1.576394
      2         11           0        4.013504    1.693473   -0.559777
      3         11           0        0.670879    2.264826    0.732943
      4         11           0        2.523022   -1.998772    1.244722
      5         11           0        3.955201   -1.652079   -1.583272
      6         11           0       -3.844399    0.987883   -0.984610
      7         11           0       -6.305086   -1.085901   -0.426401
 ---------------------------------------------------------------------

 SCF Done:  E(UB3LYP) =  -1136.11216250     A.U. after   20 cycles

 The electronic state is 2-A.
 Alpha  occ. eigenvalues --  -38.45061 -38.44888 -38.44115 -38.44100 -38.43974
 Alpha  occ. eigenvalues --  -38.43874 -38.43856  -2.20871  -2.20696  -2.19926
 Alpha  occ. eigenvalues --   -2.19874  -2.19790  -2.19675  -2.19637  -1.14547
 Alpha  occ. eigenvalues --   -1.14509  -1.14489  -1.14360  -1.14342  -1.14300
 Alpha  occ. eigenvalues --   -1.13602  -1.13587  -1.13566  -1.13551  -1.13544
 Alpha  occ. eigenvalues --   -1.13512  -1.13508  -1.13454  -1.13421  -1.13340
 Alpha  occ. eigenvalues --   -1.13327  -1.13302  -1.13301  -1.13284  -1.13266
 Alpha  occ. eigenvalues --   -0.16410  -0.13615  -0.11907  -0.11524
 Alpha virt. eigenvalues --   -0.06551  -0.05214  -0.04751  -0.03832  -0.03262
 Alpha virt. eigenvalues --   -0.02438  -0.02030  -0.01765  -0.01050  -0.00565
 Alpha virt. eigenvalues --   -0.00331  -0.00176   0.00091   0.00292   0.00502

  Beta  occ. eigenvalues --  -38.44989 -38.44800 -38.44114 -38.44097 -38.43957
  Beta  occ. eigenvalues --  -38.43878 -38.43836  -2.20738  -2.20533  -2.19927
  Beta  occ. eigenvalues --   -2.19869  -2.19758  -2.19646  -2.19640  -1.14454
  Beta  occ. eigenvalues --   -1.14421  -1.14390  -1.14250  -1.14230  -1.14184
  Beta  occ. eigenvalues --   -1.13594  -1.13584  -1.13561  -1.13547  -1.13540
  Beta  occ. eigenvalues --   -1.13508  -1.13493  -1.13432  -1.13389  -1.13320
  Beta  occ. eigenvalues --   -1.13308  -1.13307  -1.13304  -1.13270  -1.13245
  Beta  occ. eigenvalues --   -0.15605  -0.13536  -0.11582
  Beta virt. eigenvalues --   -0.07828  -0.06259  -0.04683  -0.04419  -0.03609
  Beta virt. eigenvalues --   -0.02595  -0.02229  -0.01948  -0.01519  -0.00701
  Beta virt. eigenvalues --   -0.00497  -0.00210   0.00065   0.00235   0.00500

 Mulliken charges and spin densities:
               1          2
     1  Na  -0.102262   0.064571
     2  Na   0.034370   0.393058
     3  Na  -0.143277   0.158362
     4  Na  -0.056133   0.422336
     5  Na   0.100351  -0.006574
     6  Na  -0.074934   0.000152
     7  Na   0.241884  -0.031906
 Sum of Mulliken charges =  -0.00000   1.00000

 Dipole moment (field-independent basis, Debye):
    X=              1.0527    Y=             -0.4500    Z=              0.0000  Tot=              1.1448
 Quadrupole moment (field-independent basis, Debye-Ang):
   XX=            -67.6346   YY=            -65.7635   ZZ=            -68.0362
   XY=              4.7485   XZ=             -3.3756   YZ=             -2.8738

 Normal termination of Gaussian 16 at Mon Dec  4 03:10:43 2023.
