 Gaussian 16, Revision B.01,
 Gaussian 16:  ES64L-G16RevB.01 20-Dec-2017

 -------------------------
 #P B3LYP/6-311+g(d) force
 -------------------------

 -----
 DPGEN
 -----
 Symbolic Z-matrix:
 Charge =  0 Multiplicity = 2

                         Standard orientation:
 ---------------------------------------------------------------------
 Center     Atomic      Atomic             Coordinates (Angstroms)
 Number     Number       Type             X           Y           Z
 ---------------------------------------------------------------------
      1         11           0       -1.087456   -0.780993   -0.227618
      2         11           0       -5.032207   -1.715605    0.340828
      3         11           0        5.328942   -1.123419   -0.223399
      4         11           0        2.493582   -1.662688    0.500465
      5         11           0       -3.326326    0.680229   -0.947647
      6         11           0        2.418023    2.044994   -0.404409
      7         11           0       -0.794558    2.557482    0.961780
 ---------------------------------------------------------------------

 SCF Done:  E(UB3LYP) =  -1136.10955840     A.U. after   23 cycles

 The electronic state is 2-A.
 Alpha  occ. eigenvalues --  -38.45091 -38.44895 -38.44472 -38.44047 -38.43983
 Alpha  occ. eigenvalues --  -38.43679 -38.43479  -2.20850  -2.20810  -2.20266
 Alpha  occ. eigenvalues --   -2.19911  -2.19863  -2.19487  -2.19342  -1.14649
 Alpha  occ. eigenvalues --   -1.14545  -1.14520  -1.14455  -1.14446  -1.14389
 Alpha  occ. eigenvalues --   -1.13926  -1.13924  -1.13888  -1.13596  -1.13589
 Alpha  occ. eigenvalues --   -1.13548  -1.13510  -1.13487  -1.13474  -1.13162
 Alpha  occ. eigenvalues --   -1.13142  -1.13128  -1.13007  -1.12994  -1.12970
 Alpha  occ. eigenvalues --   -0.17034  -0.14396  -0.11916  -0.10248
 Alpha virt. eigenvalues --   -0.07047  -0.05716  -0.04303  -0.03512  -0.03040
 Alpha virt. eigenvalues --   -0.02468  -0.01820  -0.01498  -0.01371  -0.00382
 Alpha virt. eigenvalues --   -0.00186   0.00091   0.00214   0.00336   0.00441

  Beta  occ. eigenvalues --  -38.45057 -38.44892 -38.44450 -38.44036 -38.43913
  Beta  occ. eigenvalues --  -38.43675 -38.43446  -2.20807  -2.20787  -2.20225
  Beta  occ. eigenvalues --   -2.19841  -2.19783  -2.19479  -2.19284  -1.14630
  Beta  occ. eigenvalues --   -1.14503  -1.14471  -1.14451  -1.14399  -1.14388
  Beta  occ. eigenvalues --   -1.13896  -1.13892  -1.13864  -1.13577  -1.13503
  Beta  occ. eigenvalues --   -1.13495  -1.13468  -1.13454  -1.13394  -1.13155
  Beta  occ. eigenvalues --   -1.13130  -1.13124  -1.12973  -1.12959  -1.12896
  Beta  occ. eigenvalues --   -0.16544  -0.14112  -0.11666
  Beta virt. eigenvalues --   -0.06885  -0.06478  -0.05438  -0.03914  -0.03243
  Beta virt. eigenvalues --   -0.02889  -0.02112  -0.01696  -0.01205  -0.01000
  Beta virt. eigenvalues --   -0.00121   0.00013   0.00195   0.00379   0.00427

 Mulliken charges and spin densities:
               1          2
     1  Na  -2.056845   0.010454
     2  Na   0.414085   0.076330
     3  Na   0.404364   0.078467
     4  Na  -0.725558  -0.115108
     5  Na   1.958263   0.614996
     6  Na  -0.112710   0.222681
     7  Na   0.118401   0.112180
 Sum of Mulliken charges =  -0.00000   1.00000

 Dipole moment (field-independent basis, Debye):
    X=             -0.7184    Y=              0.1782    Z=              0.0593  Tot=              0.7425
 Quadrupole moment (field-independent basis, Debye-Ang):
   XX=            -58.2288   YY=            -69.7337   ZZ=            -68.4251
   XY=              0.6009   XZ=             -3.9983   YZ=             -2.7330

 Normal termination of Gaussian 16 at Sun Dec  3 20:01:39 2023.
