 Gaussian 16, Revision B.01,
 Gaussian 16:  ES64L-G16RevB.01 20-Dec-2017

 -------------------------
 #P B3LYP/6-311+g(d) force
 -------------------------

 -----
 DPGEN
 -----
 Symbolic Z-matrix:
 Charge =  0 Multiplicity = 2

                         Standard orientation:
 ---------------------------------------------------------------------
 Center     Atomic      Atomic             Coordinates (Angstroms)
 Number     Number       Type             X           Y           Z
 ---------------------------------------------------------------------
      1         11           0        0.466414    1.539507   -0.977972
      2         11           0        3.452071   -1.375409   -0.447326
      3         11           0       -5.556456    0.429176   -0.114973
      4         11           0       -2.842545   -0.224938    0.292747
      5         11           0        3.206119    2.079772    0.206879
      6         11           0        0.241638   -2.067412   -0.575935
      7         11           0        1.032759   -0.380696    1.616579
 ---------------------------------------------------------------------

 SCF Done:  E(UB3LYP) =  -1136.11127296     A.U. after   23 cycles

 The electronic state is 2-A.
 Alpha  occ. eigenvalues --  -38.45696 -38.44419 -38.44209 -38.43970 -38.43339
 Alpha  occ. eigenvalues --  -38.43138 -38.43066  -2.21662  -2.20329  -2.20103
 Alpha  occ. eigenvalues --   -2.19834  -2.19282  -2.19019  -2.18952  -1.15398
 Alpha  occ. eigenvalues --   -1.15305  -1.15285  -1.14009  -1.13986  -1.13951
 Alpha  occ. eigenvalues --   -1.13775  -1.13752  -1.13703  -1.13593  -1.13438
 Alpha  occ. eigenvalues --   -1.13436  -1.12998  -1.12947  -1.12877  -1.12688
 Alpha  occ. eigenvalues --   -1.12671  -1.12670  -1.12630  -1.12608  -1.12590
 Alpha  occ. eigenvalues --   -0.18786  -0.14145  -0.11798  -0.11254
 Alpha virt. eigenvalues --   -0.07228  -0.04790  -0.04307  -0.03420  -0.02965
 Alpha virt. eigenvalues --   -0.02116  -0.01829  -0.01564  -0.01131  -0.00896
 Alpha virt. eigenvalues --   -0.00300   0.00106   0.00334   0.00619   0.00725

  Beta  occ. eigenvalues --  -38.45683 -38.44377 -38.44136 -38.43890 -38.43331
  Beta  occ. eigenvalues --  -38.43132 -38.43061  -2.21643  -2.20254  -2.19966
  Beta  occ. eigenvalues --   -2.19686  -2.19272  -2.19019  -2.18944  -1.15389
  Beta  occ. eigenvalues --   -1.15279  -1.15249  -1.13960  -1.13938  -1.13888
  Beta  occ. eigenvalues --   -1.13679  -1.13667  -1.13604  -1.13497  -1.13338
  Beta  occ. eigenvalues --   -1.13336  -1.12994  -1.12945  -1.12842  -1.12696
  Beta  occ. eigenvalues --   -1.12680  -1.12626  -1.12605  -1.12599  -1.12564
  Beta  occ. eigenvalues --   -0.18143  -0.13316  -0.11497
  Beta virt. eigenvalues --   -0.07816  -0.07039  -0.04534  -0.03672  -0.03110
  Beta virt. eigenvalues --   -0.02773  -0.02001  -0.01461  -0.01240  -0.00803
  Beta virt. eigenvalues --   -0.00462  -0.00162   0.00230   0.00407   0.00675

 Mulliken charges and spin densities:
               1          2
     1  Na  -0.362751   0.043135
     2  Na   0.204334   0.411855
     3  Na  -0.008682   0.087132
     4  Na  -0.495418   0.519740
     5  Na   0.436271   0.016425
     6  Na   0.301449  -0.146222
     7  Na  -0.075202   0.067934
 Sum of Mulliken charges =  -0.00000   1.00000

 Dipole moment (field-independent basis, Debye):
    X=              1.1828    Y=             -0.1162    Z=              0.0535  Tot=              1.1897
 Quadrupole moment (field-independent basis, Debye-Ang):
   XX=            -66.3589   YY=            -76.7183   ZZ=            -61.5702
   XY=             -0.7226   XZ=              1.7743   YZ=              1.1043

 Normal termination of Gaussian 16 at Fri Dec  8 02:01:29 2023.
