 Gaussian 16, Revision B.01,
 Gaussian 16:  ES64L-G16RevB.01 20-Dec-2017

 -------------------------
 #P B3LYP/6-311+g(d) force
 -------------------------

 -----
 DPGEN
 -----
 Symbolic Z-matrix:
 Charge =  0 Multiplicity = 2

                         Standard orientation:
 ---------------------------------------------------------------------
 Center     Atomic      Atomic             Coordinates (Angstroms)
 Number     Number       Type             X           Y           Z
 ---------------------------------------------------------------------
      1         11           0       -3.378503    0.271226    0.383142
      2         11           0       -1.076733   -2.644297   -0.333050
      3         11           0       -0.641680    2.832088   -0.178004
      4         11           0        0.076767    0.276280    1.862370
      5         11           0       -0.458661   -0.163370   -1.826933
      6         11           0        3.209471    1.157485   -0.392654
      7         11           0        2.269340   -1.729413    0.485128
 ---------------------------------------------------------------------

 SCF Done:  E(UB3LYP) =  -1136.13133730     A.U. after   20 cycles

 The electronic state is 2-A.
 Alpha  occ. eigenvalues --  -38.44962 -38.44471 -38.43635 -38.43476 -38.43460
 Alpha  occ. eigenvalues --  -38.43354 -38.43016  -2.20746  -2.20266  -2.19544
 Alpha  occ. eigenvalues --   -2.19420  -2.19342  -2.19182  -2.18895  -1.14425
 Alpha  occ. eigenvalues --   -1.14393  -1.14381  -1.13957  -1.13927  -1.13895
 Alpha  occ. eigenvalues --   -1.13235  -1.13205  -1.13161  -1.13149  -1.13072
 Alpha  occ. eigenvalues --   -1.13025  -1.13014  -1.13002  -1.12966  -1.12862
 Alpha  occ. eigenvalues --   -1.12859  -1.12796  -1.12590  -1.12534  -1.12508
 Alpha  occ. eigenvalues --   -0.18447  -0.13206  -0.12100  -0.10738
 Alpha virt. eigenvalues --   -0.06398  -0.04855  -0.04407  -0.03394  -0.02854
 Alpha virt. eigenvalues --   -0.02500  -0.02060  -0.00983  -0.00421  -0.00256
 Alpha virt. eigenvalues --   -0.00017   0.00323   0.00713   0.00797   0.00842

  Beta  occ. eigenvalues --  -38.44954 -38.44468 -38.43560 -38.43449 -38.43399
  Beta  occ. eigenvalues --  -38.43348 -38.43007  -2.20732  -2.20262  -2.19407
  Beta  occ. eigenvalues --   -2.19326  -2.19279  -2.19175  -2.18884  -1.14400
  Beta  occ. eigenvalues --   -1.14385  -1.14373  -1.13957  -1.13912  -1.13893
  Beta  occ. eigenvalues --   -1.13147  -1.13109  -1.13067  -1.13054  -1.12992
  Beta  occ. eigenvalues --   -1.12977  -1.12975  -1.12953  -1.12925  -1.12855
  Beta  occ. eigenvalues --   -1.12832  -1.12789  -1.12567  -1.12508  -1.12504
  Beta  occ. eigenvalues --   -0.17730  -0.13002  -0.11834
  Beta virt. eigenvalues --   -0.06904  -0.06307  -0.04808  -0.04358  -0.02681
  Beta virt. eigenvalues --   -0.02092  -0.01950  -0.01500  -0.00898  -0.00456
  Beta virt. eigenvalues --   -0.00240   0.00092   0.00351   0.00814   0.00841

 Mulliken charges and spin densities:
               1          2
     1  Na   0.076617  -0.047899
     2  Na   0.151267  -0.046841
     3  Na  -0.091685  -0.102249
     4  Na  -0.081463   0.559586
     5  Na  -0.153233   0.642130
     6  Na  -0.122019  -0.028566
     7  Na   0.220516   0.023839
 Sum of Mulliken charges =  -0.00000   1.00000

 Dipole moment (field-independent basis, Debye):
    X=             -0.3515    Y=              0.3313    Z=              0.0931  Tot=              0.4919
 Quadrupole moment (field-independent basis, Debye-Ang):
   XX=            -52.3377   YY=            -66.4316   ZZ=            -74.2544
   XY=              0.8341   XZ=             -1.9607   YZ=             -1.6150

 Normal termination of Gaussian 16 at Fri Dec  8 06:28:52 2023.
