 Gaussian 16, Revision B.01,
 Gaussian 16:  ES64L-G16RevB.01 20-Dec-2017

 -------------------------
 #P B3LYP/6-311+g(d) force
 -------------------------

 -----
 DPGEN
 -----
 Symbolic Z-matrix:
 Charge =  0 Multiplicity = 2

                         Standard orientation:
 ---------------------------------------------------------------------
 Center     Atomic      Atomic             Coordinates (Angstroms)
 Number     Number       Type             X           Y           Z
 ---------------------------------------------------------------------
      1         11           0       -2.528684    0.112390   -1.199204
      2         11           0        2.714128    1.462163    0.795459
      3         11           0        3.936981   -2.008335   -0.230960
      4         11           0       -1.023159    1.325138    2.003043
      5         11           0       -0.337988    2.392711   -1.439555
      6         11           0       -3.417810   -2.096806    0.678877
      7         11           0        0.656533   -1.187260   -0.607659
 ---------------------------------------------------------------------

 SCF Done:  E(UB3LYP) =  -1136.12349193     A.U. after   21 cycles

 The electronic state is 2-A.
 Alpha  occ. eigenvalues --  -38.44973 -38.44431 -38.44298 -38.43940 -38.43882
 Alpha  occ. eigenvalues --  -38.43494 -38.43280  -2.20750  -2.20239  -2.20131
 Alpha  occ. eigenvalues --   -2.19755  -2.19661  -2.19443  -2.19148  -1.14441
 Alpha  occ. eigenvalues --   -1.14424  -1.14349  -1.13919  -1.13886  -1.13839
 Alpha  occ. eigenvalues --   -1.13838  -1.13802  -1.13747  -1.13483  -1.13395
 Alpha  occ. eigenvalues --   -1.13390  -1.13330  -1.13329  -1.13290  -1.13128
 Alpha  occ. eigenvalues --   -1.13095  -1.13074  -1.12816  -1.12805  -1.12756
 Alpha  occ. eigenvalues --   -0.17819  -0.13585  -0.11729  -0.10952
 Alpha virt. eigenvalues --   -0.06327  -0.06010  -0.04303  -0.03248  -0.02688
 Alpha virt. eigenvalues --   -0.02504  -0.02224  -0.01575  -0.00714  -0.00512
 Alpha virt. eigenvalues --   -0.00189   0.00147   0.00267   0.00580   0.00697

  Beta  occ. eigenvalues --  -38.44957 -38.44360 -38.44281 -38.43927 -38.43885
  Beta  occ. eigenvalues --  -38.43462 -38.43237  -2.20720  -2.20109  -2.20101
  Beta  occ. eigenvalues --   -2.19729  -2.19667  -2.19390  -2.19075  -1.14414
  Beta  occ. eigenvalues --   -1.14407  -1.14327  -1.13828  -1.13802  -1.13794
  Beta  occ. eigenvalues --   -1.13782  -1.13744  -1.13730  -1.13465  -1.13377
  Beta  occ. eigenvalues --   -1.13367  -1.13334  -1.13331  -1.13295  -1.13086
  Beta  occ. eigenvalues --   -1.13065  -1.13007  -1.12766  -1.12751  -1.12690
  Beta  occ. eigenvalues --   -0.17142  -0.13417  -0.11512
  Beta virt. eigenvalues --   -0.07150  -0.06035  -0.05801  -0.04035  -0.02826
  Beta virt. eigenvalues --   -0.02297  -0.02180  -0.01771  -0.01256  -0.00584
  Beta virt. eigenvalues --   -0.00320   0.00014   0.00211   0.00396   0.00648

 Mulliken charges and spin densities:
               1          2
     1  Na   0.997931   0.075841
     2  Na   0.097410   0.091451
     3  Na   0.376229  -0.035618
     4  Na  -0.306170   0.467502
     5  Na   0.231114   0.085960
     6  Na   0.387160   0.148473
     7  Na  -1.783672   0.166392
 Sum of Mulliken charges =  -0.00000   1.00000

 Dipole moment (field-independent basis, Debye):
    X=              0.7365    Y=              0.3602    Z=              0.4465  Tot=              0.9335
 Quadrupole moment (field-independent basis, Debye-Ang):
   XX=            -56.3659   YY=            -67.0278   ZZ=            -71.6274
   XY=              2.1112   XZ=             -0.3608   YZ=             -1.5650

 Normal termination of Gaussian 16 at Fri Dec  8 03:10:21 2023.
