 Gaussian 16, Revision B.01,
 Gaussian 16:  ES64L-G16RevB.01 20-Dec-2017

 -------------------------
 #P B3LYP/6-311+g(d) force
 -------------------------

 -----
 DPGEN
 -----
 Symbolic Z-matrix:
 Charge =  0 Multiplicity = 2

                         Standard orientation:
 ---------------------------------------------------------------------
 Center     Atomic      Atomic             Coordinates (Angstroms)
 Number     Number       Type             X           Y           Z
 ---------------------------------------------------------------------
      1         11           0       -2.806633   -2.183488   -0.251757
      2         11           0        0.235798   -0.148292    2.112762
      3         11           0       -2.888683    1.045359    0.388641
      4         11           0        3.038571   -1.928252    0.073980
      5         11           0        2.759053    1.494767   -0.130718
      6         11           0       -0.493131    2.476578   -0.607420
      7         11           0        0.155024   -0.756672   -1.585487
 ---------------------------------------------------------------------

 SCF Done:  E(UB3LYP) =  -1136.12642129     A.U. after   22 cycles

 The electronic state is 2-A.
 Alpha  occ. eigenvalues --  -38.44557 -38.44422 -38.44384 -38.44223 -38.43905
 Alpha  occ. eigenvalues --  -38.43718 -38.42577  -2.20387  -2.20265  -2.20219
 Alpha  occ. eigenvalues --   -2.20058  -2.19703  -2.19603  -2.18487  -1.14061
 Alpha  occ. eigenvalues --   -1.14053  -1.14031  -1.13985  -1.13916  -1.13899
 Alpha  occ. eigenvalues --   -1.13886  -1.13880  -1.13859  -1.13727  -1.13690
 Alpha  occ. eigenvalues --   -1.13667  -1.13371  -1.13367  -1.13352  -1.13295
 Alpha  occ. eigenvalues --   -1.13256  -1.13209  -1.12180  -1.12146  -1.12113
 Alpha  occ. eigenvalues --   -0.18339  -0.13732  -0.11679  -0.10746
 Alpha virt. eigenvalues --   -0.06311  -0.06151  -0.03933  -0.03495  -0.02627
 Alpha virt. eigenvalues --   -0.02553  -0.02103  -0.01497  -0.00717  -0.00142
 Alpha virt. eigenvalues --    0.00004   0.00278   0.00565   0.00658   0.00728

  Beta  occ. eigenvalues --  -38.44551 -38.44423 -38.44380 -38.44127 -38.43906
  Beta  occ. eigenvalues --  -38.43659 -38.42565  -2.20378  -2.20258  -2.20222
  Beta  occ. eigenvalues --   -2.19881  -2.19707  -2.19496  -2.18468  -1.14051
  Beta  occ. eigenvalues --   -1.14036  -1.14023  -1.13985  -1.13902  -1.13886
  Beta  occ. eigenvalues --   -1.13885  -1.13872  -1.13858  -1.13607  -1.13568
  Beta  occ. eigenvalues --   -1.13538  -1.13374  -1.13359  -1.13351  -1.13222
  Beta  occ. eigenvalues --   -1.13173  -1.13133  -1.12170  -1.12128  -1.12082
  Beta  occ. eigenvalues --   -0.17610  -0.13575  -0.11469
  Beta virt. eigenvalues --   -0.06857  -0.06175  -0.06105  -0.03761  -0.02876
  Beta virt. eigenvalues --   -0.01986  -0.01938  -0.01662  -0.01264  -0.00775
  Beta virt. eigenvalues --   -0.00050   0.00099   0.00313   0.00663   0.00703

 Mulliken charges and spin densities:
               1          2
     1  Na   0.083601  -0.013923
     2  Na  -0.343555   0.529412
     3  Na   0.290380   0.117921
     4  Na   0.121586   0.003671
     5  Na   0.240230   0.065995
     6  Na  -0.137168   0.005698
     7  Na  -0.255074   0.291227
 Sum of Mulliken charges =  -0.00000   1.00000

 Dipole moment (field-independent basis, Debye):
    X=              0.6363    Y=             -0.3730    Z=              0.2472  Tot=              0.7779
 Quadrupole moment (field-independent basis, Debye-Ang):
   XX=            -51.6460   YY=            -68.1129   ZZ=            -74.6519
   XY=             -0.2907   XZ=             -0.6950   YZ=             -0.4911

 Normal termination of Gaussian 16 at Fri Dec  8 02:39:20 2023.
