 Gaussian 16, Revision B.01,
 Gaussian 16:  ES64L-G16RevB.01 20-Dec-2017

 -------------------------
 #P B3LYP/6-311+g(d) force
 -------------------------

 -----
 DPGEN
 -----
 Symbolic Z-matrix:
 Charge =  0 Multiplicity = 2

                         Standard orientation:
 ---------------------------------------------------------------------
 Center     Atomic      Atomic             Coordinates (Angstroms)
 Number     Number       Type             X           Y           Z
 ---------------------------------------------------------------------
      1         11           0        3.835300   -1.825140   -0.243856
      2         11           0        0.886513    2.593596   -1.110110
      3         11           0       -3.939894   -1.570127   -0.187974
      4         11           0       -0.149356   -1.307445   -1.206697
      5         11           0        2.481273    0.729633    0.852322
      6         11           0       -0.607623   -0.017825    1.915259
      7         11           0       -2.506213    1.397308   -0.018944
 ---------------------------------------------------------------------

 SCF Done:  E(UB3LYP) =  -1136.11401472     A.U. after   26 cycles

 The electronic state is 2-A.
 Alpha  occ. eigenvalues --  -38.45456 -38.44799 -38.44670 -38.44084 -38.43934
 Alpha  occ. eigenvalues --  -38.43903 -38.43028  -2.21246  -2.20580  -2.20552
 Alpha  occ. eigenvalues --   -2.19872  -2.19858  -2.19827  -2.18871  -1.14975
 Alpha  occ. eigenvalues --   -1.14909  -1.14829  -1.14298  -1.14282  -1.14241
 Alpha  occ. eigenvalues --   -1.14224  -1.14205  -1.14125  -1.13631  -1.13556
 Alpha  occ. eigenvalues --   -1.13532  -1.13515  -1.13513  -1.13499  -1.13489
 Alpha  occ. eigenvalues --   -1.13428  -1.13399  -1.12557  -1.12518  -1.12479
 Alpha  occ. eigenvalues --   -0.18272  -0.14011  -0.11431  -0.10569
 Alpha virt. eigenvalues --   -0.07195  -0.06088  -0.04035  -0.03363  -0.02863
 Alpha virt. eigenvalues --   -0.02444  -0.02168  -0.01787  -0.00821  -0.00352
 Alpha virt. eigenvalues --    0.00016   0.00121   0.00387   0.00405   0.00635

  Beta  occ. eigenvalues --  -38.45419 -38.44803 -38.44658 -38.44100 -38.43890
  Beta  occ. eigenvalues --  -38.43835 -38.42990  -2.21180  -2.20590  -2.20535
  Beta  occ. eigenvalues --   -2.19901  -2.19807  -2.19677  -2.18800  -1.14916
  Beta  occ. eigenvalues --   -1.14859  -1.14781  -1.14291  -1.14267  -1.14239
  Beta  occ. eigenvalues --   -1.14224  -1.14183  -1.14123  -1.13647  -1.13546
  Beta  occ. eigenvalues --   -1.13531  -1.13495  -1.13474  -1.13406  -1.13395
  Beta  occ. eigenvalues --   -1.13375  -1.13306  -1.12509  -1.12462  -1.12433
  Beta  occ. eigenvalues --   -0.17562  -0.13923  -0.11207
  Beta virt. eigenvalues --   -0.07042  -0.06739  -0.05983  -0.03538  -0.02949
  Beta virt. eigenvalues --   -0.02756  -0.01918  -0.01862  -0.01117  -0.00779
  Beta virt. eigenvalues --   -0.00188   0.00073   0.00186   0.00522   0.00581

 Mulliken charges and spin densities:
               1          2
     1  Na  -0.072037  -0.227937
     2  Na  -0.228083  -0.081120
     3  Na   0.257129  -0.029090
     4  Na  -0.554676   0.400948
     5  Na   0.417017   0.518987
     6  Na  -0.129913   0.067654
     7  Na   0.310561   0.350559
 Sum of Mulliken charges =  -0.00000   1.00000

 Dipole moment (field-independent basis, Debye):
    X=             -1.1236    Y=             -0.4016    Z=             -0.2133  Tot=              1.2121
 Quadrupole moment (field-independent basis, Debye-Ang):
   XX=            -51.5995   YY=            -69.2419   ZZ=            -74.9586
   XY=              1.0760   XZ=             -0.3295   YZ=              0.5475

 Normal termination of Gaussian 16 at Tue Dec  5 21:00:08 2023.
