 Gaussian 16, Revision B.01,
 Gaussian 16:  ES64L-G16RevB.01 20-Dec-2017

 -------------------------
 #P B3LYP/6-311+g(d) force
 -------------------------

 -----
 DPGEN
 -----
 Symbolic Z-matrix:
 Charge =  0 Multiplicity = 2

                         Standard orientation:
 ---------------------------------------------------------------------
 Center     Atomic      Atomic             Coordinates (Angstroms)
 Number     Number       Type             X           Y           Z
 ---------------------------------------------------------------------
      1         11           0       -0.838870    0.395838    1.022264
      2         11           0        0.308271   -2.714866   -0.606897
      3         11           0       -3.137247    1.426878   -0.672375
      4         11           0        2.511043    1.329579    1.042941
      5         11           0        0.939952    3.155265   -0.793957
      6         11           0       -3.037800   -1.753526    0.470957
      7         11           0        3.254653   -1.839167   -0.462932
 ---------------------------------------------------------------------

 SCF Done:  E(UB3LYP) =  -1136.11814767     A.U. after   23 cycles

 The electronic state is 2-A.
 Alpha  occ. eigenvalues --  -38.44946 -38.44185 -38.44165 -38.44136 -38.43978
 Alpha  occ. eigenvalues --  -38.43428 -38.43149  -2.20751  -2.20090  -2.20061
 Alpha  occ. eigenvalues --   -2.20041  -2.19811  -2.19313  -2.19000  -1.14457
 Alpha  occ. eigenvalues --   -1.14415  -1.14387  -1.13844  -1.13786  -1.13772
 Alpha  occ. eigenvalues --   -1.13730  -1.13715  -1.13695  -1.13675  -1.13671
 Alpha  occ. eigenvalues --   -1.13618  -1.13500  -1.13487  -1.13457  -1.12981
 Alpha  occ. eigenvalues --   -1.12947  -1.12916  -1.12662  -1.12637  -1.12626
 Alpha  occ. eigenvalues --   -0.17673  -0.14072  -0.13036  -0.09661
 Alpha virt. eigenvalues --   -0.06611  -0.06083  -0.04172  -0.03781  -0.02813
 Alpha virt. eigenvalues --   -0.02057  -0.01976  -0.01240  -0.00971  -0.00519
 Alpha virt. eigenvalues --   -0.00162   0.00195   0.00329   0.00551   0.00728

  Beta  occ. eigenvalues --  -38.44953 -38.44164 -38.44137 -38.44119 -38.43968
  Beta  occ. eigenvalues --  -38.43353 -38.43101  -2.20767  -2.20063  -2.20022
  Beta  occ. eigenvalues --   -2.19993  -2.19800  -2.19172  -2.18911  -1.14457
  Beta  occ. eigenvalues --   -1.14421  -1.14396  -1.13814  -1.13764  -1.13736
  Beta  occ. eigenvalues --   -1.13706  -1.13688  -1.13664  -1.13644  -1.13616
  Beta  occ. eigenvalues --   -1.13594  -1.13495  -1.13486  -1.13404  -1.12889
  Beta  occ. eigenvalues --   -1.12850  -1.12819  -1.12601  -1.12577  -1.12566
  Beta  occ. eigenvalues --   -0.17250  -0.13710  -0.12387
  Beta virt. eigenvalues --   -0.06543  -0.06314  -0.05908  -0.03962  -0.03271
  Beta virt. eigenvalues --   -0.02355  -0.01958  -0.01626  -0.00937  -0.00694
  Beta virt. eigenvalues --   -0.00410   0.00153   0.00351   0.00456   0.00668

 Mulliken charges and spin densities:
               1          2
     1  Na  -1.138862   0.107726
     2  Na  -0.011853   0.082020
     3  Na   0.002405   0.403509
     4  Na   0.807787   0.043334
     5  Na  -0.126278  -0.019428
     6  Na   0.789986   0.146926
     7  Na  -0.323185   0.235914
 Sum of Mulliken charges =  -0.00000   1.00000

 Dipole moment (field-independent basis, Debye):
    X=             -0.1488    Y=              0.5630    Z=             -0.0726  Tot=              0.5869
 Quadrupole moment (field-independent basis, Debye-Ang):
   XX=            -62.7252   YY=            -68.3594   ZZ=            -69.6791
   XY=             10.4838   XZ=              1.0323   YZ=             -1.9961

 Normal termination of Gaussian 16 at Tue Nov 28 21:22:17 2023.
