 Gaussian 16, Revision B.01,
 Gaussian 16:  ES64L-G16RevB.01 20-Dec-2017

 -------------------------
 #P B3LYP/6-311+g(d) force
 -------------------------

 -----
 DPGEN
 -----
 Symbolic Z-matrix:
 Charge =  0 Multiplicity = 2

                         Standard orientation:
 ---------------------------------------------------------------------
 Center     Atomic      Atomic             Coordinates (Angstroms)
 Number     Number       Type             X           Y           Z
 ---------------------------------------------------------------------
      1         11           0       -1.790408    1.616466    1.005581
      2         11           0        1.152294    2.792544   -0.160561
      3         11           0        3.492833    0.596220   -0.695062
      4         11           0       -4.616349   -0.527344    1.068200
      5         11           0        4.969863   -2.408425    1.108244
      6         11           0        0.181632    0.031847   -1.133887
      7         11           0       -3.389867   -2.101308   -1.192514
 ---------------------------------------------------------------------

 SCF Done:  E(UB3LYP) =  -1136.10820810     A.U. after   22 cycles

 The electronic state is 2-A.
 Alpha  occ. eigenvalues --  -38.45178 -38.44785 -38.44777 -38.44262 -38.44237
 Alpha  occ. eigenvalues --  -38.43953 -38.43678  -2.21066  -2.20677  -2.20610
 Alpha  occ. eigenvalues --   -2.20087  -2.19998  -2.19768  -2.19541  -1.14748
 Alpha  occ. eigenvalues --   -1.14738  -1.14706  -1.14337  -1.14330  -1.14321
 Alpha  occ. eigenvalues --   -1.14306  -1.14270  -1.14253  -1.13737  -1.13733
 Alpha  occ. eigenvalues --   -1.13716  -1.13648  -1.13648  -1.13603  -1.13470
 Alpha  occ. eigenvalues --   -1.13454  -1.13399  -1.13231  -1.13211  -1.13142
 Alpha  occ. eigenvalues --   -0.17375  -0.14498  -0.11976  -0.10609
 Alpha virt. eigenvalues --   -0.07342  -0.06081  -0.04389  -0.03717  -0.02883
 Alpha virt. eigenvalues --   -0.02772  -0.02019  -0.01456  -0.01277  -0.00916
 Alpha virt. eigenvalues --   -0.00267  -0.00102  -0.00016   0.00339   0.00471

  Beta  occ. eigenvalues --  -38.45146 -38.44784 -38.44774 -38.44227 -38.44155
  Beta  occ. eigenvalues --  -38.43979 -38.43638  -2.21006  -2.20670  -2.20611
  Beta  occ. eigenvalues --   -2.20019  -2.19843  -2.19821  -2.19467  -1.14705
  Beta  occ. eigenvalues --   -1.14702  -1.14666  -1.14339  -1.14317  -1.14316
  Beta  occ. eigenvalues --   -1.14303  -1.14273  -1.14240  -1.13692  -1.13689
  Beta  occ. eigenvalues --   -1.13667  -1.13543  -1.13542  -1.13509  -1.13503
  Beta  occ. eigenvalues --   -1.13491  -1.13408  -1.13177  -1.13161  -1.13094
  Beta  occ. eigenvalues --   -0.17132  -0.14301  -0.11393
  Beta virt. eigenvalues --   -0.07318  -0.07033  -0.05353  -0.04170  -0.03560
  Beta virt. eigenvalues --   -0.02662  -0.02523  -0.01749  -0.01176  -0.00904
  Beta virt. eigenvalues --   -0.00603  -0.00105   0.00047   0.00190   0.00510

 Mulliken charges and spin densities:
               1          2
     1  Na   0.148029   0.289213
     2  Na   0.876234   0.061657
     3  Na   0.359652  -0.154165
     4  Na  -0.118517  -0.059198
     5  Na   0.172530   0.435939
     6  Na  -1.597148   0.265947
     7  Na   0.159220   0.160607
 Sum of Mulliken charges =  -0.00000   1.00000

 Dipole moment (field-independent basis, Debye):
    X=             -1.0607    Y=              0.8813    Z=             -0.0329  Tot=              1.3794
 Quadrupole moment (field-independent basis, Debye-Ang):
   XX=            -68.5743   YY=            -64.0804   ZZ=            -71.0457
   XY=              7.2064   XZ=             -1.8691   YZ=             -2.5273

 Normal termination of Gaussian 16 at Wed Nov 29 00:40:17 2023.
