 Gaussian 16, Revision B.01,
 Gaussian 16:  ES64L-G16RevB.01 20-Dec-2017

 -------------------------
 #P B3LYP/6-311+g(d) force
 -------------------------

 -----
 DPGEN
 -----
 Symbolic Z-matrix:
 Charge =  0 Multiplicity = 2

                         Standard orientation:
 ---------------------------------------------------------------------
 Center     Atomic      Atomic             Coordinates (Angstroms)
 Number     Number       Type             X           Y           Z
 ---------------------------------------------------------------------
      1         11           0       -0.228930   -2.765932   -0.303004
      2         11           0       -0.122905    0.138816    2.098395
      3         11           0        2.243990    1.728594   -0.373380
      4         11           0       -0.255824   -0.022372   -1.533919
      5         11           0       -3.182022   -0.800986    0.027372
      6         11           0       -1.424394    2.767950   -0.106952
      7         11           0        2.970086   -1.046070    0.191490
 ---------------------------------------------------------------------

 SCF Done:  E(UB3LYP) =  -1136.13313788     A.U. after   19 cycles

 The electronic state is 2-A.
 Alpha  occ. eigenvalues --  -38.44576 -38.43919 -38.43701 -38.43669 -38.43461
 Alpha  occ. eigenvalues --  -38.43282 -38.43059  -2.20382  -2.19789  -2.19602
 Alpha  occ. eigenvalues --   -2.19543  -2.19278  -2.19159  -2.19084  -1.14063
 Alpha  occ. eigenvalues --   -1.14040  -1.14015  -1.13597  -1.13432  -1.13417
 Alpha  occ. eigenvalues --   -1.13279  -1.13237  -1.13210  -1.13196  -1.13166
 Alpha  occ. eigenvalues --   -1.13158  -1.12982  -1.12955  -1.12939  -1.12912
 Alpha  occ. eigenvalues --   -1.12810  -1.12766  -1.12745  -1.12695  -1.12676
 Alpha  occ. eigenvalues --   -0.18733  -0.13234  -0.12276  -0.10735
 Alpha virt. eigenvalues --   -0.05993  -0.05088  -0.04433  -0.03275  -0.02768
 Alpha virt. eigenvalues --   -0.02564  -0.01778  -0.01124  -0.00332  -0.00225
 Alpha virt. eigenvalues --   -0.00007   0.00346   0.00774   0.00862   0.00917

  Beta  occ. eigenvalues --  -38.44574 -38.43916 -38.43692 -38.43571 -38.43458
  Beta  occ. eigenvalues --  -38.43273 -38.42999  -2.20381  -2.19787  -2.19588
  Beta  occ. eigenvalues --   -2.19361  -2.19277  -2.19146  -2.18975  -1.14049
  Beta  occ. eigenvalues --   -1.14036  -1.14016  -1.13597  -1.13419  -1.13407
  Beta  occ. eigenvalues --   -1.13261  -1.13207  -1.13192  -1.13091  -1.13041
  Beta  occ. eigenvalues --   -1.13027  -1.12963  -1.12934  -1.12926  -1.12911
  Beta  occ. eigenvalues --   -1.12780  -1.12759  -1.12671  -1.12618  -1.12608
  Beta  occ. eigenvalues --   -0.18004  -0.13023  -0.12027
  Beta virt. eigenvalues --   -0.06792  -0.05958  -0.05070  -0.04416  -0.02494
  Beta virt. eigenvalues --   -0.02000  -0.01686  -0.01478  -0.01059  -0.00378
  Beta virt. eigenvalues --   -0.00259   0.00134   0.00372   0.00813   0.00869

 Mulliken charges and spin densities:
               1          2
     1  Na   0.293169   0.016896
     2  Na  -0.598972   0.799773
     3  Na   0.298337   0.002836
     4  Na  -0.306910   0.262956
     5  Na   0.127986  -0.053984
     6  Na   0.071665  -0.083022
     7  Na   0.114726   0.054546
 Sum of Mulliken charges =  -0.00000   1.00000

 Dipole moment (field-independent basis, Debye):
    X=             -0.4987    Y=             -0.0528    Z=              0.2655  Tot=              0.5675
 Quadrupole moment (field-independent basis, Debye-Ang):
   XX=            -54.2883   YY=            -63.9670   ZZ=            -74.8294
   XY=             -0.5664   XZ=             -0.2477   YZ=             -0.6425

 Normal termination of Gaussian 16 at Fri Dec  8 05:09:50 2023.
