 Gaussian 16, Revision B.01,
 Gaussian 16:  ES64L-G16RevB.01 20-Dec-2017

 -------------------------
 #P B3LYP/6-311+g(d) force
 -------------------------

 -----
 DPGEN
 -----
 Symbolic Z-matrix:
 Charge =  0 Multiplicity = 2

                         Standard orientation:
 ---------------------------------------------------------------------
 Center     Atomic      Atomic             Coordinates (Angstroms)
 Number     Number       Type             X           Y           Z
 ---------------------------------------------------------------------
      1         11           0        2.538341   -2.272567   -0.801362
      2         11           0        0.466189   -0.704550    2.156735
      3         11           0       -0.007999    2.800757    0.760432
      4         11           0       -2.912281   -2.072943    0.601187
      5         11           0       -3.158512    1.167571   -0.904401
      6         11           0       -0.296295   -0.033859   -1.646773
      7         11           0        3.370557    1.115592   -0.165818
 ---------------------------------------------------------------------

 SCF Done:  E(UB3LYP) =  -1136.12343355     A.U. after   22 cycles

 The electronic state is 2-A.
 Alpha  occ. eigenvalues --  -38.45173 -38.44464 -38.44359 -38.44304 -38.44221
 Alpha  occ. eigenvalues --  -38.43712 -38.42844  -2.20932  -2.20267  -2.20160
 Alpha  occ. eigenvalues --   -2.20118  -2.20046  -2.19505  -2.18636  -1.14621
 Alpha  occ. eigenvalues --   -1.14582  -1.14566  -1.13936  -1.13901  -1.13879
 Alpha  occ. eigenvalues --   -1.13861  -1.13843  -1.13795  -1.13792  -1.13773
 Alpha  occ. eigenvalues --   -1.13762  -1.13708  -1.13677  -1.13655  -1.13176
 Alpha  occ. eigenvalues --   -1.13155  -1.13148  -1.12318  -1.12302  -1.12270
 Alpha  occ. eigenvalues --   -0.17435  -0.13411  -0.11343  -0.11024
 Alpha virt. eigenvalues --   -0.06520  -0.05546  -0.04583  -0.03284  -0.03048
 Alpha virt. eigenvalues --   -0.02570  -0.02164  -0.01420  -0.00716  -0.00302
 Alpha virt. eigenvalues --   -0.00147   0.00218   0.00342   0.00542   0.00683

  Beta  occ. eigenvalues --  -38.45171 -38.44372 -38.44349 -38.44263 -38.44199
  Beta  occ. eigenvalues --  -38.43696 -38.42836  -2.20931  -2.20103  -2.20097
  Beta  occ. eigenvalues --   -2.20084  -2.20008  -2.19478  -2.18623  -1.14615
  Beta  occ. eigenvalues --   -1.14583  -1.14557  -1.13826  -1.13808  -1.13786
  Beta  occ. eigenvalues --   -1.13784  -1.13780  -1.13761  -1.13753  -1.13745
  Beta  occ. eigenvalues --   -1.13741  -1.13668  -1.13646  -1.13634  -1.13153
  Beta  occ. eigenvalues --   -1.13135  -1.13128  -1.12305  -1.12292  -1.12255
  Beta  occ. eigenvalues --   -0.16779  -0.13159  -0.11090
  Beta virt. eigenvalues --   -0.07306  -0.06406  -0.05375  -0.04226  -0.02903
  Beta virt. eigenvalues --   -0.02338  -0.02067  -0.01755  -0.01259  -0.00715
  Beta virt. eigenvalues --   -0.00205  -0.00046   0.00276   0.00508   0.00664

 Mulliken charges and spin densities:
               1          2
     1  Na  -0.015097   0.046005
     2  Na   0.170353   0.576952
     3  Na  -0.646615   0.040583
     4  Na  -0.405994   0.068864
     5  Na   0.695791   0.083478
     6  Na   0.117047   0.168314
     7  Na   0.084515   0.015805
 Sum of Mulliken charges =  -0.00000   1.00000

 Dipole moment (field-independent basis, Debye):
    X=              0.2147    Y=             -0.0703    Z=             -0.0455  Tot=              0.2305
 Quadrupole moment (field-independent basis, Debye-Ang):
   XX=            -52.5147   YY=            -69.7986   ZZ=            -72.4972
   XY=              0.9046   XZ=             -0.1652   YZ=             -0.3144

 Normal termination of Gaussian 16 at Tue Dec  5 22:48:04 2023.
