 Gaussian 16, Revision B.01,
 Gaussian 16:  ES64L-G16RevB.01 20-Dec-2017

 -------------------------
 #P B3LYP/6-311+g(d) force
 -------------------------

 -----
 DPGEN
 -----
 Symbolic Z-matrix:
 Charge =  0 Multiplicity = 2

                         Standard orientation:
 ---------------------------------------------------------------------
 Center     Atomic      Atomic             Coordinates (Angstroms)
 Number     Number       Type             X           Y           Z
 ---------------------------------------------------------------------
      1         11           0       -3.257803    1.042744    0.032755
      2         11           0       -0.032460    2.981943    0.091821
      3         11           0       -0.186308   -0.478437    1.927284
      4         11           0        2.875919    1.377462   -0.103024
      5         11           0        2.586106   -2.357865    0.201529
      6         11           0        0.368486   -0.183260   -1.769730
      7         11           0       -2.353940   -2.382587   -0.380634
 ---------------------------------------------------------------------

 SCF Done:  E(UB3LYP) =  -1136.13166365     A.U. after   20 cycles

 The electronic state is 2-A.
 Alpha  occ. eigenvalues --  -38.44646 -38.44238 -38.44208 -38.44182 -38.43668
 Alpha  occ. eigenvalues --  -38.43612 -38.43054  -2.20417  -2.20038  -2.20024
 Alpha  occ. eigenvalues --   -2.19955  -2.19509  -2.19486  -2.18877  -1.14095
 Alpha  occ. eigenvalues --   -1.14072  -1.14061  -1.13723  -1.13707  -1.13693
 Alpha  occ. eigenvalues --   -1.13680  -1.13670  -1.13664  -1.13626  -1.13610
 Alpha  occ. eigenvalues --   -1.13600  -1.13196  -1.13164  -1.13146  -1.13119
 Alpha  occ. eigenvalues --   -1.13113  -1.13113  -1.12550  -1.12547  -1.12521
 Alpha  occ. eigenvalues --   -0.17834  -0.13149  -0.12034  -0.10293
 Alpha virt. eigenvalues --   -0.06183  -0.05817  -0.04661  -0.03215  -0.02684
 Alpha virt. eigenvalues --   -0.02344  -0.01871  -0.01539  -0.00920  -0.00505
 Alpha virt. eigenvalues --   -0.00057   0.00314   0.00673   0.00693   0.00770

  Beta  occ. eigenvalues --  -38.44646 -38.44227 -38.44204 -38.44180 -38.43586
  Beta  occ. eigenvalues --  -38.43545 -38.43052  -2.20418  -2.20034  -2.20006
  Beta  occ. eigenvalues --   -2.19953  -2.19364  -2.19357  -2.18876  -1.14085
  Beta  occ. eigenvalues --   -1.14072  -1.14062  -1.13714  -1.13691  -1.13669
  Beta  occ. eigenvalues --   -1.13669  -1.13662  -1.13655  -1.13615  -1.13602
  Beta  occ. eigenvalues --   -1.13601  -1.13100  -1.13070  -1.13040  -1.13029
  Beta  occ. eigenvalues --   -1.13020  -1.13008  -1.12550  -1.12540  -1.12510
  Beta  occ. eigenvalues --   -0.17150  -0.12961  -0.11821
  Beta virt. eigenvalues --   -0.06542  -0.06128  -0.05688  -0.04587  -0.02522
  Beta virt. eigenvalues --   -0.02009  -0.01763  -0.01483  -0.01297  -0.00982
  Beta virt. eigenvalues --   -0.00527   0.00110   0.00355   0.00698   0.00762

 Mulliken charges and spin densities:
               1          2
     1  Na   0.003702  -0.019405
     2  Na  -0.196997  -0.072336
     3  Na  -0.181954   0.704478
     4  Na   0.209716   0.022270
     5  Na   0.042462  -0.100883
     6  Na   0.049701   0.518268
     7  Na   0.073370  -0.052394
 Sum of Mulliken charges =  -0.00000   1.00000

 Dipole moment (field-independent basis, Debye):
    X=             -0.1229    Y=             -0.3474    Z=             -0.0161  Tot=              0.3688
 Quadrupole moment (field-independent basis, Debye-Ang):
   XX=            -53.1157   YY=            -63.1075   ZZ=            -76.7190
   XY=             -0.8009   XZ=              0.8343   YZ=              0.6492

 Normal termination of Gaussian 16 at Thu Dec  7 13:43:58 2023.
