 Gaussian 16, Revision B.01,
 Gaussian 16:  ES64L-G16RevB.01 20-Dec-2017

 -------------------------
 #P B3LYP/6-311+g(d) force
 -------------------------

 -----
 DPGEN
 -----
 Symbolic Z-matrix:
 Charge =  0 Multiplicity = 2

                         Standard orientation:
 ---------------------------------------------------------------------
 Center     Atomic      Atomic             Coordinates (Angstroms)
 Number     Number       Type             X           Y           Z
 ---------------------------------------------------------------------
      1         11           0        2.635777   -1.965830   -0.457058
      2         11           0        5.183630   -0.132202   -0.427900
      3         11           0        2.836129    1.891200    0.063438
      4         11           0       -1.069472    1.597603   -0.322484
      5         11           0        0.171065   -1.138928    1.307333
      6         11           0       -3.775370    0.407928    0.769280
      7         11           0       -5.981760   -0.659770   -0.932610
 ---------------------------------------------------------------------

 SCF Done:  E(UB3LYP) =  -1136.11308551     A.U. after   21 cycles

 The electronic state is 2-A.
 Alpha  occ. eigenvalues --  -38.44965 -38.44610 -38.44308 -38.44265 -38.43867
 Alpha  occ. eigenvalues --  -38.43561 -38.43464  -2.20803  -2.20501  -2.20150
 Alpha  occ. eigenvalues --   -2.20115  -2.19731  -2.19364  -2.19340  -1.14478
 Alpha  occ. eigenvalues --   -1.14449  -1.14424  -1.14195  -1.14153  -1.14125
 Alpha  occ. eigenvalues --   -1.13841  -1.13812  -1.13791  -1.13785  -1.13770
 Alpha  occ. eigenvalues --   -1.13705  -1.13399  -1.13384  -1.13372  -1.13162
 Alpha  occ. eigenvalues --   -1.13034  -1.13018  -1.12998  -1.12977  -1.12882
 Alpha  occ. eigenvalues --   -0.17284  -0.14455  -0.11872  -0.11344
 Alpha virt. eigenvalues --   -0.06583  -0.05781  -0.04048  -0.03434  -0.03257
 Alpha virt. eigenvalues --   -0.02864  -0.01917  -0.01320  -0.01156  -0.00634
 Alpha virt. eigenvalues --   -0.00126  -0.00011   0.00214   0.00394   0.00596

  Beta  occ. eigenvalues --  -38.44893 -38.44541 -38.44285 -38.44222 -38.43858
  Beta  occ. eigenvalues --  -38.43571 -38.43462  -2.20670  -2.20376  -2.20106
  Beta  occ. eigenvalues --   -2.20041  -2.19717  -2.19381  -2.19336  -1.14389
  Beta  occ. eigenvalues --   -1.14361  -1.14320  -1.14097  -1.14071  -1.14035
  Beta  occ. eigenvalues --   -1.13808  -1.13780  -1.13754  -1.13728  -1.13725
  Beta  occ. eigenvalues --   -1.13642  -1.13380  -1.13370  -1.13359  -1.13170
  Beta  occ. eigenvalues --   -1.13036  -1.13029  -1.13002  -1.12977  -1.12890
  Beta  occ. eigenvalues --   -0.16540  -0.14346  -0.11351
  Beta virt. eigenvalues --   -0.07746  -0.06283  -0.05332  -0.03702  -0.03301
  Beta virt. eigenvalues --   -0.02636  -0.02460  -0.01699  -0.01106  -0.00846
  Beta virt. eigenvalues --   -0.00522   0.00008   0.00178   0.00327   0.00570

 Mulliken charges and spin densities:
               1          2
     1  Na   0.013226   0.245915
     2  Na   0.372176  -0.014259
     3  Na  -0.205651   0.383063
     4  Na  -0.171458   0.171495
     5  Na  -0.303530   0.234191
     6  Na   0.249128   0.045891
     7  Na   0.046109  -0.066297
 Sum of Mulliken charges =  -0.00000   1.00000

 Dipole moment (field-independent basis, Debye):
    X=              1.5267    Y=             -0.0847    Z=             -0.1663  Tot=              1.5381
 Quadrupole moment (field-independent basis, Debye-Ang):
   XX=            -69.5361   YY=            -68.1739   ZZ=            -67.0352
   XY=              1.1940   XZ=              2.1020   YZ=              0.9486

 Normal termination of Gaussian 16 at Tue Nov 28 19:46:05 2023.
