 Gaussian 16, Revision B.01,
 Gaussian 16:  ES64L-G16RevB.01 20-Dec-2017

 -------------------------
 #P B3LYP/6-311+g(d) force
 -------------------------

 -----
 DPGEN
 -----
 Symbolic Z-matrix:
 Charge =  0 Multiplicity = 2

                         Standard orientation:
 ---------------------------------------------------------------------
 Center     Atomic      Atomic             Coordinates (Angstroms)
 Number     Number       Type             X           Y           Z
 ---------------------------------------------------------------------
      1         11           0       -2.185224    0.880988    1.482499
      2         11           0       -2.257420   -2.442621   -0.373233
      3         11           0       -0.405112    2.848180   -1.081253
      4         11           0       -0.911869    0.182432   -1.359641
      5         11           0        1.253376   -2.074313    0.769847
      6         11           0        2.807781   -0.628250   -1.081631
      7         11           0        1.698467    1.233583    1.643412
 ---------------------------------------------------------------------

 SCF Done:  E(UB3LYP) =  -1136.12290322     A.U. after   19 cycles

 The electronic state is 2-A.
 Alpha  occ. eigenvalues --  -38.44389 -38.44228 -38.43991 -38.43759 -38.43726
 Alpha  occ. eigenvalues --  -38.43303 -38.43157  -2.20226  -2.20114  -2.19835
 Alpha  occ. eigenvalues --   -2.19668  -2.19625  -2.19214  -2.19134  -1.13938
 Alpha  occ. eigenvalues --   -1.13918  -1.13884  -1.13829  -1.13738  -1.13732
 Alpha  occ. eigenvalues --   -1.13551  -1.13524  -1.13483  -1.13444  -1.13329
 Alpha  occ. eigenvalues --   -1.13319  -1.13249  -1.13224  -1.13214  -1.12917
 Alpha  occ. eigenvalues --   -1.12848  -1.12815  -1.12781  -1.12765  -1.12733
 Alpha  occ. eigenvalues --   -0.18507  -0.13179  -0.12287  -0.11165
 Alpha virt. eigenvalues --   -0.05434  -0.04921  -0.04624  -0.03782  -0.03086
 Alpha virt. eigenvalues --   -0.02688  -0.01141  -0.01028  -0.00546   0.00207
 Alpha virt. eigenvalues --    0.00224   0.00382   0.00497   0.00794   0.00826

  Beta  occ. eigenvalues --  -38.44348 -38.44213 -38.43943 -38.43752 -38.43698
  Beta  occ. eigenvalues --  -38.43304 -38.43108  -2.20150  -2.20087  -2.19747
  Beta  occ. eigenvalues --   -2.19657  -2.19576  -2.19139  -2.19125  -1.13923
  Beta  occ. eigenvalues --   -1.13871  -1.13817  -1.13776  -1.13717  -1.13703
  Beta  occ. eigenvalues --   -1.13500  -1.13459  -1.13418  -1.13384  -1.13316
  Beta  occ. eigenvalues --   -1.13297  -1.13242  -1.13193  -1.13167  -1.12886
  Beta  occ. eigenvalues --   -1.12793  -1.12777  -1.12767  -1.12747  -1.12691
  Beta  occ. eigenvalues --   -0.17809  -0.12996  -0.12087
  Beta virt. eigenvalues --   -0.07283  -0.05182  -0.04799  -0.04469  -0.03248
  Beta virt. eigenvalues --   -0.02514  -0.01758  -0.01076  -0.00924  -0.00186
  Beta virt. eigenvalues --    0.00193   0.00307   0.00445   0.00636   0.00834

 Mulliken charges and spin densities:
               1          2
     1  Na  -0.376745   0.408775
     2  Na   0.442084  -0.124262
     3  Na   0.224558  -0.047334
     4  Na  -0.222604   0.276310
     5  Na  -0.051547   0.230952
     6  Na   0.130019  -0.015934
     7  Na  -0.145766   0.271493
 Sum of Mulliken charges =  -0.00000   1.00000

 Dipole moment (field-independent basis, Debye):
    X=              0.2644    Y=              0.1675    Z=              0.4607  Tot=              0.5570
 Quadrupole moment (field-independent basis, Debye-Ang):
   XX=            -62.5887   YY=            -64.2995   ZZ=            -68.2884
   XY=              1.1098   XZ=             -3.4527   YZ=              0.3407

 Normal termination of Gaussian 16 at Tue Dec  5 14:26:52 2023.
