 Gaussian 16, Revision B.01,
 Gaussian 16:  ES64L-G16RevB.01 20-Dec-2017

 -------------------------
 #P B3LYP/6-311+g(d) force
 -------------------------

 -----
 DPGEN
 -----
 Symbolic Z-matrix:
 Charge =  0 Multiplicity = 2

                         Standard orientation:
 ---------------------------------------------------------------------
 Center     Atomic      Atomic             Coordinates (Angstroms)
 Number     Number       Type             X           Y           Z
 ---------------------------------------------------------------------
      1         11           0        0.508326   -0.244406    2.003406
      2         11           0        2.589678   -1.625843   -0.423297
      3         11           0       -3.211180   -0.389938    0.068908
      4         11           0       -0.620701   -2.671909    0.040863
      5         11           0       -1.423739    2.670860   -0.085152
      6         11           0        2.245870    2.324727    0.026391
      7         11           0       -0.088254   -0.063490   -1.631119
 ---------------------------------------------------------------------

 SCF Done:  E(UB3LYP) =  -1136.13803783     A.U. after   20 cycles

 The electronic state is 2-A.
 Alpha  occ. eigenvalues --  -38.43916 -38.43826 -38.43772 -38.43762 -38.43477
 Alpha  occ. eigenvalues --  -38.43330 -38.43148  -2.19707  -2.19684  -2.19591
 Alpha  occ. eigenvalues --   -2.19576  -2.19375  -2.19249  -2.19130  -1.13384
 Alpha  occ. eigenvalues --   -1.13373  -1.13365  -1.13352  -1.13346  -1.13316
 Alpha  occ. eigenvalues --   -1.13273  -1.13262  -1.13256  -1.13250  -1.13232
 Alpha  occ. eigenvalues --   -1.13190  -1.13063  -1.13006  -1.12995  -1.12983
 Alpha  occ. eigenvalues --   -1.12901  -1.12857  -1.12802  -1.12752  -1.12741
 Alpha  occ. eigenvalues --   -0.18610  -0.12841  -0.12624  -0.10625
 Alpha virt. eigenvalues --   -0.05534  -0.05338  -0.04835  -0.03017  -0.02934
 Alpha virt. eigenvalues --   -0.02453  -0.01469  -0.01270  -0.00489  -0.00346
 Alpha virt. eigenvalues --   -0.00005   0.00352   0.00797   0.00857   0.00892

  Beta  occ. eigenvalues --  -38.43915 -38.43812 -38.43771 -38.43760 -38.43386
  Beta  occ. eigenvalues --  -38.43319 -38.43083  -2.19708  -2.19664  -2.19593
  Beta  occ. eigenvalues --   -2.19575  -2.19234  -2.19208  -2.19011  -1.13369
  Beta  occ. eigenvalues --   -1.13365  -1.13357  -1.13351  -1.13312  -1.13302
  Beta  occ. eigenvalues --   -1.13272  -1.13261  -1.13248  -1.13239  -1.13229
  Beta  occ. eigenvalues --   -1.13193  -1.12991  -1.12930  -1.12895  -1.12879
  Beta  occ. eigenvalues --   -1.12851  -1.12838  -1.12724  -1.12668  -1.12654
  Beta  occ. eigenvalues --   -0.17880  -0.12615  -0.12404
  Beta virt. eigenvalues --   -0.06692  -0.05546  -0.05282  -0.04778  -0.02287
  Beta virt. eigenvalues --   -0.02163  -0.01422  -0.01380  -0.01178  -0.00525
  Beta virt. eigenvalues --   -0.00402   0.00143   0.00382   0.00831   0.00863

 Mulliken charges and spin densities:
               1          2
     1  Na  -0.478234   0.752205
     2  Na   0.308170  -0.030764
     3  Na  -0.041213  -0.066129
     4  Na   0.435772   0.071352
     5  Na   0.010691  -0.098711
     6  Na  -0.031705  -0.115285
     7  Na  -0.203481   0.487333
 Sum of Mulliken charges =  -0.00000   1.00000

 Dipole moment (field-independent basis, Debye):
    X=              0.1531    Y=              0.1597    Z=              0.1003  Tot=              0.2429
 Quadrupole moment (field-independent basis, Debye-Ang):
   XX=            -56.5615   YY=            -61.3849   ZZ=            -75.0558
   XY=             -0.0444   XZ=             -1.4010   YZ=              0.4307

 Normal termination of Gaussian 16 at Thu Dec  7 09:19:00 2023.
