 Gaussian 16, Revision B.01,
 Gaussian 16:  ES64L-G16RevB.01 20-Dec-2017

 -------------------------
 #P B3LYP/6-311+g(d) force
 -------------------------

 -----
 DPGEN
 -----
 Symbolic Z-matrix:
 Charge =  0 Multiplicity = 2

                         Standard orientation:
 ---------------------------------------------------------------------
 Center     Atomic      Atomic             Coordinates (Angstroms)
 Number     Number       Type             X           Y           Z
 ---------------------------------------------------------------------
      1         11           0        2.200360   -0.916971   -0.850390
      2         11           0        5.231613   -2.171535    0.196969
      3         11           0        3.894063    1.491562    1.072749
      4         11           0        0.486174    2.724409   -0.372146
      5         11           0       -0.953735    0.114331   -1.098180
      6         11           0       -4.080800   -0.764560    1.082817
      7         11           0       -6.777674   -0.477236   -0.031819
 ---------------------------------------------------------------------

 SCF Done:  E(UB3LYP) =  -1136.11449388     A.U. after   20 cycles

 The electronic state is 2-A.
 Alpha  occ. eigenvalues --  -38.44711 -38.44505 -38.44252 -38.44183 -38.44154
 Alpha  occ. eigenvalues --  -38.44035 -38.43608  -2.20506  -2.20326  -2.20065
 Alpha  occ. eigenvalues --   -2.20008  -2.19957  -2.19853  -2.19484  -1.14180
 Alpha  occ. eigenvalues --   -1.14175  -1.14091  -1.14007  -1.13990  -1.13963
 Alpha  occ. eigenvalues --   -1.13833  -1.13706  -1.13705  -1.13704  -1.13690
 Alpha  occ. eigenvalues --   -1.13649  -1.13625  -1.13604  -1.13560  -1.13503
 Alpha  occ. eigenvalues --   -1.13496  -1.13457  -1.13149  -1.13131  -1.13111
 Alpha  occ. eigenvalues --   -0.16591  -0.13851  -0.12262  -0.11017
 Alpha virt. eigenvalues --   -0.06197  -0.06011  -0.04267  -0.03577  -0.03045
 Alpha virt. eigenvalues --   -0.02483  -0.02166  -0.01775  -0.01276  -0.00739
 Alpha virt. eigenvalues --   -0.00312  -0.00137   0.00116   0.00444   0.00677

  Beta  occ. eigenvalues --  -38.44637 -38.44484 -38.44241 -38.44168 -38.44121
  Beta  occ. eigenvalues --  -38.44037 -38.43576  -2.20369  -2.20287  -2.20043
  Beta  occ. eigenvalues --   -2.19949  -2.19929  -2.19859  -2.19424  -1.14089
  Beta  occ. eigenvalues --   -1.14084  -1.13982  -1.13979  -1.13964  -1.13923
  Beta  occ. eigenvalues --   -1.13822  -1.13691  -1.13689  -1.13668  -1.13631
  Beta  occ. eigenvalues --   -1.13614  -1.13606  -1.13577  -1.13533  -1.13507
  Beta  occ. eigenvalues --   -1.13499  -1.13451  -1.13101  -1.13092  -1.13074
  Beta  occ. eigenvalues --   -0.15908  -0.13649  -0.12120
  Beta virt. eigenvalues --   -0.07306  -0.05908  -0.05593  -0.03892  -0.03386
  Beta virt. eigenvalues --   -0.02616  -0.02265  -0.01771  -0.01644  -0.01129
  Beta virt. eigenvalues --   -0.00407  -0.00099   0.00048   0.00337   0.00576

 Mulliken charges and spin densities:
               1          2
     1  Na  -0.356367   0.362407
     2  Na   0.899953   0.085296
     3  Na   0.037879   0.351069
     4  Na   0.297398   0.148557
     5  Na  -1.059994   0.045422
     6  Na  -0.109989  -0.028833
     7  Na   0.291120   0.036081
 Sum of Mulliken charges =  -0.00000   1.00000

 Dipole moment (field-independent basis, Debye):
    X=              0.2447    Y=              0.2723    Z=              0.0681  Tot=              0.3724
 Quadrupole moment (field-independent basis, Debye-Ang):
   XX=            -55.2682   YY=            -67.5730   ZZ=            -70.6465
   XY=             -5.3789   XZ=              6.0497   YZ=             -0.7755

 Normal termination of Gaussian 16 at Tue Nov 28 19:03:20 2023.
