 Gaussian 16, Revision B.01,
 Gaussian 16:  ES64L-G16RevB.01 20-Dec-2017

 -------------------------
 #P B3LYP/6-311+g(d) force
 -------------------------

 -----
 DPGEN
 -----
 Symbolic Z-matrix:
 Charge =  0 Multiplicity = 2

                         Standard orientation:
 ---------------------------------------------------------------------
 Center     Atomic      Atomic             Coordinates (Angstroms)
 Number     Number       Type             X           Y           Z
 ---------------------------------------------------------------------
      1         11           0        0.205240   -0.971656   -1.345838
      2         11           0       -1.645970    1.508182   -0.863114
      3         11           0       -2.629640   -1.233522   -0.463739
      4         11           0       -1.264476    0.393693    1.745820
      5         11           0        1.125660    1.799852    0.215010
      6         11           0        3.051903   -0.189035   -0.645096
      7         11           0        1.157283   -1.307514    1.356957
 ---------------------------------------------------------------------

 SCF Done:  E(UB3LYP) =  -1136.09979355     A.U. after   26 cycles

 The electronic state is 2-A.
 Alpha  occ. eigenvalues --  -38.44709 -38.44044 -38.44020 -38.43897 -38.43562
 Alpha  occ. eigenvalues --  -38.43384 -38.42427  -2.20701  -2.20134  -2.20108
 Alpha  occ. eigenvalues --   -2.19886  -2.19659  -2.19530  -2.18508  -1.14443
 Alpha  occ. eigenvalues --   -1.14358  -1.14341  -1.13969  -1.13924  -1.13828
 Alpha  occ. eigenvalues --   -1.13757  -1.13681  -1.13666  -1.13654  -1.13545
 Alpha  occ. eigenvalues --   -1.13491  -1.13372  -1.13267  -1.13229  -1.13191
 Alpha  occ. eigenvalues --   -1.13127  -1.13124  -1.12201  -1.12154  -1.12144
 Alpha  occ. eigenvalues --   -0.20829  -0.14545  -0.12376  -0.11517
 Alpha virt. eigenvalues --   -0.06129  -0.04470  -0.04344  -0.03486  -0.02638
 Alpha virt. eigenvalues --   -0.02614  -0.01705  -0.00417  -0.00364   0.00273
 Alpha virt. eigenvalues --    0.00495   0.00671   0.00761   0.00964   0.01013

  Beta  occ. eigenvalues --  -38.44697 -38.43984 -38.43948 -38.43888 -38.43533
  Beta  occ. eigenvalues --  -38.43341 -38.42413  -2.20681  -2.20013  -2.19995
  Beta  occ. eigenvalues --   -2.19874  -2.19608  -2.19455  -2.18489  -1.14432
  Beta  occ. eigenvalues --   -1.14330  -1.14323  -1.13877  -1.13849  -1.13750
  Beta  occ. eigenvalues --   -1.13685  -1.13620  -1.13609  -1.13562  -1.13532
  Beta  occ. eigenvalues --   -1.13455  -1.13330  -1.13217  -1.13189  -1.13138
  Beta  occ. eigenvalues --   -1.13075  -1.13051  -1.12194  -1.12144  -1.12085
  Beta  occ. eigenvalues --   -0.19987  -0.14319  -0.11306
  Beta virt. eigenvalues --   -0.08037  -0.05989  -0.04339  -0.03719  -0.03102
  Beta virt. eigenvalues --   -0.01951  -0.01743  -0.01619  -0.00354  -0.00098
  Beta virt. eigenvalues --    0.00315   0.00545   0.00698   0.00951   0.00984

 Mulliken charges and spin densities:
               1          2
     1  Na  -0.463274   0.451030
     2  Na   0.113542   0.147561
     3  Na  -0.013038  -0.075262
     4  Na   0.653756   0.249833
     5  Na  -1.165575   0.219913
     6  Na   1.670489  -0.046261
     7  Na  -0.795900   0.053187
 Sum of Mulliken charges =  -0.00000   1.00000

 Dipole moment (field-independent basis, Debye):
    X=              0.2445    Y=             -0.1525    Z=             -0.0092  Tot=              0.2883
 Quadrupole moment (field-independent basis, Debye-Ang):
   XX=            -52.7017   YY=            -76.8028   ZZ=            -66.4552
   XY=              0.5617   XZ=             -0.8556   YZ=             -2.4963

 Normal termination of Gaussian 16 at Thu Dec  7 16:52:24 2023.
