 Gaussian 16, Revision B.01,
 Gaussian 16:  ES64L-G16RevB.01 20-Dec-2017

 -------------------------
 #P B3LYP/6-311+g(d) force
 -------------------------

 -----
 DPGEN
 -----
 Symbolic Z-matrix:
 Charge =  0 Multiplicity = 2

                         Standard orientation:
 ---------------------------------------------------------------------
 Center     Atomic      Atomic             Coordinates (Angstroms)
 Number     Number       Type             X           Y           Z
 ---------------------------------------------------------------------
      1         11           0        3.810399   -1.251133   -0.459883
      2         11           0        0.765946   -1.922576   -0.876128
      3         11           0       -0.460514    2.719583   -0.891760
      4         11           0       -3.235941    0.554125   -1.101910
      5         11           0       -0.948880    0.415274    2.025886
      6         11           0        2.445223    1.753632    0.719173
      7         11           0       -2.376233   -2.268905    0.584620
 ---------------------------------------------------------------------

 SCF Done:  E(UB3LYP) =  -1136.12682516     A.U. after   21 cycles

 The electronic state is 2-A.
 Alpha  occ. eigenvalues --  -38.44388 -38.44225 -38.44204 -38.44174 -38.43965
 Alpha  occ. eigenvalues --  -38.43870 -38.43569  -2.20217  -2.20068  -2.20006
 Alpha  occ. eigenvalues --   -2.19985  -2.19786  -2.19720  -2.19377  -1.13880
 Alpha  occ. eigenvalues --   -1.13860  -1.13849  -1.13743  -1.13716  -1.13692
 Alpha  occ. eigenvalues --   -1.13686  -1.13674  -1.13668  -1.13661  -1.13653
 Alpha  occ. eigenvalues --   -1.13636  -1.13437  -1.13431  -1.13418  -1.13380
 Alpha  occ. eigenvalues --   -1.13372  -1.13365  -1.13059  -1.13039  -1.13013
 Alpha  occ. eigenvalues --   -0.17548  -0.13748  -0.12309  -0.10717
 Alpha virt. eigenvalues --   -0.06434  -0.05907  -0.04366  -0.03500  -0.03073
 Alpha virt. eigenvalues --   -0.02315  -0.01998  -0.01411  -0.00776  -0.00343
 Alpha virt. eigenvalues --   -0.00260   0.00218   0.00387   0.00460   0.00733

  Beta  occ. eigenvalues --  -38.44325 -38.44195 -38.44166 -38.44151 -38.43954
  Beta  occ. eigenvalues --  -38.43857 -38.43556  -2.20101  -2.19990  -2.19973
  Beta  occ. eigenvalues --   -2.19932  -2.19767  -2.19700  -2.19356  -1.13797
  Beta  occ. eigenvalues --   -1.13784  -1.13763  -1.13679  -1.13668  -1.13662
  Beta  occ. eigenvalues --   -1.13651  -1.13650  -1.13632  -1.13624  -1.13622
  Beta  occ. eigenvalues --   -1.13579  -1.13423  -1.13416  -1.13407  -1.13362
  Beta  occ. eigenvalues --   -1.13355  -1.13337  -1.13048  -1.13028  -1.12973
  Beta  occ. eigenvalues --   -0.16968  -0.13469  -0.11992
  Beta virt. eigenvalues --   -0.07066  -0.06333  -0.05665  -0.04007  -0.03093
  Beta virt. eigenvalues --   -0.02502  -0.02063  -0.01530  -0.01168  -0.00651
  Beta virt. eigenvalues --   -0.00191  -0.00054   0.00305   0.00501   0.00581

 Mulliken charges and spin densities:
               1          2
     1  Na   0.608971  -0.082436
     2  Na  -0.915881   0.086556
     3  Na  -0.035952   0.033330
     4  Na  -0.010308   0.299993
     5  Na  -0.250248   0.322967
     6  Na  -0.033740   0.103813
     7  Na   0.637158   0.235778
 Sum of Mulliken charges =  -0.00000   1.00000

 Dipole moment (field-independent basis, Debye):
    X=              0.1046    Y=             -0.1659    Z=              0.2757  Tot=              0.3384
 Quadrupole moment (field-independent basis, Debye-Ang):
   XX=            -55.6526   YY=            -70.3091   ZZ=            -71.8905
   XY=              4.6933   XZ=              0.4185   YZ=             -0.2195

 Normal termination of Gaussian 16 at Sun Dec  3 22:39:54 2023.
