 Gaussian 16, Revision B.01,
 Gaussian 16:  ES64L-G16RevB.01 20-Dec-2017

 -------------------------
 #P B3LYP/6-311+g(d) force
 -------------------------

 -----
 DPGEN
 -----
 Symbolic Z-matrix:
 Charge =  0 Multiplicity = 2

                         Standard orientation:
 ---------------------------------------------------------------------
 Center     Atomic      Atomic             Coordinates (Angstroms)
 Number     Number       Type             X           Y           Z
 ---------------------------------------------------------------------
      1         11           0        1.153880    1.906513    1.105502
      2         11           0       -0.128206   -2.116723   -1.460805
      3         11           0        3.348655    2.326445   -0.845346
      4         11           0        2.922649   -1.245944   -0.104787
      5         11           0        0.303436   -1.985480    1.430839
      6         11           0       -2.575388   -0.168979    0.248937
      7         11           0       -5.025028    1.284169   -0.374340
 ---------------------------------------------------------------------

 SCF Done:  E(UB3LYP) =  -1136.11156239     A.U. after   23 cycles

 The electronic state is 2-A.
 Alpha  occ. eigenvalues --  -38.45255 -38.44585 -38.44219 -38.44129 -38.43967
 Alpha  occ. eigenvalues --  -38.43812 -38.42927  -2.21133  -2.20460  -2.20167
 Alpha  occ. eigenvalues --   -2.19963  -2.19819  -2.19643  -2.18809  -1.14853
 Alpha  occ. eigenvalues --   -1.14787  -1.14746  -1.14185  -1.14133  -1.14052
 Alpha  occ. eigenvalues --   -1.13838  -1.13816  -1.13768  -1.13740  -1.13613
 Alpha  occ. eigenvalues --   -1.13595  -1.13476  -1.13458  -1.13400  -1.13363
 Alpha  occ. eigenvalues --   -1.13268  -1.13267  -1.12488  -1.12469  -1.12457
 Alpha  occ. eigenvalues --   -0.17991  -0.13748  -0.12539  -0.10419
 Alpha virt. eigenvalues --   -0.07221  -0.05315  -0.04540  -0.03280  -0.03056
 Alpha virt. eigenvalues --   -0.02259  -0.01969  -0.01434  -0.00916  -0.00673
 Alpha virt. eigenvalues --   -0.00149  -0.00066   0.00237   0.00564   0.00641

  Beta  occ. eigenvalues --  -38.45233 -38.44550 -38.44189 -38.44127 -38.43929
  Beta  occ. eigenvalues --  -38.43771 -38.42922  -2.21092  -2.20398  -2.20115
  Beta  occ. eigenvalues --   -2.19960  -2.19750  -2.19566  -2.18806  -1.14823
  Beta  occ. eigenvalues --   -1.14761  -1.14706  -1.14134  -1.14089  -1.14004
  Beta  occ. eigenvalues --   -1.13806  -1.13785  -1.13727  -1.13698  -1.13611
  Beta  occ. eigenvalues --   -1.13584  -1.13432  -1.13412  -1.13352  -1.13315
  Beta  occ. eigenvalues --   -1.13215  -1.13213  -1.12492  -1.12469  -1.12410
  Beta  occ. eigenvalues --   -0.17371  -0.13512  -0.12178
  Beta virt. eigenvalues --   -0.07099  -0.06834  -0.04961  -0.04060  -0.03151
  Beta virt. eigenvalues --   -0.02591  -0.02102  -0.01456  -0.01343  -0.00735
  Beta virt. eigenvalues --   -0.00369  -0.00001   0.00230   0.00280   0.00647

 Mulliken charges and spin densities:
               1          2
     1  Na  -0.172533  -0.079677
     2  Na   0.712382  -0.069296
     3  Na   0.385309   0.162335
     4  Na  -0.296231   0.337417
     5  Na   1.522641   0.397926
     6  Na  -1.423843   0.150935
     7  Na  -0.727726   0.100359
 Sum of Mulliken charges =  -0.00000   1.00000

 Dipole moment (field-independent basis, Debye):
    X=              1.2160    Y=             -0.3942    Z=             -0.3025  Tot=              1.3137
 Quadrupole moment (field-independent basis, Debye-Ang):
   XX=            -66.6588   YY=            -66.6676   ZZ=            -67.1593
   XY=             -0.2046   XZ=              1.2341   YZ=             -3.3074

 Normal termination of Gaussian 16 at Sun Dec  3 12:40:33 2023.
