 Gaussian 16, Revision B.01,
 Gaussian 16:  ES64L-G16RevB.01 20-Dec-2017

 -------------------------
 #P B3LYP/6-311+g(d) force
 -------------------------

 -----
 DPGEN
 -----
 Symbolic Z-matrix:
 Charge =  0 Multiplicity = 2

                         Standard orientation:
 ---------------------------------------------------------------------
 Center     Atomic      Atomic             Coordinates (Angstroms)
 Number     Number       Type             X           Y           Z
 ---------------------------------------------------------------------
      1         11           0       -0.225837    1.416983    0.080816
      2         11           0        2.391457    3.587661   -0.063838
      3         11           0        3.274866    0.164511   -0.165834
      4         11           0        0.196392   -1.853598   -1.047425
      5         11           0       -3.101569   -1.275921   -0.412009
      6         11           0        3.017954   -2.767221    1.000218
      7         11           0       -5.553263    0.727584    0.608071
 ---------------------------------------------------------------------

 SCF Done:  E(UB3LYP) =  -1136.12627572     A.U. after   19 cycles

 The electronic state is 2-A.
 Alpha  occ. eigenvalues --  -38.44605 -38.44452 -38.44073 -38.43871 -38.43748
 Alpha  occ. eigenvalues --  -38.43613 -38.43604  -2.20420  -2.20260  -2.19937
 Alpha  occ. eigenvalues --   -2.19735  -2.19578  -2.19432  -2.19408  -1.14123
 Alpha  occ. eigenvalues --   -1.14118  -1.13999  -1.13894  -1.13892  -1.13879
 Alpha  occ. eigenvalues --   -1.13643  -1.13620  -1.13552  -1.13426  -1.13411
 Alpha  occ. eigenvalues --   -1.13336  -1.13240  -1.13227  -1.13192  -1.13115
 Alpha  occ. eigenvalues --   -1.13103  -1.13084  -1.13076  -1.13072  -1.13040
 Alpha  occ. eigenvalues --   -0.16986  -0.13996  -0.12409  -0.11200
 Alpha virt. eigenvalues --   -0.05826  -0.05401  -0.04802  -0.03738  -0.02570
 Alpha virt. eigenvalues --   -0.02422  -0.01939  -0.01647  -0.01228  -0.00751
 Alpha virt. eigenvalues --   -0.00408  -0.00097   0.00445   0.00488   0.00712

  Beta  occ. eigenvalues --  -38.44587 -38.44345 -38.44050 -38.43826 -38.43720
  Beta  occ. eigenvalues --  -38.43609 -38.43604  -2.20388  -2.20062  -2.19897
  Beta  occ. eigenvalues --   -2.19654  -2.19526  -2.19436  -2.19408  -1.14099
  Beta  occ. eigenvalues --   -1.14095  -1.13975  -1.13759  -1.13757  -1.13750
  Beta  occ. eigenvalues --   -1.13613  -1.13594  -1.13514  -1.13373  -1.13357
  Beta  occ. eigenvalues --   -1.13267  -1.13199  -1.13186  -1.13163  -1.13127
  Beta  occ. eigenvalues --   -1.13111  -1.13074  -1.13071  -1.13040  -1.13022
  Beta  occ. eigenvalues --   -0.16479  -0.13110  -0.12246
  Beta virt. eigenvalues --   -0.07655  -0.05595  -0.05249  -0.04345  -0.03446
  Beta virt. eigenvalues --   -0.02309  -0.02039  -0.01773  -0.01407  -0.00869
  Beta virt. eigenvalues --   -0.00458  -0.00035   0.00029   0.00538   0.00600

 Mulliken charges and spin densities:
               1          2
     1  Na  -1.146360  -0.104713
     2  Na   0.816079   0.023799
     3  Na  -0.275801   0.364450
     4  Na  -0.632738   0.092564
     5  Na   0.237389   0.082439
     6  Na   0.438687   0.061464
     7  Na   0.562744   0.479996
 Sum of Mulliken charges =  -0.00000   1.00000

 Dipole moment (field-independent basis, Debye):
    X=              0.5782    Y=              0.2358    Z=              0.2036  Tot=              0.6568
 Quadrupole moment (field-independent basis, Debye-Ang):
   XX=            -66.6433   YY=            -61.5213   ZZ=            -70.1262
   XY=              0.2391   XZ=             -0.6538   YZ=             -0.1393

 Normal termination of Gaussian 16 at Wed Nov 29 01:34:20 2023.
