 Gaussian 16, Revision B.01,
 Gaussian 16:  ES64L-G16RevB.01 20-Dec-2017

 -------------------------
 #P B3LYP/6-311+g(d) force
 -------------------------

 -----
 DPGEN
 -----
 Symbolic Z-matrix:
 Charge =  0 Multiplicity = 2

                         Standard orientation:
 ---------------------------------------------------------------------
 Center     Atomic      Atomic             Coordinates (Angstroms)
 Number     Number       Type             X           Y           Z
 ---------------------------------------------------------------------
      1         11           0        2.742483    0.862103    1.798430
      2         11           0        0.000926   -1.007576    1.387704
      3         11           0        2.784809   -1.521675   -0.730042
      4         11           0       -3.781791   -0.819666    0.862849
      5         11           0        1.107403    1.374188   -1.537656
      6         11           0       -1.097704   -1.205111   -1.613957
      7         11           0       -1.756125    2.317738   -0.167328
 ---------------------------------------------------------------------

 SCF Done:  E(UB3LYP) =  -1136.12632386     A.U. after   24 cycles

 The electronic state is 2-A.
 Alpha  occ. eigenvalues --  -38.44645 -38.44538 -38.44463 -38.44243 -38.43639
 Alpha  occ. eigenvalues --  -38.43415 -38.42149  -2.20486  -2.20381  -2.20345
 Alpha  occ. eigenvalues --   -2.20014  -2.19521  -2.19230  -2.18048  -1.14155
 Alpha  occ. eigenvalues --   -1.14150  -1.14123  -1.14073  -1.14054  -1.14007
 Alpha  occ. eigenvalues --   -1.13988  -1.13965  -1.13949  -1.13694  -1.13677
 Alpha  occ. eigenvalues --   -1.13641  -1.13251  -1.13200  -1.13104  -1.12910
 Alpha  occ. eigenvalues --   -1.12880  -1.12859  -1.11741  -1.11718  -1.11677
 Alpha  occ. eigenvalues --   -0.18388  -0.13642  -0.11615  -0.10882
 Alpha virt. eigenvalues --   -0.06425  -0.05384  -0.04544  -0.03123  -0.02693
 Alpha virt. eigenvalues --   -0.02576  -0.02217  -0.01142  -0.00762  -0.00125
 Alpha virt. eigenvalues --    0.00164   0.00214   0.00427   0.00532   0.00672

  Beta  occ. eigenvalues --  -38.44623 -38.44474 -38.44407 -38.44246 -38.43619
  Beta  occ. eigenvalues --  -38.43394 -38.42138  -2.20447  -2.20263  -2.20243
  Beta  occ. eigenvalues --   -2.20021  -2.19489  -2.19192  -2.18033  -1.14131
  Beta  occ. eigenvalues --   -1.14119  -1.14074  -1.14006  -1.13967  -1.13928
  Beta  occ. eigenvalues --   -1.13913  -1.13896  -1.13860  -1.13695  -1.13679
  Beta  occ. eigenvalues --   -1.13646  -1.13207  -1.13164  -1.13088  -1.12881
  Beta  occ. eigenvalues --   -1.12856  -1.12832  -1.11732  -1.11681  -1.11667
  Beta  occ. eigenvalues --   -0.17600  -0.13451  -0.10716
  Beta virt. eigenvalues --   -0.07765  -0.06215  -0.04838  -0.04268  -0.02851
  Beta virt. eigenvalues --   -0.02251  -0.02023  -0.01917  -0.00766  -0.00559
  Beta virt. eigenvalues --   -0.00019   0.00241   0.00354   0.00446   0.00645

 Mulliken charges and spin densities:
               1          2
     1  Na   0.170857   0.161820
     2  Na  -0.584431   0.250356
     3  Na   0.463424   0.137666
     4  Na   0.248812  -0.030136
     5  Na  -0.033989   0.208587
     6  Na   0.062567   0.220826
     7  Na  -0.327240   0.050881
 Sum of Mulliken charges =  -0.00000   1.00000

 Dipole moment (field-independent basis, Debye):
    X=              0.1956    Y=             -0.2415    Z=              0.1090  Tot=              0.3294
 Quadrupole moment (field-independent basis, Debye-Ang):
   XX=            -50.5819   YY=            -73.0023   ZZ=            -70.2853
   XY=             -1.3390   XZ=             -1.4822   YZ=              8.8410

 Normal termination of Gaussian 16 at Tue Dec  5 20:13:54 2023.
