 Gaussian 16, Revision B.01,
 Gaussian 16:  ES64L-G16RevB.01 20-Dec-2017

 -------------------------
 #P B3LYP/6-311+g(d) force
 -------------------------

 -----
 DPGEN
 -----
 Symbolic Z-matrix:
 Charge =  0 Multiplicity = 2

                         Standard orientation:
 ---------------------------------------------------------------------
 Center     Atomic      Atomic             Coordinates (Angstroms)
 Number     Number       Type             X           Y           Z
 ---------------------------------------------------------------------
      1         11           0       -0.055356    0.022738    1.872202
      2         11           0       -1.476991   -2.477034    0.133184
      3         11           0        1.998672   -2.029430    0.055365
      4         11           0        2.904045    0.921455   -0.243306
      5         11           0       -0.251328    3.118945    0.184565
      6         11           0       -2.892178    0.522501   -0.183268
      7         11           0       -0.226864   -0.079174   -1.818741
 ---------------------------------------------------------------------

 SCF Done:  E(UB3LYP) =  -1136.13926040     A.U. after   19 cycles

 The electronic state is 2-A.
 Alpha  occ. eigenvalues --  -38.43816 -38.43797 -38.43570 -38.43388 -38.43358
 Alpha  occ. eigenvalues --  -38.43337 -38.43294  -2.19679  -2.19663  -2.19374
 Alpha  occ. eigenvalues --   -2.19350  -2.19303  -2.19239  -2.19194  -1.13395
 Alpha  occ. eigenvalues --   -1.13369  -1.13346  -1.13326  -1.13300  -1.13298
 Alpha  occ. eigenvalues --   -1.13056  -1.13046  -1.13035  -1.13014  -1.12989
 Alpha  occ. eigenvalues --   -1.12981  -1.12973  -1.12946  -1.12932  -1.12893
 Alpha  occ. eigenvalues --   -1.12888  -1.12878  -1.12846  -1.12845  -1.12816
 Alpha  occ. eigenvalues --   -0.18957  -0.13121  -0.12502  -0.10875
 Alpha virt. eigenvalues --   -0.05466  -0.04929  -0.04872  -0.03246  -0.02920
 Alpha virt. eigenvalues --   -0.02580  -0.01313  -0.01152  -0.00319  -0.00164
 Alpha virt. eigenvalues --   -0.00001   0.00375   0.00865   0.00898   0.00932

  Beta  occ. eigenvalues --  -38.43812 -38.43788 -38.43568 -38.43331 -38.43310
  Beta  occ. eigenvalues --  -38.43286 -38.43273  -2.19668  -2.19659  -2.19372
  Beta  occ. eigenvalues --   -2.19232  -2.19207  -2.19184  -2.19148  -1.13379
  Beta  occ. eigenvalues --   -1.13369  -1.13318  -1.13307  -1.13293  -1.13293
  Beta  occ. eigenvalues --   -1.13041  -1.13027  -1.13016  -1.12970  -1.12916
  Beta  occ. eigenvalues --   -1.12896  -1.12892  -1.12878  -1.12870  -1.12849
  Beta  occ. eigenvalues --   -1.12843  -1.12817  -1.12811  -1.12803  -1.12779
  Beta  occ. eigenvalues --   -0.18205  -0.12858  -0.12255
  Beta virt. eigenvalues --   -0.06948  -0.05446  -0.04897  -0.04857  -0.02418
  Beta virt. eigenvalues --   -0.02148  -0.01531  -0.01222  -0.01073  -0.00364
  Beta virt. eigenvalues --   -0.00230   0.00124   0.00392   0.00883   0.00906

 Mulliken charges and spin densities:
               1          2
     1  Na  -0.364625   0.734325
     2  Na   0.311991  -0.041097
     3  Na   0.180499  -0.045772
     4  Na  -0.015939  -0.080306
     5  Na  -0.062576  -0.130653
     6  Na   0.268737  -0.073143
     7  Na  -0.318087   0.636647
 Sum of Mulliken charges =  -0.00000   1.00000

 Dipole moment (field-independent basis, Debye):
    X=             -0.0704    Y=              0.1793    Z=              0.0014  Tot=              0.1926
 Quadrupole moment (field-independent basis, Debye-Ang):
   XX=            -58.9787   YY=            -61.2214   ZZ=            -73.7459
   XY=              0.5194   XZ=             -0.4142   YZ=             -0.3606

 Normal termination of Gaussian 16 at Tue Dec  5 16:58:39 2023.
