 Gaussian 16, Revision B.01,
 Gaussian 16:  ES64L-G16RevB.01 20-Dec-2017

 -------------------------
 #P B3LYP/6-311+g(d) force
 -------------------------

 -----
 DPGEN
 -----
 Symbolic Z-matrix:
 Charge =  0 Multiplicity = 2

                         Standard orientation:
 ---------------------------------------------------------------------
 Center     Atomic      Atomic             Coordinates (Angstroms)
 Number     Number       Type             X           Y           Z
 ---------------------------------------------------------------------
      1         11           0       -0.885818   -0.184552    1.613247
      2         11           0        2.961882   -0.112950   -0.338593
      3         11           0       -0.940636    1.839767   -1.416201
      4         11           0        1.696419    3.135941    0.686488
      5         11           0        1.840213   -3.093310    0.186189
      6         11           0       -0.876077   -1.281598   -1.090023
      7         11           0       -3.795985   -0.303298    0.358894
 ---------------------------------------------------------------------

 SCF Done:  E(UB3LYP) =  -1136.12457788     A.U. after   20 cycles

 The electronic state is 2-A.
 Alpha  occ. eigenvalues --  -38.44717 -38.44488 -38.44290 -38.43553 -38.43510
 Alpha  occ. eigenvalues --  -38.43506 -38.43278  -2.20556  -2.20289  -2.20213
 Alpha  occ. eigenvalues --   -2.19494  -2.19428  -2.19332  -2.19064  -1.14242
 Alpha  occ. eigenvalues --   -1.14217  -1.14185  -1.13987  -1.13979  -1.13959
 Alpha  occ. eigenvalues --   -1.13920  -1.13829  -1.13802  -1.13253  -1.13191
 Alpha  occ. eigenvalues --   -1.13089  -1.13074  -1.13061  -1.13008  -1.13000
 Alpha  occ. eigenvalues --   -1.12987  -1.12965  -1.12728  -1.12728  -1.12701
 Alpha  occ. eigenvalues --   -0.18187  -0.13450  -0.12235  -0.10363
 Alpha virt. eigenvalues --   -0.06302  -0.05103  -0.05010  -0.03237  -0.02680
 Alpha virt. eigenvalues --   -0.02242  -0.02056  -0.01224  -0.00647  -0.00491
 Alpha virt. eigenvalues --    0.00107   0.00184   0.00658   0.00694   0.00765

  Beta  occ. eigenvalues --  -38.44700 -38.44487 -38.44238 -38.43511 -38.43490
  Beta  occ. eigenvalues --  -38.43462 -38.43269  -2.20528  -2.20289  -2.20118
  Beta  occ. eigenvalues --   -2.19418  -2.19335  -2.19315  -2.19047  -1.14211
  Beta  occ. eigenvalues --   -1.14202  -1.14151  -1.13972  -1.13957  -1.13921
  Beta  occ. eigenvalues --   -1.13918  -1.13764  -1.13727  -1.13193  -1.13103
  Beta  occ. eigenvalues --   -1.13033  -1.13008  -1.13000  -1.12987  -1.12983
  Beta  occ. eigenvalues --   -1.12963  -1.12921  -1.12717  -1.12709  -1.12692
  Beta  occ. eigenvalues --   -0.17519  -0.13201  -0.12081
  Beta virt. eigenvalues --   -0.06514  -0.06133  -0.05035  -0.04842  -0.02628
  Beta virt. eigenvalues --   -0.02231  -0.02087  -0.01295  -0.01125  -0.00633
  Beta virt. eigenvalues --   -0.00136   0.00192   0.00283   0.00725   0.00773

 Mulliken charges and spin densities:
               1          2
     1  Na  -0.720990   0.599801
     2  Na  -0.297478   0.067384
     3  Na  -0.199653   0.058635
     4  Na   0.144910  -0.017096
     5  Na   0.360292  -0.114107
     6  Na   0.199576   0.430825
     7  Na   0.513343  -0.025443
 Sum of Mulliken charges =  -0.00000   1.00000

 Dipole moment (field-independent basis, Debye):
    X=             -0.6894    Y=             -0.3004    Z=              0.0082  Tot=              0.7520
 Quadrupole moment (field-independent basis, Debye-Ang):
   XX=            -53.7623   YY=            -64.7119   ZZ=            -74.7418
   XY=             -1.2840   XZ=              1.0691   YZ=              0.1046

 Normal termination of Gaussian 16 at Tue Dec  5 10:51:18 2023.
