 Gaussian 16, Revision B.01,
 Gaussian 16:  ES64L-G16RevB.01 20-Dec-2017

 -------------------------
 #P B3LYP/6-311+g(d) force
 -------------------------

 -----
 DPGEN
 -----
 Symbolic Z-matrix:
 Charge =  0 Multiplicity = 2

                         Standard orientation:
 ---------------------------------------------------------------------
 Center     Atomic      Atomic             Coordinates (Angstroms)
 Number     Number       Type             X           Y           Z
 ---------------------------------------------------------------------
      1         11           0       -4.480584   -1.331204   -0.087567
      2         11           0       -2.139664    0.836736    2.111096
      3         11           0        4.478856   -1.107966    0.942727
      4         11           0        2.710590    1.944881   -0.359206
      5         11           0       -1.422106    2.166824   -0.994799
      6         11           0       -1.437786   -1.165578   -0.846048
      7         11           0        2.290694   -1.343692   -0.766204
 ---------------------------------------------------------------------

 SCF Done:  E(UB3LYP) =  -1136.10410331     A.U. after   38 cycles

 The electronic state is 2-A.
 Alpha  occ. eigenvalues --  -38.45403 -38.45152 -38.44281 -38.44192 -38.44069
 Alpha  occ. eigenvalues --  -38.43846 -38.43281  -2.21152  -2.20959  -2.20198
 Alpha  occ. eigenvalues --   -2.20059  -2.19881  -2.19651  -2.19195  -1.14864
 Alpha  occ. eigenvalues --   -1.14842  -1.14758  -1.14635  -1.14601  -1.14558
 Alpha  occ. eigenvalues --   -1.14096  -1.13855  -1.13834  -1.13684  -1.13666
 Alpha  occ. eigenvalues --   -1.13596  -1.13568  -1.13536  -1.13503  -1.13344
 Alpha  occ. eigenvalues --   -1.13319  -1.13270  -1.12884  -1.12841  -1.12812
 Alpha  occ. eigenvalues --   -0.17193  -0.14864  -0.10956  -0.10534
 Alpha virt. eigenvalues --   -0.07130  -0.06002  -0.04528  -0.03360  -0.02962
 Alpha virt. eigenvalues --   -0.02332  -0.02003  -0.01516  -0.01168  -0.00822
 Alpha virt. eigenvalues --   -0.00152   0.00115   0.00247   0.00282   0.00421

  Beta  occ. eigenvalues --  -38.45426 -38.45080 -38.44265 -38.44177 -38.44039
  Beta  occ. eigenvalues --  -38.43837 -38.43219  -2.21196  -2.20825  -2.20172
  Beta  occ. eigenvalues --   -2.20028  -2.19827  -2.19637  -2.19086  -1.14891
  Beta  occ. eigenvalues --   -1.14873  -1.14782  -1.14540  -1.14510  -1.14460
  Beta  occ. eigenvalues --   -1.14060  -1.13840  -1.13826  -1.13663  -1.13644
  Beta  occ. eigenvalues --   -1.13561  -1.13527  -1.13500  -1.13459  -1.13331
  Beta  occ. eigenvalues --   -1.13294  -1.13263  -1.12816  -1.12762  -1.12706
  Beta  occ. eigenvalues --   -0.16527  -0.14555  -0.10788
  Beta virt. eigenvalues --   -0.06865  -0.06803  -0.05748  -0.04124  -0.03309
  Beta virt. eigenvalues --   -0.02757  -0.01845  -0.01522  -0.01278  -0.00904
  Beta virt. eigenvalues --   -0.00490  -0.00007   0.00185   0.00377   0.00391

 Mulliken charges and spin densities:
               1          2
     1  Na   1.440293   0.319124
     2  Na   0.028623   0.413083
     3  Na   0.324962   0.226552
     4  Na  -0.151931  -0.024187
     5  Na   0.208146   0.042676
     6  Na  -1.239528   0.409189
     7  Na  -0.610566  -0.386437
 Sum of Mulliken charges =  -0.00000   1.00000

 Dipole moment (field-independent basis, Debye):
    X=              0.5630    Y=              0.7006    Z=              0.7070  Tot=              1.1435
 Quadrupole moment (field-independent basis, Debye-Ang):
   XX=            -58.2560   YY=            -73.8015   ZZ=            -67.2760
   XY=              0.7166   XZ=              3.4410   YZ=             -2.3977

 Normal termination of Gaussian 16 at Wed Dec  6 00:25:28 2023.
