 Gaussian 16, Revision B.01,
 Gaussian 16:  ES64L-G16RevB.01 20-Dec-2017

 -------------------------
 #P B3LYP/6-311+g(d) force
 -------------------------

 -----
 DPGEN
 -----
 Symbolic Z-matrix:
 Charge =  0 Multiplicity = 2

                         Standard orientation:
 ---------------------------------------------------------------------
 Center     Atomic      Atomic             Coordinates (Angstroms)
 Number     Number       Type             X           Y           Z
 ---------------------------------------------------------------------
      1         11           0       -4.011534   -1.493782   -0.535090
      2         11           0        1.395694    0.917643    1.523487
      3         11           0       -0.199452   -0.788637   -0.875460
      4         11           0        1.879868   -2.577148    0.623441
      5         11           0        0.106139    2.903216   -0.960664
      6         11           0        3.003518   -0.122728   -0.971433
      7         11           0       -2.174234    1.161435    1.195718
 ---------------------------------------------------------------------

 SCF Done:  E(UB3LYP) =  -1136.12468861     A.U. after   22 cycles

 The electronic state is 2-A.
 Alpha  occ. eigenvalues --  -38.44400 -38.44068 -38.44031 -38.43798 -38.43569
 Alpha  occ. eigenvalues --  -38.43494 -38.43373  -2.20326  -2.19918  -2.19821
 Alpha  occ. eigenvalues --   -2.19638  -2.19531  -2.19327  -2.19318  -1.14026
 Alpha  occ. eigenvalues --   -1.14000  -1.13945  -1.13625  -1.13552  -1.13544
 Alpha  occ. eigenvalues --   -1.13492  -1.13488  -1.13448  -1.13345  -1.13315
 Alpha  occ. eigenvalues --   -1.13247  -1.13234  -1.13193  -1.13139  -1.13013
 Alpha  occ. eigenvalues --   -1.13007  -1.12990  -1.12971  -1.12960  -1.12894
 Alpha  occ. eigenvalues --   -0.18597  -0.13538  -0.11886  -0.10338
 Alpha virt. eigenvalues --   -0.06457  -0.05314  -0.04820  -0.03120  -0.02580
 Alpha virt. eigenvalues --   -0.02211  -0.01747  -0.01322  -0.00850  -0.00187
 Alpha virt. eigenvalues --   -0.00039   0.00217   0.00393   0.00679   0.00778

  Beta  occ. eigenvalues --  -38.44369 -38.44062 -38.44017 -38.43776 -38.43544
  Beta  occ. eigenvalues --  -38.43478 -38.43320  -2.20272  -2.19894  -2.19810
  Beta  occ. eigenvalues --   -2.19600  -2.19489  -2.19290  -2.19234  -1.13993
  Beta  occ. eigenvalues --   -1.13954  -1.13893  -1.13610  -1.13533  -1.13510
  Beta  occ. eigenvalues --   -1.13483  -1.13481  -1.13441  -1.13318  -1.13282
  Beta  occ. eigenvalues --   -1.13201  -1.13197  -1.13161  -1.13104  -1.12970
  Beta  occ. eigenvalues --   -1.12968  -1.12942  -1.12924  -1.12915  -1.12828
  Beta  occ. eigenvalues --   -0.17888  -0.13352  -0.11682
  Beta virt. eigenvalues --   -0.06620  -0.06246  -0.05203  -0.04431  -0.02686
  Beta virt. eigenvalues --   -0.02133  -0.02063  -0.01280  -0.00945  -0.00630
  Beta virt. eigenvalues --   -0.00004   0.00052   0.00270   0.00510   0.00722

 Mulliken charges and spin densities:
               1          2
     1  Na   0.317065   0.038329
     2  Na   0.028735   0.359956
     3  Na  -1.463749   0.376298
     4  Na   0.263799  -0.061006
     5  Na  -0.003976   0.159581
     6  Na   0.947858   0.211225
     7  Na  -0.089732  -0.084383
 Sum of Mulliken charges =  -0.00000   1.00000

 Dipole moment (field-independent basis, Debye):
    X=              0.4697    Y=             -0.0536    Z=              0.0739  Tot=              0.4785
 Quadrupole moment (field-independent basis, Debye-Ang):
   XX=            -55.3747   YY=            -63.7394   ZZ=            -72.8922
   XY=             -1.7435   XZ=             -0.3421   YZ=             -1.5553

 Normal termination of Gaussian 16 at Tue Dec  5 18:00:06 2023.
