 Gaussian 16, Revision B.01,
 Gaussian 16:  ES64L-G16RevB.01 20-Dec-2017

 -------------------------
 #P B3LYP/6-311+g(d) force
 -------------------------

 -----
 DPGEN
 -----
 Symbolic Z-matrix:
 Charge =  0 Multiplicity = 2

                         Standard orientation:
 ---------------------------------------------------------------------
 Center     Atomic      Atomic             Coordinates (Angstroms)
 Number     Number       Type             X           Y           Z
 ---------------------------------------------------------------------
      1         11           0       -2.818717   -1.994098   -0.144497
      2         11           0        0.223567    0.097767   -1.811483
      3         11           0        3.377433   -0.113322   -0.251369
      4         11           0        0.835600    2.408505    0.327199
      5         11           0       -2.445025    2.031287   -0.303152
      6         11           0        0.959041   -2.407510    0.110023
      7         11           0       -0.131900   -0.022628    2.073279
 ---------------------------------------------------------------------

 SCF Done:  E(UB3LYP) =  -1136.13353279     A.U. after   20 cycles

 The electronic state is 2-A.
 Alpha  occ. eigenvalues --  -38.44143 -38.44052 -38.43939 -38.43816 -38.43725
 Alpha  occ. eigenvalues --  -38.43266 -38.43007  -2.19970  -2.19807  -2.19749
 Alpha  occ. eigenvalues --   -2.19728  -2.19664  -2.19158  -2.18933  -1.13635
 Alpha  occ. eigenvalues --   -1.13635  -1.13616  -1.13486  -1.13464  -1.13448
 Alpha  occ. eigenvalues --   -1.13426  -1.13419  -1.13404  -1.13390  -1.13376
 Alpha  occ. eigenvalues --   -1.13356  -1.13326  -1.13325  -1.13259  -1.12854
 Alpha  occ. eigenvalues --   -1.12842  -1.12752  -1.12632  -1.12606  -1.12530
 Alpha  occ. eigenvalues --   -0.18632  -0.12875  -0.12224  -0.11033
 Alpha virt. eigenvalues --   -0.05811  -0.05396  -0.04128  -0.03212  -0.02971
 Alpha virt. eigenvalues --   -0.02772  -0.01827  -0.01202  -0.00234  -0.00092
 Alpha virt. eigenvalues --   -0.00039   0.00310   0.00710   0.00846   0.00920

  Beta  occ. eigenvalues --  -38.44140 -38.44055 -38.43935 -38.43716 -38.43657
  Beta  occ. eigenvalues --  -38.43256 -38.42991  -2.19967  -2.19814  -2.19744
  Beta  occ. eigenvalues --   -2.19546  -2.19539  -2.19144  -2.18910  -1.13635
  Beta  occ. eigenvalues --   -1.13620  -1.13608  -1.13483  -1.13468  -1.13454
  Beta  occ. eigenvalues --   -1.13413  -1.13399  -1.13388  -1.13300  -1.13271
  Beta  occ. eigenvalues --   -1.13243  -1.13236  -1.13197  -1.13166  -1.12846
  Beta  occ. eigenvalues --   -1.12796  -1.12747  -1.12618  -1.12549  -1.12522
  Beta  occ. eigenvalues --   -0.17856  -0.12656  -0.12000
  Beta virt. eigenvalues --   -0.07076  -0.05738  -0.05381  -0.04098  -0.02474
  Beta virt. eigenvalues --   -0.02180  -0.01769  -0.01684  -0.01158  -0.00237
  Beta virt. eigenvalues --   -0.00115   0.00074   0.00334   0.00782   0.00836

 Mulliken charges and spin densities:
               1          2
     1  Na  -0.101101  -0.129193
     2  Na  -0.367204   0.693008
     3  Na   0.266496  -0.018409
     4  Na   0.350030   0.042192
     5  Na  -0.024547  -0.101281
     6  Na   0.144645  -0.066974
     7  Na  -0.268320   0.580656
 Sum of Mulliken charges =  -0.00000   1.00000

 Dipole moment (field-independent basis, Debye):
    X=             -0.0746    Y=              0.0184    Z=             -0.0572  Tot=              0.0958
 Quadrupole moment (field-independent basis, Debye-Ang):
   XX=            -53.4000   YY=            -67.2054   ZZ=            -72.7827
   XY=             -0.3153   XZ=              0.6003   YZ=              0.0396

 Normal termination of Gaussian 16 at Wed Dec  6 00:29:28 2023.
