 Gaussian 16, Revision B.01,
 Gaussian 16:  ES64L-G16RevB.01 20-Dec-2017

 -------------------------
 #P B3LYP/6-311+g(d) force
 -------------------------

 -----
 DPGEN
 -----
 Symbolic Z-matrix:
 Charge =  0 Multiplicity = 2

                         Standard orientation:
 ---------------------------------------------------------------------
 Center     Atomic      Atomic             Coordinates (Angstroms)
 Number     Number       Type             X           Y           Z
 ---------------------------------------------------------------------
      1         11           0       -0.518102   -0.402166    1.859699
      2         11           0       -2.502293    1.714230    0.148780
      3         11           0        1.126602   -2.550174    0.281070
      4         11           0        1.025999    2.700994    0.082209
      5         11           0       -2.610534   -1.483120   -0.563755
      6         11           0        3.195084    0.104912   -0.008515
      7         11           0        0.283243   -0.084676   -1.799488
 ---------------------------------------------------------------------

 SCF Done:  E(UB3LYP) =  -1136.13743535     A.U. after   19 cycles

 The electronic state is 2-A.
 Alpha  occ. eigenvalues --  -38.44213 -38.43914 -38.43760 -38.43436 -38.43432
 Alpha  occ. eigenvalues --  -38.43159 -38.43149  -2.20058  -2.19784  -2.19615
 Alpha  occ. eigenvalues --   -2.19386  -2.19377  -2.19055  -2.18986  -1.13732
 Alpha  occ. eigenvalues --   -1.13719  -1.13703  -1.13473  -1.13450  -1.13424
 Alpha  occ. eigenvalues --   -1.13298  -1.13269  -1.13246  -1.13085  -1.13054
 Alpha  occ. eigenvalues --   -1.13025  -1.13015  -1.13006  -1.12995  -1.12731
 Alpha  occ. eigenvalues --   -1.12712  -1.12671  -1.12663  -1.12657  -1.12620
 Alpha  occ. eigenvalues --   -0.18828  -0.13407  -0.12257  -0.10850
 Alpha virt. eigenvalues --   -0.05783  -0.05217  -0.04402  -0.03422  -0.02815
 Alpha virt. eigenvalues --   -0.02531  -0.01624  -0.01010  -0.00287  -0.00220
 Alpha virt. eigenvalues --   -0.00007   0.00364   0.00781   0.00895   0.00910

  Beta  occ. eigenvalues --  -38.44212 -38.43897 -38.43755 -38.43363 -38.43353
  Beta  occ. eigenvalues --  -38.43148 -38.43147  -2.20059  -2.19755  -2.19609
  Beta  occ. eigenvalues --   -2.19251  -2.19233  -2.19039  -2.18986  -1.13726
  Beta  occ. eigenvalues --   -1.13717  -1.13700  -1.13459  -1.13410  -1.13399
  Beta  occ. eigenvalues --   -1.13283  -1.13252  -1.13242  -1.12997  -1.12960
  Beta  occ. eigenvalues --   -1.12934  -1.12912  -1.12903  -1.12895  -1.12713
  Beta  occ. eigenvalues --   -1.12670  -1.12663  -1.12661  -1.12646  -1.12616
  Beta  occ. eigenvalues --   -0.18104  -0.13180  -0.12001
  Beta virt. eigenvalues --   -0.06934  -0.05715  -0.05215  -0.04339  -0.02658
  Beta virt. eigenvalues --   -0.02059  -0.01535  -0.01480  -0.00935  -0.00314
  Beta virt. eigenvalues --   -0.00258   0.00127   0.00397   0.00858   0.00891

 Mulliken charges and spin densities:
               1          2
     1  Na  -0.261171   0.638245
     2  Na   0.033911  -0.041397
     3  Na   0.274496  -0.049848
     4  Na  -0.076261  -0.102863
     5  Na   0.219574   0.012966
     6  Na   0.043979  -0.066712
     7  Na  -0.234526   0.609609
 Sum of Mulliken charges =  -0.00000   1.00000

 Dipole moment (field-independent basis, Debye):
    X=              0.0015    Y=             -0.0633    Z=             -0.0286  Tot=              0.0694
 Quadrupole moment (field-independent basis, Debye-Ang):
   XX=            -54.8304   YY=            -65.5615   ZZ=            -73.6535
   XY=             -0.1493   XZ=              1.4081   YZ=              0.9936

 Normal termination of Gaussian 16 at Thu Dec  7 06:32:03 2023.
