 Gaussian 16, Revision B.01,
 Gaussian 16:  ES64L-G16RevB.01 20-Dec-2017

 -------------------------
 #P B3LYP/6-311+g(d) force
 -------------------------

 -----
 DPGEN
 -----
 Symbolic Z-matrix:
 Charge =  0 Multiplicity = 2

                         Standard orientation:
 ---------------------------------------------------------------------
 Center     Atomic      Atomic             Coordinates (Angstroms)
 Number     Number       Type             X           Y           Z
 ---------------------------------------------------------------------
      1         11           0       -2.808859   -1.560869    0.296957
      2         11           0        3.748265   -0.045479    0.337659
      3         11           0        0.067152   -0.091754    2.149675
      4         11           0        1.255024    2.366764   -0.697850
      5         11           0        0.964865   -2.534361   -0.547988
      6         11           0       -0.838718   -0.179392   -1.836487
      7         11           0       -2.387728    2.045091    0.298033
 ---------------------------------------------------------------------

 SCF Done:  E(UB3LYP) =  -1136.13136369     A.U. after   19 cycles

 The electronic state is 2-A.
 Alpha  occ. eigenvalues --  -38.44719 -38.44454 -38.44254 -38.43658 -38.43461
 Alpha  occ. eigenvalues --  -38.43359 -38.43336  -2.20473  -2.20280  -2.20084
 Alpha  occ. eigenvalues --   -2.19480  -2.19411  -2.19179  -2.19146  -1.14148
 Alpha  occ. eigenvalues --   -1.14132  -1.14111  -1.13947  -1.13918  -1.13896
 Alpha  occ. eigenvalues --   -1.13782  -1.13742  -1.13708  -1.13164  -1.13148
 Alpha  occ. eigenvalues --   -1.13117  -1.13098  -1.13056  -1.13029  -1.12869
 Alpha  occ. eigenvalues --   -1.12844  -1.12837  -1.12812  -1.12783  -1.12760
 Alpha  occ. eigenvalues --   -0.18144  -0.13021  -0.11803  -0.11124
 Alpha virt. eigenvalues --   -0.06349  -0.05255  -0.04155  -0.03372  -0.02937
 Alpha virt. eigenvalues --   -0.02894  -0.01957  -0.01112  -0.00551  -0.00126
 Alpha virt. eigenvalues --   -0.00046   0.00317   0.00496   0.00710   0.00821

  Beta  occ. eigenvalues --  -38.44722 -38.44369 -38.44248 -38.43655 -38.43388
  Beta  occ. eigenvalues --  -38.43347 -38.43321  -2.20479  -2.20122  -2.20076
  Beta  occ. eigenvalues --   -2.19476  -2.19278  -2.19162  -2.19122  -1.14145
  Beta  occ. eigenvalues --   -1.14138  -1.14115  -1.13843  -1.13810  -1.13779
  Beta  occ. eigenvalues --   -1.13769  -1.13723  -1.13700  -1.13155  -1.13137
  Beta  occ. eigenvalues --   -1.13106  -1.13014  -1.12966  -1.12938  -1.12841
  Beta  occ. eigenvalues --   -1.12819  -1.12811  -1.12788  -1.12772  -1.12746
  Beta  occ. eigenvalues --   -0.17383  -0.12884  -0.11546
  Beta virt. eigenvalues --   -0.07226  -0.06177  -0.05261  -0.03977  -0.02800
  Beta virt. eigenvalues --   -0.02187  -0.01908  -0.01823  -0.01067  -0.00507
  Beta virt. eigenvalues --   -0.00076   0.00022   0.00350   0.00698   0.00792

 Mulliken charges and spin densities:
               1          2
     1  Na   0.142309  -0.055582
     2  Na   0.034416   0.000636
     3  Na  -0.337268   0.760189
     4  Na  -0.207425  -0.086459
     5  Na  -0.191251  -0.162198
     6  Na   0.543141   0.556492
     7  Na   0.016078  -0.013078
 Sum of Mulliken charges =  -0.00000   1.00000

 Dipole moment (field-independent basis, Debye):
    X=              0.0501    Y=             -0.1567    Z=              0.4365  Tot=              0.4665
 Quadrupole moment (field-independent basis, Debye-Ang):
   XX=            -52.3259   YY=            -69.7164   ZZ=            -71.9072
   XY=             -0.0310   XZ=             -0.8327   YZ=             -0.3297

 Normal termination of Gaussian 16 at Fri Dec  8 06:49:37 2023.
