 Gaussian 16, Revision B.01,
 Gaussian 16:  ES64L-G16RevB.01 20-Dec-2017

 -------------------------
 #P B3LYP/6-311+g(d) force
 -------------------------

 -----
 DPGEN
 -----
 Symbolic Z-matrix:
 Charge =  0 Multiplicity = 2

                         Standard orientation:
 ---------------------------------------------------------------------
 Center     Atomic      Atomic             Coordinates (Angstroms)
 Number     Number       Type             X           Y           Z
 ---------------------------------------------------------------------
      1         11           0        1.145935   -2.634697   -0.051643
      2         11           0        0.215861    2.901534   -0.204146
      3         11           0        0.113578   -0.187231    2.054461
      4         11           0       -2.361464   -1.821500   -0.259760
      5         11           0       -2.388871    1.393713    0.068663
      6         11           0        2.910910    0.516468    0.002260
      7         11           0        0.364051   -0.168288   -1.609835
 ---------------------------------------------------------------------

 SCF Done:  E(UB3LYP) =  -1136.13642839     A.U. after   19 cycles

 The electronic state is 2-A.
 Alpha  occ. eigenvalues --  -38.43715 -38.43702 -38.43588 -38.43528 -38.43454
 Alpha  occ. eigenvalues --  -38.43316 -38.43126  -2.19601  -2.19593  -2.19506
 Alpha  occ. eigenvalues --   -2.19388  -2.19342  -2.19231  -2.19174  -1.13360
 Alpha  occ. eigenvalues --   -1.13314  -1.13280  -1.13256  -1.13222  -1.13191
 Alpha  occ. eigenvalues --   -1.13168  -1.13130  -1.13123  -1.13115  -1.13083
 Alpha  occ. eigenvalues --   -1.13049  -1.13026  -1.13004  -1.12977  -1.12877
 Alpha  occ. eigenvalues --   -1.12875  -1.12834  -1.12832  -1.12794  -1.12782
 Alpha  occ. eigenvalues --   -0.19195  -0.13039  -0.12792  -0.10972
 Alpha virt. eigenvalues --   -0.05404  -0.04918  -0.04769  -0.03180  -0.03005
 Alpha virt. eigenvalues --   -0.02660  -0.01241  -0.01131  -0.00138  -0.00088
 Alpha virt. eigenvalues --    0.00009   0.00367   0.00887   0.00937   0.00966

  Beta  occ. eigenvalues --  -38.43709 -38.43693 -38.43524 -38.43489 -38.43450
  Beta  occ. eigenvalues --  -38.43312 -38.43061  -2.19590  -2.19586  -2.19383
  Beta  occ. eigenvalues --   -2.19339  -2.19323  -2.19227  -2.19055  -1.13346
  Beta  occ. eigenvalues --   -1.13300  -1.13238  -1.13226  -1.13220  -1.13188
  Beta  occ. eigenvalues --   -1.13124  -1.13088  -1.13046  -1.13030  -1.13022
  Beta  occ. eigenvalues --   -1.13001  -1.12989  -1.12986  -1.12962  -1.12873
  Beta  occ. eigenvalues --   -1.12844  -1.12834  -1.12757  -1.12711  -1.12696
  Beta  occ. eigenvalues --   -0.18447  -0.12785  -0.12539
  Beta virt. eigenvalues --   -0.07001  -0.05408  -0.04856  -0.04774  -0.02337
  Beta virt. eigenvalues --   -0.02214  -0.01557  -0.01175  -0.01065  -0.00203
  Beta virt. eigenvalues --   -0.00117   0.00132   0.00390   0.00892   0.00946

 Mulliken charges and spin densities:
               1          2
     1  Na   0.389696  -0.049871
     2  Na   0.128424  -0.035095
     3  Na  -0.619576   0.736964
     4  Na   0.134063  -0.034920
     5  Na   0.138905   0.011111
     6  Na   0.343040  -0.043220
     7  Na  -0.514552   0.415032
 Sum of Mulliken charges =  -0.00000   1.00000

 Dipole moment (field-independent basis, Debye):
    X=              0.2539    Y=             -0.1996    Z=              0.2072  Tot=              0.3837
 Quadrupole moment (field-independent basis, Debye-Ang):
   XX=            -60.2110   YY=            -60.7451   ZZ=            -73.3890
   XY=              0.7893   XZ=              0.5561   YZ=              0.0644

 Normal termination of Gaussian 16 at Thu Dec  7 08:17:38 2023.
