 Gaussian 16, Revision B.01,
 Gaussian 16:  ES64L-G16RevB.01 20-Dec-2017

 -------------------------
 #P B3LYP/6-311+g(d) force
 -------------------------

 -----
 DPGEN
 -----
 Symbolic Z-matrix:
 Charge =  0 Multiplicity = 2

                         Standard orientation:
 ---------------------------------------------------------------------
 Center     Atomic      Atomic             Coordinates (Angstroms)
 Number     Number       Type             X           Y           Z
 ---------------------------------------------------------------------
      1         11           0        0.078872    1.329639   -0.268183
      2         11           0       -2.585329    3.638688    0.274632
      3         11           0       -3.204047    0.180573   -0.052648
      4         11           0       -0.342908   -2.125169    1.100838
      5         11           0        3.121080   -1.251438    0.334993
      6         11           0       -2.646608   -2.789542   -0.929677
      7         11           0        5.578941    1.017250   -0.459956
 ---------------------------------------------------------------------

 SCF Done:  E(UB3LYP) =  -1136.12390820     A.U. after   18 cycles

 The electronic state is 2-A.
 Alpha  occ. eigenvalues --  -38.44935 -38.44179 -38.44110 -38.44037 -38.43953
 Alpha  occ. eigenvalues --  -38.43727 -38.43482  -2.20731  -2.19992  -2.19965
 Alpha  occ. eigenvalues --   -2.19836  -2.19819  -2.19602  -2.19271  -1.14434
 Alpha  occ. eigenvalues --   -1.14429  -1.14302  -1.13699  -1.13679  -1.13644
 Alpha  occ. eigenvalues --   -1.13633  -1.13613  -1.13572  -1.13519  -1.13488
 Alpha  occ. eigenvalues --   -1.13474  -1.13473  -1.13451  -1.13449  -1.13254
 Alpha  occ. eigenvalues --   -1.13236  -1.13217  -1.12963  -1.12944  -1.12917
 Alpha  occ. eigenvalues --   -0.17123  -0.13619  -0.12749  -0.10786
 Alpha virt. eigenvalues --   -0.06135  -0.05326  -0.05067  -0.03548  -0.02461
 Alpha virt. eigenvalues --   -0.02398  -0.02146  -0.01712  -0.01231  -0.00672
 Alpha virt. eigenvalues --   -0.00306  -0.00167   0.00429   0.00501   0.00622

  Beta  occ. eigenvalues --  -38.44916 -38.44180 -38.44083 -38.43936 -38.43919
  Beta  occ. eigenvalues --  -38.43700 -38.43484  -2.20695  -2.19968  -2.19944
  Beta  occ. eigenvalues --   -2.19760  -2.19646  -2.19552  -2.19282  -1.14412
  Beta  occ. eigenvalues --   -1.14403  -1.14275  -1.13669  -1.13644  -1.13640
  Beta  occ. eigenvalues --   -1.13634  -1.13600  -1.13545  -1.13482  -1.13451
  Beta  occ. eigenvalues --   -1.13393  -1.13344  -1.13342  -1.13327  -1.13212
  Beta  occ. eigenvalues --   -1.13195  -1.13188  -1.12978  -1.12960  -1.12866
  Beta  occ. eigenvalues --   -0.16657  -0.12901  -0.12476
  Beta virt. eigenvalues --   -0.07270  -0.05985  -0.05181  -0.04582  -0.03150
  Beta virt. eigenvalues --   -0.02321  -0.02105  -0.01882  -0.01561  -0.00868
  Beta virt. eigenvalues --   -0.00321  -0.00021   0.00047   0.00498   0.00635

 Mulliken charges and spin densities:
               1          2
     1  Na  -0.946690  -0.100309
     2  Na   0.724634   0.010161
     3  Na  -0.097679   0.379131
     4  Na  -0.356575   0.090563
     5  Na  -0.088444   0.071044
     6  Na   0.354858   0.059082
     7  Na   0.409897   0.490329
 Sum of Mulliken charges =  -0.00000   1.00000

 Dipole moment (field-independent basis, Debye):
    X=             -1.4652    Y=              0.5310    Z=             -0.0089  Tot=              1.5585
 Quadrupole moment (field-independent basis, Debye-Ang):
   XX=            -71.5627   YY=            -58.5934   ZZ=            -69.9141
   XY=             -2.2901   XZ=             -0.9694   YZ=              0.5719

 Normal termination of Gaussian 16 at Tue Nov 28 20:51:18 2023.
