 Gaussian 16, Revision B.01,
 Gaussian 16:  ES64L-G16RevB.01 20-Dec-2017

 -------------------------
 #P B3LYP/6-311+g(d) force
 -------------------------

 -----
 DPGEN
 -----
 Symbolic Z-matrix:
 Charge =  0 Multiplicity = 2

                         Standard orientation:
 ---------------------------------------------------------------------
 Center     Atomic      Atomic             Coordinates (Angstroms)
 Number     Number       Type             X           Y           Z
 ---------------------------------------------------------------------
      1         11           0        0.025926    0.393700    2.057363
      2         11           0        0.230219   -1.887475    0.279115
      3         11           0        1.309192    1.784467   -0.241924
      4         11           0        2.612161   -0.732309   -0.081688
      5         11           0       -0.151240   -0.107262   -1.938554
      6         11           0       -2.421706   -1.059172   -0.000107
      7         11           0       -1.604553    1.608051   -0.074204
 ---------------------------------------------------------------------

 SCF Done:  E(UB3LYP) =  -1136.08719251     A.U. after   20 cycles

 The electronic state is 2-A.
 Alpha  occ. eigenvalues --  -38.44647 -38.44503 -38.44069 -38.43779 -38.43300
 Alpha  occ. eigenvalues --  -38.43267 -38.43124  -2.20750  -2.20677  -2.20116
 Alpha  occ. eigenvalues --   -2.19845  -2.19478  -2.19446  -2.19259  -1.14496
 Alpha  occ. eigenvalues --   -1.14427  -1.14408  -1.14345  -1.14341  -1.14298
 Alpha  occ. eigenvalues --   -1.14011  -1.13836  -1.13695  -1.13650  -1.13626
 Alpha  occ. eigenvalues --   -1.13441  -1.13203  -1.13096  -1.13087  -1.13083
 Alpha  occ. eigenvalues --   -1.13016  -1.12988  -1.12913  -1.12893  -1.12807
 Alpha  occ. eigenvalues --   -0.21514  -0.13874  -0.12794  -0.12437
 Alpha virt. eigenvalues --   -0.05222  -0.04143  -0.03955  -0.03878  -0.03268
 Alpha virt. eigenvalues --   -0.03220  -0.01101  -0.00351  -0.00254   0.00339
 Alpha virt. eigenvalues --    0.00775   0.00870   0.01067   0.01123   0.01205

  Beta  occ. eigenvalues --  -38.44545 -38.44406 -38.44064 -38.43772 -38.43285
  Beta  occ. eigenvalues --  -38.43245 -38.43108  -2.20567  -2.20502  -2.20111
  Beta  occ. eigenvalues --   -2.19837  -2.19447  -2.19426  -2.19236  -1.14385
  Beta  occ. eigenvalues --   -1.14319  -1.14273  -1.14214  -1.14211  -1.14171
  Beta  occ. eigenvalues --   -1.14006  -1.13836  -1.13657  -1.13647  -1.13624
  Beta  occ. eigenvalues --   -1.13394  -1.13195  -1.13074  -1.13012  -1.13010
  Beta  occ. eigenvalues --   -1.13001  -1.12978  -1.12896  -1.12828  -1.12800
  Beta  occ. eigenvalues --   -0.20612  -0.13515  -0.12120
  Beta virt. eigenvalues --   -0.08542  -0.05230  -0.04129  -0.03654  -0.02994
  Beta virt. eigenvalues --   -0.02440  -0.02247  -0.01025  -0.00319  -0.00058
  Beta virt. eigenvalues --    0.00360   0.00792   0.00858   0.01092   0.01158

 Mulliken charges and spin densities:
               1          2
     1  Na  -0.052760   0.507861
     2  Na  -0.048594   0.077739
     3  Na  -0.041636  -0.028873
     4  Na  -0.090829  -0.057053
     5  Na   0.127081   0.513958
     6  Na   0.037954  -0.015245
     7  Na   0.068785   0.001613
 Sum of Mulliken charges =  -0.00000   1.00000

 Dipole moment (field-independent basis, Debye):
    X=              0.0454    Y=              0.0624    Z=              0.1415  Tot=              0.1611
 Quadrupole moment (field-independent basis, Debye-Ang):
   XX=            -60.1502   YY=            -73.5528   ZZ=            -64.6679
   XY=              0.3000   XZ=             -0.3462   YZ=             -0.5359

 Normal termination of Gaussian 16 at Fri Dec  8 18:15:25 2023.
