 Gaussian 16, Revision B.01,
 Gaussian 16:  ES64L-G16RevB.01 20-Dec-2017

 -------------------------
 #P B3LYP/6-311+g(d) force
 -------------------------

 -----
 DPGEN
 -----
 Symbolic Z-matrix:
 Charge =  0 Multiplicity = 2

                         Standard orientation:
 ---------------------------------------------------------------------
 Center     Atomic      Atomic             Coordinates (Angstroms)
 Number     Number       Type             X           Y           Z
 ---------------------------------------------------------------------
      1         11           0        3.031029    0.678516   -0.178845
      2         11           0       -0.054568    2.946821    0.414785
      3         11           0       -2.932292    0.931405   -0.344439
      4         11           0        0.441189   -0.224262    1.648176
      5         11           0       -2.383604   -2.168080    0.262778
      6         11           0        0.107445    0.212397   -1.593104
      7         11           0        1.790801   -2.376797   -0.209350
 ---------------------------------------------------------------------

 SCF Done:  E(UB3LYP) =  -1136.13442887     A.U. after   21 cycles

 The electronic state is 2-A.
 Alpha  occ. eigenvalues --  -38.44329 -38.43952 -38.43800 -38.43698 -38.43121
 Alpha  occ. eigenvalues --  -38.43074 -38.42973  -2.20216  -2.19809  -2.19615
 Alpha  occ. eigenvalues --   -2.19585  -2.19073  -2.18972  -2.18970  -1.13902
 Alpha  occ. eigenvalues --   -1.13888  -1.13840  -1.13502  -1.13482  -1.13449
 Alpha  occ. eigenvalues --   -1.13291  -1.13281  -1.13263  -1.13254  -1.13250
 Alpha  occ. eigenvalues --   -1.13205  -1.12803  -1.12709  -1.12700  -1.12661
 Alpha  occ. eigenvalues --   -1.12643  -1.12618  -1.12606  -1.12591  -1.12567
 Alpha  occ. eigenvalues --   -0.18903  -0.13524  -0.12277  -0.10355
 Alpha virt. eigenvalues --   -0.05856  -0.05345  -0.04635  -0.03193  -0.02616
 Alpha virt. eigenvalues --   -0.02037  -0.01727  -0.01186  -0.00507  -0.00324
 Alpha virt. eigenvalues --    0.00042   0.00348   0.00786   0.00837   0.00881

  Beta  occ. eigenvalues --  -38.44318 -38.43946 -38.43799 -38.43689 -38.43112
  Beta  occ. eigenvalues --  -38.43008 -38.42897  -2.20200  -2.19799  -2.19615
  Beta  occ. eigenvalues --   -2.19573  -2.18957  -2.18953  -2.18832  -1.13895
  Beta  occ. eigenvalues --   -1.13853  -1.13821  -1.13497  -1.13463  -1.13440
  Beta  occ. eigenvalues --   -1.13283  -1.13275  -1.13259  -1.13252  -1.13221
  Beta  occ. eigenvalues --   -1.13189  -1.12721  -1.12655  -1.12621  -1.12607
  Beta  occ. eigenvalues --   -1.12595  -1.12575  -1.12549  -1.12498  -1.12467
  Beta  occ. eigenvalues --   -0.18197  -0.13272  -0.12020
  Beta virt. eigenvalues --   -0.06487  -0.05804  -0.05305  -0.04591  -0.02432
  Beta virt. eigenvalues --   -0.01909  -0.01652  -0.01122  -0.01023  -0.00527
  Beta virt. eigenvalues --   -0.00363   0.00175   0.00387   0.00826   0.00861

 Mulliken charges and spin densities:
               1          2
     1  Na   0.382149   0.022707
     2  Na  -0.081917  -0.050362
     3  Na   0.104001  -0.003905
     4  Na  -0.275753   0.728865
     5  Na  -0.078586  -0.087446
     6  Na  -0.112552   0.440072
     7  Na   0.062657  -0.049931
 Sum of Mulliken charges =  -0.00000   1.00000

 Dipole moment (field-independent basis, Debye):
    X=              0.2278    Y=             -0.0615    Z=             -0.0252  Tot=              0.2373
 Quadrupole moment (field-independent basis, Debye-Ang):
   XX=            -54.0155   YY=            -61.4915   ZZ=            -76.4679
   XY=              0.0929   XZ=             -0.5886   YZ=              0.7525

 Normal termination of Gaussian 16 at Tue Nov 28 20:45:14 2023.
