 Gaussian 16, Revision B.01,
 Gaussian 16:  ES64L-G16RevB.01 20-Dec-2017

 -------------------------
 #P B3LYP/6-311+g(d) force
 -------------------------

 -----
 DPGEN
 -----
 Symbolic Z-matrix:
 Charge =  0 Multiplicity = 2

                         Standard orientation:
 ---------------------------------------------------------------------
 Center     Atomic      Atomic             Coordinates (Angstroms)
 Number     Number       Type             X           Y           Z
 ---------------------------------------------------------------------
      1         11           0        1.834990   -2.646582   -0.183598
      2         11           0       -2.668870    1.528052    0.216941
      3         11           0        1.002105    2.735952   -0.411610
      4         11           0       -3.270567   -1.410234   -0.372437
      5         11           0        3.455020    0.400834    0.546939
      6         11           0        0.278080   -0.206591   -1.816463
      7         11           0       -0.630759   -0.401430    2.020227
 ---------------------------------------------------------------------

 SCF Done:  E(UB3LYP) =  -1136.12463588     A.U. after   22 cycles

 The electronic state is 2-A.
 Alpha  occ. eigenvalues --  -38.45224 -38.44919 -38.44411 -38.44256 -38.43668
 Alpha  occ. eigenvalues --  -38.43236 -38.42553  -2.21003  -2.20735  -2.20243
 Alpha  occ. eigenvalues --   -2.20121  -2.19553  -2.19048  -2.18377  -1.14680
 Alpha  occ. eigenvalues --   -1.14651  -1.14640  -1.14446  -1.14382  -1.14372
 Alpha  occ. eigenvalues --   -1.13929  -1.13888  -1.13863  -1.13789  -1.13776
 Alpha  occ. eigenvalues --   -1.13741  -1.13234  -1.13198  -1.13176  -1.12729
 Alpha  occ. eigenvalues --   -1.12701  -1.12694  -1.12067  -1.12036  -1.12017
 Alpha  occ. eigenvalues --   -0.17951  -0.13783  -0.11466  -0.10632
 Alpha virt. eigenvalues --   -0.06824  -0.05510  -0.04029  -0.03780  -0.02637
 Alpha virt. eigenvalues --   -0.02546  -0.02261  -0.01241  -0.00663  -0.00313
 Alpha virt. eigenvalues --   -0.00102   0.00287   0.00437   0.00640   0.00743

  Beta  occ. eigenvalues --  -38.45215 -38.44917 -38.44334 -38.44249 -38.43591
  Beta  occ. eigenvalues --  -38.43235 -38.42549  -2.20987  -2.20733  -2.20112
  Beta  occ. eigenvalues --   -2.20101  -2.19414  -2.19049  -2.18373  -1.14659
  Beta  occ. eigenvalues --   -1.14641  -1.14633  -1.14448  -1.14372  -1.14359
  Beta  occ. eigenvalues --   -1.13846  -1.13791  -1.13780  -1.13769  -1.13741
  Beta  occ. eigenvalues --   -1.13719  -1.13140  -1.13093  -1.13077  -1.12721
  Beta  occ. eigenvalues --   -1.12701  -1.12687  -1.12058  -1.12022  -1.12017
  Beta  occ. eigenvalues --   -0.17244  -0.13615  -0.11267
  Beta virt. eigenvalues --   -0.06902  -0.06557  -0.05463  -0.03993  -0.03061
  Beta virt. eigenvalues --   -0.02150  -0.01883  -0.01647  -0.01166  -0.00661
  Beta virt. eigenvalues --   -0.00285   0.00039   0.00321   0.00654   0.00733

 Mulliken charges and spin densities:
               1          2
     1  Na  -0.079335  -0.050131
     2  Na   0.159858   0.120228
     3  Na  -0.155341  -0.029787
     4  Na   0.087624  -0.054030
     5  Na  -0.031675   0.081016
     6  Na   0.175077   0.489577
     7  Na  -0.156208   0.443128
 Sum of Mulliken charges =  -0.00000   1.00000

 Dipole moment (field-independent basis, Debye):
    X=             -0.3706    Y=             -0.3434    Z=              0.3111  Tot=              0.5933
 Quadrupole moment (field-independent basis, Debye-Ang):
   XX=            -50.4310   YY=            -69.5189   ZZ=            -74.4325
   XY=              1.4463   XZ=              2.9975   YZ=              1.0306

 Normal termination of Gaussian 16 at Tue Dec  5 16:43:22 2023.
