 Gaussian 16, Revision B.01,
 Gaussian 16:  ES64L-G16RevB.01 20-Dec-2017

 -------------------------
 #P B3LYP/6-311+g(d) force
 -------------------------

 -----
 DPGEN
 -----
 Symbolic Z-matrix:
 Charge =  0 Multiplicity = 2

                         Standard orientation:
 ---------------------------------------------------------------------
 Center     Atomic      Atomic             Coordinates (Angstroms)
 Number     Number       Type             X           Y           Z
 ---------------------------------------------------------------------
      1         11           0        3.785257   -0.312259    0.759523
      2         11           0        5.976138   -0.701510   -1.066659
      3         11           0       -3.090659   -3.088654   -0.424554
      4         11           0       -4.380112   -0.081980   -0.565302
      5         11           0       -2.564283    2.874715   -0.251858
      6         11           0       -0.703826   -0.928218    1.456326
      7         11           0        0.977484    2.237906    0.092525
 ---------------------------------------------------------------------

 SCF Done:  E(UB3LYP) =  -1136.11440276     A.U. after   19 cycles

 The electronic state is 2-A.
 Alpha  occ. eigenvalues --  -38.45658 -38.44569 -38.44325 -38.44129 -38.44024
 Alpha  occ. eigenvalues --  -38.43965 -38.43758  -2.21420  -2.20388  -2.20092
 Alpha  occ. eigenvalues --   -2.19967  -2.19821  -2.19762  -2.19592  -1.15108
 Alpha  occ. eigenvalues --   -1.15074  -1.15011  -1.14064  -1.14047  -1.14018
 Alpha  occ. eigenvalues --   -1.13780  -1.13757  -1.13737  -1.13719  -1.13591
 Alpha  occ. eigenvalues --   -1.13589  -1.13492  -1.13484  -1.13434  -1.13427
 Alpha  occ. eigenvalues --   -1.13423  -1.13400  -1.13250  -1.13246  -1.13212
 Alpha  occ. eigenvalues --   -0.16301  -0.14084  -0.12094  -0.11541
 Alpha virt. eigenvalues --   -0.06346  -0.05863  -0.04299  -0.03805  -0.02745
 Alpha virt. eigenvalues --   -0.02612  -0.02173  -0.01841  -0.00954  -0.00876
 Alpha virt. eigenvalues --   -0.00537  -0.00178   0.00102   0.00302   0.00608

  Beta  occ. eigenvalues --  -38.45589 -38.44525 -38.44323 -38.44081 -38.43981
  Beta  occ. eigenvalues --  -38.43960 -38.43762  -2.21292  -2.20308  -2.20089
  Beta  occ. eigenvalues --   -2.19878  -2.19753  -2.19741  -2.19605  -1.15021
  Beta  occ. eigenvalues --   -1.14990  -1.14912  -1.14013  -1.13994  -1.13946
  Beta  occ. eigenvalues --   -1.13778  -1.13744  -1.13725  -1.13683  -1.13530
  Beta  occ. eigenvalues --   -1.13529  -1.13440  -1.13428  -1.13422  -1.13412
  Beta  occ. eigenvalues --   -1.13391  -1.13375  -1.13264  -1.13258  -1.13179
  Beta  occ. eigenvalues --   -0.15574  -0.13615  -0.11876
  Beta virt. eigenvalues --   -0.08080  -0.05958  -0.05313  -0.03953  -0.03618
  Beta virt. eigenvalues --   -0.02496  -0.02291  -0.01835  -0.01671  -0.00924
  Beta virt. eigenvalues --   -0.00541  -0.00220  -0.00002   0.00262   0.00453

 Mulliken charges and spin densities:
               1          2
     1  Na  -0.177135   0.135676
     2  Na   0.223322   0.131254
     3  Na   0.540132   0.080220
     4  Na  -0.158304   0.229417
     5  Na   0.121172   0.248905
     6  Na  -0.663203   0.273423
     7  Na   0.114016  -0.098894
 Sum of Mulliken charges =  -0.00000   1.00000

 Dipole moment (field-independent basis, Debye):
    X=             -0.4794    Y=             -0.3453    Z=             -0.2047  Tot=              0.6252
 Quadrupole moment (field-independent basis, Debye-Ang):
   XX=            -65.2024   YY=            -66.3810   ZZ=            -68.4326
   XY=              1.2414   XZ=             -2.7900   YZ=              0.2208

 Normal termination of Gaussian 16 at Sun Dec  3 21:38:40 2023.
