 Gaussian 16, Revision B.01,
 Gaussian 16:  ES64L-G16RevB.01 20-Dec-2017

 -------------------------
 #P B3LYP/6-311+g(d) force
 -------------------------

 -----
 DPGEN
 -----
 Symbolic Z-matrix:
 Charge =  0 Multiplicity = 2

                         Standard orientation:
 ---------------------------------------------------------------------
 Center     Atomic      Atomic             Coordinates (Angstroms)
 Number     Number       Type             X           Y           Z
 ---------------------------------------------------------------------
      1         11           0       -1.799869    1.841200   -0.711300
      2         11           0       -1.646515   -1.526303   -1.250253
      3         11           0       -3.622664   -0.203137    1.167753
      4         11           0       -0.100067   -0.197372    1.369088
      5         11           0        1.617997   -1.650955   -0.623659
      6         11           0        1.463466    1.669870   -0.701139
      7         11           0        4.087652    0.066696    0.749511
 ---------------------------------------------------------------------

 SCF Done:  E(UB3LYP) =  -1136.11884350     A.U. after   27 cycles

 The electronic state is 2-A.
 Alpha  occ. eigenvalues --  -38.45325 -38.44908 -38.44374 -38.43409 -38.42961
 Alpha  occ. eigenvalues --  -38.42870 -38.42821  -2.21297  -2.20746  -2.20250
 Alpha  occ. eigenvalues --   -2.19327  -2.18927  -2.18793  -2.18761  -1.15049
 Alpha  occ. eigenvalues --   -1.14939  -1.14917  -1.14405  -1.14389  -1.14363
 Alpha  occ. eigenvalues --   -1.13909  -1.13883  -1.13872  -1.13013  -1.12977
 Alpha  occ. eigenvalues --   -1.12969  -1.12660  -1.12595  -1.12529  -1.12512
 Alpha  occ. eigenvalues --   -1.12463  -1.12450  -1.12437  -1.12415  -1.12343
 Alpha  occ. eigenvalues --   -0.19112  -0.14821  -0.11063  -0.11005
 Alpha virt. eigenvalues --   -0.07197  -0.04859  -0.04717  -0.03153  -0.03052
 Alpha virt. eigenvalues --   -0.02138  -0.01840  -0.01187  -0.00963  -0.00092
 Alpha virt. eigenvalues --   -0.00043   0.00329   0.00380   0.00757   0.00794

  Beta  occ. eigenvalues --  -38.45322 -38.44853 -38.44304 -38.43384 -38.42943
  Beta  occ. eigenvalues --  -38.42856 -38.42801  -2.21294  -2.20641  -2.20119
  Beta  occ. eigenvalues --   -2.19285  -2.18901  -2.18773  -2.18730  -1.15012
  Beta  occ. eigenvalues --   -1.14946  -1.14923  -1.14334  -1.14317  -1.14296
  Beta  occ. eigenvalues --   -1.13818  -1.13798  -1.13783  -1.12979  -1.12950
  Beta  occ. eigenvalues --   -1.12916  -1.12647  -1.12572  -1.12484  -1.12477
  Beta  occ. eigenvalues --   -1.12447  -1.12437  -1.12406  -1.12387  -1.12299
  Beta  occ. eigenvalues --   -0.18490  -0.14295  -0.10736
  Beta virt. eigenvalues --   -0.07444  -0.06918  -0.04675  -0.04125  -0.02907
  Beta virt. eigenvalues --   -0.02833  -0.01700  -0.01189  -0.00831  -0.00764
  Beta virt. eigenvalues --    0.00018   0.00088   0.00403   0.00465   0.00805

 Mulliken charges and spin densities:
               1          2
     1  Na  -0.254171   0.081942
     2  Na  -0.259578   0.212860
     3  Na   1.043407   0.374183
     4  Na  -1.196594  -0.195550
     5  Na   0.141207   0.099871
     6  Na  -0.552269   0.098125
     7  Na   1.077998   0.328569
 Sum of Mulliken charges =  -0.00000   1.00000

 Dipole moment (field-independent basis, Debye):
    X=              0.2925    Y=             -0.1824    Z=              0.1986  Tot=              0.3978
 Quadrupole moment (field-independent basis, Debye-Ang):
   XX=            -50.5760   YY=            -80.9156   ZZ=            -64.7798
   XY=              0.3741   XZ=              2.1516   YZ=              0.1212

 Normal termination of Gaussian 16 at Tue Dec  5 12:47:29 2023.
