 Gaussian 16, Revision B.01,
 Gaussian 16:  ES64L-G16RevB.01 20-Dec-2017

 -------------------------
 #P B3LYP/6-311+g(d) force
 -------------------------

 -----
 DPGEN
 -----
 Symbolic Z-matrix:
 Charge =  0 Multiplicity = 2

                         Standard orientation:
 ---------------------------------------------------------------------
 Center     Atomic      Atomic             Coordinates (Angstroms)
 Number     Number       Type             X           Y           Z
 ---------------------------------------------------------------------
      1         11           0       -0.276036   -0.340965   -1.816615
      2         11           0        0.134523    0.187373    1.826817
      3         11           0       -0.394043    2.474879   -0.316832
      4         11           0        2.464981    1.259874    0.074161
      5         11           0       -2.732727    0.473792    0.121628
      6         11           0        1.978515   -1.813844   -0.187783
      7         11           0       -1.175213   -2.241108    0.298623
 ---------------------------------------------------------------------

 SCF Done:  E(UB3LYP) =  -1136.12809811     A.U. after   19 cycles

 The electronic state is 2-A.
 Alpha  occ. eigenvalues --  -38.43526 -38.43482 -38.43482 -38.43428 -38.43269
 Alpha  occ. eigenvalues --  -38.43171 -38.43051  -2.19600  -2.19551  -2.19450
 Alpha  occ. eigenvalues --   -2.19381  -2.19231  -2.19179  -2.19041  -1.13354
 Alpha  occ. eigenvalues --   -1.13283  -1.13274  -1.13243  -1.13231  -1.13195
 Alpha  occ. eigenvalues --   -1.13129  -1.13109  -1.13082  -1.13069  -1.13044
 Alpha  occ. eigenvalues --   -1.13014  -1.12915  -1.12883  -1.12850  -1.12830
 Alpha  occ. eigenvalues --   -1.12823  -1.12753  -1.12713  -1.12686  -1.12652
 Alpha  occ. eigenvalues --   -0.20230  -0.13360  -0.12892  -0.11556
 Alpha virt. eigenvalues --   -0.05055  -0.04715  -0.04391  -0.03397  -0.03192
 Alpha virt. eigenvalues --   -0.02784  -0.01110  -0.00763  -0.00060   0.00345
 Alpha virt. eigenvalues --    0.00376   0.00418   0.00959   0.01043   0.01050

  Beta  occ. eigenvalues --  -38.43474 -38.43442 -38.43423 -38.43396 -38.43261
  Beta  occ. eigenvalues --  -38.43157 -38.43039  -2.19448  -2.19440  -2.19397
  Beta  occ. eigenvalues --   -2.19374  -2.19220  -2.19160  -2.19024  -1.13278
  Beta  occ. eigenvalues --   -1.13202  -1.13193  -1.13144  -1.13136  -1.13123
  Beta  occ. eigenvalues --   -1.13099  -1.13082  -1.13047  -1.13030  -1.13018
  Beta  occ. eigenvalues --   -1.12962  -1.12902  -1.12854  -1.12829  -1.12817
  Beta  occ. eigenvalues --   -1.12764  -1.12744  -1.12703  -1.12650  -1.12631
  Beta  occ. eigenvalues --   -0.19438  -0.13059  -0.12589
  Beta virt. eigenvalues --   -0.07491  -0.05046  -0.04712  -0.04393  -0.02523
  Beta virt. eigenvalues --   -0.02326  -0.01667  -0.01040  -0.00711   0.00083
  Beta virt. eigenvalues --    0.00320   0.00334   0.00400   0.01016   0.01024

 Mulliken charges and spin densities:
               1          2
     1  Na  -0.881196   0.541070
     2  Na  -0.860579   0.534467
     3  Na   0.384526   0.011267
     4  Na   0.222328  -0.024590
     5  Na   0.283348  -0.039666
     6  Na   0.341245  -0.031105
     7  Na   0.510328   0.008556
 Sum of Mulliken charges =  -0.00000   1.00000

 Dipole moment (field-independent basis, Debye):
    X=              0.0131    Y=             -0.0021    Z=              0.0125  Tot=              0.0182
 Quadrupole moment (field-independent basis, Debye-Ang):
   XX=            -59.8547   YY=            -65.4197   ZZ=            -70.5193
   XY=             -0.1633   XZ=             -0.8099   YZ=             -0.8980

 Normal termination of Gaussian 16 at Fri Dec  8 19:47:41 2023.
