 Gaussian 16, Revision B.01,
 Gaussian 16:  ES64L-G16RevB.01 20-Dec-2017

 -------------------------
 #P B3LYP/6-311+g(d) force
 -------------------------

 -----
 DPGEN
 -----
 Symbolic Z-matrix:
 Charge =  0 Multiplicity = 2

                         Standard orientation:
 ---------------------------------------------------------------------
 Center     Atomic      Atomic             Coordinates (Angstroms)
 Number     Number       Type             X           Y           Z
 ---------------------------------------------------------------------
      1         11           0       -2.048352    2.578574   -0.196834
      2         11           0        1.304238   -2.845218   -0.662252
      3         11           0       -3.658541   -0.611466   -0.242655
      4         11           0       -0.900304   -2.136694    1.910262
      5         11           0        3.497733   -0.014039   -0.308449
      6         11           0        1.859531    2.636332    1.224931
      7         11           0       -0.054304    0.392511   -1.725004
 ---------------------------------------------------------------------

 SCF Done:  E(UB3LYP) =  -1136.12216724     A.U. after   20 cycles

 The electronic state is 2-A.
 Alpha  occ. eigenvalues --  -38.45146 -38.44649 -38.44281 -38.44176 -38.43873
 Alpha  occ. eigenvalues --  -38.43690 -38.43646  -2.20898  -2.20431  -2.20074
 Alpha  occ. eigenvalues --   -2.20010  -2.19663  -2.19499  -2.19433  -1.14584
 Alpha  occ. eigenvalues --   -1.14553  -1.14537  -1.14113  -1.14093  -1.14073
 Alpha  occ. eigenvalues --   -1.13780  -1.13743  -1.13698  -1.13688  -1.13659
 Alpha  occ. eigenvalues --   -1.13615  -1.13319  -1.13311  -1.13293  -1.13172
 Alpha  occ. eigenvalues --   -1.13160  -1.13134  -1.13095  -1.13075  -1.13063
 Alpha  occ. eigenvalues --   -0.16951  -0.13240  -0.12451  -0.10349
 Alpha virt. eigenvalues --   -0.06643  -0.05644  -0.04555  -0.03537  -0.03395
 Alpha virt. eigenvalues --   -0.02116  -0.01962  -0.01412  -0.00926  -0.00529
 Alpha virt. eigenvalues --   -0.00090   0.00114   0.00226   0.00626   0.00666

  Beta  occ. eigenvalues --  -38.45149 -38.44646 -38.44277 -38.44121 -38.43813
  Beta  occ. eigenvalues --  -38.43680 -38.43591  -2.20905  -2.20429  -2.20069
  Beta  occ. eigenvalues --   -2.19909  -2.19550  -2.19483  -2.19331  -1.14589
  Beta  occ. eigenvalues --   -1.14559  -1.14527  -1.14113  -1.14096  -1.14045
  Beta  occ. eigenvalues --   -1.13764  -1.13735  -1.13694  -1.13621  -1.13597
  Beta  occ. eigenvalues --   -1.13540  -1.13242  -1.13241  -1.13215  -1.13159
  Beta  occ. eigenvalues --   -1.13149  -1.13103  -1.13024  -1.13007  -1.12993
  Beta  occ. eigenvalues --   -0.16415  -0.12977  -0.11938
  Beta virt. eigenvalues --   -0.06987  -0.06638  -0.05471  -0.04041  -0.03133
  Beta virt. eigenvalues --   -0.02786  -0.01944  -0.01473  -0.01316  -0.00941
  Beta virt. eigenvalues --   -0.00409   0.00113   0.00318   0.00338   0.00659

 Mulliken charges and spin densities:
               1          2
     1  Na  -0.016404   0.083019
     2  Na  -0.182980   0.047262
     3  Na  -0.203136   0.001638
     4  Na  -0.082369   0.382600
     5  Na   0.098079   0.061499
     6  Na  -0.362950   0.343460
     7  Na   0.749759   0.080521
 Sum of Mulliken charges =  -0.00000   1.00000

 Dipole moment (field-independent basis, Debye):
    X=             -0.6303    Y=             -0.0039    Z=             -0.3357  Tot=              0.7141
 Quadrupole moment (field-independent basis, Debye-Ang):
   XX=            -56.0247   YY=            -68.5728   ZZ=            -72.8144
   XY=             -4.2908   XZ=              0.2109   YZ=              2.9028

 Normal termination of Gaussian 16 at Sun Dec  3 20:28:20 2023.
