 Gaussian 16, Revision B.01,
 Gaussian 16:  ES64L-G16RevB.01 20-Dec-2017

 -------------------------
 #P B3LYP/6-311+g(d) force
 -------------------------

 -----
 DPGEN
 -----
 Symbolic Z-matrix:
 Charge =  0 Multiplicity = 2

                         Standard orientation:
 ---------------------------------------------------------------------
 Center     Atomic      Atomic             Coordinates (Angstroms)
 Number     Number       Type             X           Y           Z
 ---------------------------------------------------------------------
      1         11           0       -3.597109   -1.963595   -1.016173
      2         11           0       -3.859315    1.011539    1.116115
      3         11           0        3.874713    0.417722    1.121474
      4         11           0       -0.049840   -2.880449    0.598830
      5         11           0        2.129617    2.861285   -1.030583
      6         11           0        2.713456   -2.635529   -0.617924
      7         11           0       -1.211523    3.189028   -0.171738
 ---------------------------------------------------------------------

 SCF Done:  E(UB3LYP) =  -1136.10552592     A.U. after   24 cycles

 The electronic state is 2-A.
 Alpha  occ. eigenvalues --  -38.45352 -38.44776 -38.44628 -38.44566 -38.44378
 Alpha  occ. eigenvalues --  -38.44123 -38.43600  -2.21087  -2.20553  -2.20432
 Alpha  occ. eigenvalues --   -2.20313  -2.20153  -2.19950  -2.19388  -1.14777
 Alpha  occ. eigenvalues --   -1.14755  -1.14725  -1.14216  -1.14189  -1.14176
 Alpha  occ. eigenvalues --   -1.14136  -1.14088  -1.14069  -1.14003  -1.13992
 Alpha  occ. eigenvalues --   -1.13955  -1.13809  -1.13797  -1.13772  -1.13614
 Alpha  occ. eigenvalues --   -1.13598  -1.13576  -1.13053  -1.13045  -1.13008
 Alpha  occ. eigenvalues --   -0.15537  -0.13700  -0.13081  -0.10256
 Alpha virt. eigenvalues --   -0.07573  -0.05261  -0.04570  -0.03541  -0.03030
 Alpha virt. eigenvalues --   -0.02371  -0.02316  -0.01779  -0.01085  -0.00882
 Alpha virt. eigenvalues --   -0.00815  -0.00069   0.00127   0.00293   0.00574

  Beta  occ. eigenvalues --  -38.45360 -38.44708 -38.44596 -38.44585 -38.44311
  Beta  occ. eigenvalues --  -38.44100 -38.43549  -2.21106  -2.20427  -2.20378
  Beta  occ. eigenvalues --   -2.20352  -2.20027  -2.19912  -2.19291  -1.14794
  Beta  occ. eigenvalues --   -1.14769  -1.14709  -1.14131  -1.14106  -1.14089
  Beta  occ. eigenvalues --   -1.14086  -1.14054  -1.14032  -1.14021  -1.14020
  Beta  occ. eigenvalues --   -1.13955  -1.13723  -1.13711  -1.13689  -1.13582
  Beta  occ. eigenvalues --   -1.13574  -1.13536  -1.12986  -1.12979  -1.12952
  Beta  occ. eigenvalues --   -0.15055  -0.13023  -0.12492
  Beta virt. eigenvalues --   -0.07581  -0.07094  -0.04966  -0.04201  -0.03364
  Beta virt. eigenvalues --   -0.02595  -0.02124  -0.02038  -0.01518  -0.00893
  Beta virt. eigenvalues --   -0.00733  -0.00567  -0.00026   0.00339   0.00373

 Mulliken charges and spin densities:
               1          2
     1  Na   0.090302   0.358594
     2  Na   0.130805  -0.060228
     3  Na   0.080093   0.380568
     4  Na  -0.325554   0.113797
     5  Na  -0.043476  -0.089120
     6  Na   0.183693   0.049349
     7  Na  -0.115862   0.247041
 Sum of Mulliken charges =  -0.00000   1.00000

 Dipole moment (field-independent basis, Debye):
    X=              0.0819    Y=             -0.4645    Z=              0.1849  Tot=              0.5066
 Quadrupole moment (field-independent basis, Debye-Ang):
   XX=            -64.0791   YY=            -74.2870   ZZ=            -64.4727
   XY=             -2.4760   XZ=             -3.4790   YZ=              0.8868

 Normal termination of Gaussian 16 at Sun Dec  3 23:20:35 2023.
