 Gaussian 16, Revision B.01,
 Gaussian 16:  ES64L-G16RevB.01 20-Dec-2017

 -------------------------
 #P B3LYP/6-311+g(d) force
 -------------------------

 -----
 DPGEN
 -----
 Symbolic Z-matrix:
 Charge =  0 Multiplicity = 2

                         Standard orientation:
 ---------------------------------------------------------------------
 Center     Atomic      Atomic             Coordinates (Angstroms)
 Number     Number       Type             X           Y           Z
 ---------------------------------------------------------------------
      1         11           0        6.816285    0.328312    0.718167
      2         11           0       -3.699386    2.346791   -0.066534
      3         11           0        0.231710    1.390569   -0.803712
      4         11           0        0.658745   -2.055895   -0.470931
      5         11           0       -5.363295   -0.748254    1.343815
      6         11           0       -2.579890   -1.293480   -0.828662
      7         11           0        3.935832    0.031958    0.107858
 ---------------------------------------------------------------------

 SCF Done:  E(UB3LYP) =  -1136.11672928     A.U. after   21 cycles

 The electronic state is 2-A.
 Alpha  occ. eigenvalues --  -38.45007 -38.44929 -38.44689 -38.44633 -38.44235
 Alpha  occ. eigenvalues --  -38.43604 -38.43291  -2.20778  -2.20722  -2.20518
 Alpha  occ. eigenvalues --   -2.20405  -2.20061  -2.19409  -2.19124  -1.14458
 Alpha  occ. eigenvalues --   -1.14434  -1.14407  -1.14382  -1.14377  -1.14332
 Alpha  occ. eigenvalues --   -1.14220  -1.14188  -1.14133  -1.14073  -1.14063
 Alpha  occ. eigenvalues --   -1.14019  -1.13727  -1.13718  -1.13687  -1.13155
 Alpha  occ. eigenvalues --   -1.13055  -1.13055  -1.12796  -1.12789  -1.12718
 Alpha  occ. eigenvalues --   -0.16717  -0.13901  -0.11900  -0.11416
 Alpha virt. eigenvalues --   -0.06952  -0.05908  -0.04138  -0.03699  -0.03171
 Alpha virt. eigenvalues --   -0.02517  -0.02244  -0.01486  -0.01029  -0.00956
 Alpha virt. eigenvalues --   -0.00649  -0.00317  -0.00025   0.00208   0.00582

  Beta  occ. eigenvalues --  -38.44953 -38.44882 -38.44652 -38.44607 -38.44210
  Beta  occ. eigenvalues --  -38.43612 -38.43289  -2.20678  -2.20635  -2.20453
  Beta  occ. eigenvalues --   -2.20357  -2.20016  -2.19425  -2.19120  -1.14392
  Beta  occ. eigenvalues --   -1.14365  -1.14350  -1.14320  -1.14301  -1.14258
  Beta  occ. eigenvalues --   -1.14174  -1.14129  -1.14083  -1.14040  -1.14021
  Beta  occ. eigenvalues --   -1.13991  -1.13697  -1.13678  -1.13657  -1.13164
  Beta  occ. eigenvalues --   -1.13066  -1.13066  -1.12790  -1.12785  -1.12724
  Beta  occ. eigenvalues --   -0.16044  -0.13764  -0.11791
  Beta virt. eigenvalues --   -0.07644  -0.06671  -0.05222  -0.03923  -0.03545
  Beta virt. eigenvalues --   -0.02515  -0.02226  -0.02081  -0.01409  -0.00914
  Beta virt. eigenvalues --   -0.00633  -0.00292  -0.00019   0.00072   0.00354

 Mulliken charges and spin densities:
               1          2
     1  Na  -0.427968  -0.108816
     2  Na   0.071033   0.203815
     3  Na   0.195330   0.646600
     4  Na   0.729820   0.517210
     5  Na   0.398698   0.077277
     6  Na  -0.805986  -0.044939
     7  Na  -0.160928  -0.291146
 Sum of Mulliken charges =  -0.00000   1.00000

 Dipole moment (field-independent basis, Debye):
    X=             -1.8963    Y=             -0.0800    Z=              0.1772  Tot=              1.9063
 Quadrupole moment (field-independent basis, Debye-Ang):
   XX=            -61.6140   YY=            -66.5959   ZZ=            -70.7826
   XY=             -1.0523   XZ=             -2.4990   YZ=             -0.8493

 Normal termination of Gaussian 16 at Sun Dec  3 16:45:42 2023.
