 Gaussian 16, Revision B.01,
 Gaussian 16:  ES64L-G16RevB.01 20-Dec-2017

 -------------------------
 #P B3LYP/6-311+g(d) force
 -------------------------

 -----
 DPGEN
 -----
 Symbolic Z-matrix:
 Charge =  0 Multiplicity = 2

                         Standard orientation:
 ---------------------------------------------------------------------
 Center     Atomic      Atomic             Coordinates (Angstroms)
 Number     Number       Type             X           Y           Z
 ---------------------------------------------------------------------
      1         11           0        0.110948   -0.805761   -2.023367
      2         11           0       -1.345668    0.503290    2.216655
      3         11           0        3.761616   -0.028341   -0.037518
      4         11           0        0.806888   -1.595696    1.267229
      5         11           0        1.286742    2.129406   -0.274402
      6         11           0       -2.082263   -2.399545   -0.518354
      7         11           0       -2.538263    2.196647   -0.630243
 ---------------------------------------------------------------------

 SCF Done:  E(UB3LYP) =  -1136.12942643     A.U. after   20 cycles

 The electronic state is 2-A.
 Alpha  occ. eigenvalues --  -38.44295 -38.44175 -38.44045 -38.43638 -38.43618
 Alpha  occ. eigenvalues --  -38.43584 -38.43583  -2.20179  -2.20034  -2.19849
 Alpha  occ. eigenvalues --   -2.19496  -2.19447  -2.19423  -2.19413  -1.13857
 Alpha  occ. eigenvalues --   -1.13824  -1.13804  -1.13744  -1.13664  -1.13635
 Alpha  occ. eigenvalues --   -1.13523  -1.13514  -1.13490  -1.13198  -1.13154
 Alpha  occ. eigenvalues --   -1.13150  -1.13128  -1.13111  -1.13101  -1.13082
 Alpha  occ. eigenvalues --   -1.13073  -1.13058  -1.13058  -1.13042  -1.13037
 Alpha  occ. eigenvalues --   -0.18136  -0.12860  -0.11863  -0.11790
 Alpha virt. eigenvalues --   -0.05824  -0.05054  -0.04232  -0.03370  -0.03354
 Alpha virt. eigenvalues --   -0.03122  -0.01729  -0.01123  -0.00453   0.00051
 Alpha virt. eigenvalues --    0.00156   0.00288   0.00576   0.00762   0.00866

  Beta  occ. eigenvalues --  -38.44228 -38.44100 -38.44047 -38.43633 -38.43609
  Beta  occ. eigenvalues --  -38.43574 -38.43535  -2.20056  -2.19897  -2.19854
  Beta  occ. eigenvalues --   -2.19434  -2.19412  -2.19410  -2.19405  -1.13781
  Beta  occ. eigenvalues --   -1.13730  -1.13713  -1.13640  -1.13575  -1.13534
  Beta  occ. eigenvalues --   -1.13528  -1.13511  -1.13494  -1.13140  -1.13133
  Beta  occ. eigenvalues --   -1.13109  -1.13092  -1.13074  -1.13070  -1.13063
  Beta  occ. eigenvalues --   -1.13059  -1.13054  -1.13049  -1.13032  -1.13013
  Beta  occ. eigenvalues --   -0.17345  -0.12692  -0.11700
  Beta virt. eigenvalues --   -0.07746  -0.05647  -0.04996  -0.03795  -0.03035
  Beta virt. eigenvalues --   -0.02670  -0.02192  -0.01683  -0.01053  -0.00157
  Beta virt. eigenvalues --    0.00084   0.00192   0.00325   0.00751   0.00835

 Mulliken charges and spin densities:
               1          2
     1  Na  -0.229409   0.603358
     2  Na   0.080714   0.127871
     3  Na   0.343676  -0.177037
     4  Na  -0.011152   0.401763
     5  Na  -0.328333   0.175222
     6  Na   0.226522  -0.090218
     7  Na  -0.082016  -0.040959
 Sum of Mulliken charges =  -0.00000   1.00000

 Dipole moment (field-independent basis, Debye):
    X=              0.1365    Y=             -0.2155    Z=             -0.1879  Tot=              0.3168
 Quadrupole moment (field-independent basis, Debye-Ang):
   XX=            -56.2601   YY=            -71.8227   ZZ=            -67.7074
   XY=              0.5292   XZ=              0.7426   YZ=             -1.5936

 Normal termination of Gaussian 16 at Sun Dec  3 16:50:25 2023.
