 Gaussian 16, Revision B.01,
 Gaussian 16:  ES64L-G16RevB.01 20-Dec-2017

 -------------------------
 #P B3LYP/6-311+g(d) force
 -------------------------

 -----
 DPGEN
 -----
 Symbolic Z-matrix:
 Charge =  0 Multiplicity = 2

                         Standard orientation:
 ---------------------------------------------------------------------
 Center     Atomic      Atomic             Coordinates (Angstroms)
 Number     Number       Type             X           Y           Z
 ---------------------------------------------------------------------
      1         11           0        1.026268   -1.926944   -0.685293
      2         11           0        3.951928   -0.276294    0.288212
      3         11           0        1.194164    1.742326   -0.782493
      4         11           0       -2.126741   -2.963581   -0.179148
      5         11           0       -1.903846    0.329749   -0.915784
      6         11           0       -1.462343    3.299841    0.102718
      7         11           0       -0.679430   -0.205097    2.171789
 ---------------------------------------------------------------------

 SCF Done:  E(UB3LYP) =  -1136.13298959     A.U. after   19 cycles

 The electronic state is 2-A.
 Alpha  occ. eigenvalues --  -38.43977 -38.43923 -38.43873 -38.43651 -38.43640
 Alpha  occ. eigenvalues --  -38.43597 -38.43516  -2.19832  -2.19705  -2.19702
 Alpha  occ. eigenvalues --   -2.19524  -2.19516  -2.19464  -2.19455  -1.13522
 Alpha  occ. eigenvalues --   -1.13514  -1.13464  -1.13385  -1.13380  -1.13366
 Alpha  occ. eigenvalues --   -1.13364  -1.13342  -1.13340  -1.13263  -1.13219
 Alpha  occ. eigenvalues --   -1.13207  -1.13200  -1.13178  -1.13156  -1.13103
 Alpha  occ. eigenvalues --   -1.13098  -1.13095  -1.13077  -1.13054  -1.13043
 Alpha  occ. eigenvalues --   -0.18246  -0.13138  -0.12717  -0.10310
 Alpha virt. eigenvalues --   -0.05914  -0.05345  -0.05004  -0.03020  -0.02766
 Alpha virt. eigenvalues --   -0.02310  -0.01793  -0.01712  -0.00648  -0.00258
 Alpha virt. eigenvalues --   -0.00004   0.00227   0.00690   0.00717   0.00806

  Beta  occ. eigenvalues --  -38.43977 -38.43926 -38.43866 -38.43637 -38.43625
  Beta  occ. eigenvalues --  -38.43492 -38.43483  -2.19835  -2.19712  -2.19694
  Beta  occ. eigenvalues --   -2.19498  -2.19492  -2.19424  -2.19242  -1.13526
  Beta  occ. eigenvalues --   -1.13515  -1.13448  -1.13386  -1.13380  -1.13366
  Beta  occ. eigenvalues --   -1.13354  -1.13345  -1.13322  -1.13245  -1.13203
  Beta  occ. eigenvalues --   -1.13171  -1.13166  -1.13144  -1.13095  -1.13082
  Beta  occ. eigenvalues --   -1.13079  -1.13021  -1.12962  -1.12935  -1.12905
  Beta  occ. eigenvalues --   -0.17556  -0.12912  -0.12601
  Beta virt. eigenvalues --   -0.06354  -0.05780  -0.05246  -0.04988  -0.02323
  Beta virt. eigenvalues --   -0.02272  -0.01724  -0.01596  -0.01281  -0.00680
  Beta virt. eigenvalues --   -0.00124   0.00159   0.00326   0.00742   0.00784

 Mulliken charges and spin densities:
               1          2
     1  Na  -0.435016   0.039708
     2  Na   0.376308  -0.023451
     3  Na  -0.527585   0.009697
     4  Na   0.755941   0.069298
     5  Na  -0.226684   0.223578
     6  Na   0.743622   0.028889
     7  Na  -0.686587   0.652281
 Sum of Mulliken charges =  -0.00000   1.00000

 Dipole moment (field-independent basis, Debye):
    X=             -0.0663    Y=              0.1149    Z=              0.2291  Tot=              0.2648
 Quadrupole moment (field-independent basis, Debye-Ang):
   XX=            -58.4701   YY=            -57.4717   ZZ=            -76.1752
   XY=              0.3471   XZ=              1.5230   YZ=              0.8331

 Normal termination of Gaussian 16 at Tue Dec  5 20:05:09 2023.
