 Gaussian 16, Revision B.01,
 Gaussian 16:  ES64L-G16RevB.01 20-Dec-2017

 -------------------------
 #P B3LYP/6-311+g(d) force
 -------------------------

 -----
 DPGEN
 -----
 Symbolic Z-matrix:
 Charge =  0 Multiplicity = 2

                         Standard orientation:
 ---------------------------------------------------------------------
 Center     Atomic      Atomic             Coordinates (Angstroms)
 Number     Number       Type             X           Y           Z
 ---------------------------------------------------------------------
      1         11           0        0.503892    3.891720   -0.100078
      2         11           0       -2.344238    2.585654   -0.741746
      3         11           0        2.953096    1.764848    0.666650
      4         11           0       -2.731212   -2.985851   -0.426084
      5         11           0        1.307976   -3.370623    0.121033
      6         11           0        4.159583   -1.512872   -0.390911
      7         11           0       -3.849097   -0.372876    0.871137
 ---------------------------------------------------------------------

 SCF Done:  E(UB3LYP) =  -1136.10826531     A.U. after   23 cycles

 The electronic state is 2-A.
 Alpha  occ. eigenvalues --  -38.45194 -38.45152 -38.44745 -38.44355 -38.44200
 Alpha  occ. eigenvalues --  -38.44030 -38.43746  -2.20950  -2.20944  -2.20513
 Alpha  occ. eigenvalues --   -2.20159  -2.20009  -2.19837  -2.19567  -1.14625
 Alpha  occ. eigenvalues --   -1.14622  -1.14609  -1.14608  -1.14593  -1.14571
 Alpha  occ. eigenvalues --   -1.14189  -1.14174  -1.14158  -1.13813  -1.13808
 Alpha  occ. eigenvalues --   -1.13797  -1.13696  -1.13688  -1.13678  -1.13493
 Alpha  occ. eigenvalues --   -1.13481  -1.13451  -1.13214  -1.13207  -1.13197
 Alpha  occ. eigenvalues --   -0.15597  -0.13915  -0.13565  -0.10448
 Alpha virt. eigenvalues --   -0.07798  -0.04988  -0.04447  -0.03366  -0.03241
 Alpha virt. eigenvalues --   -0.02521  -0.02451  -0.01923  -0.01550  -0.00540
 Alpha virt. eigenvalues --   -0.00239  -0.00015   0.00172   0.00314   0.00480

  Beta  occ. eigenvalues --  -38.45153 -38.45145 -38.44746 -38.44320 -38.44202
  Beta  occ. eigenvalues --  -38.43957 -38.43679  -2.20935  -2.20877  -2.20518
  Beta  occ. eigenvalues --   -2.20095  -2.20020  -2.19702  -2.19441  -1.14616
  Beta  occ. eigenvalues --   -1.14607  -1.14574  -1.14561  -1.14560  -1.14511
  Beta  occ. eigenvalues --   -1.14195  -1.14180  -1.14137  -1.13769  -1.13765
  Beta  occ. eigenvalues --   -1.13752  -1.13704  -1.13694  -1.13645  -1.13402
  Beta  occ. eigenvalues --   -1.13393  -1.13360  -1.13128  -1.13126  -1.13112
  Beta  occ. eigenvalues --   -0.15068  -0.13288  -0.12869
  Beta virt. eigenvalues --   -0.07867  -0.07273  -0.04639  -0.04099  -0.03023
  Beta virt. eigenvalues --   -0.02786  -0.02297  -0.02255  -0.01781  -0.01476
  Beta virt. eigenvalues --   -0.00229  -0.00095   0.00195   0.00208   0.00453

 Mulliken charges and spin densities:
               1          2
     1  Na   0.494645  -0.001609
     2  Na  -0.319715   0.305370
     3  Na  -0.318360   0.310204
     4  Na   0.011968   0.156065
     5  Na  -0.133937   0.199739
     6  Na   0.241245  -0.010870
     7  Na   0.024154   0.041101
 Sum of Mulliken charges =  -0.00000   1.00000

 Dipole moment (field-independent basis, Debye):
    X=             -0.0778    Y=             -0.9998    Z=              0.0600  Tot=              1.0046
 Quadrupole moment (field-independent basis, Debye-Ang):
   XX=            -62.4677   YY=            -67.7132   ZZ=            -70.9325
   XY=             -0.2889   XZ=             -2.8685   YZ=              1.3779

 Normal termination of Gaussian 16 at Sun Dec  3 17:43:34 2023.
