 Gaussian 16, Revision B.01,
 Gaussian 16:  ES64L-G16RevB.01 20-Dec-2017

 -------------------------
 #P B3LYP/6-311+g(d) force
 -------------------------

 -----
 DPGEN
 -----
 Symbolic Z-matrix:
 Charge =  0 Multiplicity = 2

                         Standard orientation:
 ---------------------------------------------------------------------
 Center     Atomic      Atomic             Coordinates (Angstroms)
 Number     Number       Type             X           Y           Z
 ---------------------------------------------------------------------
      1         11           0        1.585230   -2.012357    1.094667
      2         11           0        4.910124   -1.867209   -0.327659
      3         11           0        2.903219    0.844635   -0.976660
      4         11           0        1.545580    3.776101    0.499653
      5         11           0       -0.239367    0.386434    0.169951
      6         11           0       -3.861997   -1.192172   -0.392489
      7         11           0       -6.842789    0.064567   -0.067464
 ---------------------------------------------------------------------

 SCF Done:  E(UB3LYP) =  -1136.11536207     A.U. after   21 cycles

 The electronic state is 2-A.
 Alpha  occ. eigenvalues --  -38.44825 -38.44502 -38.44360 -38.44118 -38.44049
 Alpha  occ. eigenvalues --  -38.43973 -38.43829  -2.20658  -2.20285  -2.20220
 Alpha  occ. eigenvalues --   -2.19989  -2.19813  -2.19752  -2.19634  -1.14366
 Alpha  occ. eigenvalues --   -1.14325  -1.14253  -1.13937  -1.13933  -1.13932
 Alpha  occ. eigenvalues --   -1.13923  -1.13906  -1.13804  -1.13677  -1.13670
 Alpha  occ. eigenvalues --   -1.13568  -1.13492  -1.13488  -1.13452  -1.13419
 Alpha  occ. eigenvalues --   -1.13415  -1.13363  -1.13299  -1.13293  -1.13252
 Alpha  occ. eigenvalues --   -0.16907  -0.13470  -0.12119  -0.11510
 Alpha virt. eigenvalues --   -0.06342  -0.05748  -0.04235  -0.03661  -0.02961
 Alpha virt. eigenvalues --   -0.02219  -0.02101  -0.02044  -0.01275  -0.00830
 Alpha virt. eigenvalues --   -0.00548  -0.00169   0.00221   0.00380   0.00594

  Beta  occ. eigenvalues --  -38.44783 -38.44454 -38.44330 -38.44067 -38.44063
  Beta  occ. eigenvalues --  -38.43947 -38.43796  -2.20584  -2.20196  -2.20166
  Beta  occ. eigenvalues --   -2.19899  -2.19843  -2.19702  -2.19574  -1.14308
  Beta  occ. eigenvalues --   -1.14278  -1.14185  -1.13890  -1.13873  -1.13872
  Beta  occ. eigenvalues --   -1.13871  -1.13866  -1.13759  -1.13617  -1.13611
  Beta  occ. eigenvalues --   -1.13517  -1.13512  -1.13485  -1.13442  -1.13384
  Beta  occ. eigenvalues --   -1.13377  -1.13333  -1.13253  -1.13248  -1.13219
  Beta  occ. eigenvalues --   -0.16185  -0.13002  -0.11814
  Beta virt. eigenvalues --   -0.08052  -0.05826  -0.05544  -0.03948  -0.03399
  Beta virt. eigenvalues --   -0.02485  -0.02041  -0.01946  -0.01747  -0.00888
  Beta virt. eigenvalues --   -0.00659  -0.00293  -0.00069   0.00331   0.00516

 Mulliken charges and spin densities:
               1          2
     1  Na   0.408954   0.157222
     2  Na   0.193898   0.123801
     3  Na   0.043583   0.346468
     4  Na   0.514161   0.136939
     5  Na  -1.080374   0.075358
     6  Na  -0.398481  -0.037960
     7  Na   0.318260   0.198174
 Sum of Mulliken charges =  -0.00000   1.00000

 Dipole moment (field-independent basis, Debye):
    X=              0.3355    Y=              0.1859    Z=              0.4698  Tot=              0.6065
 Quadrupole moment (field-independent basis, Debye-Ang):
   XX=            -57.8522   YY=            -65.0913   ZZ=            -70.3188
   XY=             -4.8451   XZ=             -1.3352   YZ=              0.7744

 Normal termination of Gaussian 16 at Wed Nov 29 01:53:05 2023.
