 Gaussian 16, Revision B.01,
 Gaussian 16:  ES64L-G16RevB.01 20-Dec-2017

 -------------------------
 #P B3LYP/6-311+g(d) force
 -------------------------

 -----
 DPGEN
 -----
 Symbolic Z-matrix:
 Charge =  0 Multiplicity = 2

                         Standard orientation:
 ---------------------------------------------------------------------
 Center     Atomic      Atomic             Coordinates (Angstroms)
 Number     Number       Type             X           Y           Z
 ---------------------------------------------------------------------
      1         11           0       -0.324115    3.402011    0.006265
      2         11           0        0.305213   -3.003655   -0.011222
      3         11           0       -3.142034   -1.872509   -0.651670
      4         11           0       -3.108414    1.232630    0.718828
      5         11           0        3.474055   -1.524655    0.591788
      6         11           0        2.793212    1.884718   -0.667201
      7         11           0        0.002083   -0.118539    0.013211
 ---------------------------------------------------------------------

 SCF Done:  E(UB3LYP) =  -1136.12542685     A.U. after   25 cycles

 The electronic state is 2-A.
 Alpha  occ. eigenvalues --  -38.44412 -38.44152 -38.44092 -38.43902 -38.43829
 Alpha  occ. eigenvalues --  -38.43780 -38.43389  -2.20275  -2.19975  -2.19899
 Alpha  occ. eigenvalues --   -2.19858  -2.19648  -2.19610  -2.19244  -1.14097
 Alpha  occ. eigenvalues --   -1.13941  -1.13851  -1.13644  -1.13632  -1.13604
 Alpha  occ. eigenvalues --   -1.13586  -1.13585  -1.13575  -1.13532  -1.13503
 Alpha  occ. eigenvalues --   -1.13460  -1.13310  -1.13301  -1.13275  -1.13269
 Alpha  occ. eigenvalues --   -1.13252  -1.13229  -1.12907  -1.12890  -1.12871
 Alpha  occ. eigenvalues --   -0.17450  -0.13767  -0.13350  -0.09550
 Alpha virt. eigenvalues --   -0.06860  -0.05447  -0.04261  -0.03580  -0.02676
 Alpha virt. eigenvalues --   -0.02475  -0.01709  -0.01322  -0.01200  -0.00403
 Alpha virt. eigenvalues --   -0.00210   0.00266   0.00551   0.00625   0.00657

  Beta  occ. eigenvalues --  -38.44402 -38.44123 -38.44087 -38.43911 -38.43779
  Beta  occ. eigenvalues --  -38.43733 -38.43335  -2.20264  -2.19923  -2.19896
  Beta  occ. eigenvalues --   -2.19873  -2.19555  -2.19525  -2.19145  -1.14099
  Beta  occ. eigenvalues --   -1.13937  -1.13796  -1.13610  -1.13594  -1.13592
  Beta  occ. eigenvalues --   -1.13590  -1.13573  -1.13561  -1.13520  -1.13482
  Beta  occ. eigenvalues --   -1.13472  -1.13247  -1.13232  -1.13217  -1.13209
  Beta  occ. eigenvalues --   -1.13198  -1.13162  -1.12839  -1.12825  -1.12798
  Beta  occ. eigenvalues --   -0.17159  -0.13224  -0.12615
  Beta virt. eigenvalues --   -0.06887  -0.06356  -0.05196  -0.04125  -0.02952
  Beta virt. eigenvalues --   -0.02331  -0.02018  -0.01559  -0.01216  -0.00967
  Beta virt. eigenvalues --   -0.00195   0.00117   0.00420   0.00600   0.00725

 Mulliken charges and spin densities:
               1          2
     1  Na   1.161699   0.056724
     2  Na   1.877691   0.172326
     3  Na   0.702333   0.143702
     4  Na   0.634962   0.279830
     5  Na   0.540942   0.290026
     6  Na   0.574076   0.242644
     7  Na  -5.491703  -0.185252
 Sum of Mulliken charges =  -0.00000   1.00000

 Dipole moment (field-independent basis, Debye):
    X=             -0.0289    Y=             -0.2770    Z=             -0.1989  Tot=              0.3422
 Quadrupole moment (field-independent basis, Debye-Ang):
   XX=            -57.5405   YY=            -64.9521   ZZ=            -72.9654
   XY=              2.7917   XZ=              0.9493   YZ=              0.2473

 Normal termination of Gaussian 16 at Wed Nov 29 17:16:38 2023.
