 Gaussian 16, Revision B.01,
 Gaussian 16:  ES64L-G16RevB.01 20-Dec-2017

 -------------------------
 #P B3LYP/6-311+g(d) force
 -------------------------

 -----
 DPGEN
 -----
 Symbolic Z-matrix:
 Charge =  0 Multiplicity = 2

                         Standard orientation:
 ---------------------------------------------------------------------
 Center     Atomic      Atomic             Coordinates (Angstroms)
 Number     Number       Type             X           Y           Z
 ---------------------------------------------------------------------
      1         11           0       -4.725910   -0.183310    1.080893
      2         11           0        1.015607   -1.554050   -0.659903
      3         11           0        3.364669    0.986326    0.468414
      4         11           0       -2.906430   -2.065824   -0.807340
      5         11           0        4.066966   -2.204805    0.498709
      6         11           0        0.701527    3.593862   -0.474792
      7         11           0       -1.516428    1.427801   -0.105983
 ---------------------------------------------------------------------

 SCF Done:  E(UB3LYP) =  -1136.12478406     A.U. after   22 cycles

 The electronic state is 2-A.
 Alpha  occ. eigenvalues --  -38.44927 -38.44405 -38.44140 -38.44116 -38.43878
 Alpha  occ. eigenvalues --  -38.43803 -38.43118  -2.20735  -2.20210  -2.19963
 Alpha  occ. eigenvalues --   -2.19948  -2.19716  -2.19637  -2.18932  -1.14425
 Alpha  occ. eigenvalues --   -1.14408  -1.14343  -1.13896  -1.13870  -1.13862
 Alpha  occ. eigenvalues --   -1.13667  -1.13651  -1.13615  -1.13603  -1.13590
 Alpha  occ. eigenvalues --   -1.13584  -1.13402  -1.13390  -1.13305  -1.13285
 Alpha  occ. eigenvalues --   -1.13277  -1.13250  -1.12613  -1.12587  -1.12566
 Alpha  occ. eigenvalues --   -0.16655  -0.14399  -0.12313  -0.10578
 Alpha virt. eigenvalues --   -0.06415  -0.05188  -0.04766  -0.03910  -0.02657
 Alpha virt. eigenvalues --   -0.02301  -0.01732  -0.01651  -0.01535  -0.00558
 Alpha virt. eigenvalues --   -0.00074   0.00081   0.00233   0.00490   0.00650

  Beta  occ. eigenvalues --  -38.44899 -38.44396 -38.44134 -38.44105 -38.43817
  Beta  occ. eigenvalues --  -38.43731 -38.43120  -2.20685  -2.20198  -2.19954
  Beta  occ. eigenvalues --   -2.19930  -2.19605  -2.19501  -2.18936  -1.14392
  Beta  occ. eigenvalues --   -1.14374  -1.14300  -1.13893  -1.13868  -1.13805
  Beta  occ. eigenvalues --   -1.13663  -1.13621  -1.13597  -1.13592  -1.13584
  Beta  occ. eigenvalues --   -1.13574  -1.13331  -1.13316  -1.13209  -1.13192
  Beta  occ. eigenvalues --   -1.13184  -1.13166  -1.12614  -1.12589  -1.12568
  Beta  occ. eigenvalues --   -0.16072  -0.13961  -0.12159
  Beta virt. eigenvalues --   -0.06934  -0.06216  -0.05063  -0.04104  -0.03739
  Beta virt. eigenvalues --   -0.02330  -0.01931  -0.01646  -0.01452  -0.01220
  Beta virt. eigenvalues --   -0.00289   0.00209   0.00318   0.00405   0.00577

 Mulliken charges and spin densities:
               1          2
     1  Na   1.151108   0.317265
     2  Na  -1.388010   0.217096
     3  Na  -0.159155   0.236612
     4  Na   0.270577  -0.052944
     5  Na   1.661153   0.227566
     6  Na   0.747946   0.175747
     7  Na  -2.283619  -0.121342
 Sum of Mulliken charges =  -0.00000   1.00000

 Dipole moment (field-independent basis, Debye):
    X=              0.8962    Y=             -0.7280    Z=              0.1728  Tot=              1.1675
 Quadrupole moment (field-independent basis, Debye-Ang):
   XX=            -60.8211   YY=            -63.1890   ZZ=            -71.1826
   XY=              0.0518   XZ=              1.3180   YZ=              0.4526

 Normal termination of Gaussian 16 at Mon Dec  4 05:36:32 2023.
