 Gaussian 16, Revision B.01,
 Gaussian 16:  ES64L-G16RevB.01 20-Dec-2017

 -------------------------
 #P B3LYP/6-311+g(d) force
 -------------------------

 -----
 DPGEN
 -----
 Symbolic Z-matrix:
 Charge =  0 Multiplicity = 2

                         Standard orientation:
 ---------------------------------------------------------------------
 Center     Atomic      Atomic             Coordinates (Angstroms)
 Number     Number       Type             X           Y           Z
 ---------------------------------------------------------------------
      1         11           0       -1.165977    1.787990   -1.701632
      2         11           0       -0.135528   -2.827897    1.045367
      3         11           0        3.272798   -2.183153   -0.524755
      4         11           0       -3.638264   -0.990249   -0.921740
      5         11           0        2.825164    1.314278   -0.795994
      6         11           0        0.379113    3.124249    1.683649
      7         11           0       -1.537306   -0.225218    1.215105
 ---------------------------------------------------------------------

 SCF Done:  E(UB3LYP) =  -1136.11687691     A.U. after   20 cycles

 The electronic state is 2-A.
 Alpha  occ. eigenvalues --  -38.44847 -38.44734 -38.44419 -38.44277 -38.44065
 Alpha  occ. eigenvalues --  -38.43787 -38.43682  -2.20624  -2.20546  -2.20176
 Alpha  occ. eigenvalues --   -2.20056  -2.19885  -2.19620  -2.19545  -1.14315
 Alpha  occ. eigenvalues --   -1.14294  -1.14240  -1.14225  -1.14194  -1.14167
 Alpha  occ. eigenvalues --   -1.13867  -1.13846  -1.13791  -1.13716  -1.13709
 Alpha  occ. eigenvalues --   -1.13672  -1.13666  -1.13529  -1.13484  -1.13283
 Alpha  occ. eigenvalues --   -1.13272  -1.13222  -1.13221  -1.13202  -1.13187
 Alpha  occ. eigenvalues --   -0.16978  -0.13122  -0.12462  -0.10865
 Alpha virt. eigenvalues --   -0.06229  -0.05746  -0.04994  -0.03398  -0.02976
 Alpha virt. eigenvalues --   -0.02347  -0.01855  -0.01138  -0.00866  -0.00664
 Alpha virt. eigenvalues --   -0.00377   0.00086   0.00252   0.00413   0.00683

  Beta  occ. eigenvalues --  -38.44816 -38.44708 -38.44402 -38.44219 -38.44033
  Beta  occ. eigenvalues --  -38.43783 -38.43651  -2.20567  -2.20500  -2.20144
  Beta  occ. eigenvalues --   -2.19948  -2.19828  -2.19567  -2.19539  -1.14278
  Beta  occ. eigenvalues --   -1.14255  -1.14213  -1.14176  -1.14163  -1.14120
  Beta  occ. eigenvalues --   -1.13843  -1.13827  -1.13763  -1.13641  -1.13632
  Beta  occ. eigenvalues --   -1.13622  -1.13599  -1.13487  -1.13450  -1.13252
  Beta  occ. eigenvalues --   -1.13219  -1.13209  -1.13196  -1.13183  -1.13178
  Beta  occ. eigenvalues --   -0.16405  -0.12724  -0.12134
  Beta virt. eigenvalues --   -0.07484  -0.05974  -0.05341  -0.04648  -0.03115
  Beta virt. eigenvalues --   -0.02586  -0.01829  -0.01578  -0.00989  -0.00730
  Beta virt. eigenvalues --   -0.00532  -0.00136   0.00225   0.00399   0.00578

 Mulliken charges and spin densities:
               1          2
     1  Na  -0.348969   0.230659
     2  Na  -0.228036   0.046316
     3  Na   0.095138   0.001985
     4  Na   0.212441   0.232601
     5  Na  -0.260572   0.158150
     6  Na   0.089660   0.174928
     7  Na   0.440338   0.155362
 Sum of Mulliken charges =  -0.00000   1.00000

 Dipole moment (field-independent basis, Debye):
    X=             -0.8078    Y=              0.2973    Z=             -0.5072  Tot=              0.9991
 Quadrupole moment (field-independent basis, Debye-Ang):
   XX=            -62.8242   YY=            -63.7064   ZZ=            -69.8724
   XY=              3.3781   XZ=              1.8344   YZ=              1.7969

 Normal termination of Gaussian 16 at Sun Dec  3 12:39:50 2023.
