 Gaussian 16, Revision B.01,
 Gaussian 16:  ES64L-G16RevB.01 20-Dec-2017

 -------------------------
 #P B3LYP/6-311+g(d) force
 -------------------------

 -----
 DPGEN
 -----
 Symbolic Z-matrix:
 Charge =  0 Multiplicity = 2

                         Standard orientation:
 ---------------------------------------------------------------------
 Center     Atomic      Atomic             Coordinates (Angstroms)
 Number     Number       Type             X           Y           Z
 ---------------------------------------------------------------------
      1         11           0       -0.451219   -0.870973   -0.984462
      2         11           0        2.624678    1.952556   -0.179373
      3         11           0       -3.118329   -1.335005    0.939386
      4         11           0       -3.270788    0.606896   -1.517247
      5         11           0       -0.875968    2.019288    1.224467
      6         11           0        3.363672   -1.116898   -1.117457
      7         11           0        1.727955   -1.255864    1.634686
 ---------------------------------------------------------------------

 SCF Done:  E(UB3LYP) =  -1136.11650683     A.U. after   27 cycles

 The electronic state is 2-A.
 Alpha  occ. eigenvalues --  -38.45413 -38.44693 -38.44441 -38.44371 -38.43810
 Alpha  occ. eigenvalues --  -38.43774 -38.42313  -2.21243  -2.20573  -2.20341
 Alpha  occ. eigenvalues --   -2.20227  -2.19676  -2.19589  -2.18119  -1.14922
 Alpha  occ. eigenvalues --   -1.14914  -1.14885  -1.14265  -1.14213  -1.14174
 Alpha  occ. eigenvalues --   -1.14066  -1.13992  -1.13964  -1.13895  -1.13878
 Alpha  occ. eigenvalues --   -1.13848  -1.13362  -1.13340  -1.13306  -1.13269
 Alpha  occ. eigenvalues --   -1.13232  -1.13205  -1.11805  -1.11788  -1.11746
 Alpha  occ. eigenvalues --   -0.18083  -0.14811  -0.10695  -0.10537
 Alpha virt. eigenvalues --   -0.06812  -0.05898  -0.05134  -0.02962  -0.02711
 Alpha virt. eigenvalues --   -0.02460  -0.02041  -0.01273  -0.00773  -0.00563
 Alpha virt. eigenvalues --    0.00000   0.00147   0.00256   0.00361   0.00556

  Beta  occ. eigenvalues --  -38.45412 -38.44645 -38.44421 -38.44326 -38.43789
  Beta  occ. eigenvalues --  -38.43754 -38.42298  -2.21245  -2.20481  -2.20311
  Beta  occ. eigenvalues --   -2.20144  -2.19637  -2.19553  -2.18094  -1.14922
  Beta  occ. eigenvalues --   -1.14908  -1.14871  -1.14200  -1.14159  -1.14109
  Beta  occ. eigenvalues --   -1.13997  -1.13977  -1.13946  -1.13843  -1.13808
  Beta  occ. eigenvalues --   -1.13789  -1.13331  -1.13310  -1.13276  -1.13243
  Beta  occ. eigenvalues --   -1.13210  -1.13169  -1.11790  -1.11753  -1.11733
  Beta  occ. eigenvalues --   -0.17444  -0.14476  -0.10429
  Beta virt. eigenvalues --   -0.07134  -0.06538  -0.05484  -0.04676  -0.02851
  Beta virt. eigenvalues --   -0.02573  -0.01862  -0.01465  -0.00967  -0.00507
  Beta virt. eigenvalues --   -0.00366   0.00155   0.00253   0.00351   0.00437

 Mulliken charges and spin densities:
               1          2
     1  Na  -0.984880   0.182373
     2  Na  -0.340077   0.068926
     3  Na   0.304190   0.123463
     4  Na   0.756455   0.027458
     5  Na  -0.431250   0.065539
     6  Na   0.648496   0.188546
     7  Na   0.047066   0.343696
 Sum of Mulliken charges =  -0.00000   1.00000

 Dipole moment (field-independent basis, Debye):
    X=             -0.9766    Y=             -0.6061    Z=              0.1751  Tot=              1.1626
 Quadrupole moment (field-independent basis, Debye-Ang):
   XX=            -50.5843   YY=            -79.0983   ZZ=            -66.1243
   XY=              0.0630   XZ=             -2.2931   YZ=             -5.1056

 Normal termination of Gaussian 16 at Tue Dec  5 16:39:10 2023.
