 Gaussian 16, Revision B.01,
 Gaussian 16:  ES64L-G16RevB.01 20-Dec-2017

 -------------------------
 #P B3LYP/6-311+g(d) force
 -------------------------

 -----
 DPGEN
 -----
 Symbolic Z-matrix:
 Charge =  0 Multiplicity = 2

                         Standard orientation:
 ---------------------------------------------------------------------
 Center     Atomic      Atomic             Coordinates (Angstroms)
 Number     Number       Type             X           Y           Z
 ---------------------------------------------------------------------
      1         11           0        1.482259    2.248809    0.082837
      2         11           0        0.587794   -2.641339   -0.102931
      3         11           0       -0.412762   -0.218088    2.331355
      4         11           0       -2.988325   -1.198151   -0.336960
      5         11           0       -1.785670    2.236176   -0.176435
      6         11           0       -0.099019    0.025265   -1.616852
      7         11           0        3.215722   -0.452671   -0.181014
 ---------------------------------------------------------------------

 SCF Done:  E(UB3LYP) =  -1136.13542471     A.U. after   19 cycles

 The electronic state is 2-A.
 Alpha  occ. eigenvalues --  -38.44154 -38.44103 -38.43962 -38.43341 -38.43312
 Alpha  occ. eigenvalues --  -38.43269 -38.43056  -2.19968  -2.19951  -2.19802
 Alpha  occ. eigenvalues --   -2.19338  -2.19229  -2.19138  -2.18963  -1.13649
 Alpha  occ. eigenvalues --   -1.13626  -1.13606  -1.13599  -1.13577  -1.13568
 Alpha  occ. eigenvalues --   -1.13481  -1.13461  -1.13448  -1.13083  -1.13042
 Alpha  occ. eigenvalues --   -1.12969  -1.12888  -1.12882  -1.12852  -1.12809
 Alpha  occ. eigenvalues --   -1.12803  -1.12743  -1.12642  -1.12613  -1.12593
 Alpha  occ. eigenvalues --   -0.18783  -0.13058  -0.12355  -0.11152
 Alpha virt. eigenvalues --   -0.05797  -0.04970  -0.04296  -0.03262  -0.03064
 Alpha virt. eigenvalues --   -0.02892  -0.01661  -0.00958  -0.00207  -0.00073
 Alpha virt. eigenvalues --   -0.00032   0.00335   0.00783   0.00909   0.00937

  Beta  occ. eigenvalues --  -38.44149 -38.43992 -38.43962 -38.43335 -38.43262
  Beta  occ. eigenvalues --  -38.43254 -38.43051  -2.19961  -2.19804  -2.19747
  Beta  occ. eigenvalues --   -2.19236  -2.19220  -2.19130  -2.18957  -1.13631
  Beta  occ. eigenvalues --   -1.13615  -1.13600  -1.13485  -1.13464  -1.13452
  Beta  occ. eigenvalues --   -1.13448  -1.13433  -1.13425  -1.13032  -1.12981
  Beta  occ. eigenvalues --   -1.12901  -1.12872  -1.12853  -1.12836  -1.12791
  Beta  occ. eigenvalues --   -1.12767  -1.12742  -1.12635  -1.12596  -1.12582
  Beta  occ. eigenvalues --   -0.18055  -0.12847  -0.12124
  Beta virt. eigenvalues --   -0.07125  -0.05763  -0.04972  -0.04254  -0.02494
  Beta virt. eigenvalues --   -0.02170  -0.01843  -0.01584  -0.00910  -0.00242
  Beta virt. eigenvalues --   -0.00080   0.00099   0.00365   0.00851   0.00920

 Mulliken charges and spin densities:
               1          2
     1  Na   0.244502   0.094853
     2  Na   0.285081   0.017207
     3  Na  -0.761889   0.693836
     4  Na   0.272728  -0.028845
     5  Na   0.334535   0.054703
     6  Na  -0.448814   0.179026
     7  Na   0.073858  -0.010779
 Sum of Mulliken charges =  -0.00000   1.00000

 Dipole moment (field-independent basis, Debye):
    X=             -0.2451    Y=             -0.2420    Z=              0.2507  Tot=              0.4261
 Quadrupole moment (field-independent basis, Debye-Ang):
   XX=            -55.3712   YY=            -66.6705   ZZ=            -72.3149
   XY=              0.0985   XZ=              0.5058   YZ=              0.5310

 Normal termination of Gaussian 16 at Sat Dec  9 05:33:04 2023.
