 Gaussian 16, Revision B.01,
 Gaussian 16:  ES64L-G16RevB.01 20-Dec-2017

 -------------------------
 #P B3LYP/6-311+g(d) force
 -------------------------

 -----
 DPGEN
 -----
 Symbolic Z-matrix:
 Charge =  0 Multiplicity = 2

                         Standard orientation:
 ---------------------------------------------------------------------
 Center     Atomic      Atomic             Coordinates (Angstroms)
 Number     Number       Type             X           Y           Z
 ---------------------------------------------------------------------
      1         11           0        3.295474    0.259009   -0.193352
      2         11           0        0.855419    2.713716    0.257289
      3         11           0       -2.793775    1.469774   -0.504586
      4         11           0       -0.620239    0.261875    1.606024
      5         11           0       -2.441650   -1.863737   -0.034810
      6         11           0        0.374210   -0.337499   -1.487742
      7         11           0        1.330561   -2.503139    0.357178
 ---------------------------------------------------------------------

 SCF Done:  E(UB3LYP) =  -1136.13284232     A.U. after   21 cycles

 The electronic state is 2-A.
 Alpha  occ. eigenvalues --  -38.44381 -38.44107 -38.43909 -38.43410 -38.43192
 Alpha  occ. eigenvalues --  -38.43167 -38.42750  -2.20226  -2.19957  -2.19775
 Alpha  occ. eigenvalues --   -2.19297  -2.19186  -2.19056  -2.18769  -1.13910
 Alpha  occ. eigenvalues --   -1.13882  -1.13863  -1.13640  -1.13615  -1.13593
 Alpha  occ. eigenvalues --   -1.13462  -1.13439  -1.13397  -1.13095  -1.12954
 Alpha  occ. eigenvalues --   -1.12907  -1.12879  -1.12799  -1.12782  -1.12770
 Alpha  occ. eigenvalues --   -1.12710  -1.12677  -1.12450  -1.12396  -1.12373
 Alpha  occ. eigenvalues --   -0.18953  -0.13599  -0.12353  -0.10168
 Alpha virt. eigenvalues --   -0.06000  -0.05433  -0.04455  -0.03224  -0.02568
 Alpha virt. eigenvalues --   -0.01896  -0.01793  -0.01213  -0.00491  -0.00273
 Alpha virt. eigenvalues --    0.00035   0.00327   0.00748   0.00842   0.00864

  Beta  occ. eigenvalues --  -38.44376 -38.44090 -38.43901 -38.43400 -38.43183
  Beta  occ. eigenvalues --  -38.43116 -38.42675  -2.20219  -2.19927  -2.19766
  Beta  occ. eigenvalues --   -2.19283  -2.19094  -2.19042  -2.18634  -1.13897
  Beta  occ. eigenvalues --   -1.13874  -1.13855  -1.13622  -1.13583  -1.13567
  Beta  occ. eigenvalues --   -1.13452  -1.13421  -1.13379  -1.13072  -1.12929
  Beta  occ. eigenvalues --   -1.12889  -1.12816  -1.12758  -1.12731  -1.12717
  Beta  occ. eigenvalues --   -1.12681  -1.12672  -1.12360  -1.12301  -1.12271
  Beta  occ. eigenvalues --   -0.18277  -0.13326  -0.12091
  Beta virt. eigenvalues --   -0.06376  -0.05871  -0.05425  -0.04412  -0.02485
  Beta virt. eigenvalues --   -0.01844  -0.01767  -0.01159  -0.00892  -0.00482
  Beta virt. eigenvalues --   -0.00307   0.00178   0.00386   0.00808   0.00850

 Mulliken charges and spin densities:
               1          2
     1  Na   0.198580  -0.021564
     2  Na   0.064229  -0.082250
     3  Na  -0.033226   0.108330
     4  Na  -0.170408   0.530620
     5  Na   0.229210   0.054564
     6  Na  -0.355613   0.446022
     7  Na   0.067228  -0.035722
 Sum of Mulliken charges =  -0.00000   1.00000

 Dipole moment (field-independent basis, Debye):
    X=              0.0378    Y=             -0.0460    Z=              0.0051  Tot=              0.0598
 Quadrupole moment (field-independent basis, Debye-Ang):
   XX=            -51.6350   YY=            -63.0956   ZZ=            -76.6000
   XY=              0.3207   XZ=              1.7449   YZ=             -1.5873

 Normal termination of Gaussian 16 at Wed Nov 29 02:44:49 2023.
