 Gaussian 16, Revision B.01,
 Gaussian 16:  ES64L-G16RevB.01 20-Dec-2017

 -------------------------
 #P B3LYP/6-311+g(d) force
 -------------------------

 -----
 DPGEN
 -----
 Symbolic Z-matrix:
 Charge =  0 Multiplicity = 2

                         Standard orientation:
 ---------------------------------------------------------------------
 Center     Atomic      Atomic             Coordinates (Angstroms)
 Number     Number       Type             X           Y           Z
 ---------------------------------------------------------------------
      1         11           0       -1.950050   -2.308979   -0.105937
      2         11           0        0.114645    0.303761   -1.704801
      3         11           0       -0.304339    3.071547   -0.169557
      4         11           0       -3.230329    0.358656   -0.079937
      5         11           0        2.185951   -2.303150   -0.235452
      6         11           0       -0.092060    0.085069    2.175423
      7         11           0        3.276182    0.793096    0.120260
 ---------------------------------------------------------------------

 SCF Done:  E(UB3LYP) =  -1136.13084910     A.U. after   19 cycles

 The electronic state is 2-A.
 Alpha  occ. eigenvalues --  -38.44852 -38.44566 -38.43926 -38.43730 -38.43502
 Alpha  occ. eigenvalues --  -38.43464 -38.43082  -2.20643  -2.20413  -2.19761
 Alpha  occ. eigenvalues --   -2.19538  -2.19378  -2.19358  -2.18900  -1.14317
 Alpha  occ. eigenvalues --   -1.14307  -1.14281  -1.14137  -1.14067  -1.14035
 Alpha  occ. eigenvalues --   -1.13421  -1.13386  -1.13381  -1.13211  -1.13199
 Alpha  occ. eigenvalues --   -1.13185  -1.13067  -1.13047  -1.13031  -1.13005
 Alpha  occ. eigenvalues --   -1.12999  -1.12989  -1.12585  -1.12554  -1.12533
 Alpha  occ. eigenvalues --   -0.18126  -0.13363  -0.11915  -0.10685
 Alpha virt. eigenvalues --   -0.06273  -0.05195  -0.04561  -0.03410  -0.02711
 Alpha virt. eigenvalues --   -0.02675  -0.01959  -0.01104  -0.00613  -0.00472
 Alpha virt. eigenvalues --   -0.00058   0.00352   0.00724   0.00740   0.00806

  Beta  occ. eigenvalues --  -38.44851 -38.44564 -38.43823 -38.43727 -38.43498
  Beta  occ. eigenvalues --  -38.43404 -38.43079  -2.20645  -2.20411  -2.19572
  Beta  occ. eigenvalues --   -2.19535  -2.19355  -2.19267  -2.18898  -1.14310
  Beta  occ. eigenvalues --   -1.14300  -1.14284  -1.14139  -1.14043  -1.14037
  Beta  occ. eigenvalues --   -1.13294  -1.13254  -1.13246  -1.13203  -1.13188
  Beta  occ. eigenvalues --   -1.13183  -1.13045  -1.13001  -1.12989  -1.12980
  Beta  occ. eigenvalues --   -1.12946  -1.12917  -1.12575  -1.12540  -1.12534
  Beta  occ. eigenvalues --   -0.17405  -0.13200  -0.11706
  Beta virt. eigenvalues --   -0.06771  -0.06181  -0.05202  -0.04506  -0.02656
  Beta virt. eigenvalues --   -0.01963  -0.01847  -0.01623  -0.01032  -0.00665
  Beta virt. eigenvalues --   -0.00517   0.00109   0.00384   0.00782   0.00829

 Mulliken charges and spin densities:
               1          2
     1  Na  -0.006242  -0.027636
     2  Na  -0.020751   0.484200
     3  Na   0.030861  -0.117805
     4  Na   0.274547  -0.015917
     5  Na   0.017904  -0.039833
     6  Na  -0.431323   0.768340
     7  Na   0.135003  -0.051350
 Sum of Mulliken charges =  -0.00000   1.00000

 Dipole moment (field-independent basis, Debye):
    X=              0.3069    Y=              0.1533    Z=              0.1306  Tot=              0.3671
 Quadrupole moment (field-independent basis, Debye-Ang):
   XX=            -54.1917   YY=            -65.0919   ZZ=            -75.1875
   XY=              0.1227   XZ=              0.5612   YZ=              0.9255

 Normal termination of Gaussian 16 at Fri Dec  8 02:51:43 2023.
