 Gaussian 16, Revision B.01,
 Gaussian 16:  ES64L-G16RevB.01 20-Dec-2017

 -------------------------
 #P B3LYP/6-311+g(d) force
 -------------------------

 -----
 DPGEN
 -----
 Symbolic Z-matrix:
 Charge =  0 Multiplicity = 2

                         Standard orientation:
 ---------------------------------------------------------------------
 Center     Atomic      Atomic             Coordinates (Angstroms)
 Number     Number       Type             X           Y           Z
 ---------------------------------------------------------------------
      1         11           0       -3.191389   -1.258701   -0.169397
      2         11           0        0.518481   -2.723142   -0.357790
      3         11           0        1.534823    2.599177   -0.303534
      4         11           0        3.202135   -0.579209   -0.007214
      5         11           0        0.059900   -0.207953    2.155567
      6         11           0       -2.132199    2.216883   -0.007296
      7         11           0        0.008248   -0.047056   -1.310336
 ---------------------------------------------------------------------

 SCF Done:  E(UB3LYP) =  -1136.13306594     A.U. after   19 cycles

 The electronic state is 2-A.
 Alpha  occ. eigenvalues --  -38.44391 -38.44298 -38.43843 -38.43511 -38.43422
 Alpha  occ. eigenvalues --  -38.43364 -38.42938  -2.20170  -2.20126  -2.19659
 Alpha  occ. eigenvalues --   -2.19381  -2.19320  -2.19202  -2.18999  -1.13846
 Alpha  occ. eigenvalues --   -1.13822  -1.13813  -1.13797  -1.13783  -1.13773
 Alpha  occ. eigenvalues --   -1.13348  -1.13327  -1.13284  -1.13154  -1.13054
 Alpha  occ. eigenvalues --   -1.13005  -1.12990  -1.12952  -1.12917  -1.12909
 Alpha  occ. eigenvalues --   -1.12857  -1.12827  -1.12674  -1.12625  -1.12587
 Alpha  occ. eigenvalues --   -0.18543  -0.13042  -0.12333  -0.10462
 Alpha virt. eigenvalues --   -0.05984  -0.05392  -0.04511  -0.02998  -0.02603
 Alpha virt. eigenvalues --   -0.02423  -0.01903  -0.01245  -0.00500  -0.00428
 Alpha virt. eigenvalues --   -0.00020   0.00303   0.00735   0.00827   0.00849

  Beta  occ. eigenvalues --  -38.44391 -38.44295 -38.43841 -38.43409 -38.43402
  Beta  occ. eigenvalues --  -38.43358 -38.42891  -2.20171  -2.20123  -2.19658
  Beta  occ. eigenvalues --   -2.19301  -2.19194  -2.19179  -2.18916  -1.13834
  Beta  occ. eigenvalues --   -1.13823  -1.13816  -1.13788  -1.13776  -1.13765
  Beta  occ. eigenvalues --   -1.13343  -1.13312  -1.13288  -1.13130  -1.12938
  Beta  occ. eigenvalues --   -1.12909  -1.12903  -1.12898  -1.12857  -1.12846
  Beta  occ. eigenvalues --   -1.12836  -1.12824  -1.12605  -1.12568  -1.12528
  Beta  occ. eigenvalues --   -0.17834  -0.12855  -0.12091
  Beta virt. eigenvalues --   -0.06492  -0.05941  -0.05392  -0.04476  -0.02274
  Beta virt. eigenvalues --   -0.01884  -0.01818  -0.01287  -0.01192  -0.00543
  Beta virt. eigenvalues --   -0.00454   0.00150   0.00347   0.00788   0.00830

 Mulliken charges and spin densities:
               1          2
     1  Na   0.144476  -0.022769
     2  Na   0.417645   0.033133
     3  Na   0.191616   0.016572
     4  Na   0.345754   0.062270
     5  Na  -0.547823   0.781982
     6  Na   0.149172   0.002853
     7  Na  -0.700839   0.125958
 Sum of Mulliken charges =  -0.00000   1.00000

 Dipole moment (field-independent basis, Debye):
    X=             -0.1261    Y=             -0.0784    Z=              0.2490  Tot=              0.2899
 Quadrupole moment (field-independent basis, Debye-Ang):
   XX=            -51.8460   YY=            -63.0893   ZZ=            -76.4946
   XY=              0.1723   XZ=             -0.0096   YZ=              0.3735

 Normal termination of Gaussian 16 at Thu Dec  7 10:40:39 2023.
