 Gaussian 16, Revision B.01,
 Gaussian 16:  ES64L-G16RevB.01 20-Dec-2017

 -------------------------
 #P B3LYP/6-311+g(d) force
 -------------------------

 -----
 DPGEN
 -----
 Symbolic Z-matrix:
 Charge =  0 Multiplicity = 2

                         Standard orientation:
 ---------------------------------------------------------------------
 Center     Atomic      Atomic             Coordinates (Angstroms)
 Number     Number       Type             X           Y           Z
 ---------------------------------------------------------------------
      1         11           0        1.426158   -3.193489   -0.595616
      2         11           0        3.130355    1.927566    0.590772
      3         11           0        3.734036   -1.620658    0.699178
      4         11           0       -2.382454   -2.452103   -0.904656
      5         11           0        0.727234    3.597771   -0.976596
      6         11           0       -2.516564    2.049693   -0.104289
      7         11           0       -4.118765   -0.308779    1.291207
 ---------------------------------------------------------------------

 SCF Done:  E(UB3LYP) =  -1136.11081566     A.U. after   23 cycles

 The electronic state is 2-A.
 Alpha  occ. eigenvalues --  -38.45487 -38.45216 -38.45059 -38.44380 -38.44170
 Alpha  occ. eigenvalues --  -38.43627 -38.43382  -2.21274  -2.20980  -2.20830
 Alpha  occ. eigenvalues --   -2.20166  -2.20007  -2.19457  -2.19189  -1.14964
 Alpha  occ. eigenvalues --   -1.14940  -1.14903  -1.14668  -1.14653  -1.14616
 Alpha  occ. eigenvalues --   -1.14512  -1.14491  -1.14436  -1.13858  -1.13842
 Alpha  occ. eigenvalues --   -1.13816  -1.13675  -1.13651  -1.13632  -1.13116
 Alpha  occ. eigenvalues --   -1.13108  -1.13093  -1.12844  -1.12839  -1.12835
 Alpha  occ. eigenvalues --   -0.15848  -0.14107  -0.13197  -0.10595
 Alpha virt. eigenvalues --   -0.07627  -0.05094  -0.04360  -0.03621  -0.03421
 Alpha virt. eigenvalues --   -0.02255  -0.01910  -0.01773  -0.01211  -0.01045
 Alpha virt. eigenvalues --   -0.00758  -0.00116   0.00065   0.00476   0.00693

  Beta  occ. eigenvalues --  -38.45459 -38.45212 -38.45005 -38.44382 -38.44131
  Beta  occ. eigenvalues --  -38.43599 -38.43347  -2.21227  -2.20977  -2.20732
  Beta  occ. eigenvalues --   -2.20171  -2.19936  -2.19403  -2.19124  -1.14931
  Beta  occ. eigenvalues --   -1.14913  -1.14838  -1.14670  -1.14654  -1.14586
  Beta  occ. eigenvalues --   -1.14447  -1.14427  -1.14351  -1.13860  -1.13848
  Beta  occ. eigenvalues --   -1.13801  -1.13617  -1.13600  -1.13590  -1.13090
  Beta  occ. eigenvalues --   -1.13070  -1.13051  -1.12802  -1.12797  -1.12789
  Beta  occ. eigenvalues --   -0.15320  -0.13685  -0.12688
  Beta virt. eigenvalues --   -0.07626  -0.07190  -0.04626  -0.03919  -0.03355
  Beta virt. eigenvalues --   -0.03113  -0.02037  -0.01753  -0.01623  -0.01025
  Beta virt. eigenvalues --   -0.00727  -0.00516   0.00186   0.00278   0.00478

 Mulliken charges and spin densities:
               1          2
     1  Na  -0.240407  -0.037800
     2  Na  -0.295420   0.033692
     3  Na   0.418024   0.218299
     4  Na  -0.140679   0.238045
     5  Na   0.186352   0.165753
     6  Na  -0.383988   0.238172
     7  Na   0.456117   0.143839
 Sum of Mulliken charges =  -0.00000   1.00000

 Dipole moment (field-independent basis, Debye):
    X=             -0.9235    Y=              0.1337    Z=              0.2832  Tot=              0.9751
 Quadrupole moment (field-independent basis, Debye-Ang):
   XX=            -61.8518   YY=            -68.9755   ZZ=            -69.8980
   XY=              2.6644   XZ=              0.7011   YZ=             -0.8266

 Normal termination of Gaussian 16 at Sun Dec  3 17:38:15 2023.
