 Gaussian 16, Revision B.01,
 Gaussian 16:  ES64L-G16RevB.01 20-Dec-2017

 -------------------------
 #P B3LYP/6-311+g(d) force
 -------------------------

 -----
 DPGEN
 -----
 Symbolic Z-matrix:
 Charge =  0 Multiplicity = 2

                         Standard orientation:
 ---------------------------------------------------------------------
 Center     Atomic      Atomic             Coordinates (Angstroms)
 Number     Number       Type             X           Y           Z
 ---------------------------------------------------------------------
      1         11           0       -0.806183   -2.386841    0.671747
      2         11           0        3.602173    0.104538    0.471270
      3         11           0        0.435520    2.479410   -0.730742
      4         11           0       -0.000499    0.235818    2.255947
      5         11           0        1.315571   -1.020709   -1.493070
      6         11           0       -1.701327   -0.319338   -1.937217
      7         11           0       -2.845255    0.907122    0.762065
 ---------------------------------------------------------------------

 SCF Done:  E(UB3LYP) =  -1136.12541964     A.U. after   24 cycles

 The electronic state is 2-A.
 Alpha  occ. eigenvalues --  -38.44489 -38.44451 -38.44070 -38.43841 -38.43806
 Alpha  occ. eigenvalues --  -38.43612 -38.42657  -2.20291  -2.20234  -2.19957
 Alpha  occ. eigenvalues --   -2.19707  -2.19695  -2.19544  -2.18591  -1.13980
 Alpha  occ. eigenvalues --   -1.13937  -1.13919  -1.13899  -1.13895  -1.13862
 Alpha  occ. eigenvalues --   -1.13682  -1.13600  -1.13572  -1.13417  -1.13390
 Alpha  occ. eigenvalues --   -1.13357  -1.13330  -1.13325  -1.13314  -1.13243
 Alpha  occ. eigenvalues --   -1.13171  -1.13141  -1.12296  -1.12262  -1.12199
 Alpha  occ. eigenvalues --   -0.18757  -0.12969  -0.12522  -0.11319
 Alpha virt. eigenvalues --   -0.06234  -0.04329  -0.04298  -0.03648  -0.03482
 Alpha virt. eigenvalues --   -0.03009  -0.01755  -0.00665  -0.00506   0.00112
 Alpha virt. eigenvalues --    0.00228   0.00274   0.00404   0.00837   0.00955

  Beta  occ. eigenvalues --  -38.44455 -38.44442 -38.44005 -38.43841 -38.43755
  Beta  occ. eigenvalues --  -38.43567 -38.42644  -2.20241  -2.20204  -2.19841
  Beta  occ. eigenvalues --   -2.19699  -2.19614  -2.19463  -2.18570  -1.13926
  Beta  occ. eigenvalues --   -1.13914  -1.13894  -1.13876  -1.13868  -1.13838
  Beta  occ. eigenvalues --   -1.13593  -1.13521  -1.13488  -1.13408  -1.13342
  Beta  occ. eigenvalues --   -1.13323  -1.13315  -1.13267  -1.13249  -1.13181
  Beta  occ. eigenvalues --   -1.13126  -1.13073  -1.12272  -1.12232  -1.12189
  Beta  occ. eigenvalues --   -0.17857  -0.12837  -0.11177
  Beta virt. eigenvalues --   -0.08357  -0.06004  -0.04134  -0.03766  -0.03167
  Beta virt. eigenvalues --   -0.02935  -0.02260  -0.01662  -0.00492  -0.00322
  Beta virt. eigenvalues --    0.00179   0.00289   0.00374   0.00431   0.00907

 Mulliken charges and spin densities:
               1          2
     1  Na  -0.456863   0.082568
     2  Na   0.106277  -0.153754
     3  Na  -0.609020   0.170367
     4  Na   0.205522   0.456702
     5  Na   0.158759   0.180722
     6  Na   0.405736   0.345297
     7  Na   0.189588  -0.081902
 Sum of Mulliken charges =  -0.00000   1.00000

 Dipole moment (field-independent basis, Debye):
    X=              0.1801    Y=              0.2988    Z=              0.3075  Tot=              0.4650
 Quadrupole moment (field-independent basis, Debye-Ang):
   XX=            -57.1238   YY=            -71.3294   ZZ=            -67.5368
   XY=              0.2048   XZ=              2.0243   YZ=             -6.9522

 Normal termination of Gaussian 16 at Thu Dec  7 02:04:58 2023.
