 Gaussian 16, Revision B.01,
 Gaussian 16:  ES64L-G16RevB.01 20-Dec-2017

 -------------------------
 #P B3LYP/6-311+g(d) force
 -------------------------

 -----
 DPGEN
 -----
 Symbolic Z-matrix:
 Charge =  0 Multiplicity = 2

                         Standard orientation:
 ---------------------------------------------------------------------
 Center     Atomic      Atomic             Coordinates (Angstroms)
 Number     Number       Type             X           Y           Z
 ---------------------------------------------------------------------
      1         11           0       -1.015376   -0.582751    1.791697
      2         11           0       -2.660872    1.815977   -0.440284
      3         11           0        2.447253   -0.824445    1.283711
      4         11           0        3.649656    0.342805   -0.905126
      5         11           0        0.586343   -1.802935   -1.383916
      6         11           0       -3.666654   -1.241359   -0.427451
      7         11           0        0.659649    2.292708    0.081370
 ---------------------------------------------------------------------

 SCF Done:  E(UB3LYP) =  -1136.11631239     A.U. after   26 cycles

 The electronic state is 2-A.
 Alpha  occ. eigenvalues --  -38.44974 -38.44797 -38.44693 -38.44441 -38.43812
 Alpha  occ. eigenvalues --  -38.43687 -38.42617  -2.20750  -2.20707  -2.20630
 Alpha  occ. eigenvalues --   -2.20261  -2.19697  -2.19533  -2.18442  -1.14684
 Alpha  occ. eigenvalues --   -1.14447  -1.14436  -1.14369  -1.14324  -1.14295
 Alpha  occ. eigenvalues --   -1.14260  -1.14219  -1.14145  -1.13938  -1.13924
 Alpha  occ. eigenvalues --   -1.13884  -1.13380  -1.13332  -1.13317  -1.13209
 Alpha  occ. eigenvalues --   -1.13187  -1.13174  -1.12140  -1.12116  -1.12065
 Alpha  occ. eigenvalues --   -0.18215  -0.14607  -0.11107  -0.10958
 Alpha virt. eigenvalues --   -0.07179  -0.05454  -0.04687  -0.03219  -0.02811
 Alpha virt. eigenvalues --   -0.02469  -0.02240  -0.01181  -0.00852  -0.00368
 Alpha virt. eigenvalues --    0.00062   0.00119   0.00278   0.00584   0.00714

  Beta  occ. eigenvalues --  -38.44970 -38.44752 -38.44666 -38.44414 -38.43737
  Beta  occ. eigenvalues --  -38.43676 -38.42612  -2.20744  -2.20633  -2.20577
  Beta  occ. eigenvalues --   -2.20212  -2.19564  -2.19514  -2.18434  -1.14627
  Beta  occ. eigenvalues --   -1.14444  -1.14420  -1.14356  -1.14280  -1.14244
  Beta  occ. eigenvalues --   -1.14213  -1.14178  -1.14083  -1.13899  -1.13890
  Beta  occ. eigenvalues --   -1.13852  -1.13290  -1.13228  -1.13221  -1.13197
  Beta  occ. eigenvalues --   -1.13173  -1.13147  -1.12138  -1.12092  -1.12064
  Beta  occ. eigenvalues --   -0.17529  -0.14202  -0.10962
  Beta virt. eigenvalues --   -0.07202  -0.06950  -0.05303  -0.04091  -0.03132
  Beta virt. eigenvalues --   -0.02614  -0.01866  -0.01601  -0.01023  -0.00484
  Beta virt. eigenvalues --   -0.00255   0.00100   0.00175   0.00404   0.00715

 Mulliken charges and spin densities:
               1          2
     1  Na  -0.220234   0.291080
     2  Na   0.132222   0.038159
     3  Na   0.286142   0.103811
     4  Na   0.565513   0.347119
     5  Na  -0.396242  -0.003814
     6  Na   0.270665   0.211569
     7  Na  -0.638066   0.012076
 Sum of Mulliken charges =  -0.00000   1.00000

 Dipole moment (field-independent basis, Debye):
    X=              0.2012    Y=             -0.7232    Z=             -0.2192  Tot=              0.7821
 Quadrupole moment (field-independent basis, Debye-Ang):
   XX=            -53.2715   YY=            -78.1586   ZZ=            -66.8908
   XY=              1.1814   XZ=              0.9861   YZ=             -0.9447

 Normal termination of Gaussian 16 at Tue Dec  5 15:51:29 2023.
