 Gaussian 16, Revision B.01,
 Gaussian 16:  ES64L-G16RevB.01 20-Dec-2017

 -------------------------
 #P B3LYP/6-311+g(d) force
 -------------------------

 -----
 DPGEN
 -----
 Symbolic Z-matrix:
 Charge =  0 Multiplicity = 2

                         Standard orientation:
 ---------------------------------------------------------------------
 Center     Atomic      Atomic             Coordinates (Angstroms)
 Number     Number       Type             X           Y           Z
 ---------------------------------------------------------------------
      1         11           0        0.250222   -0.414398   -1.462159
      2         11           0        0.471438    2.926385   -0.235892
      3         11           0        3.010193    0.973555    0.250493
      4         11           0        2.167292   -2.479857   -0.150736
      5         11           0       -0.724832   -0.084486    2.174576
      6         11           0       -2.961455    1.244526   -0.468478
      7         11           0       -2.212857   -2.165725   -0.107804
 ---------------------------------------------------------------------

 SCF Done:  E(UB3LYP) =  -1136.13341755     A.U. after   20 cycles

 The electronic state is 2-A.
 Alpha  occ. eigenvalues --  -38.44301 -38.44130 -38.44105 -38.43840 -38.43699
 Alpha  occ. eigenvalues --  -38.43196 -38.43144  -2.20109  -2.19969  -2.19937
 Alpha  occ. eigenvalues --   -2.19659  -2.19553  -2.19113  -2.19027  -1.13780
 Alpha  occ. eigenvalues --   -1.13765  -1.13755  -1.13653  -1.13641  -1.13618
 Alpha  occ. eigenvalues --   -1.13602  -1.13590  -1.13578  -1.13372  -1.13310
 Alpha  occ. eigenvalues --   -1.13286  -1.13206  -1.13178  -1.13170  -1.12800
 Alpha  occ. eigenvalues --   -1.12762  -1.12741  -1.12697  -1.12689  -1.12667
 Alpha  occ. eigenvalues --   -0.18227  -0.13295  -0.12200  -0.10494
 Alpha virt. eigenvalues --   -0.05866  -0.05660  -0.04579  -0.03323  -0.02660
 Alpha virt. eigenvalues --   -0.02459  -0.01675  -0.01315  -0.00683  -0.00443
 Alpha virt. eigenvalues --   -0.00034   0.00322   0.00730   0.00771   0.00861

  Beta  occ. eigenvalues --  -38.44288 -38.44123 -38.44103 -38.43840 -38.43597
  Beta  occ. eigenvalues --  -38.43194 -38.43098  -2.20087  -2.19960  -2.19936
  Beta  occ. eigenvalues --   -2.19661  -2.19363  -2.19029  -2.19024  -1.13754
  Beta  occ. eigenvalues --   -1.13747  -1.13738  -1.13648  -1.13617  -1.13602
  Beta  occ. eigenvalues --   -1.13589  -1.13589  -1.13579  -1.13367  -1.13303
  Beta  occ. eigenvalues --   -1.13290  -1.13079  -1.13046  -1.13037  -1.12739
  Beta  occ. eigenvalues --   -1.12720  -1.12680  -1.12679  -1.12672  -1.12662
  Beta  occ. eigenvalues --   -0.17553  -0.13095  -0.11997
  Beta virt. eigenvalues --   -0.06610  -0.05825  -0.05537  -0.04549  -0.02589
  Beta virt. eigenvalues --   -0.01981  -0.01594  -0.01410  -0.01221  -0.00712
  Beta virt. eigenvalues --   -0.00466   0.00149   0.00379   0.00775   0.00823

 Mulliken charges and spin densities:
               1          2
     1  Na  -0.036682   0.257982
     2  Na  -0.062166  -0.022415
     3  Na   0.003572   0.031415
     4  Na   0.233056  -0.036104
     5  Na  -0.554442   0.734413
     6  Na   0.141500   0.040963
     7  Na   0.275162  -0.006255
 Sum of Mulliken charges =  -0.00000   1.00000

 Dipole moment (field-independent basis, Debye):
    X=             -0.1841    Y=             -0.2542    Z=              0.1200  Tot=              0.3361
 Quadrupole moment (field-independent basis, Debye-Ang):
   XX=            -54.8761   YY=            -62.8801   ZZ=            -75.8109
   XY=             -0.5284   XZ=              2.5303   YZ=             -0.5871

 Normal termination of Gaussian 16 at Thu Dec  7 15:32:15 2023.
