 Gaussian 16, Revision B.01,
 Gaussian 16:  ES64L-G16RevB.01 20-Dec-2017

 -------------------------
 #P B3LYP/6-311+g(d) force
 -------------------------

 -----
 DPGEN
 -----
 Symbolic Z-matrix:
 Charge =  0 Multiplicity = 2

                         Standard orientation:
 ---------------------------------------------------------------------
 Center     Atomic      Atomic             Coordinates (Angstroms)
 Number     Number       Type             X           Y           Z
 ---------------------------------------------------------------------
      1         11           0        0.645749    2.163095    0.322484
      2         11           0        3.060879    0.365544   -1.153279
      3         11           0       -2.355712    3.049007   -0.054814
      4         11           0       -2.348477   -0.079648   -0.119485
      5         11           0        2.630793   -0.496360    1.483865
      6         11           0        0.608403   -1.903904   -0.724517
      7         11           0       -2.241635   -3.097733    0.245747
 ---------------------------------------------------------------------

 SCF Done:  E(UB3LYP) =  -1136.11804303     A.U. after   23 cycles

 The electronic state is 2-A.
 Alpha  occ. eigenvalues --  -38.44280 -38.44125 -38.44094 -38.44060 -38.43989
 Alpha  occ. eigenvalues --  -38.43865 -38.43754  -2.20155  -2.20050  -2.19990
 Alpha  occ. eigenvalues --   -2.19970  -2.19848  -2.19776  -2.19706  -1.13881
 Alpha  occ. eigenvalues --   -1.13851  -1.13841  -1.13809  -1.13778  -1.13681
 Alpha  occ. eigenvalues --   -1.13679  -1.13668  -1.13648  -1.13639  -1.13613
 Alpha  occ. eigenvalues --   -1.13585  -1.13489  -1.13482  -1.13478  -1.13467
 Alpha  occ. eigenvalues --   -1.13442  -1.13371  -1.13327  -1.13310  -1.13285
 Alpha  occ. eigenvalues --   -0.18269  -0.14328  -0.13273  -0.09463
 Alpha virt. eigenvalues --   -0.06356  -0.05914  -0.05333  -0.03355  -0.02410
 Alpha virt. eigenvalues --   -0.02051  -0.01741  -0.01375  -0.01252  -0.00439
 Alpha virt. eigenvalues --   -0.00036   0.00289   0.00404   0.00611   0.00754

  Beta  occ. eigenvalues --  -38.44265 -38.44122 -38.44058 -38.44054 -38.43990
  Beta  occ. eigenvalues --  -38.43835 -38.43692  -2.20132  -2.19985  -2.19979
  Beta  occ. eigenvalues --   -2.19966  -2.19850  -2.19726  -2.19594  -1.13843
  Beta  occ. eigenvalues --   -1.13835  -1.13804  -1.13778  -1.13763  -1.13672
  Beta  occ. eigenvalues --   -1.13641  -1.13637  -1.13633  -1.13604  -1.13593
  Beta  occ. eigenvalues --   -1.13583  -1.13489  -1.13480  -1.13445  -1.13437
  Beta  occ. eigenvalues --   -1.13427  -1.13313  -1.13255  -1.13224  -1.13206
  Beta  occ. eigenvalues --   -0.17725  -0.14070  -0.13181
  Beta virt. eigenvalues --   -0.06172  -0.05767  -0.05572  -0.05284  -0.02809
  Beta virt. eigenvalues --   -0.02120  -0.01844  -0.01665  -0.01218  -0.00732
  Beta virt. eigenvalues --   -0.00269   0.00286   0.00454   0.00656   0.00746

 Mulliken charges and spin densities:
               1          2
     1  Na  -1.063606   0.151811
     2  Na   1.071014   0.279481
     3  Na   1.199364  -0.025903
     4  Na  -1.459748  -0.004840
     5  Na   0.267764   0.320734
     6  Na  -1.112700   0.270316
     7  Na   1.097912   0.008401
 Sum of Mulliken charges =  -0.00000   1.00000

 Dipole moment (field-independent basis, Debye):
    X=             -0.9498    Y=              0.0395    Z=             -0.0715  Tot=              0.9533
 Quadrupole moment (field-independent basis, Debye-Ang):
   XX=            -57.6990   YY=            -57.7161   ZZ=            -79.7333
   XY=              0.7774   XZ=             -1.6795   YZ=             -3.0554

 Normal termination of Gaussian 16 at Tue Dec  5 21:47:45 2023.
