 Gaussian 16, Revision B.01,
 Gaussian 16:  ES64L-G16RevB.01 20-Dec-2017

 -------------------------
 #P B3LYP/6-311+g(d) force
 -------------------------

 -----
 DPGEN
 -----
 Symbolic Z-matrix:
 Charge =  0 Multiplicity = 2

                         Standard orientation:
 ---------------------------------------------------------------------
 Center     Atomic      Atomic             Coordinates (Angstroms)
 Number     Number       Type             X           Y           Z
 ---------------------------------------------------------------------
      1         11           0        0.139624    0.018372    2.211405
      2         11           0       -0.683077    3.044747    0.172202
      3         11           0        0.002997    0.348515   -1.673520
      4         11           0        3.010707    1.160175   -0.541594
      5         11           0       -1.251740   -2.403116   -0.658551
      6         11           0        1.945092   -2.209119    0.424858
      7         11           0       -3.163604    0.040427    0.065199
 ---------------------------------------------------------------------

 SCF Done:  E(UB3LYP) =  -1136.13483228     A.U. after   20 cycles

 The electronic state is 2-A.
 Alpha  occ. eigenvalues --  -38.44198 -38.44123 -38.44025 -38.43714 -38.43423
 Alpha  occ. eigenvalues --  -38.43396 -38.43105  -2.19998  -2.19978  -2.19852
 Alpha  occ. eigenvalues --   -2.19514  -2.19356  -2.19272  -2.19008  -1.13690
 Alpha  occ. eigenvalues --   -1.13646  -1.13636  -1.13627  -1.13606  -1.13602
 Alpha  occ. eigenvalues --   -1.13538  -1.13520  -1.13485  -1.13210  -1.13182
 Alpha  occ. eigenvalues --   -1.13142  -1.13046  -1.13007  -1.12977  -1.12954
 Alpha  occ. eigenvalues --   -1.12936  -1.12906  -1.12690  -1.12655  -1.12630
 Alpha  occ. eigenvalues --   -0.18419  -0.12797  -0.12355  -0.11170
 Alpha virt. eigenvalues --   -0.05788  -0.05001  -0.04483  -0.03299  -0.03108
 Alpha virt. eigenvalues --   -0.02905  -0.01558  -0.01111  -0.00325  -0.00214
 Alpha virt. eigenvalues --    0.00007   0.00358   0.00798   0.00857   0.00877

  Beta  occ. eigenvalues --  -38.44184 -38.44025 -38.44023 -38.43712 -38.43415
  Beta  occ. eigenvalues --  -38.43337 -38.43092  -2.19974  -2.19854  -2.19794
  Beta  occ. eigenvalues --   -2.19513  -2.19260  -2.19248  -2.18986  -1.13662
  Beta  occ. eigenvalues --   -1.13627  -1.13614  -1.13543  -1.13515  -1.13507
  Beta  occ. eigenvalues --   -1.13487  -1.13478  -1.13464  -1.13203  -1.13171
  Beta  occ. eigenvalues --   -1.13140  -1.12977  -1.12940  -1.12930  -1.12916
  Beta  occ. eigenvalues --   -1.12902  -1.12890  -1.12666  -1.12640  -1.12605
  Beta  occ. eigenvalues --   -0.17693  -0.12549  -0.12122
  Beta virt. eigenvalues --   -0.07250  -0.05762  -0.04864  -0.04459  -0.02545
  Beta virt. eigenvalues --   -0.02370  -0.01879  -0.01462  -0.01017  -0.00358
  Beta virt. eigenvalues --   -0.00185   0.00106   0.00392   0.00816   0.00901

 Mulliken charges and spin densities:
               1          2
     1  Na  -0.385280   0.641479
     2  Na  -0.069580  -0.037319
     3  Na   0.035145   0.300446
     4  Na   0.056578  -0.047539
     5  Na   0.205258   0.038970
     6  Na   0.114727   0.102312
     7  Na   0.043153   0.001651
 Sum of Mulliken charges =  -0.00000   1.00000

 Dipole moment (field-independent basis, Debye):
    X=              0.0850    Y=              0.3834    Z=              0.2600  Tot=              0.4710
 Quadrupole moment (field-independent basis, Debye-Ang):
   XX=            -58.0566   YY=            -64.0269   ZZ=            -72.3271
   XY=             -0.3307   XZ=             -0.8173   YZ=              0.6740

 Normal termination of Gaussian 16 at Tue Dec  5 16:51:11 2023.
