 Gaussian 16, Revision B.01,
 Gaussian 16:  ES64L-G16RevB.01 20-Dec-2017

 -------------------------
 #P B3LYP/6-311+g(d) force
 -------------------------

 -----
 DPGEN
 -----
 Symbolic Z-matrix:
 Charge =  0 Multiplicity = 2

                         Standard orientation:
 ---------------------------------------------------------------------
 Center     Atomic      Atomic             Coordinates (Angstroms)
 Number     Number       Type             X           Y           Z
 ---------------------------------------------------------------------
      1         11           0       -3.143213   -0.155321    0.224075
      2         11           0       -0.014772    0.030083    2.174743
      3         11           0        0.216640   -0.203870   -1.712090
      4         11           0        2.121367    1.810854    0.075285
      5         11           0       -1.159840   -2.714477   -0.330895
      6         11           0        2.921792   -1.623349    0.040829
      7         11           0       -0.941974    2.856080   -0.471947
 ---------------------------------------------------------------------

 SCF Done:  E(UB3LYP) =  -1136.13687198     A.U. after   19 cycles

 The electronic state is 2-A.
 Alpha  occ. eigenvalues --  -38.44030 -38.44006 -38.43930 -38.43624 -38.43496
 Alpha  occ. eigenvalues --  -38.43382 -38.43208  -2.19885  -2.19827  -2.19726
 Alpha  occ. eigenvalues --   -2.19475  -2.19390  -2.19339  -2.19049  -1.13548
 Alpha  occ. eigenvalues --   -1.13523  -1.13509  -1.13495  -1.13487  -1.13472
 Alpha  occ. eigenvalues --   -1.13400  -1.13382  -1.13375  -1.13207  -1.13126
 Alpha  occ. eigenvalues --   -1.13110  -1.13096  -1.13063  -1.13015  -1.13001
 Alpha  occ. eigenvalues --   -1.12961  -1.12947  -1.12718  -1.12701  -1.12689
 Alpha  occ. eigenvalues --   -0.18471  -0.12999  -0.12296  -0.10986
 Alpha virt. eigenvalues --   -0.05636  -0.05082  -0.04703  -0.03323  -0.02946
 Alpha virt. eigenvalues --   -0.02792  -0.01530  -0.01098  -0.00408  -0.00211
 Alpha virt. eigenvalues --   -0.00035   0.00363   0.00793   0.00866   0.00899

  Beta  occ. eigenvalues --  -38.44003 -38.43931 -38.43931 -38.43616 -38.43489
  Beta  occ. eigenvalues --  -38.43317 -38.43200  -2.19824  -2.19730  -2.19703
  Beta  occ. eigenvalues --   -2.19464  -2.19381  -2.19220  -2.19036  -1.13500
  Beta  occ. eigenvalues --   -1.13479  -1.13471  -1.13426  -1.13397  -1.13390
  Beta  occ. eigenvalues --   -1.13381  -1.13377  -1.13364  -1.13183  -1.13105
  Beta  occ. eigenvalues --   -1.13094  -1.13091  -1.13034  -1.13007  -1.12928
  Beta  occ. eigenvalues --   -1.12883  -1.12863  -1.12701  -1.12693  -1.12674
  Beta  occ. eigenvalues --   -0.17728  -0.12787  -0.12069
  Beta virt. eigenvalues --   -0.07057  -0.05580  -0.05045  -0.04650  -0.02521
  Beta virt. eigenvalues --   -0.02206  -0.01754  -0.01438  -0.01015  -0.00450
  Beta virt. eigenvalues --   -0.00246   0.00103   0.00382   0.00849   0.00870

 Mulliken charges and spin densities:
               1          2
     1  Na   0.044691   0.021030
     2  Na  -0.450636   0.690384
     3  Na  -0.044350   0.421876
     4  Na   0.248602   0.053173
     5  Na   0.133262  -0.094530
     6  Na   0.038092  -0.094823
     7  Na   0.030339   0.002892
 Sum of Mulliken charges =  -0.00000   1.00000

 Dipole moment (field-independent basis, Debye):
    X=             -0.0214    Y=             -0.2487    Z=              0.2230  Tot=              0.3348
 Quadrupole moment (field-independent basis, Debye-Ang):
   XX=            -57.7809   YY=            -63.3827   ZZ=            -73.2000
   XY=             -1.4346   XZ=              0.4303   YZ=             -0.5313

 Normal termination of Gaussian 16 at Thu Dec  7 05:20:17 2023.
