 Gaussian 16, Revision B.01,
 Gaussian 16:  ES64L-G16RevB.01 20-Dec-2017

 -------------------------
 #P B3LYP/6-311+g(d) force
 -------------------------

 -----
 DPGEN
 -----
 Symbolic Z-matrix:
 Charge =  0 Multiplicity = 2

                         Standard orientation:
 ---------------------------------------------------------------------
 Center     Atomic      Atomic             Coordinates (Angstroms)
 Number     Number       Type             X           Y           Z
 ---------------------------------------------------------------------
      1         11           0       -1.568965   -1.445508    0.325117
      2         11           0        1.417293   -1.432122    1.459935
      3         11           0        3.304498   -1.498333   -1.445745
      4         11           0        3.725352    1.385439    0.460396
      5         11           0        0.220560    1.945947   -0.454553
      6         11           0       -2.741959    2.274906    0.061792
      7         11           0       -4.356779   -1.230330   -0.406941
 ---------------------------------------------------------------------

 SCF Done:  E(UB3LYP) =  -1136.11212832     A.U. after   26 cycles

 The electronic state is 2-A.
 Alpha  occ. eigenvalues --  -38.45760 -38.45224 -38.44251 -38.43840 -38.43793
 Alpha  occ. eigenvalues --  -38.43070 -38.42886  -2.21542  -2.21020  -2.20072
 Alpha  occ. eigenvalues --   -2.19718  -2.19656  -2.18984  -2.18734  -1.15216
 Alpha  occ. eigenvalues --   -1.15189  -1.15177  -1.14699  -1.14667  -1.14645
 Alpha  occ. eigenvalues --   -1.13781  -1.13737  -1.13683  -1.13423  -1.13386
 Alpha  occ. eigenvalues --   -1.13362  -1.13334  -1.13279  -1.13255  -1.12676
 Alpha  occ. eigenvalues --   -1.12644  -1.12594  -1.12407  -1.12397  -1.12377
 Alpha  occ. eigenvalues --   -0.17346  -0.14566  -0.11551  -0.10715
 Alpha virt. eigenvalues --   -0.07165  -0.05728  -0.04018  -0.03367  -0.03095
 Alpha virt. eigenvalues --   -0.02349  -0.01807  -0.01704  -0.00994  -0.00621
 Alpha virt. eigenvalues --   -0.00208   0.00065   0.00205   0.00338   0.00480

  Beta  occ. eigenvalues --  -38.45740 -38.45201 -38.44238 -38.43778 -38.43725
  Beta  occ. eigenvalues --  -38.43044 -38.42875  -2.21507  -2.20980  -2.20051
  Beta  occ. eigenvalues --   -2.19606  -2.19529  -2.18946  -2.18715  -1.15194
  Beta  occ. eigenvalues --   -1.15162  -1.15141  -1.14667  -1.14643  -1.14613
  Beta  occ. eigenvalues --   -1.13757  -1.13723  -1.13665  -1.13335  -1.13304
  Beta  occ. eigenvalues --   -1.13286  -1.13254  -1.13192  -1.13166  -1.12629
  Beta  occ. eigenvalues --   -1.12593  -1.12560  -1.12393  -1.12384  -1.12359
  Beta  occ. eigenvalues --   -0.16739  -0.13963  -0.11153
  Beta virt. eigenvalues --   -0.07220  -0.07052  -0.05597  -0.03447  -0.03161
  Beta virt. eigenvalues --   -0.02798  -0.01959  -0.01637  -0.01299  -0.00794
  Beta virt. eigenvalues --   -0.00234  -0.00039   0.00087   0.00328   0.00397

 Mulliken charges and spin densities:
               1          2
     1  Na  -1.775903   0.318626
     2  Na   0.389763  -0.223034
     3  Na   0.370988   0.163533
     4  Na   0.462398   0.367261
     5  Na  -0.822363  -0.144775
     6  Na   0.429929   0.089075
     7  Na   0.945188   0.429314
 Sum of Mulliken charges =  -0.00000   1.00000

 Dipole moment (field-independent basis, Debye):
    X=              1.6404    Y=              0.0026    Z=             -0.2340  Tot=              1.6570
 Quadrupole moment (field-independent basis, Debye-Ang):
   XX=            -57.3452   YY=            -74.5381   ZZ=            -65.6078
   XY=             -4.3646   XZ=              1.0675   YZ=              5.6346

 Normal termination of Gaussian 16 at Mon Dec  4 03:01:28 2023.
