 Gaussian 16, Revision B.01,
 Gaussian 16:  ES64L-G16RevB.01 20-Dec-2017

 -------------------------
 #P B3LYP/6-311+g(d) force
 -------------------------

 -----
 DPGEN
 -----
 Symbolic Z-matrix:
 Charge =  0 Multiplicity = 2

                         Standard orientation:
 ---------------------------------------------------------------------
 Center     Atomic      Atomic             Coordinates (Angstroms)
 Number     Number       Type             X           Y           Z
 ---------------------------------------------------------------------
      1         11           0        0.005614    0.039608   -1.052326
      2         11           0        1.584193   -1.676243    1.677690
      3         11           0        3.136061   -1.292322   -1.346996
      4         11           0        2.592589    1.713779    0.420701
      5         11           0       -0.566918    3.018507    0.358200
      6         11           0       -4.212676    0.359782   -0.322231
      7         11           0       -2.538863   -2.163111    0.264962
 ---------------------------------------------------------------------

 SCF Done:  E(UB3LYP) =  -1136.12051340     A.U. after   22 cycles

 The electronic state is 2-A.
 Alpha  occ. eigenvalues --  -38.45044 -38.44577 -38.44526 -38.44349 -38.43531
 Alpha  occ. eigenvalues --  -38.43351 -38.42971  -2.20840  -2.20424  -2.20422
 Alpha  occ. eigenvalues --   -2.20163  -2.19374  -2.19227  -2.18783  -1.14528
 Alpha  occ. eigenvalues --   -1.14495  -1.14465  -1.14144  -1.14119  -1.14103
 Alpha  occ. eigenvalues --   -1.14075  -1.14045  -1.14040  -1.13837  -1.13824
 Alpha  occ. eigenvalues --   -1.13798  -1.13033  -1.13022  -1.13006  -1.12891
 Alpha  occ. eigenvalues --   -1.12871  -1.12837  -1.12463  -1.12444  -1.12418
 Alpha  occ. eigenvalues --   -0.17695  -0.14040  -0.11902  -0.10017
 Alpha virt. eigenvalues --   -0.06948  -0.05801  -0.04552  -0.03215  -0.02755
 Alpha virt. eigenvalues --   -0.02429  -0.01771  -0.01612  -0.00906  -0.00626
 Alpha virt. eigenvalues --   -0.00323   0.00107   0.00357   0.00606   0.00687

  Beta  occ. eigenvalues --  -38.45026 -38.44567 -38.44515 -38.44347 -38.43467
  Beta  occ. eigenvalues --  -38.43289 -38.42971  -2.20805  -2.20408  -2.20406
  Beta  occ. eigenvalues --   -2.20160  -2.19254  -2.19114  -2.18785  -1.14507
  Beta  occ. eigenvalues --   -1.14470  -1.14442  -1.14129  -1.14086  -1.14073
  Beta  occ. eigenvalues --   -1.14067  -1.14034  -1.14022  -1.13838  -1.13824
  Beta  occ. eigenvalues --   -1.13774  -1.12949  -1.12938  -1.12921  -1.12812
  Beta  occ. eigenvalues --   -1.12789  -1.12758  -1.12466  -1.12442  -1.12416
  Beta  occ. eigenvalues --   -0.17162  -0.13791  -0.11668
  Beta virt. eigenvalues --   -0.06728  -0.06351  -0.05656  -0.04228  -0.02961
  Beta virt. eigenvalues --   -0.02548  -0.01949  -0.01483  -0.01163  -0.00749
  Beta virt. eigenvalues --   -0.00381  -0.00038   0.00229   0.00548   0.00705

 Mulliken charges and spin densities:
               1          2
     1  Na   0.051948   0.258075
     2  Na  -0.507221   0.352596
     3  Na   0.324430   0.245760
     4  Na   0.267671   0.080217
     5  Na  -0.257343  -0.083124
     6  Na   0.348099   0.107821
     7  Na  -0.227584   0.038654
 Sum of Mulliken charges =  -0.00000   1.00000

 Dipole moment (field-independent basis, Debye):
    X=             -0.7959    Y=              0.2111    Z=              0.3938  Tot=              0.9127
 Quadrupole moment (field-independent basis, Debye-Ang):
   XX=            -52.8897   YY=            -69.0616   ZZ=            -74.2149
   XY=             -0.9071   XZ=              2.7891   YZ=              1.5427

 Normal termination of Gaussian 16 at Tue Dec  5 18:42:44 2023.
