 Gaussian 16, Revision B.01,
 Gaussian 16:  ES64L-G16RevB.01 20-Dec-2017

 -------------------------
 #P B3LYP/6-311+g(d) force
 -------------------------

 -----
 DPGEN
 -----
 Symbolic Z-matrix:
 Charge =  0 Multiplicity = 2

                         Standard orientation:
 ---------------------------------------------------------------------
 Center     Atomic      Atomic             Coordinates (Angstroms)
 Number     Number       Type             X           Y           Z
 ---------------------------------------------------------------------
      1         11           0       -3.026319   -0.651756   -1.619083
      2         11           0       -2.525759   -2.046412    1.158973
      3         11           0        3.800823   -1.514334   -0.015408
      4         11           0        0.501126    1.392864    1.853035
      5         11           0        1.948306    1.848435   -1.201616
      6         11           0       -1.564411    2.684905    0.143636
      7         11           0        0.866235   -1.713703   -0.319536
 ---------------------------------------------------------------------

 SCF Done:  E(UB3LYP) =  -1136.11903080     A.U. after   21 cycles

 The electronic state is 2-A.
 Alpha  occ. eigenvalues --  -38.44790 -38.44445 -38.44229 -38.44114 -38.43821
 Alpha  occ. eigenvalues --  -38.43755 -38.43519  -2.20586  -2.20259  -2.20053
 Alpha  occ. eigenvalues --   -2.19919  -2.19640  -2.19620  -2.19414  -1.14274
 Alpha  occ. eigenvalues --   -1.14261  -1.14178  -1.13998  -1.13905  -1.13881
 Alpha  occ. eigenvalues --   -1.13796  -1.13699  -1.13675  -1.13611  -1.13577
 Alpha  occ. eigenvalues --   -1.13564  -1.13302  -1.13296  -1.13295  -1.13277
 Alpha  occ. eigenvalues --   -1.13264  -1.13235  -1.13080  -1.13054  -1.13019
 Alpha  occ. eigenvalues --   -0.17383  -0.13399  -0.12445  -0.10107
 Alpha virt. eigenvalues --   -0.06422  -0.05493  -0.04825  -0.03610  -0.02921
 Alpha virt. eigenvalues --   -0.02273  -0.02053  -0.01358  -0.00821  -0.00273
 Alpha virt. eigenvalues --    0.00001   0.00215   0.00238   0.00478   0.00666

  Beta  occ. eigenvalues --  -38.44757 -38.44451 -38.44221 -38.44106 -38.43776
  Beta  occ. eigenvalues --  -38.43744 -38.43461  -2.20525  -2.20272  -2.20042
  Beta  occ. eigenvalues --   -2.19906  -2.19604  -2.19553  -2.19308  -1.14229
  Beta  occ. eigenvalues --   -1.14218  -1.14135  -1.14008  -1.13911  -1.13886
  Beta  occ. eigenvalues --   -1.13770  -1.13680  -1.13672  -1.13595  -1.13569
  Beta  occ. eigenvalues --   -1.13545  -1.13290  -1.13268  -1.13237  -1.13221
  Beta  occ. eigenvalues --   -1.13218  -1.13206  -1.13012  -1.12980  -1.12938
  Beta  occ. eigenvalues --   -0.16806  -0.13141  -0.12317
  Beta virt. eigenvalues --   -0.06656  -0.06152  -0.05364  -0.04224  -0.03355
  Beta virt. eigenvalues --   -0.02392  -0.02001  -0.01568  -0.01260  -0.00690
  Beta virt. eigenvalues --   -0.00009   0.00130   0.00308   0.00389   0.00639

 Mulliken charges and spin densities:
               1          2
     1  Na   0.189131   0.277026
     2  Na   0.346675  -0.079548
     3  Na   0.361456  -0.081163
     4  Na   0.068045   0.448951
     5  Na  -0.068405   0.138091
     6  Na   0.118062   0.143610
     7  Na  -1.014964   0.153034
 Sum of Mulliken charges =  -0.00000   1.00000

 Dipole moment (field-independent basis, Debye):
    X=              0.7328    Y=              0.2405    Z=              0.1666  Tot=              0.7891
 Quadrupole moment (field-independent basis, Debye-Ang):
   XX=            -56.4089   YY=            -68.9431   ZZ=            -70.8524
   XY=             -1.2165   XZ=             -0.7551   YZ=             -3.2299

 Normal termination of Gaussian 16 at Sun Dec  3 17:17:59 2023.
