 Gaussian 16, Revision B.01,
 Gaussian 16:  ES64L-G16RevB.01 20-Dec-2017

 -------------------------
 #P B3LYP/6-311+g(d) force
 -------------------------

 -----
 DPGEN
 -----
 Symbolic Z-matrix:
 Charge =  0 Multiplicity = 2

                         Standard orientation:
 ---------------------------------------------------------------------
 Center     Atomic      Atomic             Coordinates (Angstroms)
 Number     Number       Type             X           Y           Z
 ---------------------------------------------------------------------
      1         11           0        1.724214    0.719990   -0.433643
      2         11           0        0.814281    3.911198    0.531982
      3         11           0       -3.928089   -0.975557    0.409144
      4         11           0       -0.946438   -1.520255   -1.315857
      5         11           0       -0.239168   -1.726540    1.346981
      6         11           0       -1.362700    1.603613   -0.588503
      7         11           0        3.937900   -2.012448    0.049897
 ---------------------------------------------------------------------

 SCF Done:  E(UB3LYP) =  -1136.11583557     A.U. after   24 cycles

 The electronic state is 2-A.
 Alpha  occ. eigenvalues --  -38.45937 -38.44340 -38.43986 -38.43958 -38.43630
 Alpha  occ. eigenvalues --  -38.43584 -38.43075  -2.21789  -2.20099  -2.19960
 Alpha  occ. eigenvalues --   -2.19807  -2.19500  -2.19447  -2.18991  -1.15612
 Alpha  occ. eigenvalues --   -1.15464  -1.15329  -1.13768  -1.13761  -1.13710
 Alpha  occ. eigenvalues --   -1.13684  -1.13613  -1.13523  -1.13467  -1.13460
 Alpha  occ. eigenvalues --   -1.13412  -1.13222  -1.13187  -1.13131  -1.13105
 Alpha  occ. eigenvalues --   -1.13102  -1.13042  -1.12716  -1.12684  -1.12574
 Alpha  occ. eigenvalues --   -0.18330  -0.13391  -0.12552  -0.09891
 Alpha virt. eigenvalues --   -0.07093  -0.05529  -0.04849  -0.03051  -0.02767
 Alpha virt. eigenvalues --   -0.02462  -0.01674  -0.01403  -0.01154  -0.00653
 Alpha virt. eigenvalues --   -0.00105   0.00024   0.00293   0.00510   0.00525

  Beta  occ. eigenvalues --  -38.45940 -38.44305 -38.43931 -38.43902 -38.43609
  Beta  occ. eigenvalues --  -38.43570 -38.43062  -2.21796  -2.20034  -2.19861
  Beta  occ. eigenvalues --   -2.19703  -2.19481  -2.19406  -2.18974  -1.15600
  Beta  occ. eigenvalues --   -1.15468  -1.15333  -1.13723  -1.13714  -1.13669
  Beta  occ. eigenvalues --   -1.13625  -1.13532  -1.13442  -1.13394  -1.13385
  Beta  occ. eigenvalues --   -1.13344  -1.13201  -1.13141  -1.13120  -1.13078
  Beta  occ. eigenvalues --   -1.13073  -1.13024  -1.12708  -1.12626  -1.12573
  Beta  occ. eigenvalues --   -0.17729  -0.13059  -0.12290
  Beta virt. eigenvalues --   -0.06785  -0.06415  -0.05311  -0.04556  -0.02731
  Beta virt. eigenvalues --   -0.02481  -0.02185  -0.01566  -0.01028  -0.00767
  Beta virt. eigenvalues --   -0.00338   0.00006   0.00172   0.00485   0.00619

 Mulliken charges and spin densities:
               1          2
     1  Na  -0.851217   0.051427
     2  Na   0.506330   0.109373
     3  Na   0.256381   0.455678
     4  Na   0.435211   0.000086
     5  Na  -0.314252   0.104583
     6  Na  -0.331271   0.101377
     7  Na   0.298818   0.177475
 Sum of Mulliken charges =  -0.00000   1.00000

 Dipole moment (field-independent basis, Debye):
    X=             -0.1746    Y=             -0.5072    Z=             -0.3030  Tot=              0.6160
 Quadrupole moment (field-independent basis, Debye-Ang):
   XX=            -65.3974   YY=            -64.4599   ZZ=            -69.5969
   XY=             -0.4882   XZ=              1.4635   YZ=              1.8786

 Normal termination of Gaussian 16 at Tue Dec  5 23:32:56 2023.
