 Gaussian 16, Revision B.01,
 Gaussian 16:  ES64L-G16RevB.01 20-Dec-2017

 -------------------------
 #P B3LYP/6-311+g(d) force
 -------------------------

 -----
 DPGEN
 -----
 Symbolic Z-matrix:
 Charge =  0 Multiplicity = 2

                         Standard orientation:
 ---------------------------------------------------------------------
 Center     Atomic      Atomic             Coordinates (Angstroms)
 Number     Number       Type             X           Y           Z
 ---------------------------------------------------------------------
      1         11           0        2.271663    1.837379   -0.472094
      2         11           0       -0.880795    1.844422   -1.219695
      3         11           0       -2.865587    0.937791    0.867652
      4         11           0       -2.668318   -1.779157   -0.702655
      5         11           0       -0.085284   -0.155118    2.130381
      6         11           0        3.493096   -0.960270    0.447818
      7         11           0        0.735224   -1.725047   -1.051406
 ---------------------------------------------------------------------

 SCF Done:  E(UB3LYP) =  -1136.12223409     A.U. after   22 cycles

 The electronic state is 2-A.
 Alpha  occ. eigenvalues --  -38.44855 -38.44696 -38.44517 -38.43939 -38.43709
 Alpha  occ. eigenvalues --  -38.43525 -38.43028  -2.20698  -2.20548  -2.20443
 Alpha  occ. eigenvalues --   -2.19782  -2.19566  -2.19392  -2.18924  -1.14370
 Alpha  occ. eigenvalues --   -1.14364  -1.14336  -1.14236  -1.14194  -1.14171
 Alpha  occ. eigenvalues --   -1.14130  -1.14090  -1.14069  -1.13454  -1.13433
 Alpha  occ. eigenvalues --   -1.13421  -1.13254  -1.13221  -1.13211  -1.13077
 Alpha  occ. eigenvalues --   -1.13055  -1.13018  -1.12607  -1.12585  -1.12541
 Alpha  occ. eigenvalues --   -0.18587  -0.14295  -0.11457  -0.11230
 Alpha virt. eigenvalues --   -0.06773  -0.05554  -0.04424  -0.03440  -0.02668
 Alpha virt. eigenvalues --   -0.02497  -0.02329  -0.01199  -0.00441  -0.00220
 Alpha virt. eigenvalues --    0.00188   0.00198   0.00318   0.00703   0.00783

  Beta  occ. eigenvalues --  -38.44853 -38.44604 -38.44498 -38.43922 -38.43701
  Beta  occ. eigenvalues --  -38.43500 -38.43000  -2.20695  -2.20411  -2.20378
  Beta  occ. eigenvalues --   -2.19752  -2.19554  -2.19348  -2.18874  -1.14370
  Beta  occ. eigenvalues --   -1.14363  -1.14326  -1.14145  -1.14097  -1.14076
  Beta  occ. eigenvalues --   -1.14075  -1.14055  -1.13995  -1.13428  -1.13411
  Beta  occ. eigenvalues --   -1.13395  -1.13238  -1.13207  -1.13204  -1.13051
  Beta  occ. eigenvalues --   -1.13008  -1.12984  -1.12565  -1.12555  -1.12500
  Beta  occ. eigenvalues --   -0.17896  -0.14132  -0.11151
  Beta virt. eigenvalues --   -0.07349  -0.06601  -0.05568  -0.03662  -0.03191
  Beta virt. eigenvalues --   -0.02249  -0.02060  -0.01585  -0.01111  -0.00236
  Beta virt. eigenvalues --   -0.00137   0.00212   0.00241   0.00507   0.00772

 Mulliken charges and spin densities:
               1          2
     1  Na  -0.251531  -0.013492
     2  Na  -0.594259   0.107700
     3  Na   1.269253   0.262887
     4  Na  -0.309756   0.010398
     5  Na  -0.754816   0.371191
     6  Na   1.238706   0.092354
     7  Na  -0.597597   0.168962
 Sum of Mulliken charges =  -0.00000   1.00000

 Dipole moment (field-independent basis, Debye):
    X=              0.4703    Y=             -0.2734    Z=              0.4857  Tot=              0.7292
 Quadrupole moment (field-independent basis, Debye-Ang):
   XX=            -48.1407   YY=            -76.6705   ZZ=            -71.2775
   XY=             -0.9232   XZ=              1.2884   YZ=              0.5609

 Normal termination of Gaussian 16 at Tue Dec  5 19:00:16 2023.
