 Gaussian 16, Revision B.01,
 Gaussian 16:  ES64L-G16RevB.01 20-Dec-2017

 -------------------------
 #P B3LYP/6-311+g(d) force
 -------------------------

 -----
 DPGEN
 -----
 Symbolic Z-matrix:
 Charge =  0 Multiplicity = 2

                         Standard orientation:
 ---------------------------------------------------------------------
 Center     Atomic      Atomic             Coordinates (Angstroms)
 Number     Number       Type             X           Y           Z
 ---------------------------------------------------------------------
      1         11           0       -3.174608   -1.404284   -0.289851
      2         11           0       -6.979879    0.050301    0.481646
      3         11           0        0.113543   -1.070109    0.253356
      4         11           0        3.623739    0.364957    0.647574
      5         11           0       -9.405153    1.374940   -0.475910
      6         11           0        6.858558   -0.708027   -0.531658
      7         11           0        8.963800    1.392222   -0.085158
 ---------------------------------------------------------------------

 SCF Done:  E(UB3LYP) =  -1136.10490389     A.U. after   18 cycles

 The electronic state is 2-A.
 Alpha  occ. eigenvalues --  -38.45330 -38.45151 -38.44747 -38.44402 -38.44369
 Alpha  occ. eigenvalues --  -38.44047 -38.43927  -2.21145  -2.20938  -2.20564
 Alpha  occ. eigenvalues --   -2.20192  -2.20187  -2.19799  -2.19735  -1.14834
 Alpha  occ. eigenvalues --   -1.14778  -1.14773  -1.14591  -1.14590  -1.14536
 Alpha  occ. eigenvalues --   -1.14228  -1.14223  -1.14211  -1.13923  -1.13842
 Alpha  occ. eigenvalues --   -1.13840  -1.13823  -1.13822  -1.13813  -1.13489
 Alpha  occ. eigenvalues --   -1.13488  -1.13442  -1.13389  -1.13388  -1.13374
 Alpha  occ. eigenvalues --   -0.15291  -0.14179  -0.13061  -0.11591
 Alpha virt. eigenvalues --   -0.06919  -0.05549  -0.04161  -0.03501  -0.02922
 Alpha virt. eigenvalues --   -0.02857  -0.02413  -0.02128  -0.01808  -0.01307
 Alpha virt. eigenvalues --   -0.00867  -0.00659  -0.00314   0.00277   0.00541

  Beta  occ. eigenvalues --  -38.45271 -38.45057 -38.44754 -38.44343 -38.44332
  Beta  occ. eigenvalues --  -38.44067 -38.43932  -2.21035  -2.20764  -2.20581
  Beta  occ. eigenvalues --   -2.20140  -2.20061  -2.19843  -2.19748  -1.14764
  Beta  occ. eigenvalues --   -1.14703  -1.14698  -1.14472  -1.14470  -1.14423
  Beta  occ. eigenvalues --   -1.14241  -1.14234  -1.14192  -1.13893  -1.13789
  Beta  occ. eigenvalues --   -1.13789  -1.13753  -1.13752  -1.13733  -1.13524
  Beta  occ. eigenvalues --   -1.13523  -1.13427  -1.13400  -1.13398  -1.13360
  Beta  occ. eigenvalues --   -0.14563  -0.13671  -0.12545
  Beta virt. eigenvalues --   -0.08467  -0.06433  -0.05166  -0.03861  -0.03295
  Beta virt. eigenvalues --   -0.02739  -0.02677  -0.02158  -0.01900  -0.01630
  Beta virt. eigenvalues --   -0.00896  -0.00580  -0.00296  -0.00117   0.00395

 Mulliken charges and spin densities:
               1          2
     1  Na  -0.199586   0.378260
     2  Na  -0.281106  -0.025432
     3  Na  -0.066308  -0.042226
     4  Na   0.314217   0.312806
     5  Na   0.198311   0.112286
     6  Na  -0.102020   0.047460
     7  Na   0.136493   0.216846
 Sum of Mulliken charges =  -0.00000   1.00000

 Dipole moment (field-independent basis, Debye):
    X=              2.3441    Y=              0.8927    Z=             -0.1501  Tot=              2.5128
 Quadrupole moment (field-independent basis, Debye-Ang):
   XX=            -36.0846   YY=            -67.4186   ZZ=            -73.7157
   XY=              2.4034   XZ=              4.4946   YZ=              1.1061

 Normal termination of Gaussian 16 at Sun Dec  3 15:23:54 2023.
