 Gaussian 16, Revision B.01,
 Gaussian 16:  ES64L-G16RevB.01 20-Dec-2017

 -------------------------
 #P B3LYP/6-311+g(d) force
 -------------------------

 -----
 DPGEN
 -----
 Symbolic Z-matrix:
 Charge =  0 Multiplicity = 2

                         Standard orientation:
 ---------------------------------------------------------------------
 Center     Atomic      Atomic             Coordinates (Angstroms)
 Number     Number       Type             X           Y           Z
 ---------------------------------------------------------------------
      1         11           0       -3.431739   -0.303091    0.183746
      2         11           0        0.230284    0.021879   -1.715420
      3         11           0        2.802130   -1.706241    0.474088
      4         11           0       -0.108109    0.332179    1.770989
      5         11           0       -1.170109    2.488346   -0.095604
      6         11           0       -1.084176   -2.336049   -0.385587
      7         11           0        2.761720    1.502977   -0.232212
 ---------------------------------------------------------------------

 SCF Done:  E(UB3LYP) =  -1136.12887486     A.U. after   21 cycles

 The electronic state is 2-A.
 Alpha  occ. eigenvalues --  -38.44908 -38.44346 -38.44045 -38.43606 -38.43236
 Alpha  occ. eigenvalues --  -38.42958 -38.42949  -2.20733  -2.20193  -2.19862
 Alpha  occ. eigenvalues --   -2.19552  -2.19239  -2.18858  -2.18852  -1.14412
 Alpha  occ. eigenvalues --   -1.14396  -1.14366  -1.13885  -1.13860  -1.13823
 Alpha  occ. eigenvalues --   -1.13526  -1.13519  -1.13498  -1.13267  -1.13206
 Alpha  occ. eigenvalues --   -1.13152  -1.12966  -1.12894  -1.12846  -1.12547
 Alpha  occ. eigenvalues --   -1.12542  -1.12519  -1.12505  -1.12471  -1.12452
 Alpha  occ. eigenvalues --   -0.18885  -0.13660  -0.11892  -0.10675
 Alpha virt. eigenvalues --   -0.06445  -0.05292  -0.03859  -0.03427  -0.02615
 Alpha virt. eigenvalues --   -0.02345  -0.02190  -0.01187  -0.00322  -0.00094
 Alpha virt. eigenvalues --    0.00020   0.00289   0.00709   0.00788   0.00863

  Beta  occ. eigenvalues --  -38.44907 -38.44339 -38.44033 -38.43540 -38.43151
  Beta  occ. eigenvalues --  -38.42952 -38.42936  -2.20734  -2.20184  -2.19842
  Beta  occ. eigenvalues --   -2.19429  -2.19085  -2.18845  -2.18838  -1.14416
  Beta  occ. eigenvalues --   -1.14381  -1.14365  -1.13875  -1.13832  -1.13820
  Beta  occ. eigenvalues --   -1.13510  -1.13497  -1.13484  -1.13184  -1.13119
  Beta  occ. eigenvalues --   -1.13061  -1.12862  -1.12788  -1.12741  -1.12540
  Beta  occ. eigenvalues --   -1.12516  -1.12489  -1.12472  -1.12453  -1.12443
  Beta  occ. eigenvalues --   -0.18170  -0.13421  -0.11610
  Beta virt. eigenvalues --   -0.06822  -0.06353  -0.05249  -0.03837  -0.02703
  Beta virt. eigenvalues --   -0.02107  -0.01850  -0.01305  -0.01113  -0.00346
  Beta virt. eigenvalues --   -0.00057   0.00103   0.00316   0.00773   0.00832

 Mulliken charges and spin densities:
               1          2
     1  Na   0.013246  -0.041318
     2  Na  -0.182398   0.499814
     3  Na  -0.105733   0.065453
     4  Na  -0.502493   0.650289
     5  Na   0.208613  -0.109658
     6  Na   0.269500  -0.004742
     7  Na   0.299265  -0.059838
 Sum of Mulliken charges =  -0.00000   1.00000

 Dipole moment (field-independent basis, Debye):
    X=             -0.0109    Y=              0.1664    Z=              0.1791  Tot=              0.2447
 Quadrupole moment (field-independent basis, Debye-Ang):
   XX=            -48.9529   YY=            -68.4455   ZZ=            -74.8399
   XY=             -0.1247   XZ=              0.1429   YZ=             -1.5430

 Normal termination of Gaussian 16 at Sun Dec  3 21:19:52 2023.
