 Gaussian 16, Revision B.01,
 Gaussian 16:  ES64L-G16RevB.01 20-Dec-2017

 -------------------------
 #P B3LYP/6-311+g(d) force
 -------------------------

 -----
 DPGEN
 -----
 Symbolic Z-matrix:
 Charge =  0 Multiplicity = 2

                         Standard orientation:
 ---------------------------------------------------------------------
 Center     Atomic      Atomic             Coordinates (Angstroms)
 Number     Number       Type             X           Y           Z
 ---------------------------------------------------------------------
      1         11           0        0.301199    0.046472   -1.939496
      2         11           0        1.445191   -2.155653    0.330190
      3         11           0       -0.196246    0.070521    1.942395
      4         11           0       -2.055773   -2.100269   -0.371489
      5         11           0       -3.119048    0.970735    0.106748
      6         11           0        0.021068    2.677337   -0.084781
      7         11           0        3.603609    0.490858    0.016433
 ---------------------------------------------------------------------

 SCF Done:  E(UB3LYP) =  -1136.13285207     A.U. after   21 cycles

 The electronic state is 2-A.
 Alpha  occ. eigenvalues --  -38.45091 -38.44414 -38.43735 -38.43721 -38.43153
 Alpha  occ. eigenvalues --  -38.43054 -38.42912  -2.20854  -2.20241  -2.19652
 Alpha  occ. eigenvalues --   -2.19647  -2.19013  -2.18953  -2.18775  -1.14527
 Alpha  occ. eigenvalues --   -1.14520  -1.14488  -1.13915  -1.13910  -1.13876
 Alpha  occ. eigenvalues --   -1.13344  -1.13321  -1.13301  -1.13293  -1.13258
 Alpha  occ. eigenvalues --   -1.13254  -1.12686  -1.12673  -1.12668  -1.12648
 Alpha  occ. eigenvalues --   -1.12623  -1.12553  -1.12474  -1.12454  -1.12377
 Alpha  occ. eigenvalues --   -0.18634  -0.13224  -0.11944  -0.10975
 Alpha virt. eigenvalues --   -0.06569  -0.04764  -0.04027  -0.03378  -0.02840
 Alpha virt. eigenvalues --   -0.02745  -0.02218  -0.00999  -0.00186  -0.00154
 Alpha virt. eigenvalues --   -0.00015   0.00304   0.00647   0.00794   0.00880

  Beta  occ. eigenvalues --  -38.45095 -38.44412 -38.43652 -38.43636 -38.43145
  Beta  occ. eigenvalues --  -38.43041 -38.42904  -2.20863  -2.20240  -2.19499
  Beta  occ. eigenvalues --   -2.19492  -2.19001  -2.18935  -2.18765  -1.14530
  Beta  occ. eigenvalues --   -1.14518  -1.14495  -1.13917  -1.13889  -1.13879
  Beta  occ. eigenvalues --   -1.13244  -1.13219  -1.13191  -1.13179  -1.13148
  Beta  occ. eigenvalues --   -1.13142  -1.12679  -1.12664  -1.12641  -1.12633
  Beta  occ. eigenvalues --   -1.12580  -1.12545  -1.12469  -1.12418  -1.12374
  Beta  occ. eigenvalues --   -0.17867  -0.13043  -0.11671
  Beta virt. eigenvalues --   -0.07043  -0.06504  -0.04778  -0.03985  -0.02648
  Beta virt. eigenvalues --   -0.02148  -0.01989  -0.01685  -0.00956  -0.00221
  Beta virt. eigenvalues --   -0.00094   0.00049   0.00314   0.00822   0.00845

 Mulliken charges and spin densities:
               1          2
     1  Na  -0.371485   0.734587
     2  Na   0.221479   0.021185
     3  Na  -0.240171   0.626371
     4  Na   0.117525  -0.008539
     5  Na   0.169612  -0.049846
     6  Na   0.056679  -0.181988
     7  Na   0.046361  -0.141770
 Sum of Mulliken charges =  -0.00000   1.00000

 Dipole moment (field-independent basis, Debye):
    X=              0.3955    Y=              0.2813    Z=              0.0039  Tot=              0.4853
 Quadrupole moment (field-independent basis, Debye-Ang):
   XX=            -49.9003   YY=            -69.8679   ZZ=            -73.0030
   XY=              0.7345   XZ=              0.6462   YZ=              0.2707

 Normal termination of Gaussian 16 at Tue Dec  5 18:01:13 2023.
