 Gaussian 16, Revision B.01,
 Gaussian 16:  ES64L-G16RevB.01 20-Dec-2017

 -------------------------
 #P B3LYP/6-311+g(d) force
 -------------------------

 -----
 DPGEN
 -----
 Symbolic Z-matrix:
 Charge =  0 Multiplicity = 2

                         Standard orientation:
 ---------------------------------------------------------------------
 Center     Atomic      Atomic             Coordinates (Angstroms)
 Number     Number       Type             X           Y           Z
 ---------------------------------------------------------------------
      1         11           0        3.056439   -0.328062   -0.083805
      2         11           0       -3.100210   -1.298330   -0.145399
      3         11           0       -0.150137    0.025441   -1.707590
      4         11           0        1.039233    2.503857   -0.334390
      5         11           0        0.287777   -0.099917    2.067571
      6         11           0       -1.926858    1.821109    0.316144
      7         11           0        0.793757   -2.624097   -0.112531
 ---------------------------------------------------------------------

 SCF Done:  E(UB3LYP) =  -1136.13480421     A.U. after   19 cycles

 The electronic state is 2-A.
 Alpha  occ. eigenvalues --  -38.44030 -38.44011 -38.43775 -38.43351 -38.43347
 Alpha  occ. eigenvalues --  -38.43310 -38.42866  -2.19902  -2.19810  -2.19692
 Alpha  occ. eigenvalues --   -2.19367  -2.19248  -2.19233  -2.18803  -1.13575
 Alpha  occ. eigenvalues --   -1.13568  -1.13550  -1.13481  -1.13479  -1.13449
 Alpha  occ. eigenvalues --   -1.13360  -1.13325  -1.13309  -1.13096  -1.13056
 Alpha  occ. eigenvalues --   -1.12993  -1.12927  -1.12907  -1.12900  -1.12890
 Alpha  occ. eigenvalues --   -1.12874  -1.12845  -1.12488  -1.12441  -1.12428
 Alpha  occ. eigenvalues --   -0.19135  -0.13218  -0.12360  -0.11130
 Alpha virt. eigenvalues --   -0.05775  -0.04851  -0.04321  -0.03391  -0.02890
 Alpha virt. eigenvalues --   -0.02785  -0.01628  -0.00905  -0.00134  -0.00077
 Alpha virt. eigenvalues --    0.00078   0.00352   0.00852   0.00915   0.00956

  Beta  occ. eigenvalues --  -38.44025 -38.44013 -38.43679 -38.43340 -38.43299
  Beta  occ. eigenvalues --  -38.43280 -38.42856  -2.19896  -2.19815  -2.19516
  Beta  occ. eigenvalues --   -2.19238  -2.19233  -2.19224  -2.18789  -1.13574
  Beta  occ. eigenvalues --   -1.13556  -1.13530  -1.13487  -1.13469  -1.13454
  Beta  occ. eigenvalues --   -1.13246  -1.13197  -1.13185  -1.13028  -1.12988
  Beta  occ. eigenvalues --   -1.12922  -1.12894  -1.12879  -1.12871  -1.12860
  Beta  occ. eigenvalues --   -1.12840  -1.12831  -1.12474  -1.12425  -1.12401
  Beta  occ. eigenvalues --   -0.18364  -0.12988  -0.12100
  Beta virt. eigenvalues --   -0.07143  -0.05740  -0.04827  -0.04319  -0.02559
  Beta virt. eigenvalues --   -0.02110  -0.01716  -0.01530  -0.00840  -0.00182
  Beta virt. eigenvalues --    0.00000   0.00113   0.00365   0.00902   0.00912

 Mulliken charges and spin densities:
               1          2
     1  Na   0.253479  -0.011542
     2  Na  -0.006313  -0.111880
     3  Na  -0.422852   0.498259
     4  Na   0.310517   0.022587
     5  Na  -0.511240   0.615566
     6  Na   0.262527   0.091611
     7  Na   0.113883  -0.104602
 Sum of Mulliken charges =  -0.00000   1.00000

 Dipole moment (field-independent basis, Debye):
    X=              0.0578    Y=             -0.3234    Z=              0.1937  Tot=              0.3814
 Quadrupole moment (field-independent basis, Debye-Ang):
   XX=            -55.9338   YY=            -65.8416   ZZ=            -72.4191
   XY=              1.1089   XZ=             -0.7934   YZ=              0.3757

 Normal termination of Gaussian 16 at Thu Dec  7 14:32:04 2023.
