 Gaussian 16, Revision B.01,
 Gaussian 16:  ES64L-G16RevB.01 20-Dec-2017

 -------------------------
 #P B3LYP/6-311+g(d) force
 -------------------------

 -----
 DPGEN
 -----
 Symbolic Z-matrix:
 Charge =  0 Multiplicity = 2

                         Standard orientation:
 ---------------------------------------------------------------------
 Center     Atomic      Atomic             Coordinates (Angstroms)
 Number     Number       Type             X           Y           Z
 ---------------------------------------------------------------------
      1         11           0        1.759817   -0.364112    2.023937
      2         11           0       -6.038126    1.830088    0.037056
      3         11           0       -4.582519   -0.973545    0.278676
      4         11           0       -0.800758   -1.458529   -0.391283
      5         11           0        1.926589   -1.815594   -1.505511
      6         11           0        2.991330    2.074750   -1.499173
      7         11           0        4.743667    0.706942    1.056299
 ---------------------------------------------------------------------

 SCF Done:  E(UB3LYP) =  -1136.11010040     A.U. after   20 cycles

 The electronic state is 2-A.
 Alpha  occ. eigenvalues --  -38.44825 -38.44657 -38.44441 -38.44390 -38.44215
 Alpha  occ. eigenvalues --  -38.43792 -38.43406  -2.20665  -2.20427  -2.20238
 Alpha  occ. eigenvalues --   -2.20230  -2.20004  -2.19610  -2.19251  -1.14370
 Alpha  occ. eigenvalues --   -1.14311  -1.14286  -1.14092  -1.14087  -1.14085
 Alpha  occ. eigenvalues --   -1.13906  -1.13897  -1.13876  -1.13872  -1.13860
 Alpha  occ. eigenvalues --   -1.13834  -1.13669  -1.13663  -1.13636  -1.13280
 Alpha  occ. eigenvalues --   -1.13276  -1.13249  -1.12935  -1.12912  -1.12890
 Alpha  occ. eigenvalues --   -0.16709  -0.13725  -0.11934  -0.10932
 Alpha virt. eigenvalues --   -0.06952  -0.05890  -0.04102  -0.03340  -0.03046
 Alpha virt. eigenvalues --   -0.02617  -0.02357  -0.01597  -0.01351  -0.01191
 Alpha virt. eigenvalues --   -0.00400  -0.00003   0.00153   0.00324   0.00400

  Beta  occ. eigenvalues --  -38.44797 -38.44660 -38.44373 -38.44302 -38.44214
  Beta  occ. eigenvalues --  -38.43784 -38.43407  -2.20615  -2.20432  -2.20109
  Beta  occ. eigenvalues --   -2.20068  -2.20002  -2.19600  -2.19255  -1.14337
  Beta  occ. eigenvalues --   -1.14266  -1.14247  -1.14096  -1.14091  -1.14089
  Beta  occ. eigenvalues --   -1.13808  -1.13794  -1.13784  -1.13779  -1.13766
  Beta  occ. eigenvalues --   -1.13713  -1.13667  -1.13662  -1.13637  -1.13278
  Beta  occ. eigenvalues --   -1.13262  -1.13218  -1.12929  -1.12915  -1.12887
  Beta  occ. eigenvalues --   -0.16009  -0.13648  -0.11754
  Beta virt. eigenvalues --   -0.07081  -0.06779  -0.05515  -0.03959  -0.02960
  Beta virt. eigenvalues --   -0.02693  -0.02211  -0.02080  -0.01354  -0.01180
  Beta virt. eigenvalues --   -0.00758  -0.00219   0.00201   0.00227   0.00358

 Mulliken charges and spin densities:
               1          2
     1  Na   0.274387   0.456468
     2  Na   0.116505  -0.018032
     3  Na  -0.766218  -0.009845
     4  Na  -1.724128  -0.187250
     5  Na   2.189588   0.417305
     6  Na  -0.013982   0.386431
     7  Na  -0.076152  -0.045077
 Sum of Mulliken charges =  -0.00000   1.00000

 Dipole moment (field-independent basis, Debye):
    X=             -0.0712    Y=              0.4359    Z=             -0.2169  Tot=              0.4921
 Quadrupole moment (field-independent basis, Debye-Ang):
   XX=            -62.0895   YY=            -63.2702   ZZ=            -73.8549
   XY=             -8.9794   XZ=             -1.1587   YZ=             -0.0991

 Normal termination of Gaussian 16 at Mon Dec  4 00:11:25 2023.
