 Gaussian 16, Revision B.01,
 Gaussian 16:  ES64L-G16RevB.01 20-Dec-2017

 -------------------------
 #P B3LYP/6-311+g(d) force
 -------------------------

 -----
 DPGEN
 -----
 Symbolic Z-matrix:
 Charge =  0 Multiplicity = 2

                         Standard orientation:
 ---------------------------------------------------------------------
 Center     Atomic      Atomic             Coordinates (Angstroms)
 Number     Number       Type             X           Y           Z
 ---------------------------------------------------------------------
      1         11           0        0.009562   -0.578672   -1.804089
      2         11           0       -2.619881    1.805373   -0.421538
      3         11           0        3.143688    0.091079   -0.025488
      4         11           0       -2.630017   -1.536842    0.304455
      5         11           0        1.048962   -2.514744    0.050477
      6         11           0       -0.142106    0.155897    1.888502
      7         11           0        1.189792    2.577909    0.007682
 ---------------------------------------------------------------------

 SCF Done:  E(UB3LYP) =  -1136.13456914     A.U. after   19 cycles

 The electronic state is 2-A.
 Alpha  occ. eigenvalues --  -38.44131 -38.44002 -38.43991 -38.43542 -38.43440
 Alpha  occ. eigenvalues --  -38.43205 -38.43162  -2.19998  -2.19852  -2.19797
 Alpha  occ. eigenvalues --   -2.19504  -2.19373  -2.19090  -2.19064  -1.13681
 Alpha  occ. eigenvalues --   -1.13657  -1.13645  -1.13539  -1.13527  -1.13494
 Alpha  occ. eigenvalues --   -1.13467  -1.13443  -1.13429  -1.13290  -1.13141
 Alpha  occ. eigenvalues --   -1.13101  -1.13050  -1.13015  -1.12990  -1.12757
 Alpha  occ. eigenvalues --   -1.12740  -1.12735  -1.12726  -1.12697  -1.12689
 Alpha  occ. eigenvalues --   -0.18850  -0.13350  -0.12274  -0.10820
 Alpha virt. eigenvalues --   -0.05762  -0.05385  -0.04283  -0.03383  -0.02896
 Alpha virt. eigenvalues --   -0.02493  -0.01650  -0.01090  -0.00270  -0.00198
 Alpha virt. eigenvalues --   -0.00013   0.00355   0.00774   0.00876   0.00921

  Beta  occ. eigenvalues --  -38.44129 -38.43994 -38.43983 -38.43471 -38.43356
  Beta  occ. eigenvalues --  -38.43201 -38.43153  -2.19997  -2.19841  -2.19784
  Beta  occ. eigenvalues --   -2.19373  -2.19220  -2.19079  -2.19061  -1.13682
  Beta  occ. eigenvalues --   -1.13656  -1.13626  -1.13532  -1.13491  -1.13491
  Beta  occ. eigenvalues --   -1.13441  -1.13434  -1.13423  -1.13210  -1.13050
  Beta  occ. eigenvalues --   -1.13008  -1.12950  -1.12904  -1.12882  -1.12739
  Beta  occ. eigenvalues --   -1.12736  -1.12709  -1.12701  -1.12690  -1.12674
  Beta  occ. eigenvalues --   -0.18111  -0.13117  -0.12024
  Beta virt. eigenvalues --   -0.06921  -0.05706  -0.05361  -0.04243  -0.02597
  Beta virt. eigenvalues --   -0.02124  -0.01557  -0.01466  -0.01012  -0.00307
  Beta virt. eigenvalues --   -0.00238   0.00122   0.00385   0.00843   0.00880

 Mulliken charges and spin densities:
               1          2
     1  Na  -0.467037   0.612285
     2  Na  -0.131044  -0.033233
     3  Na   0.059120  -0.059732
     4  Na   0.273177  -0.044948
     5  Na   0.551972  -0.031225
     6  Na  -0.334064   0.627749
     7  Na   0.047875  -0.070895
 Sum of Mulliken charges =  -0.00000   1.00000

 Dipole moment (field-independent basis, Debye):
    X=             -0.2226    Y=             -0.0073    Z=              0.0182  Tot=              0.2235
 Quadrupole moment (field-independent basis, Debye-Ang):
   XX=            -54.6818   YY=            -65.6016   ZZ=            -73.7560
   XY=             -0.2195   XZ=              0.3395   YZ=             -1.9958

 Normal termination of Gaussian 16 at Thu Dec  7 14:49:13 2023.
