 Gaussian 16, Revision B.01,
 Gaussian 16:  ES64L-G16RevB.01 20-Dec-2017

 -------------------------
 #P B3LYP/6-311+g(d) force
 -------------------------

 -----
 DPGEN
 -----
 Symbolic Z-matrix:
 Charge =  0 Multiplicity = 2

                         Standard orientation:
 ---------------------------------------------------------------------
 Center     Atomic      Atomic             Coordinates (Angstroms)
 Number     Number       Type             X           Y           Z
 ---------------------------------------------------------------------
      1         11           0       -0.410089    1.591847   -1.512022
      2         11           0        3.135380   -1.546062    0.809004
      3         11           0        0.804695   -1.349535   -1.395646
      4         11           0       -2.357936   -1.783028   -0.468615
      5         11           0       -0.173366    0.279552    2.004843
      6         11           0       -3.919142    0.843315    0.648209
      7         11           0        2.920459    1.963912   -0.085773
 ---------------------------------------------------------------------

 SCF Done:  E(UB3LYP) =  -1136.11759159     A.U. after   28 cycles

 The electronic state is 2-A.
 Alpha  occ. eigenvalues --  -38.45783 -38.45109 -38.44194 -38.43993 -38.43846
 Alpha  occ. eigenvalues --  -38.43660 -38.42809  -2.21555  -2.20897  -2.20014
 Alpha  occ. eigenvalues --   -2.19771  -2.19690  -2.19524  -2.18740  -1.15247
 Alpha  occ. eigenvalues --   -1.15205  -1.15164  -1.14572  -1.14554  -1.14522
 Alpha  occ. eigenvalues --   -1.13693  -1.13664  -1.13648  -1.13449  -1.13430
 Alpha  occ. eigenvalues --   -1.13417  -1.13370  -1.13357  -1.13333  -1.13240
 Alpha  occ. eigenvalues --   -1.13165  -1.13111  -1.12433  -1.12385  -1.12367
 Alpha  occ. eigenvalues --   -0.18116  -0.13901  -0.11436  -0.10793
 Alpha virt. eigenvalues --   -0.07144  -0.05592  -0.04284  -0.03122  -0.02877
 Alpha virt. eigenvalues --   -0.02696  -0.02494  -0.01372  -0.00775  -0.00352
 Alpha virt. eigenvalues --    0.00063   0.00175   0.00304   0.00530   0.00584

  Beta  occ. eigenvalues --  -38.45739 -38.45090 -38.44173 -38.43997 -38.43835
  Beta  occ. eigenvalues --  -38.43590 -38.42765  -2.21472  -2.20862  -2.19975
  Beta  occ. eigenvalues --   -2.19781  -2.19675  -2.19399  -2.18665  -1.15189
  Beta  occ. eigenvalues --   -1.15148  -1.15099  -1.14550  -1.14523  -1.14499
  Beta  occ. eigenvalues --   -1.13670  -1.13636  -1.13617  -1.13456  -1.13428
  Beta  occ. eigenvalues --   -1.13420  -1.13357  -1.13337  -1.13312  -1.13146
  Beta  occ. eigenvalues --   -1.13070  -1.13027  -1.12377  -1.12316  -1.12309
  Beta  occ. eigenvalues --   -0.17354  -0.13629  -0.10600
  Beta virt. eigenvalues --   -0.07651  -0.06830  -0.05551  -0.03697  -0.02868
  Beta virt. eigenvalues --   -0.02543  -0.02183  -0.01803  -0.01284  -0.00486
  Beta virt. eigenvalues --   -0.00305   0.00099   0.00207   0.00433   0.00617

 Mulliken charges and spin densities:
               1          2
     1  Na  -0.278981   0.236220
     2  Na   0.218507   0.169931
     3  Na   0.137067   0.136146
     4  Na  -0.059373  -0.003436
     5  Na  -0.313726   0.319260
     6  Na   0.288068   0.180188
     7  Na   0.008438  -0.038310
 Sum of Mulliken charges =  -0.00000   1.00000

 Dipole moment (field-independent basis, Debye):
    X=             -0.6683    Y=              0.3688    Z=              0.8328  Tot=              1.1297
 Quadrupole moment (field-independent basis, Debye-Ang):
   XX=            -48.4510   YY=            -77.5563   ZZ=            -69.1413
   XY=             -0.9813   XZ=              1.0465   YZ=             -1.0964

 Normal termination of Gaussian 16 at Tue Dec  5 10:21:37 2023.
