 Gaussian 16, Revision B.01,
 Gaussian 16:  ES64L-G16RevB.01 20-Dec-2017

 -------------------------
 #P B3LYP/6-311+g(d) force
 -------------------------

 -----
 DPGEN
 -----
 Symbolic Z-matrix:
 Charge =  0 Multiplicity = 2

                         Standard orientation:
 ---------------------------------------------------------------------
 Center     Atomic      Atomic             Coordinates (Angstroms)
 Number     Number       Type             X           Y           Z
 ---------------------------------------------------------------------
      1         11           0       -0.625834    1.877713   -0.500174
      2         11           0       -4.165760    0.636631   -0.067594
      3         11           0       -1.872097   -0.691189    1.851168
      4         11           0       -1.349953   -1.744176   -1.604393
      5         11           0        0.998574   -1.257616    0.255727
      6         11           0        4.591925   -0.655447    0.134450
      7         11           0        2.423145    1.834083   -0.069184
 ---------------------------------------------------------------------

 SCF Done:  E(UB3LYP) =  -1136.11292876     A.U. after   28 cycles

 The electronic state is 2-A.
 Alpha  occ. eigenvalues --  -38.45989 -38.44664 -38.44295 -38.43857 -38.43264
 Alpha  occ. eigenvalues --  -38.43081 -38.42699  -2.21845  -2.20507  -2.20126
 Alpha  occ. eigenvalues --   -2.19692  -2.19155  -2.18983  -2.18661  -1.15550
 Alpha  occ. eigenvalues --   -1.15490  -1.15451  -1.14216  -1.14157  -1.14131
 Alpha  occ. eigenvalues --   -1.13768  -1.13764  -1.13744  -1.13357  -1.13340
 Alpha  occ. eigenvalues --   -1.13308  -1.12899  -1.12817  -1.12797  -1.12659
 Alpha  occ. eigenvalues --   -1.12635  -1.12574  -1.12379  -1.12348  -1.12250
 Alpha  occ. eigenvalues --   -0.18323  -0.14482  -0.11246  -0.10954
 Alpha virt. eigenvalues --   -0.07740  -0.04962  -0.04238  -0.03375  -0.03170
 Alpha virt. eigenvalues --   -0.02230  -0.01805  -0.01673  -0.01067  -0.00864
 Alpha virt. eigenvalues --   -0.00097   0.00164   0.00239   0.00579   0.00845

  Beta  occ. eigenvalues --  -38.45965 -38.44673 -38.44208 -38.43807 -38.43247
  Beta  occ. eigenvalues --  -38.43029 -38.42687  -2.21805  -2.20527  -2.19962
  Beta  occ. eigenvalues --   -2.19600  -2.19134  -2.18892  -2.18643  -1.15502
  Beta  occ. eigenvalues --   -1.15468  -1.15419  -1.14214  -1.14174  -1.14146
  Beta  occ. eigenvalues --   -1.13656  -1.13651  -1.13638  -1.13289  -1.13277
  Beta  occ. eigenvalues --   -1.13252  -1.12846  -1.12809  -1.12766  -1.12603
  Beta  occ. eigenvalues --   -1.12567  -1.12500  -1.12372  -1.12302  -1.12247
  Beta  occ. eigenvalues --   -0.17794  -0.13694  -0.10893
  Beta virt. eigenvalues --   -0.07648  -0.07431  -0.04753  -0.03572  -0.03083
  Beta virt. eigenvalues --   -0.02924  -0.02130  -0.01683  -0.01131  -0.00622
  Beta virt. eigenvalues --   -0.00466   0.00039   0.00223   0.00395   0.00682

 Mulliken charges and spin densities:
               1          2
     1  Na  -0.604685   0.198389
     2  Na   0.215908   0.392344
     3  Na   0.478635   0.044130
     4  Na   0.118582  -0.101333
     5  Na  -0.469567   0.162107
     6  Na   0.227421   0.424536
     7  Na   0.033704  -0.120173
 Sum of Mulliken charges =  -0.00000   1.00000

 Dipole moment (field-independent basis, Debye):
    X=             -0.6393    Y=             -0.9057    Z=             -0.1066  Tot=              1.1137
 Quadrupole moment (field-independent basis, Debye-Ang):
   XX=            -63.3055   YY=            -79.2035   ZZ=            -59.8490
   XY=              2.3677   XZ=              3.2758   YZ=             -0.5373

 Normal termination of Gaussian 16 at Fri Dec  8 17:53:29 2023.
