 Gaussian 16, Revision B.01,
 Gaussian 16:  ES64L-G16RevB.01 20-Dec-2017

 -------------------------
 #P B3LYP/6-311+g(d) force
 -------------------------

 -----
 DPGEN
 -----
 Symbolic Z-matrix:
 Charge =  0 Multiplicity = 2

                         Standard orientation:
 ---------------------------------------------------------------------
 Center     Atomic      Atomic             Coordinates (Angstroms)
 Number     Number       Type             X           Y           Z
 ---------------------------------------------------------------------
      1         11           0        2.266327   -1.661592    0.729795
      2         11           0       -1.272538   -0.832518    1.465437
      3         11           0       -0.107062   -0.551868   -1.482923
      4         11           0        0.904626    1.648088    1.304020
      5         11           0       -3.838825   -0.968541   -0.588064
      6         11           0        3.884633    0.312100   -1.050191
      7         11           0       -1.837161    2.054332   -0.378075
 ---------------------------------------------------------------------

 SCF Done:  E(UB3LYP) =  -1136.12111644     A.U. after   26 cycles

 The electronic state is 2-A.
 Alpha  occ. eigenvalues --  -38.45308 -38.44779 -38.43900 -38.43848 -38.43653
 Alpha  occ. eigenvalues --  -38.43254 -38.42153  -2.21188  -2.20601  -2.19790
 Alpha  occ. eigenvalues --   -2.19666  -2.19634  -2.19167  -2.18064  -1.14932
 Alpha  occ. eigenvalues --   -1.14860  -1.14775  -1.14278  -1.14239  -1.14227
 Alpha  occ. eigenvalues --   -1.13471  -1.13445  -1.13428  -1.13373  -1.13348
 Alpha  occ. eigenvalues --   -1.13326  -1.13304  -1.13253  -1.13220  -1.12864
 Alpha  occ. eigenvalues --   -1.12819  -1.12770  -1.11756  -1.11726  -1.11692
 Alpha  occ. eigenvalues --   -0.18824  -0.14295  -0.11208  -0.10869
 Alpha virt. eigenvalues --   -0.07145  -0.05084  -0.04465  -0.03038  -0.02892
 Alpha virt. eigenvalues --   -0.02298  -0.02165  -0.01215  -0.00918  -0.00209
 Alpha virt. eigenvalues --    0.00007   0.00232   0.00398   0.00670   0.00768

  Beta  occ. eigenvalues --  -38.45291 -38.44736 -38.43877 -38.43846 -38.43589
  Beta  occ. eigenvalues --  -38.43226 -38.42142  -2.21161  -2.20518  -2.19753
  Beta  occ. eigenvalues --   -2.19664  -2.19519  -2.19115  -2.18049  -1.14890
  Beta  occ. eigenvalues --   -1.14831  -1.14761  -1.14226  -1.14182  -1.14170
  Beta  occ. eigenvalues --   -1.13449  -1.13424  -1.13364  -1.13359  -1.13319
  Beta  occ. eigenvalues --   -1.13299  -1.13270  -1.13171  -1.13135  -1.12826
  Beta  occ. eigenvalues --   -1.12785  -1.12731  -1.11740  -1.11696  -1.11683
  Beta  occ. eigenvalues --   -0.18090  -0.13980  -0.10739
  Beta virt. eigenvalues --   -0.07383  -0.06865  -0.04671  -0.04175  -0.02895
  Beta virt. eigenvalues --   -0.02622  -0.01752  -0.01546  -0.00845  -0.00726
  Beta virt. eigenvalues --   -0.00088   0.00062   0.00358   0.00453   0.00729

 Mulliken charges and spin densities:
               1          2
     1  Na   0.291749   0.060989
     2  Na  -0.056147   0.252468
     3  Na  -0.459189   0.300832
     4  Na  -0.151569   0.120173
     5  Na   0.386295   0.027876
     6  Na   0.087875   0.176275
     7  Na  -0.099014   0.061386
 Sum of Mulliken charges =  -0.00000   1.00000

 Dipole moment (field-independent basis, Debye):
    X=              0.3036    Y=              0.2869    Z=             -0.2086  Tot=              0.4669
 Quadrupole moment (field-independent basis, Debye-Ang):
   XX=            -53.3975   YY=            -75.1505   ZZ=            -68.0694
   XY=              0.2261   XZ=              0.2572   YZ=             -4.0207

 Normal termination of Gaussian 16 at Tue Dec  5 19:35:41 2023.
