 Gaussian 16, Revision B.01,
 Gaussian 16:  ES64L-G16RevB.01 20-Dec-2017

 -------------------------
 #P B3LYP/6-311+g(d) force
 -------------------------

 -----
 DPGEN
 -----
 Symbolic Z-matrix:
 Charge =  0 Multiplicity = 2

                         Standard orientation:
 ---------------------------------------------------------------------
 Center     Atomic      Atomic             Coordinates (Angstroms)
 Number     Number       Type             X           Y           Z
 ---------------------------------------------------------------------
      1         11           0        0.409893    0.535876   -1.705293
      2         11           0       -0.050571   -0.302127    1.738482
      3         11           0       -1.197731   -2.167170   -0.439156
      4         11           0        2.214566   -1.819213    0.195364
      5         11           0        2.661002    1.223853   -0.081900
      6         11           0       -0.717909    2.435331    0.390988
      7         11           0       -3.319250    0.093449   -0.098485
 ---------------------------------------------------------------------

 SCF Done:  E(UB3LYP) =  -1136.12669564     A.U. after   21 cycles

 The electronic state is 2-A.
 Alpha  occ. eigenvalues --  -38.44609 -38.44072 -38.43450 -38.43394 -38.43286
 Alpha  occ. eigenvalues --  -38.43047 -38.42978  -2.20446  -2.20024  -2.19497
 Alpha  occ. eigenvalues --   -2.19334  -2.19324  -2.18992  -2.18910  -1.14136
 Alpha  occ. eigenvalues --   -1.14102  -1.14080  -1.13825  -1.13680  -1.13636
 Alpha  occ. eigenvalues --   -1.13184  -1.13127  -1.13114  -1.13089  -1.13017
 Alpha  occ. eigenvalues --   -1.12997  -1.12969  -1.12959  -1.12895  -1.12668
 Alpha  occ. eigenvalues --   -1.12645  -1.12610  -1.12598  -1.12576  -1.12498
 Alpha  occ. eigenvalues --   -0.19639  -0.13706  -0.12315  -0.11006
 Alpha virt. eigenvalues --   -0.06115  -0.04845  -0.03987  -0.03467  -0.02819
 Alpha virt. eigenvalues --   -0.02372  -0.01865  -0.00842  -0.00052  -0.00002
 Alpha virt. eigenvalues --    0.00168   0.00340   0.00837   0.00931   0.00972

  Beta  occ. eigenvalues --  -38.44609 -38.44062 -38.43385 -38.43378 -38.43204
  Beta  occ. eigenvalues --  -38.43033 -38.42964  -2.20449  -2.20011  -2.19367
  Beta  occ. eigenvalues --   -2.19317  -2.19181  -2.18969  -2.18888  -1.14138
  Beta  occ. eigenvalues --   -1.14090  -1.14082  -1.13801  -1.13665  -1.13612
  Beta  occ. eigenvalues --   -1.13101  -1.13058  -1.13023  -1.13018  -1.12972
  Beta  occ. eigenvalues --   -1.12935  -1.12920  -1.12888  -1.12809  -1.12649
  Beta  occ. eigenvalues --   -1.12608  -1.12587  -1.12580  -1.12523  -1.12488
  Beta  occ. eigenvalues --   -0.18894  -0.13435  -0.12039
  Beta virt. eigenvalues --   -0.07023  -0.06058  -0.04831  -0.03976  -0.02646
  Beta virt. eigenvalues --   -0.02027  -0.01790  -0.01308  -0.00803  -0.00040
  Beta virt. eigenvalues --    0.00092   0.00154   0.00367   0.00879   0.00934

 Mulliken charges and spin densities:
               1          2
     1  Na  -0.692439   0.550600
     2  Na  -0.642879   0.555049
     3  Na   0.283388   0.052950
     4  Na   0.308078   0.012805
     5  Na   0.620859   0.015751
     6  Na   0.269595  -0.078749
     7  Na  -0.146600  -0.108405
 Sum of Mulliken charges =  -0.00000   1.00000

 Dipole moment (field-independent basis, Debye):
    X=             -0.3144    Y=              0.1028    Z=              0.0188  Tot=              0.3313
 Quadrupole moment (field-independent basis, Debye-Ang):
   XX=            -51.9548   YY=            -68.3796   ZZ=            -73.2737
   XY=             -0.7586   XZ=              0.8439   YZ=              1.3920

 Normal termination of Gaussian 16 at Thu Dec  7 05:27:04 2023.
