 Gaussian 16, Revision B.01,
 Gaussian 16:  ES64L-G16RevB.01 20-Dec-2017

 -------------------------
 #P B3LYP/6-311+g(d) force
 -------------------------

 -----
 DPGEN
 -----
 Symbolic Z-matrix:
 Charge =  0 Multiplicity = 2

                         Standard orientation:
 ---------------------------------------------------------------------
 Center     Atomic      Atomic             Coordinates (Angstroms)
 Number     Number       Type             X           Y           Z
 ---------------------------------------------------------------------
      1         11           0        0.171490   -1.956529   -1.382563
      2         11           0        0.757809   -0.607520    1.809349
      3         11           0       -3.294394   -1.151421    1.134093
      4         11           0        3.455666    2.197290    0.443653
      5         11           0       -4.093914    1.298880   -0.644775
      6         11           0        3.641648   -1.199298   -0.569774
      7         11           0       -0.638306    1.418598   -0.789983
 ---------------------------------------------------------------------

 SCF Done:  E(UB3LYP) =  -1136.10763552     A.U. after   36 cycles

 The electronic state is 2-A.
 Alpha  occ. eigenvalues --  -38.46331 -38.45144 -38.44931 -38.44660 -38.44493
 Alpha  occ. eigenvalues --  -38.43018 -38.42666  -2.22097  -2.20953  -2.20752
 Alpha  occ. eigenvalues --   -2.20475  -2.20314  -2.18788  -2.18512  -1.15796
 Alpha  occ. eigenvalues --   -1.15746  -1.15715  -1.14676  -1.14590  -1.14548
 Alpha  occ. eigenvalues --   -1.14452  -1.14404  -1.14355  -1.14178  -1.14140
 Alpha  occ. eigenvalues --   -1.14098  -1.13968  -1.13960  -1.13942  -1.12465
 Alpha  occ. eigenvalues --   -1.12455  -1.12437  -1.12190  -1.12159  -1.12147
 Alpha  occ. eigenvalues --   -0.17546  -0.14207  -0.10938  -0.10476
 Alpha virt. eigenvalues --   -0.08017  -0.05893  -0.04223  -0.03525  -0.03201
 Alpha virt. eigenvalues --   -0.02479  -0.01958  -0.01905  -0.01018  -0.00630
 Alpha virt. eigenvalues --   -0.00348  -0.00009   0.00227   0.00439   0.00509

  Beta  occ. eigenvalues --  -38.46332 -38.45104 -38.44875 -38.44611 -38.44483
  Beta  occ. eigenvalues --  -38.43026 -38.42636  -2.22099  -2.20878  -2.20652
  Beta  occ. eigenvalues --   -2.20383  -2.20298  -2.18804  -2.18457  -1.15792
  Beta  occ. eigenvalues --   -1.15748  -1.15714  -1.14626  -1.14538  -1.14486
  Beta  occ. eigenvalues --   -1.14370  -1.14329  -1.14289  -1.14125  -1.14074
  Beta  occ. eigenvalues --   -1.14034  -1.13958  -1.13928  -1.13922  -1.12476
  Beta  occ. eigenvalues --   -1.12465  -1.12446  -1.12148  -1.12123  -1.12103
  Beta  occ. eigenvalues --   -0.16951  -0.13953  -0.10719
  Beta virt. eigenvalues --   -0.07823  -0.06920  -0.05494  -0.03941  -0.03184
  Beta virt. eigenvalues --   -0.02981  -0.01930  -0.01755  -0.01399  -0.00762
  Beta virt. eigenvalues --   -0.00500  -0.00239   0.00049   0.00360   0.00556

 Mulliken charges and spin densities:
               1          2
     1  Na   0.069518   0.110456
     2  Na   0.006756   0.282500
     3  Na  -0.181457   0.345579
     4  Na   0.091910  -0.039284
     5  Na   0.489096  -0.060230
     6  Na   0.323957   0.005729
     7  Na  -0.799780   0.355250
 Sum of Mulliken charges =  -0.00000   1.00000

 Dipole moment (field-independent basis, Debye):
    X=             -0.0106    Y=             -1.1110    Z=             -0.3943  Tot=              1.1789
 Quadrupole moment (field-independent basis, Debye-Ang):
   XX=            -54.0745   YY=            -72.5282   ZZ=            -72.8231
   XY=             -6.7013   XZ=             -1.6770   YZ=              0.9099

 Normal termination of Gaussian 16 at Sun Dec  3 13:33:10 2023.
