 Gaussian 16, Revision B.01,
 Gaussian 16:  ES64L-G16RevB.01 20-Dec-2017

 -------------------------
 #P B3LYP/6-311+g(d) force
 -------------------------

 -----
 DPGEN
 -----
 Symbolic Z-matrix:
 Charge =  0 Multiplicity = 2

                         Standard orientation:
 ---------------------------------------------------------------------
 Center     Atomic      Atomic             Coordinates (Angstroms)
 Number     Number       Type             X           Y           Z
 ---------------------------------------------------------------------
      1         11           0       -0.046720    0.071505   -1.891203
      2         11           0        1.089325   -2.059202   -0.105852
      3         11           0        3.021000   -0.073227    0.152334
      4         11           0        0.849472    2.412370   -0.089353
      5         11           0       -2.379296    1.585505   -0.003652
      6         11           0       -0.320721   -0.050595    2.072708
      7         11           0       -2.213060   -1.886355   -0.134982
 ---------------------------------------------------------------------

 SCF Done:  E(UB3LYP) =  -1136.13033340     A.U. after   19 cycles

 The electronic state is 2-A.
 Alpha  occ. eigenvalues --  -38.43991 -38.43950 -38.43742 -38.43535 -38.43314
 Alpha  occ. eigenvalues --  -38.43083 -38.42925  -2.19914  -2.19897  -2.19772
 Alpha  occ. eigenvalues --   -2.19432  -2.19206  -2.19113  -2.18858  -1.13727
 Alpha  occ. eigenvalues --   -1.13577  -1.13544  -1.13539  -1.13530  -1.13511
 Alpha  occ. eigenvalues --   -1.13476  -1.13438  -1.13378  -1.13105  -1.13101
 Alpha  occ. eigenvalues --   -1.13065  -1.12889  -1.12868  -1.12846  -1.12777
 Alpha  occ. eigenvalues --   -1.12748  -1.12707  -1.12557  -1.12517  -1.12471
 Alpha  occ. eigenvalues --   -0.19688  -0.13335  -0.12442  -0.11592
 Alpha virt. eigenvalues --   -0.05390  -0.04853  -0.03996  -0.03550  -0.03110
 Alpha virt. eigenvalues --   -0.03052  -0.01348  -0.00815  -0.00102   0.00221
 Alpha virt. eigenvalues --    0.00337   0.00383   0.00846   0.00999   0.01026

  Beta  occ. eigenvalues --  -38.43989 -38.43857 -38.43656 -38.43530 -38.43310
  Beta  occ. eigenvalues --  -38.43070 -38.42917  -2.19913  -2.19728  -2.19616
  Beta  occ. eigenvalues --   -2.19426  -2.19201  -2.19095  -2.18848  -1.13730
  Beta  occ. eigenvalues --   -1.13547  -1.13508  -1.13464  -1.13412  -1.13390
  Beta  occ. eigenvalues --   -1.13377  -1.13327  -1.13268  -1.13101  -1.13069
  Beta  occ. eigenvalues --   -1.13062  -1.12888  -1.12849  -1.12834  -1.12764
  Beta  occ. eigenvalues --   -1.12706  -1.12687  -1.12546  -1.12481  -1.12471
  Beta  occ. eigenvalues --   -0.18880  -0.13076  -0.12151
  Beta virt. eigenvalues --   -0.07575  -0.05344  -0.04863  -0.04010  -0.02681
  Beta virt. eigenvalues --   -0.02220  -0.01981  -0.01269  -0.00769   0.00051
  Beta virt. eigenvalues --    0.00169   0.00291   0.00389   0.00910   0.00984

 Mulliken charges and spin densities:
               1          2
     1  Na  -0.831857   0.468095
     2  Na   0.690859   0.110000
     3  Na  -0.095065  -0.072453
     4  Na   0.475660   0.004344
     5  Na   0.319534  -0.060628
     6  Na  -0.924593   0.612567
     7  Na   0.365462  -0.061925
 Sum of Mulliken charges =  -0.00000   1.00000

 Dipole moment (field-independent basis, Debye):
    X=             -0.2449    Y=              0.1627    Z=              0.2127  Tot=              0.3629
 Quadrupole moment (field-independent basis, Debye-Ang):
   XX=            -57.5248   YY=            -68.4943   ZZ=            -69.6231
   XY=              0.8245   XZ=              0.7141   YZ=              0.3207

 Normal termination of Gaussian 16 at Tue Dec  5 14:23:18 2023.
