 Gaussian 16, Revision B.01,
 Gaussian 16:  ES64L-G16RevB.01 20-Dec-2017

 -------------------------
 #P B3LYP/6-311+g(d) force
 -------------------------

 -----
 DPGEN
 -----
 Symbolic Z-matrix:
 Charge =  0 Multiplicity = 2

                         Standard orientation:
 ---------------------------------------------------------------------
 Center     Atomic      Atomic             Coordinates (Angstroms)
 Number     Number       Type             X           Y           Z
 ---------------------------------------------------------------------
      1         11           0       -0.606201   -2.613077    0.546843
      2         11           0        0.669462   -0.146794    1.941227
      3         11           0        2.772700   -1.277780   -0.655421
      4         11           0       -1.413831    2.653999    0.331690
      5         11           0        2.080205    2.011356   -0.164721
      6         11           0       -3.021417   -0.520970   -0.275206
      7         11           0       -0.480918   -0.106733   -1.724412
 ---------------------------------------------------------------------

 SCF Done:  E(UB3LYP) =  -1136.13613038     A.U. after   19 cycles

 The electronic state is 2-A.
 Alpha  occ. eigenvalues --  -38.43868 -38.43854 -38.43582 -38.43578 -38.43512
 Alpha  occ. eigenvalues --  -38.43424 -38.43201  -2.19759  -2.19699  -2.19519
 Alpha  occ. eigenvalues --   -2.19488  -2.19440  -2.19243  -2.19109  -1.13547
 Alpha  occ. eigenvalues --   -1.13404  -1.13376  -1.13371  -1.13361  -1.13338
 Alpha  occ. eigenvalues --   -1.13221  -1.13195  -1.13151  -1.13127  -1.13123
 Alpha  occ. eigenvalues --   -1.13100  -1.13097  -1.13087  -1.13064  -1.12917
 Alpha  occ. eigenvalues --   -1.12905  -1.12878  -1.12795  -1.12757  -1.12724
 Alpha  occ. eigenvalues --   -0.18830  -0.13220  -0.12396  -0.11041
 Alpha virt. eigenvalues --   -0.05353  -0.05191  -0.04566  -0.03427  -0.03049
 Alpha virt. eigenvalues --   -0.02606  -0.01399  -0.01005  -0.00270  -0.00104
 Alpha virt. eigenvalues --    0.00037   0.00367   0.00816   0.00895   0.00919

  Beta  occ. eigenvalues --  -38.43863 -38.43835 -38.43573 -38.43499 -38.43450
  Beta  occ. eigenvalues --  -38.43420 -38.43183  -2.19752  -2.19665  -2.19434
  Beta  occ. eigenvalues --   -2.19376  -2.19367  -2.19238  -2.19081  -1.13524
  Beta  occ. eigenvalues --   -1.13388  -1.13375  -1.13347  -1.13330  -1.13309
  Beta  occ. eigenvalues --   -1.13144  -1.13122  -1.13096  -1.13075  -1.13055
  Beta  occ. eigenvalues --   -1.13028  -1.13025  -1.13021  -1.13018  -1.12905
  Beta  occ. eigenvalues --   -1.12900  -1.12871  -1.12768  -1.12713  -1.12707
  Beta  occ. eigenvalues --   -0.18118  -0.12963  -0.12143
  Beta virt. eigenvalues --   -0.07139  -0.05248  -0.05183  -0.04483  -0.02705
  Beta virt. eigenvalues --   -0.02284  -0.01607  -0.01270  -0.00942  -0.00234
  Beta virt. eigenvalues --   -0.00128   0.00131   0.00408   0.00894   0.00912

 Mulliken charges and spin densities:
               1          2
     1  Na   0.156182   0.006891
     2  Na  -0.197392   0.558848
     3  Na   0.080481   0.055963
     4  Na  -0.159848  -0.054491
     5  Na   0.020910  -0.023686
     6  Na   0.278435  -0.015101
     7  Na  -0.178769   0.471575
 Sum of Mulliken charges =  -0.00000   1.00000

 Dipole moment (field-independent basis, Debye):
    X=              0.0899    Y=              0.0215    Z=             -0.0028  Tot=              0.0924
 Quadrupole moment (field-independent basis, Debye-Ang):
   XX=            -57.6993   YY=            -64.4287   ZZ=            -72.4115
   XY=             -0.4664   XZ=             -2.1714   YZ=              0.6094

 Normal termination of Gaussian 16 at Sun Dec  3 21:07:13 2023.
