 Gaussian 16, Revision B.01,
 Gaussian 16:  ES64L-G16RevB.01 20-Dec-2017

 -------------------------
 #P B3LYP/6-311+g(d) force
 -------------------------

 -----
 DPGEN
 -----
 Symbolic Z-matrix:
 Charge =  0 Multiplicity = 2

                         Standard orientation:
 ---------------------------------------------------------------------
 Center     Atomic      Atomic             Coordinates (Angstroms)
 Number     Number       Type             X           Y           Z
 ---------------------------------------------------------------------
      1         11           0       -1.977992    0.684900   -1.250070
      2         11           0        1.418388    0.914779    0.931570
      3         11           0        1.890216   -2.150280   -0.714818
      4         11           0       -1.107257   -1.536460    1.460929
      5         11           0       -4.581559   -1.453817   -0.172035
      6         11           0        4.807779   -0.503751   -0.328732
      7         11           0       -0.449576    4.044630    0.073155
 ---------------------------------------------------------------------

 SCF Done:  E(UB3LYP) =  -1136.12160533     A.U. after   19 cycles

 The electronic state is 2-A.
 Alpha  occ. eigenvalues --  -38.44670 -38.44667 -38.44144 -38.44130 -38.44086
 Alpha  occ. eigenvalues --  -38.43953 -38.43205  -2.20475  -2.20457  -2.19967
 Alpha  occ. eigenvalues --   -2.19956  -2.19910  -2.19743  -2.18960  -1.14167
 Alpha  occ. eigenvalues --   -1.14164  -1.14146  -1.14139  -1.14115  -1.14043
 Alpha  occ. eigenvalues --   -1.13656  -1.13632  -1.13618  -1.13607  -1.13603
 Alpha  occ. eigenvalues --   -1.13599  -1.13568  -1.13564  -1.13492  -1.13403
 Alpha  occ. eigenvalues --   -1.13398  -1.13356  -1.12636  -1.12628  -1.12588
 Alpha  occ. eigenvalues --   -0.17042  -0.13753  -0.11692  -0.10808
 Alpha virt. eigenvalues --   -0.06569  -0.05400  -0.04771  -0.03514  -0.03019
 Alpha virt. eigenvalues --   -0.02218  -0.01682  -0.01465  -0.01333  -0.00775
 Alpha virt. eigenvalues --   -0.00436  -0.00256   0.00284   0.00521   0.00571

  Beta  occ. eigenvalues --  -38.44666 -38.44656 -38.44076 -38.44072 -38.44071
  Beta  occ. eigenvalues --  -38.43903 -38.43205  -2.20480  -2.20434  -2.19890
  Beta  occ. eigenvalues --   -2.19871  -2.19819  -2.19651  -2.18961  -1.14177
  Beta  occ. eigenvalues --   -1.14147  -1.14146  -1.14125  -1.14075  -1.14021
  Beta  occ. eigenvalues --   -1.13610  -1.13592  -1.13569  -1.13552  -1.13511
  Beta  occ. eigenvalues --   -1.13506  -1.13493  -1.13479  -1.13476  -1.13340
  Beta  occ. eigenvalues --   -1.13329  -1.13300  -1.12636  -1.12628  -1.12589
  Beta  occ. eigenvalues --   -0.16392  -0.13116  -0.11552
  Beta virt. eigenvalues --   -0.07334  -0.06353  -0.05271  -0.04174  -0.03192
  Beta virt. eigenvalues --   -0.02695  -0.02126  -0.01553  -0.01137  -0.00852
  Beta virt. eigenvalues --   -0.00401  -0.00308  -0.00055   0.00369   0.00599

 Mulliken charges and spin densities:
               1          2
     1  Na  -0.318333   0.191127
     2  Na  -0.630342   0.059484
     3  Na  -0.026783   0.027328
     4  Na   0.317321   0.158493
     5  Na   0.126803   0.230206
     6  Na   0.269660   0.364671
     7  Na   0.261675  -0.031309
 Sum of Mulliken charges =  -0.00000   1.00000

 Dipole moment (field-independent basis, Debye):
    X=              0.1147    Y=             -0.9789    Z=              0.1101  Tot=              0.9917
 Quadrupole moment (field-independent basis, Debye-Ang):
   XX=            -64.5497   YY=            -68.1400   ZZ=            -66.6112
   XY=              2.2939   XZ=             -0.0277   YZ=              1.4164

 Normal termination of Gaussian 16 at Wed Nov 29 04:04:15 2023.
