 Gaussian 16, Revision B.01,
 Gaussian 16:  ES64L-G16RevB.01 20-Dec-2017

 -------------------------
 #P B3LYP/6-311+g(d) force
 -------------------------

 -----
 DPGEN
 -----
 Symbolic Z-matrix:
 Charge =  0 Multiplicity = 2

                         Standard orientation:
 ---------------------------------------------------------------------
 Center     Atomic      Atomic             Coordinates (Angstroms)
 Number     Number       Type             X           Y           Z
 ---------------------------------------------------------------------
      1         11           0       -0.715576    1.163155    1.885094
      2         11           0        2.376566    1.884467    0.350939
      3         11           0       -0.694732    2.264093   -1.655423
      4         11           0        2.173321   -1.255072   -1.266530
      5         11           0        0.787677   -1.765407    1.661283
      6         11           0       -0.862579   -2.260094   -0.990116
      7         11           0       -3.064676   -0.031142    0.014752
 ---------------------------------------------------------------------

 SCF Done:  E(UB3LYP) =  -1136.13197023     A.U. after   19 cycles

 The electronic state is 2-A.
 Alpha  occ. eigenvalues --  -38.44499 -38.44097 -38.43823 -38.43701 -38.43466
 Alpha  occ. eigenvalues --  -38.43441 -38.43347  -2.20289  -2.20004  -2.19727
 Alpha  occ. eigenvalues --   -2.19570  -2.19291  -2.19274  -2.19248  -1.13957
 Alpha  occ. eigenvalues --   -1.13935  -1.13912  -1.13696  -1.13660  -1.13634
 Alpha  occ. eigenvalues --   -1.13402  -1.13380  -1.13348  -1.13265  -1.13227
 Alpha  occ. eigenvalues --   -1.13192  -1.12990  -1.12964  -1.12949  -1.12936
 Alpha  occ. eigenvalues --   -1.12927  -1.12916  -1.12911  -1.12910  -1.12843
 Alpha  occ. eigenvalues --   -0.18364  -0.12731  -0.12367  -0.11727
 Alpha virt. eigenvalues --   -0.05377  -0.04884  -0.04483  -0.03903  -0.03413
 Alpha virt. eigenvalues --   -0.03158  -0.00976  -0.00702  -0.00490   0.00102
 Alpha virt. eigenvalues --    0.00190   0.00464   0.00590   0.00683   0.00876

  Beta  occ. eigenvalues --  -38.44456 -38.44050 -38.43761 -38.43678 -38.43467
  Beta  occ. eigenvalues --  -38.43439 -38.43329  -2.20208  -2.19919  -2.19615
  Beta  occ. eigenvalues --   -2.19528  -2.19291  -2.19278  -2.19217  -1.13898
  Beta  occ. eigenvalues --   -1.13883  -1.13854  -1.13642  -1.13580  -1.13574
  Beta  occ. eigenvalues --   -1.13328  -1.13300  -1.13257  -1.13231  -1.13195
  Beta  occ. eigenvalues --   -1.13163  -1.12984  -1.12954  -1.12941  -1.12936
  Beta  occ. eigenvalues --   -1.12917  -1.12916  -1.12894  -1.12876  -1.12826
  Beta  occ. eigenvalues --   -0.17605  -0.12556  -0.12193
  Beta virt. eigenvalues --   -0.07798  -0.05156  -0.04816  -0.03972  -0.03644
  Beta virt. eigenvalues --   -0.02770  -0.02172  -0.00933  -0.00673  -0.00174
  Beta virt. eigenvalues --    0.00184   0.00216   0.00515   0.00702   0.00789

 Mulliken charges and spin densities:
               1          2
     1  Na   0.177378   0.333903
     2  Na   0.027788   0.001199
     3  Na  -0.351066   0.230386
     4  Na   0.010087   0.189305
     5  Na  -0.044645  -0.025433
     6  Na   0.027091   0.242276
     7  Na   0.153366   0.028363
 Sum of Mulliken charges =  -0.00000   1.00000

 Dipole moment (field-independent basis, Debye):
    X=              0.0730    Y=              0.2169    Z=             -0.2911  Tot=              0.3703
 Quadrupole moment (field-independent basis, Debye-Ang):
   XX=            -64.2517   YY=            -68.5754   ZZ=            -64.6470
   XY=             -0.0375   XZ=              0.6522   YZ=             -1.3576

 Normal termination of Gaussian 16 at Fri Dec  8 17:29:24 2023.
