 Gaussian 16, Revision B.01,
 Gaussian 16:  ES64L-G16RevB.01 20-Dec-2017

 -------------------------
 #P B3LYP/6-311+g(d) force
 -------------------------

 -----
 DPGEN
 -----
 Symbolic Z-matrix:
 Charge =  0 Multiplicity = 2

                         Standard orientation:
 ---------------------------------------------------------------------
 Center     Atomic      Atomic             Coordinates (Angstroms)
 Number     Number       Type             X           Y           Z
 ---------------------------------------------------------------------
      1         11           0        1.975452   -2.267273   -1.306123
      2         11           0       -2.973187   -0.297148    2.024123
      3         11           0       -2.723267   -1.134746   -1.974557
      4         11           0       -0.604534   -0.038102    0.094145
      5         11           0        2.213177   -0.917393    2.347036
      6         11           0        2.653791    1.575069   -0.800525
      7         11           0       -0.541431    3.079593   -0.384100
 ---------------------------------------------------------------------

 SCF Done:  E(UB3LYP) =  -1136.11373618     A.U. after   21 cycles

 The electronic state is 2-A.
 Alpha  occ. eigenvalues --  -38.45008 -38.44895 -38.44864 -38.44377 -38.43953
 Alpha  occ. eigenvalues --  -38.42758 -38.42435  -2.20772  -2.20694  -2.20654
 Alpha  occ. eigenvalues --   -2.20135  -2.19737  -2.18569  -2.18462  -1.14437
 Alpha  occ. eigenvalues --   -1.14425  -1.14392  -1.14377  -1.14339  -1.14329
 Alpha  occ. eigenvalues --   -1.14301  -1.14292  -1.14260  -1.13812  -1.13804
 Alpha  occ. eigenvalues --   -1.13755  -1.13431  -1.13400  -1.13349  -1.12306
 Alpha  occ. eigenvalues --   -1.12232  -1.12205  -1.12184  -1.12100  -1.12079
 Alpha  occ. eigenvalues --   -0.17184  -0.13029  -0.11205  -0.11124
 Alpha virt. eigenvalues --   -0.06459  -0.05546  -0.04517  -0.03418  -0.02669
 Alpha virt. eigenvalues --   -0.02464  -0.01782  -0.01280  -0.00762  -0.00294
 Alpha virt. eigenvalues --    0.00049   0.00088   0.00242   0.00317   0.00631

  Beta  occ. eigenvalues --  -38.44955 -38.44850 -38.44813 -38.44364 -38.43950
  Beta  occ. eigenvalues --  -38.42760 -38.42416  -2.20673  -2.20610  -2.20558
  Beta  occ. eigenvalues --   -2.20112  -2.19732  -2.18574  -2.18437  -1.14365
  Beta  occ. eigenvalues --   -1.14358  -1.14332  -1.14312  -1.14272  -1.14271
  Beta  occ. eigenvalues --   -1.14242  -1.14228  -1.14193  -1.13791  -1.13789
  Beta  occ. eigenvalues --   -1.13736  -1.13420  -1.13397  -1.13349  -1.12309
  Beta  occ. eigenvalues --   -1.12228  -1.12188  -1.12117  -1.12095  -1.12073
  Beta  occ. eigenvalues --   -0.16558  -0.12793  -0.11015
  Beta virt. eigenvalues --   -0.07658  -0.05518  -0.05428  -0.04371  -0.03128
  Beta virt. eigenvalues --   -0.02153  -0.02046  -0.01682  -0.00731  -0.00657
  Beta virt. eigenvalues --   -0.00072   0.00114   0.00254   0.00346   0.00454

 Mulliken charges and spin densities:
               1          2
     1  Na   0.130563   0.081599
     2  Na   0.445694   0.257146
     3  Na   0.524060   0.208020
     4  Na  -1.753525   0.463963
     5  Na   0.111159   0.093088
     6  Na   0.283077  -0.050595
     7  Na   0.258972  -0.053222
 Sum of Mulliken charges =  -0.00000   1.00000

 Dipole moment (field-independent basis, Debye):
    X=             -0.1474    Y=             -0.5995    Z=              0.2232  Tot=              0.6565
 Quadrupole moment (field-independent basis, Debye-Ang):
   XX=            -55.3037   YY=            -74.4999   ZZ=            -61.4006
   XY=             -0.6327   XZ=             -0.2082   YZ=              2.5778

 Normal termination of Gaussian 16 at Fri Dec  8 00:34:34 2023.
