 Gaussian 16, Revision B.01,
 Gaussian 16:  ES64L-G16RevB.01 20-Dec-2017

 -------------------------
 #P B3LYP/6-311+g(d) force
 -------------------------

 -----
 DPGEN
 -----
 Symbolic Z-matrix:
 Charge =  0 Multiplicity = 2

                         Standard orientation:
 ---------------------------------------------------------------------
 Center     Atomic      Atomic             Coordinates (Angstroms)
 Number     Number       Type             X           Y           Z
 ---------------------------------------------------------------------
      1         11           0       -1.818479   -2.423275   -0.149841
      2         11           0       -1.374403    2.427663   -0.246240
      3         11           0        0.302838   -0.645917   -1.225665
      4         11           0        0.425678    0.059604    2.113976
      5         11           0        2.468763    2.042110   -0.392919
      6         11           0        3.278994   -1.635945   -0.075531
      7         11           0       -3.283391    0.175759   -0.023781
 ---------------------------------------------------------------------

 SCF Done:  E(UB3LYP) =  -1136.12090488     A.U. after   22 cycles

 The electronic state is 2-A.
 Alpha  occ. eigenvalues --  -38.45088 -38.44657 -38.44512 -38.43731 -38.43475
 Alpha  occ. eigenvalues --  -38.43395 -38.43153  -2.20867  -2.20559  -2.20306
 Alpha  occ. eigenvalues --   -2.19628  -2.19455  -2.19262  -2.19016  -1.14543
 Alpha  occ. eigenvalues --   -1.14519  -1.14505  -1.14287  -1.14224  -1.14189
 Alpha  occ. eigenvalues --   -1.13989  -1.13964  -1.13932  -1.13412  -1.13281
 Alpha  occ. eigenvalues --   -1.13243  -1.13150  -1.13083  -1.13055  -1.12928
 Alpha  occ. eigenvalues --   -1.12877  -1.12871  -1.12712  -1.12667  -1.12646
 Alpha  occ. eigenvalues --   -0.18483  -0.13874  -0.11864  -0.10293
 Alpha virt. eigenvalues --   -0.06645  -0.05985  -0.03949  -0.03409  -0.02420
 Alpha virt. eigenvalues --   -0.02344  -0.02172  -0.01599  -0.00756  -0.00177
 Alpha virt. eigenvalues --   -0.00061   0.00209   0.00596   0.00685   0.00792

  Beta  occ. eigenvalues --  -38.45085 -38.44654 -38.44501 -38.43728 -38.43444
  Beta  occ. eigenvalues --  -38.43281 -38.43148  -2.20863  -2.20556  -2.20287
  Beta  occ. eigenvalues --   -2.19625  -2.19402  -2.19053  -2.19009  -1.14536
  Beta  occ. eigenvalues --   -1.14506  -1.14505  -1.14290  -1.14223  -1.14168
  Beta  occ. eigenvalues --   -1.13966  -1.13946  -1.13920  -1.13401  -1.13282
  Beta  occ. eigenvalues --   -1.13218  -1.13095  -1.13045  -1.13021  -1.12789
  Beta  occ. eigenvalues --   -1.12731  -1.12725  -1.12709  -1.12656  -1.12628
  Beta  occ. eigenvalues --   -0.17816  -0.13638  -0.11676
  Beta virt. eigenvalues --   -0.06583  -0.06391  -0.05911  -0.03926  -0.02694
  Beta virt. eigenvalues --   -0.02244  -0.01682  -0.01554  -0.01162  -0.00759
  Beta virt. eigenvalues --   -0.00184   0.00139   0.00281   0.00673   0.00712

 Mulliken charges and spin densities:
               1          2
     1  Na   0.936021   0.208399
     2  Na   0.081645   0.081119
     3  Na  -0.627420  -0.033021
     4  Na  -0.579633   0.637786
     5  Na   0.094634   0.045392
     6  Na   0.177548   0.066572
     7  Na  -0.082796  -0.006247
 Sum of Mulliken charges =  -0.00000   1.00000

 Dipole moment (field-independent basis, Debye):
    X=              0.9094    Y=             -0.2442    Z=              0.2082  Tot=              0.9644
 Quadrupole moment (field-independent basis, Debye-Ang):
   XX=            -49.1922   YY=            -66.6997   ZZ=            -77.0234
   XY=             -0.1668   XZ=             -0.4307   YZ=             -1.2728

 Normal termination of Gaussian 16 at Thu Dec  7 13:21:45 2023.
