 Gaussian 16, Revision B.01,
 Gaussian 16:  ES64L-G16RevB.01 20-Dec-2017

 -------------------------
 #P B3LYP/6-311+g(d) force
 -------------------------

 -----
 DPGEN
 -----
 Symbolic Z-matrix:
 Charge =  0 Multiplicity = 2

                         Standard orientation:
 ---------------------------------------------------------------------
 Center     Atomic      Atomic             Coordinates (Angstroms)
 Number     Number       Type             X           Y           Z
 ---------------------------------------------------------------------
      1         11           0        3.264660   -0.793911    0.103860
      2         11           0        0.006371   -2.903825   -0.486087
      3         11           0       -3.015423   -1.090023    0.051713
      4         11           0       -0.086626    0.137816   -1.777154
      5         11           0        1.885336    2.410846   -0.109624
      6         11           0       -0.045403   -0.362461    2.203729
      7         11           0       -2.008914    2.601557    0.013563
 ---------------------------------------------------------------------

 SCF Done:  E(UB3LYP) =  -1136.13608448     A.U. after   19 cycles

 The electronic state is 2-A.
 Alpha  occ. eigenvalues --  -38.44197 -38.44146 -38.44047 -38.43765 -38.43757
 Alpha  occ. eigenvalues --  -38.43506 -38.43397  -2.19999  -2.19928  -2.19874
 Alpha  occ. eigenvalues --   -2.19572  -2.19534  -2.19414  -2.19236  -1.13675
 Alpha  occ. eigenvalues --   -1.13662  -1.13637  -1.13601  -1.13588  -1.13576
 Alpha  occ. eigenvalues --   -1.13531  -1.13506  -1.13491  -1.13266  -1.13241
 Alpha  occ. eigenvalues --   -1.13213  -1.13201  -1.13191  -1.13173  -1.13102
 Alpha  occ. eigenvalues --   -1.13059  -1.13035  -1.12912  -1.12892  -1.12859
 Alpha  occ. eigenvalues --   -0.17987  -0.12772  -0.12215  -0.10788
 Alpha virt. eigenvalues --   -0.05730  -0.05465  -0.04769  -0.03187  -0.02938
 Alpha virt. eigenvalues --   -0.02760  -0.01601  -0.01235  -0.00602  -0.00536
 Alpha virt. eigenvalues --   -0.00061   0.00358   0.00729   0.00829   0.00842

  Beta  occ. eigenvalues --  -38.44195 -38.44147 -38.43950 -38.43763 -38.43757
  Beta  occ. eigenvalues --  -38.43439 -38.43383  -2.19997  -2.19931  -2.19695
  Beta  occ. eigenvalues --   -2.19570  -2.19537  -2.19292  -2.19215  -1.13663
  Beta  occ. eigenvalues --   -1.13653  -1.13638  -1.13592  -1.13586  -1.13579
  Beta  occ. eigenvalues --   -1.13411  -1.13381  -1.13361  -1.13256  -1.13230
  Beta  occ. eigenvalues --   -1.13205  -1.13203  -1.13192  -1.13176  -1.13026
  Beta  occ. eigenvalues --   -1.12973  -1.12951  -1.12883  -1.12858  -1.12848
  Beta  occ. eigenvalues --   -0.17255  -0.12599  -0.12014
  Beta virt. eigenvalues --   -0.06873  -0.05637  -0.05497  -0.04659  -0.02441
  Beta virt. eigenvalues --   -0.02214  -0.01720  -0.01493  -0.01171  -0.00654
  Beta virt. eigenvalues --   -0.00574   0.00097   0.00385   0.00798   0.00832

 Mulliken charges and spin densities:
               1          2
     1  Na   0.051599  -0.046938
     2  Na   0.171770  -0.024516
     3  Na   0.150403  -0.040082
     4  Na   0.110703   0.502633
     5  Na   0.027185  -0.099777
     6  Na  -0.463748   0.813753
     7  Na  -0.047914  -0.105073
 Sum of Mulliken charges =  -0.00000   1.00000

 Dipole moment (field-independent basis, Debye):
    X=             -0.0466    Y=             -0.0542    Z=              0.1451  Tot=              0.1617
 Quadrupole moment (field-independent basis, Debye-Ang):
   XX=            -56.4961   YY=            -63.2184   ZZ=            -74.2601
   XY=             -0.3288   XZ=             -0.1287   YZ=              1.0030

 Normal termination of Gaussian 16 at Thu Dec  7 21:45:09 2023.
