 Gaussian 16, Revision B.01,
 Gaussian 16:  ES64L-G16RevB.01 20-Dec-2017

 -------------------------
 #P B3LYP/6-311+g(d) force
 -------------------------

 -----
 DPGEN
 -----
 Symbolic Z-matrix:
 Charge =  0 Multiplicity = 2

                         Standard orientation:
 ---------------------------------------------------------------------
 Center     Atomic      Atomic             Coordinates (Angstroms)
 Number     Number       Type             X           Y           Z
 ---------------------------------------------------------------------
      1         11           0       -1.861562   -2.820478   -0.543989
      2         11           0       -4.632857   -0.925602   -0.456644
      3         11           0       -2.432650    2.253792    0.880839
      4         11           0        0.096983    3.972138   -0.014452
      5         11           0        1.540776   -3.139042    0.859967
      6         11           0        4.241584   -1.351663   -0.081483
      7         11           0        3.047726    2.010855   -0.644237
 ---------------------------------------------------------------------

 SCF Done:  E(UB3LYP) =  -1136.10984225     A.U. after   22 cycles

 The electronic state is 2-A.
 Alpha  occ. eigenvalues --  -38.45467 -38.45074 -38.44776 -38.44762 -38.43977
 Alpha  occ. eigenvalues --  -38.43926 -38.43879  -2.21242  -2.20835  -2.20545
 Alpha  occ. eigenvalues --   -2.20534  -2.19775  -2.19732  -2.19681  -1.14914
 Alpha  occ. eigenvalues --   -1.14908  -1.14865  -1.14522  -1.14512  -1.14469
 Alpha  occ. eigenvalues --   -1.14226  -1.14218  -1.14206  -1.14203  -1.14187
 Alpha  occ. eigenvalues --   -1.14140  -1.13427  -1.13422  -1.13406  -1.13405
 Alpha  occ. eigenvalues --   -1.13394  -1.13380  -1.13337  -1.13330  -1.13309
 Alpha  occ. eigenvalues --   -0.15517  -0.13731  -0.13620  -0.10768
 Alpha virt. eigenvalues --   -0.07714  -0.04947  -0.04488  -0.03605  -0.03338
 Alpha virt. eigenvalues --   -0.02317  -0.02139  -0.01840  -0.01589  -0.00890
 Alpha virt. eigenvalues --   -0.00670  -0.00255   0.00100   0.00392   0.00624

  Beta  occ. eigenvalues --  -38.45428 -38.45063 -38.44785 -38.44707 -38.43925
  Beta  occ. eigenvalues --  -38.43919 -38.43821  -2.21174  -2.20821  -2.20563
  Beta  occ. eigenvalues --   -2.20432  -2.19724  -2.19678  -2.19573  -1.14869
  Beta  occ. eigenvalues --   -1.14863  -1.14799  -1.14519  -1.14508  -1.14417
  Beta  occ. eigenvalues --   -1.14243  -1.14232  -1.14182  -1.14137  -1.14122
  Beta  occ. eigenvalues --   -1.14074  -1.13394  -1.13390  -1.13362  -1.13361
  Beta  occ. eigenvalues --   -1.13353  -1.13344  -1.13263  -1.13256  -1.13240
  Beta  occ. eigenvalues --   -0.14991  -0.13139  -0.12964
  Beta virt. eigenvalues --   -0.07795  -0.07487  -0.04528  -0.04036  -0.03421
  Beta virt. eigenvalues --   -0.02936  -0.02183  -0.01932  -0.01619  -0.01465
  Beta virt. eigenvalues --   -0.00545  -0.00413  -0.00082   0.00302   0.00435

 Mulliken charges and spin densities:
               1          2
     1  Na  -0.395261   0.062535
     2  Na   0.549293   0.253278
     3  Na  -0.286012   0.233415
     4  Na   0.241063   0.012196
     5  Na  -0.301160   0.254562
     6  Na   0.264168  -0.101498
     7  Na  -0.072092   0.285512
 Sum of Mulliken charges =  -0.00000   1.00000

 Dipole moment (field-independent basis, Debye):
    X=             -0.1714    Y=              0.3404    Z=              0.0238  Tot=              0.3819
 Quadrupole moment (field-independent basis, Debye-Ang):
   XX=            -60.6134   YY=            -67.5025   ZZ=            -72.1789
   XY=             -2.9058   XZ=             -1.3988   YZ=              0.1079

 Normal termination of Gaussian 16 at Sun Dec  3 11:44:17 2023.
