 Gaussian 16, Revision B.01,
 Gaussian 16:  ES64L-G16RevB.01 20-Dec-2017

 -------------------------
 #P B3LYP/6-311+g(d) force
 -------------------------

 -----
 DPGEN
 -----
 Symbolic Z-matrix:
 Charge =  0 Multiplicity = 2

                         Standard orientation:
 ---------------------------------------------------------------------
 Center     Atomic      Atomic             Coordinates (Angstroms)
 Number     Number       Type             X           Y           Z
 ---------------------------------------------------------------------
      1         11           0        0.720076   -1.924143   -0.282028
      2         11           0        3.847732   -2.763176   -0.398935
      3         11           0        3.300578    0.609196    0.724616
      4         11           0        2.113040    3.596879   -0.650219
      5         11           0       -0.235402    1.189370    0.461273
      6         11           0       -3.324210   -0.600797    0.568821
      7         11           0       -6.421814   -0.107329   -0.423529
 ---------------------------------------------------------------------

 SCF Done:  E(UB3LYP) =  -1136.12478277     A.U. after   20 cycles

 The electronic state is 2-A.
 Alpha  occ. eigenvalues --  -38.44690 -38.44391 -38.44278 -38.44006 -38.43857
 Alpha  occ. eigenvalues --  -38.43805 -38.43340  -2.20519  -2.20197  -2.20127
 Alpha  occ. eigenvalues --   -2.19802  -2.19728  -2.19626  -2.19135  -1.14229
 Alpha  occ. eigenvalues --   -1.14202  -1.14100  -1.13829  -1.13829  -1.13829
 Alpha  occ. eigenvalues --   -1.13823  -1.13809  -1.13735  -1.13470  -1.13466
 Alpha  occ. eigenvalues --   -1.13430  -1.13428  -1.13416  -1.13299  -1.13286
 Alpha  occ. eigenvalues --   -1.13281  -1.13255  -1.12827  -1.12820  -1.12779
 Alpha  occ. eigenvalues --   -0.16984  -0.13733  -0.12510  -0.11312
 Alpha virt. eigenvalues --   -0.05999  -0.05321  -0.04675  -0.03839  -0.02493
 Alpha virt. eigenvalues --   -0.02308  -0.02028  -0.01977  -0.01045  -0.00800
 Alpha virt. eigenvalues --   -0.00390  -0.00134   0.00156   0.00506   0.00665

  Beta  occ. eigenvalues --  -38.44666 -38.44293 -38.44249 -38.43992 -38.43817
  Beta  occ. eigenvalues --  -38.43790 -38.43346  -2.20476  -2.20077  -2.20014
  Beta  occ. eigenvalues --   -2.19776  -2.19658  -2.19597  -2.19155  -1.14194
  Beta  occ. eigenvalues --   -1.14176  -1.14065  -1.13794  -1.13778  -1.13706
  Beta  occ. eigenvalues --   -1.13704  -1.13703  -1.13681  -1.13449  -1.13448
  Beta  occ. eigenvalues --   -1.13411  -1.13383  -1.13372  -1.13265  -1.13260
  Beta  occ. eigenvalues --   -1.13236  -1.13234  -1.12849  -1.12842  -1.12729
  Beta  occ. eigenvalues --   -0.16416  -0.12861  -0.12339
  Beta virt. eigenvalues --   -0.07878  -0.05869  -0.04823  -0.04296  -0.03638
  Beta virt. eigenvalues --   -0.02205  -0.02199  -0.01780  -0.01421  -0.00909
  Beta virt. eigenvalues --   -0.00486  -0.00126   0.00013   0.00328   0.00604

 Mulliken charges and spin densities:
               1          2
     1  Na  -1.136557   0.104391
     2  Na   1.359147   0.149484
     3  Na  -0.026056   0.260562
     4  Na   0.578165   0.089026
     5  Na  -0.831290   0.064953
     6  Na  -0.220545  -0.139672
     7  Na   0.277136   0.471256
 Sum of Mulliken charges =  -0.00000   1.00000

 Dipole moment (field-independent basis, Debye):
    X=              1.2894    Y=              0.3028    Z=             -0.4757  Tot=              1.4073
 Quadrupole moment (field-independent basis, Debye-Ang):
   XX=            -60.2740   YY=            -63.8662   ZZ=            -70.1320
   XY=             -2.1894   XZ=              1.9019   YZ=             -1.1547

 Normal termination of Gaussian 16 at Tue Nov 28 20:57:36 2023.
