 Gaussian 16, Revision B.01,
 Gaussian 16:  ES64L-G16RevB.01 20-Dec-2017

 -------------------------
 #P B3LYP/6-311+g(d) force
 -------------------------

 -----
 DPGEN
 -----
 Symbolic Z-matrix:
 Charge =  0 Multiplicity = 2

                         Standard orientation:
 ---------------------------------------------------------------------
 Center     Atomic      Atomic             Coordinates (Angstroms)
 Number     Number       Type             X           Y           Z
 ---------------------------------------------------------------------
      1         11           0       -2.992398    0.772734    0.281669
      2         11           0       -1.730917   -2.335312   -0.391717
      3         11           0        2.886612    1.289232   -0.244521
      4         11           0        2.376321   -1.706552    0.119698
      5         11           0        0.161143   -0.532134    1.997101
      6         11           0       -0.181522   -0.017799   -1.926477
      7         11           0       -0.519238    2.529829    0.164246
 ---------------------------------------------------------------------

 SCF Done:  E(UB3LYP) =  -1136.13281823     A.U. after   20 cycles

 The electronic state is 2-A.
 Alpha  occ. eigenvalues --  -38.44198 -38.44058 -38.43882 -38.43841 -38.43765
 Alpha  occ. eigenvalues --  -38.43260 -38.42758  -2.20076  -2.19907  -2.19791
 Alpha  occ. eigenvalues --   -2.19731  -2.19705  -2.19126  -2.18662  -1.13776
 Alpha  occ. eigenvalues --   -1.13728  -1.13713  -1.13646  -1.13564  -1.13549
 Alpha  occ. eigenvalues --   -1.13523  -1.13441  -1.13407  -1.13384  -1.13371
 Alpha  occ. eigenvalues --   -1.13354  -1.13349  -1.13334  -1.13316  -1.12812
 Alpha  occ. eigenvalues --   -1.12779  -1.12752  -1.12350  -1.12317  -1.12300
 Alpha  occ. eigenvalues --   -0.18916  -0.13565  -0.12042  -0.11224
 Alpha virt. eigenvalues --   -0.05860  -0.05231  -0.03980  -0.03635  -0.02989
 Alpha virt. eigenvalues --   -0.02799  -0.01645  -0.00988  -0.00176  -0.00047
 Alpha virt. eigenvalues --    0.00015   0.00366   0.00750   0.00879   0.00903

  Beta  occ. eigenvalues --  -38.44192 -38.44055 -38.43835 -38.43800 -38.43683
  Beta  occ. eigenvalues --  -38.43250 -38.42751  -2.20068  -2.19904  -2.19724
  Beta  occ. eigenvalues --   -2.19639  -2.19555  -2.19110  -2.18653  -1.13774
  Beta  occ. eigenvalues --   -1.13713  -1.13698  -1.13647  -1.13549  -1.13539
  Beta  occ. eigenvalues --   -1.13465  -1.13357  -1.13343  -1.13335  -1.13299
  Beta  occ. eigenvalues --   -1.13283  -1.13274  -1.13242  -1.13213  -1.12792
  Beta  occ. eigenvalues --   -1.12758  -1.12739  -1.12348  -1.12300  -1.12279
  Beta  occ. eigenvalues --   -0.18162  -0.13331  -0.11775
  Beta virt. eigenvalues --   -0.07303  -0.05771  -0.05224  -0.03941  -0.02827
  Beta virt. eigenvalues --   -0.02170  -0.01799  -0.01535  -0.00921  -0.00207
  Beta virt. eigenvalues --   -0.00019   0.00082   0.00389   0.00835   0.00888

 Mulliken charges and spin densities:
               1          2
     1  Na   0.142749  -0.017935
     2  Na   0.272532  -0.071260
     3  Na  -0.049113  -0.037706
     4  Na   0.448546  -0.038178
     5  Na  -0.452892   0.558747
     6  Na  -0.423601   0.596263
     7  Na   0.061779   0.010069
 Sum of Mulliken charges =  -0.00000   1.00000

 Dipole moment (field-independent basis, Debye):
    X=              0.0816    Y=             -0.1473    Z=              0.0559  Tot=              0.1775
 Quadrupole moment (field-independent basis, Debye-Ang):
   XX=            -55.2730   YY=            -68.6327   ZZ=            -71.6336
   XY=              0.8067   XZ=             -1.1707   YZ=              0.7507

 Normal termination of Gaussian 16 at Tue Dec  5 20:47:37 2023.
