 Gaussian 16, Revision B.01,
 Gaussian 16:  ES64L-G16RevB.01 20-Dec-2017

 -------------------------
 #P B3LYP/6-311+g(d) force
 -------------------------

 -----
 DPGEN
 -----
 Symbolic Z-matrix:
 Charge =  0 Multiplicity = 2

                         Standard orientation:
 ---------------------------------------------------------------------
 Center     Atomic      Atomic             Coordinates (Angstroms)
 Number     Number       Type             X           Y           Z
 ---------------------------------------------------------------------
      1         11           0        0.667039    3.693010   -0.121881
      2         11           0       -2.755627    2.467691    0.471871
      3         11           0       -4.763095   -0.127374   -0.279038
      4         11           0       -2.211343   -3.024982    0.396385
      5         11           0        1.036296   -3.224184   -0.871896
      6         11           0        4.158399   -1.561846    0.922628
      7         11           0        3.868331    1.777685   -0.518068
 ---------------------------------------------------------------------

 SCF Done:  E(UB3LYP) =  -1136.10547638     A.U. after   22 cycles

 The electronic state is 2-A.
 Alpha  occ. eigenvalues --  -38.45343 -38.44936 -38.44902 -38.44819 -38.44659
 Alpha  occ. eigenvalues --  -38.44284 -38.43813  -2.21072  -2.20694  -2.20656
 Alpha  occ. eigenvalues --   -2.20584  -2.20411  -2.20078  -2.19589  -1.14764
 Alpha  occ. eigenvalues --   -1.14746  -1.14706  -1.14382  -1.14371  -1.14333
 Alpha  occ. eigenvalues --   -1.14333  -1.14323  -1.14281  -1.14246  -1.14223
 Alpha  occ. eigenvalues --   -1.14213  -1.14088  -1.14078  -1.14034  -1.13733
 Alpha  occ. eigenvalues --   -1.13720  -1.13711  -1.13250  -1.13241  -1.13211
 Alpha  occ. eigenvalues --   -0.15180  -0.13788  -0.13177  -0.10866
 Alpha virt. eigenvalues --   -0.07680  -0.05276  -0.04505  -0.03403  -0.03256
 Alpha virt. eigenvalues --   -0.02701  -0.02373  -0.01944  -0.01276  -0.00767
 Alpha virt. eigenvalues --   -0.00465  -0.00286  -0.00136   0.00090   0.00526

  Beta  occ. eigenvalues --  -38.45348 -38.44930 -38.44874 -38.44765 -38.44638
  Beta  occ. eigenvalues --  -38.44230 -38.43754  -2.21085  -2.20688  -2.20607
  Beta  occ. eigenvalues --   -2.20483  -2.20375  -2.19979  -2.19479  -1.14777
  Beta  occ. eigenvalues --   -1.14759  -1.14687  -1.14383  -1.14373  -1.14303
  Beta  occ. eigenvalues --   -1.14291  -1.14289  -1.14228  -1.14178  -1.14159
  Beta  occ. eigenvalues --   -1.14139  -1.14067  -1.14057  -1.13990  -1.13666
  Beta  occ. eigenvalues --   -1.13652  -1.13644  -1.13175  -1.13168  -1.13140
  Beta  occ. eigenvalues --   -0.14631  -0.13091  -0.12377
  Beta virt. eigenvalues --   -0.07886  -0.07821  -0.04827  -0.04004  -0.03205
  Beta virt. eigenvalues --   -0.02942  -0.02458  -0.02146  -0.01800  -0.01102
  Beta virt. eigenvalues --   -0.00475  -0.00249  -0.00108   0.00060   0.00226

 Mulliken charges and spin densities:
               1          2
     1  Na   0.166683   0.309647
     2  Na  -0.166066   0.048761
     3  Na   0.186867   0.220815
     4  Na  -0.072930   0.119176
     5  Na  -0.117933   0.062055
     6  Na   0.099390   0.247856
     7  Na  -0.096011  -0.008310
 Sum of Mulliken charges =  -0.00000   1.00000

 Dipole moment (field-independent basis, Debye):
    X=              0.2164    Y=             -0.5823    Z=              0.0422  Tot=              0.6226
 Quadrupole moment (field-independent basis, Debye-Ang):
   XX=            -59.6129   YY=            -69.1109   ZZ=            -70.6769
   XY=              1.9558   XZ=             -0.9419   YZ=             -1.2635

 Normal termination of Gaussian 16 at Mon Dec  4 02:04:36 2023.
