 Gaussian 16, Revision B.01,
 Gaussian 16:  ES64L-G16RevB.01 20-Dec-2017

 -------------------------
 #P B3LYP/6-311+g(d) force
 -------------------------

 -----
 DPGEN
 -----
 Symbolic Z-matrix:
 Charge =  0 Multiplicity = 2

                         Standard orientation:
 ---------------------------------------------------------------------
 Center     Atomic      Atomic             Coordinates (Angstroms)
 Number     Number       Type             X           Y           Z
 ---------------------------------------------------------------------
      1         11           0       -3.128217   -0.827079   -0.251071
      2         11           0       -0.230325   -0.339513   -1.485327
      3         11           0        0.504051   -2.957028   -0.208192
      4         11           0       -0.452493   -0.126380    2.228374
      5         11           0        3.210702   -0.654397    0.103757
      6         11           0        1.985009    2.615554   -0.278631
      7         11           0       -1.888728    2.288842   -0.108911
 ---------------------------------------------------------------------

 SCF Done:  E(UB3LYP) =  -1136.13237383     A.U. after   19 cycles

 The electronic state is 2-A.
 Alpha  occ. eigenvalues --  -38.44384 -38.44362 -38.43801 -38.43780 -38.43568
 Alpha  occ. eigenvalues --  -38.43453 -38.43266  -2.20234  -2.20152  -2.19649
 Alpha  occ. eigenvalues --   -2.19622  -2.19346  -2.19309  -2.19255  -1.13929
 Alpha  occ. eigenvalues --   -1.13884  -1.13870  -1.13830  -1.13812  -1.13791
 Alpha  occ. eigenvalues --   -1.13318  -1.13305  -1.13288  -1.13274  -1.13259
 Alpha  occ. eigenvalues --   -1.13250  -1.13121  -1.13022  -1.13005  -1.12991
 Alpha  occ. eigenvalues --   -1.12960  -1.12928  -1.12917  -1.12870  -1.12843
 Alpha  occ. eigenvalues --   -0.18293  -0.13171  -0.12177  -0.10655
 Alpha virt. eigenvalues --   -0.05944  -0.05431  -0.04697  -0.03199  -0.02708
 Alpha virt. eigenvalues --   -0.02590  -0.01744  -0.01127  -0.00663  -0.00550
 Alpha virt. eigenvalues --   -0.00036   0.00320   0.00745   0.00815   0.00847

  Beta  occ. eigenvalues --  -38.44375 -38.44363 -38.43774 -38.43691 -38.43568
  Beta  occ. eigenvalues --  -38.43449 -38.43214  -2.20222  -2.20155  -2.19615
  Beta  occ. eigenvalues --   -2.19445  -2.19347  -2.19302  -2.19164  -1.13915
  Beta  occ. eigenvalues --   -1.13866  -1.13853  -1.13820  -1.13816  -1.13798
  Beta  occ. eigenvalues --   -1.13306  -1.13260  -1.13250  -1.13165  -1.13133
  Beta  occ. eigenvalues --   -1.13120  -1.13095  -1.13014  -1.13007  -1.12993
  Beta  occ. eigenvalues --   -1.12933  -1.12924  -1.12859  -1.12801  -1.12791
  Beta  occ. eigenvalues --   -0.17585  -0.12991  -0.11978
  Beta virt. eigenvalues --   -0.06667  -0.05887  -0.05414  -0.04640  -0.02459
  Beta virt. eigenvalues --   -0.01964  -0.01666  -0.01517  -0.01065  -0.00685
  Beta virt. eigenvalues --   -0.00601   0.00148   0.00372   0.00809   0.00825

 Mulliken charges and spin densities:
               1          2
     1  Na   0.428828   0.018735
     2  Na  -0.049944   0.257846
     3  Na   0.219186  -0.032953
     4  Na  -0.533494   0.741321
     5  Na  -0.016006  -0.001483
     6  Na  -0.106761  -0.030364
     7  Na   0.058191   0.046897
 Sum of Mulliken charges =  -0.00000   1.00000

 Dipole moment (field-independent basis, Debye):
    X=             -0.2307    Y=             -0.2030    Z=              0.1769  Tot=              0.3546
 Quadrupole moment (field-independent basis, Debye-Ang):
   XX=            -54.8448   YY=            -63.2997   ZZ=            -75.6443
   XY=             -0.4999   XZ=              0.8980   YZ=             -0.5857

 Normal termination of Gaussian 16 at Thu Dec  7 02:40:12 2023.
