 Gaussian 16, Revision B.01,
 Gaussian 16:  ES64L-G16RevB.01 20-Dec-2017

 -------------------------
 #P B3LYP/6-311+g(d) force
 -------------------------

 -----
 DPGEN
 -----
 Symbolic Z-matrix:
 Charge =  0 Multiplicity = 2

                         Standard orientation:
 ---------------------------------------------------------------------
 Center     Atomic      Atomic             Coordinates (Angstroms)
 Number     Number       Type             X           Y           Z
 ---------------------------------------------------------------------
      1         11           0        2.856551    1.661020    0.180033
      2         11           0       -0.091356   -0.470131    1.968963
      3         11           0       -1.018249    2.724960   -0.055619
      4         11           0       -3.209919    0.113951    0.059146
      5         11           0       -1.173381   -2.393400   -0.468521
      6         11           0        0.329698    0.344486   -1.585003
      7         11           0        2.306657   -1.980886   -0.098999
 ---------------------------------------------------------------------

 SCF Done:  E(UB3LYP) =  -1136.13656967     A.U. after   20 cycles

 The electronic state is 2-A.
 Alpha  occ. eigenvalues --  -38.44277 -38.44088 -38.43792 -38.43511 -38.43440
 Alpha  occ. eigenvalues --  -38.43111 -38.42995  -2.20073  -2.19930  -2.19641
 Alpha  occ. eigenvalues --   -2.19357  -2.19345  -2.19025  -2.18991  -1.13754
 Alpha  occ. eigenvalues --   -1.13729  -1.13711  -1.13606  -1.13589  -1.13579
 Alpha  occ. eigenvalues --   -1.13322  -1.13312  -1.13272  -1.13083  -1.13030
 Alpha  occ. eigenvalues --   -1.13014  -1.12977  -1.12974  -1.12956  -1.12739
 Alpha  occ. eigenvalues --   -1.12682  -1.12662  -1.12652  -1.12617  -1.12599
 Alpha  occ. eigenvalues --   -0.18739  -0.13147  -0.12409  -0.10569
 Alpha virt. eigenvalues --   -0.05867  -0.05391  -0.04410  -0.03166  -0.02829
 Alpha virt. eigenvalues --   -0.02354  -0.01690  -0.01212  -0.00435  -0.00221
 Alpha virt. eigenvalues --   -0.00001   0.00345   0.00762   0.00842   0.00906

  Beta  occ. eigenvalues --  -38.44276 -38.44085 -38.43786 -38.43507 -38.43352
  Beta  occ. eigenvalues --  -38.43095 -38.42932  -2.20072  -2.19929  -2.19634
  Beta  occ. eigenvalues --   -2.19352  -2.19184  -2.19000  -2.18877  -1.13745
  Beta  occ. eigenvalues --   -1.13723  -1.13713  -1.13606  -1.13584  -1.13565
  Beta  occ. eigenvalues --   -1.13317  -1.13283  -1.13269  -1.13073  -1.12994
  Beta  occ. eigenvalues --   -1.12975  -1.12924  -1.12866  -1.12840  -1.12708
  Beta  occ. eigenvalues --   -1.12639  -1.12633  -1.12586  -1.12539  -1.12519
  Beta  occ. eigenvalues --   -0.18008  -0.12936  -0.12172
  Beta virt. eigenvalues --   -0.06650  -0.05828  -0.05377  -0.04368  -0.02412
  Beta virt. eigenvalues --   -0.02075  -0.01598  -0.01300  -0.01146  -0.00480
  Beta virt. eigenvalues --   -0.00254   0.00145   0.00373   0.00816   0.00843

 Mulliken charges and spin densities:
               1          2
     1  Na  -0.009509  -0.083493
     2  Na  -0.563796   0.779264
     3  Na   0.102051  -0.101725
     4  Na   0.114210   0.002214
     5  Na   0.294116   0.041322
     6  Na  -0.170190   0.404822
     7  Na   0.233119  -0.042405
 Sum of Mulliken charges =  -0.00000   1.00000

 Dipole moment (field-independent basis, Debye):
    X=              0.2705    Y=              0.1496    Z=              0.2109  Tot=              0.3742
 Quadrupole moment (field-independent basis, Debye-Ang):
   XX=            -53.5429   YY=            -63.7971   ZZ=            -75.1807
   XY=              0.0061   XZ=              0.7956   YZ=              1.8211

 Normal termination of Gaussian 16 at Thu Dec  7 22:45:38 2023.
