 Gaussian 16, Revision B.01,
 Gaussian 16:  ES64L-G16RevB.01 20-Dec-2017

 -------------------------
 #P B3LYP/6-311+g(d) force
 -------------------------

 -----
 DPGEN
 -----
 Symbolic Z-matrix:
 Charge =  0 Multiplicity = 2

                         Standard orientation:
 ---------------------------------------------------------------------
 Center     Atomic      Atomic             Coordinates (Angstroms)
 Number     Number       Type             X           Y           Z
 ---------------------------------------------------------------------
      1         11           0       -6.876306    0.444418    0.892967
      2         11           0       -5.362305    2.808708   -0.455320
      3         11           0       -3.948817   -1.244381   -0.674878
      4         11           0       -0.234791   -2.463609    0.295683
      5         11           0        3.171759   -2.280996   -0.063133
      6         11           0        5.291610    0.717859   -0.474719
      7         11           0        7.958851    2.018001    0.479400
 ---------------------------------------------------------------------

 SCF Done:  E(UB3LYP) =  -1136.10584120     A.U. after   20 cycles

 The electronic state is 2-A.
 Alpha  occ. eigenvalues --  -38.45955 -38.45922 -38.44791 -38.43781 -38.43758
 Alpha  occ. eigenvalues --  -38.43682 -38.43372  -2.21755  -2.21719  -2.20579
 Alpha  occ. eigenvalues --   -2.19580  -2.19496  -2.19477  -2.19166  -1.15488
 Alpha  occ. eigenvalues --   -1.15409  -1.15394  -1.15378  -1.15362  -1.15297
 Alpha  occ. eigenvalues --   -1.14247  -1.14233  -1.14163  -1.13250  -1.13224
 Alpha  occ. eigenvalues --   -1.13223  -1.13191  -1.13189  -1.13159  -1.13134
 Alpha  occ. eigenvalues --   -1.13130  -1.13073  -1.12838  -1.12836  -1.12807
 Alpha  occ. eigenvalues --   -0.15839  -0.13895  -0.12372  -0.10892
 Alpha virt. eigenvalues --   -0.07098  -0.06065  -0.04254  -0.03683  -0.02884
 Alpha virt. eigenvalues --   -0.02541  -0.02139  -0.01995  -0.01602  -0.01154
 Alpha virt. eigenvalues --   -0.00761  -0.00565  -0.00143   0.00142   0.00187

  Beta  occ. eigenvalues --  -38.45921 -38.45911 -38.44695 -38.43783 -38.43742
  Beta  occ. eigenvalues --  -38.43626 -38.43380  -2.21723  -2.21673  -2.20401
  Beta  occ. eigenvalues --   -2.19546  -2.19507  -2.19371  -2.19184  -1.15456
  Beta  occ. eigenvalues --   -1.15391  -1.15357  -1.15346  -1.15325  -1.15269
  Beta  occ. eigenvalues --   -1.14126  -1.14113  -1.14043  -1.13229  -1.13226
  Beta  occ. eigenvalues --   -1.13205  -1.13174  -1.13173  -1.13149  -1.13061
  Beta  occ. eigenvalues --   -1.13057  -1.13021  -1.12853  -1.12851  -1.12790
  Beta  occ. eigenvalues --   -0.15255  -0.13447  -0.11819
  Beta virt. eigenvalues --   -0.07738  -0.06773  -0.05709  -0.03930  -0.03417
  Beta virt. eigenvalues --   -0.02537  -0.02351  -0.01916  -0.01795  -0.01419
  Beta virt. eigenvalues --   -0.00849  -0.00505  -0.00194   0.00004   0.00206

 Mulliken charges and spin densities:
               1          2
     1  Na   0.271281   0.011430
     2  Na   0.191647   0.198320
     3  Na  -0.461816   0.465233
     4  Na  -0.118519  -0.137365
     5  Na   0.094273   0.287811
     6  Na  -0.315218   0.005841
     7  Na   0.338351   0.168730
 Sum of Mulliken charges =  -0.00000   1.00000

 Dipole moment (field-independent basis, Debye):
    X=             -4.6945    Y=              1.7180    Z=              0.2701  Tot=              5.0063
 Quadrupole moment (field-independent basis, Debye-Ang):
   XX=            -45.1158   YY=            -68.1429   ZZ=            -71.6208
   XY=             -0.4915   XZ=             -1.2039   YZ=             -2.9571

 Normal termination of Gaussian 16 at Sun Dec  3 20:28:00 2023.
