 Gaussian 16, Revision B.01,
 Gaussian 16:  ES64L-G16RevB.01 20-Dec-2017

 -------------------------
 #P B3LYP/6-311+g(d) force
 -------------------------

 -----
 DPGEN
 -----
 Symbolic Z-matrix:
 Charge =  0 Multiplicity = 2

                         Standard orientation:
 ---------------------------------------------------------------------
 Center     Atomic      Atomic             Coordinates (Angstroms)
 Number     Number       Type             X           Y           Z
 ---------------------------------------------------------------------
      1         11           0       -5.303105   -0.938294   -0.521598
      2         11           0        0.188203    1.784863    1.646784
      3         11           0       -2.505844    2.106515   -0.690101
      4         11           0       -1.775493   -1.558891    0.610940
      5         11           0        1.422937   -2.056316    0.034466
      6         11           0        2.919620    1.509394   -0.792305
      7         11           0        5.053682   -0.847271   -0.288186
 ---------------------------------------------------------------------

 SCF Done:  E(UB3LYP) =  -1136.11517503     A.U. after   24 cycles

 The electronic state is 2-A.
 Alpha  occ. eigenvalues --  -38.45347 -38.44896 -38.44528 -38.44349 -38.44029
 Alpha  occ. eigenvalues --  -38.43819 -38.43217  -2.21095  -2.20702  -2.20347
 Alpha  occ. eigenvalues --   -2.20155  -2.19792  -2.19638  -2.19008  -1.14790
 Alpha  occ. eigenvalues --   -1.14757  -1.14693  -1.14393  -1.14366  -1.14325
 Alpha  occ. eigenvalues --   -1.14028  -1.14010  -1.13955  -1.13818  -1.13812
 Alpha  occ. eigenvalues --   -1.13777  -1.13456  -1.13445  -1.13412  -1.13336
 Alpha  occ. eigenvalues --   -1.13293  -1.13267  -1.12675  -1.12673  -1.12655
 Alpha  occ. eigenvalues --   -0.16701  -0.14028  -0.11751  -0.11136
 Alpha virt. eigenvalues --   -0.06485  -0.05521  -0.04932  -0.03281  -0.03036
 Alpha virt. eigenvalues --   -0.02671  -0.01897  -0.01631  -0.01014  -0.00997
 Alpha virt. eigenvalues --   -0.00215   0.00036   0.00090   0.00361   0.00557

  Beta  occ. eigenvalues --  -38.45322 -38.44876 -38.44458 -38.44325 -38.43983
  Beta  occ. eigenvalues --  -38.43783 -38.43217  -2.21049  -2.20666  -2.20223
  Beta  occ. eigenvalues --   -2.20111  -2.19705  -2.19580  -2.19009  -1.14759
  Beta  occ. eigenvalues --   -1.14729  -1.14653  -1.14368  -1.14345  -1.14291
  Beta  occ. eigenvalues --   -1.13948  -1.13922  -1.13847  -1.13783  -1.13777
  Beta  occ. eigenvalues --   -1.13754  -1.13397  -1.13384  -1.13355  -1.13301
  Beta  occ. eigenvalues --   -1.13259  -1.13178  -1.12678  -1.12666  -1.12655
  Beta  occ. eigenvalues --   -0.16009  -0.13535  -0.10964
  Beta virt. eigenvalues --   -0.07964  -0.06290  -0.05311  -0.04512  -0.02949
  Beta virt. eigenvalues --   -0.02718  -0.02365  -0.01580  -0.01367  -0.00855
  Beta virt. eigenvalues --   -0.00614  -0.00046   0.00101   0.00161   0.00456

 Mulliken charges and spin densities:
               1          2
     1  Na   0.414171   0.316055
     2  Na  -0.099870   0.103550
     3  Na   0.054516   0.143625
     4  Na  -0.560210  -0.043183
     5  Na  -0.032448   0.205764
     6  Na  -0.156227   0.128419
     7  Na   0.380069   0.145770
 Sum of Mulliken charges =  -0.00000   1.00000

 Dipole moment (field-independent basis, Debye):
    X=              1.0009    Y=              0.5440    Z=             -0.4093  Tot=              1.2105
 Quadrupole moment (field-independent basis, Debye-Ang):
   XX=            -57.5424   YY=            -72.1698   ZZ=            -68.0950
   XY=             -4.0081   XZ=              1.8817   YZ=             -4.1884

 Normal termination of Gaussian 16 at Mon Dec  4 03:13:57 2023.
