 Gaussian 16, Revision B.01,
 Gaussian 16:  ES64L-G16RevB.01 20-Dec-2017

 -------------------------
 #P B3LYP/6-311+g(d) force
 -------------------------

 -----
 DPGEN
 -----
 Symbolic Z-matrix:
 Charge =  0 Multiplicity = 2

                         Standard orientation:
 ---------------------------------------------------------------------
 Center     Atomic      Atomic             Coordinates (Angstroms)
 Number     Number       Type             X           Y           Z
 ---------------------------------------------------------------------
      1         11           0       -0.670123   -0.709531   -1.701323
      2         11           0        3.993761   -0.621499    0.118560
      3         11           0        1.866704    2.062402   -0.654535
      4         11           0       -0.542050    1.986107    1.536057
      5         11           0        1.002092   -1.865593    0.236346
      6         11           0       -2.153900   -1.397153    1.362674
      7         11           0       -3.496482    0.545266   -0.897779
 ---------------------------------------------------------------------

 SCF Done:  E(UB3LYP) =  -1136.11378498     A.U. after   25 cycles

 The electronic state is 2-A.
 Alpha  occ. eigenvalues --  -38.45724 -38.45140 -38.44521 -38.43905 -38.43323
 Alpha  occ. eigenvalues --  -38.43186 -38.43117  -2.21502  -2.20986  -2.20471
 Alpha  occ. eigenvalues --   -2.19800  -2.19146  -2.19122  -2.18937  -1.15183
 Alpha  occ. eigenvalues --   -1.15156  -1.15144  -1.14666  -1.14644  -1.14601
 Alpha  occ. eigenvalues --   -1.14254  -1.14087  -1.14064  -1.13480  -1.13447
 Alpha  occ. eigenvalues --   -1.13422  -1.12866  -1.12841  -1.12825  -1.12779
 Alpha  occ. eigenvalues --   -1.12746  -1.12709  -1.12610  -1.12585  -1.12561
 Alpha  occ. eigenvalues --   -0.18384  -0.13999  -0.11378  -0.10961
 Alpha virt. eigenvalues --   -0.07533  -0.05179  -0.03773  -0.03335  -0.03244
 Alpha virt. eigenvalues --   -0.02520  -0.02360  -0.01241  -0.00445  -0.00263
 Alpha virt. eigenvalues --   -0.00090   0.00178   0.00279   0.00662   0.00790

  Beta  occ. eigenvalues --  -38.45737 -38.45093 -38.44464 -38.43856 -38.43328
  Beta  occ. eigenvalues --  -38.43163 -38.43085  -2.21527  -2.20903  -2.20369
  Beta  occ. eigenvalues --   -2.19713  -2.19156  -2.19083  -2.18878  -1.15200
  Beta  occ. eigenvalues --   -1.15174  -1.15159  -1.14602  -1.14584  -1.14536
  Beta  occ. eigenvalues --   -1.14156  -1.14021  -1.13997  -1.13408  -1.13389
  Beta  occ. eigenvalues --   -1.13348  -1.12850  -1.12836  -1.12823  -1.12788
  Beta  occ. eigenvalues --   -1.12711  -1.12670  -1.12572  -1.12542  -1.12519
  Beta  occ. eigenvalues --   -0.17677  -0.13819  -0.11226
  Beta virt. eigenvalues --   -0.07400  -0.06988  -0.05008  -0.03306  -0.03149
  Beta virt. eigenvalues --   -0.02972  -0.02092  -0.01464  -0.01058  -0.00260
  Beta virt. eigenvalues --   -0.00174   0.00022   0.00204   0.00435   0.00767

 Mulliken charges and spin densities:
               1          2
     1  Na   0.140992   0.138996
     2  Na  -0.102136  -0.148861
     3  Na   0.050318   0.083993
     4  Na  -0.389118   0.097050
     5  Na   0.123425   0.294167
     6  Na   0.030430   0.384141
     7  Na   0.146088   0.150515
 Sum of Mulliken charges =  -0.00000   1.00000

 Dipole moment (field-independent basis, Debye):
    X=              0.3230    Y=             -0.1344    Z=              0.1433  Tot=              0.3780
 Quadrupole moment (field-independent basis, Debye-Ang):
   XX=            -43.7080   YY=            -78.0414   ZZ=            -71.2963
   XY=             -1.4687   XZ=             -0.9596   YZ=             -2.9711

 Normal termination of Gaussian 16 at Tue Dec  5 18:15:27 2023.
