 Gaussian 16, Revision B.01,
 Gaussian 16:  ES64L-G16RevB.01 20-Dec-2017

 -------------------------
 #P B3LYP/6-311+g(d) force
 -------------------------

 -----
 DPGEN
 -----
 Symbolic Z-matrix:
 Charge =  0 Multiplicity = 2

                         Standard orientation:
 ---------------------------------------------------------------------
 Center     Atomic      Atomic             Coordinates (Angstroms)
 Number     Number       Type             X           Y           Z
 ---------------------------------------------------------------------
      1         11           0        1.405445    1.998883   -0.160080
      2         11           0       -4.638353   -0.230085    0.401692
      3         11           0        2.421796   -0.561495    2.216172
      4         11           0        3.924784   -0.347354   -0.549330
      5         11           0       -2.141244   -2.370056    0.005317
      6         11           0       -1.871403    2.738195   -0.219781
      7         11           0        0.898975   -1.228088   -1.693989
 ---------------------------------------------------------------------

 SCF Done:  E(UB3LYP) =  -1136.11081371     A.U. after   24 cycles

 The electronic state is 2-A.
 Alpha  occ. eigenvalues --  -38.45669 -38.45451 -38.45076 -38.44269 -38.43764
 Alpha  occ. eigenvalues --  -38.43154 -38.43046  -2.21529  -2.21292  -2.20844
 Alpha  occ. eigenvalues --   -2.20113  -2.19537  -2.19013  -2.18807  -1.15226
 Alpha  occ. eigenvalues --   -1.15188  -1.15184  -1.14931  -1.14918  -1.14900
 Alpha  occ. eigenvalues --   -1.14509  -1.14491  -1.14478  -1.13770  -1.13750
 Alpha  occ. eigenvalues --   -1.13738  -1.13216  -1.13210  -1.13185  -1.12710
 Alpha  occ. eigenvalues --   -1.12695  -1.12637  -1.12486  -1.12473  -1.12442
 Alpha  occ. eigenvalues --   -0.17615  -0.13913  -0.11288  -0.11158
 Alpha virt. eigenvalues --   -0.07515  -0.05781  -0.04470  -0.03456  -0.03001
 Alpha virt. eigenvalues --   -0.02455  -0.02343  -0.01385  -0.01064  -0.00755
 Alpha virt. eigenvalues --   -0.00309  -0.00087   0.00035   0.00430   0.00680

  Beta  occ. eigenvalues --  -38.45664 -38.45362 -38.45046 -38.44186 -38.43772
  Beta  occ. eigenvalues --  -38.43140 -38.43055  -2.21529  -2.21127  -2.20787
  Beta  occ. eigenvalues --   -2.19959  -2.19555  -2.18989  -2.18825  -1.15209
  Beta  occ. eigenvalues --   -1.15193  -1.15146  -1.14813  -1.14801  -1.14797
  Beta  occ. eigenvalues --   -1.14470  -1.14455  -1.14440  -1.13666  -1.13649
  Beta  occ. eigenvalues --   -1.13629  -1.13230  -1.13220  -1.13181  -1.12696
  Beta  occ. eigenvalues --   -1.12654  -1.12628  -1.12498  -1.12485  -1.12449
  Beta  occ. eigenvalues --   -0.16874  -0.13572  -0.11116
  Beta virt. eigenvalues --   -0.07613  -0.06985  -0.05615  -0.04246  -0.02983
  Beta virt. eigenvalues --   -0.02654  -0.02003  -0.01853  -0.01383  -0.00725
  Beta virt. eigenvalues --   -0.00426  -0.00214  -0.00047   0.00260   0.00517

 Mulliken charges and spin densities:
               1          2
     1  Na  -0.409209   0.121403
     2  Na   0.158760   0.152485
     3  Na  -0.372655   0.309768
     4  Na   1.581193   0.255922
     5  Na  -0.081239  -0.016551
     6  Na  -0.338048  -0.104582
     7  Na  -0.538802   0.281555
 Sum of Mulliken charges =  -0.00000   1.00000

 Dipole moment (field-independent basis, Debye):
    X=              1.0873    Y=             -0.7295    Z=              0.3682  Tot=              1.3601
 Quadrupole moment (field-independent basis, Debye-Ang):
   XX=            -48.5957   YY=            -79.4983   ZZ=            -69.8781
   XY=             -2.1995   XZ=             -5.1249   YZ=             -1.7822

 Normal termination of Gaussian 16 at Sun Dec  3 19:31:35 2023.
