 Gaussian 16, Revision B.01,
 Gaussian 16:  ES64L-G16RevB.01 20-Dec-2017

 -------------------------
 #P B3LYP/6-311+g(d) force
 -------------------------

 -----
 DPGEN
 -----
 Symbolic Z-matrix:
 Charge =  0 Multiplicity = 2

                         Standard orientation:
 ---------------------------------------------------------------------
 Center     Atomic      Atomic             Coordinates (Angstroms)
 Number     Number       Type             X           Y           Z
 ---------------------------------------------------------------------
      1         11           0       -3.919619   -2.298079    0.146246
      2         11           0       -3.689073    1.573973    0.856415
      3         11           0        3.035524   -2.401468   -0.160252
      4         11           0       -1.275615    3.321618   -0.800663
      5         11           0        4.231898    0.083608    0.823205
      6         11           0       -0.448027   -3.402137   -0.596930
      7         11           0        2.064913    3.122485   -0.268023
 ---------------------------------------------------------------------

 SCF Done:  E(UB3LYP) =  -1136.10336321     A.U. after   25 cycles

 The electronic state is 2-A.
 Alpha  occ. eigenvalues --  -38.45619 -38.44761 -38.44676 -38.44557 -38.44442
 Alpha  occ. eigenvalues --  -38.44298 -38.44263  -2.21329  -2.20589  -2.20507
 Alpha  occ. eigenvalues --   -2.20342  -2.20220  -2.20068  -2.20052  -1.15023
 Alpha  occ. eigenvalues --   -1.14999  -1.14974  -1.14415  -1.14242  -1.14232
 Alpha  occ. eigenvalues --   -1.14142  -1.14126  -1.14082  -1.14002  -1.13997
 Alpha  occ. eigenvalues --   -1.13973  -1.13901  -1.13896  -1.13863  -1.13731
 Alpha  occ. eigenvalues --   -1.13723  -1.13705  -1.13693  -1.13684  -1.13669
 Alpha  occ. eigenvalues --   -0.15541  -0.13974  -0.13360  -0.10742
 Alpha virt. eigenvalues --   -0.08057  -0.04902  -0.04496  -0.03649  -0.03511
 Alpha virt. eigenvalues --   -0.02338  -0.02086  -0.01963  -0.01289  -0.01105
 Alpha virt. eigenvalues --   -0.00843  -0.00043   0.00061   0.00181   0.00616

  Beta  occ. eigenvalues --  -38.45642 -38.44743 -38.44639 -38.44494 -38.44444
  Beta  occ. eigenvalues --  -38.44238 -38.44191  -2.21375  -2.20561  -2.20444
  Beta  occ. eigenvalues --   -2.20232  -2.20226  -2.19957  -2.19918  -1.15058
  Beta  occ. eigenvalues --   -1.15033  -1.14981  -1.14364  -1.14227  -1.14208
  Beta  occ. eigenvalues --   -1.14102  -1.14083  -1.14029  -1.13932  -1.13924
  Beta  occ. eigenvalues --   -1.13912  -1.13903  -1.13892  -1.13820  -1.13655
  Beta  occ. eigenvalues --   -1.13648  -1.13613  -1.13613  -1.13607  -1.13584
  Beta  occ. eigenvalues --   -0.14980  -0.13323  -0.12663
  Beta virt. eigenvalues --   -0.08168  -0.07621  -0.04384  -0.03989  -0.03463
  Beta virt. eigenvalues --   -0.03232  -0.02126  -0.01983  -0.01818  -0.01136
  Beta virt. eigenvalues --   -0.00681  -0.00604   0.00089   0.00182   0.00344

 Mulliken charges and spin densities:
               1          2
     1  Na   0.137994  -0.097321
     2  Na  -0.137019   0.328570
     3  Na   0.046035   0.092664
     4  Na  -0.189766  -0.058378
     5  Na   0.145882   0.120275
     6  Na  -0.100904   0.302746
     7  Na   0.097778   0.311443
 Sum of Mulliken charges =  -0.00000   1.00000

 Dipole moment (field-independent basis, Debye):
    X=              0.1255    Y=             -0.2299    Z=              0.1502  Tot=              0.3019
 Quadrupole moment (field-independent basis, Debye-Ang):
   XX=            -58.9838   YY=            -69.2535   ZZ=            -72.0542
   XY=              4.4804   XZ=              0.6141   YZ=              0.9159

 Normal termination of Gaussian 16 at Sun Dec  3 21:10:49 2023.
