 Gaussian 16, Revision B.01,
 Gaussian 16:  ES64L-G16RevB.01 20-Dec-2017

 -------------------------
 #P B3LYP/6-311+g(d) force
 -------------------------

 -----
 DPGEN
 -----
 Symbolic Z-matrix:
 Charge =  0 Multiplicity = 2

                         Standard orientation:
 ---------------------------------------------------------------------
 Center     Atomic      Atomic             Coordinates (Angstroms)
 Number     Number       Type             X           Y           Z
 ---------------------------------------------------------------------
      1         11           0       -6.409022   -0.213548   -1.080661
      2         11           0       -3.478220   -0.580965   -0.128249
      3         11           0        4.505214   -2.338968   -0.071846
      4         11           0        4.522169    1.365642   -0.944503
      5         11           0        1.360461    2.526329   -0.411088
      6         11           0       -1.101344    1.180189    2.233536
      7         11           0        0.600742   -1.938679    0.402811
 ---------------------------------------------------------------------

 SCF Done:  E(UB3LYP) =  -1136.10683384     A.U. after   24 cycles

 The electronic state is 2-A.
 Alpha  occ. eigenvalues --  -38.46347 -38.45072 -38.44927 -38.44737 -38.44576
 Alpha  occ. eigenvalues --  -38.43342 -38.43318  -2.22090  -2.20848  -2.20703
 Alpha  occ. eigenvalues --   -2.20492  -2.20322  -2.19149  -2.19126  -1.15777
 Alpha  occ. eigenvalues --   -1.15741  -1.15673  -1.14526  -1.14520  -1.14463
 Alpha  occ. eigenvalues --   -1.14376  -1.14359  -1.14316  -1.14174  -1.14146
 Alpha  occ. eigenvalues --   -1.14129  -1.13999  -1.13976  -1.13956  -1.12887
 Alpha  occ. eigenvalues --   -1.12818  -1.12811  -1.12785  -1.12784  -1.12686
 Alpha  occ. eigenvalues --   -0.16126  -0.13705  -0.12287  -0.11510
 Alpha virt. eigenvalues --   -0.06778  -0.06052  -0.04706  -0.03606  -0.03022
 Alpha virt. eigenvalues --   -0.02411  -0.02088  -0.02027  -0.01451  -0.00816
 Alpha virt. eigenvalues --   -0.00553  -0.00311  -0.00223  -0.00100   0.00521

  Beta  occ. eigenvalues --  -38.46267 -38.45024 -38.44888 -38.44739 -38.44558
  Beta  occ. eigenvalues --  -38.43322 -38.43307  -2.21942  -2.20761  -2.20633
  Beta  occ. eigenvalues --   -2.20496  -2.20289  -2.19138  -2.19083  -1.15678
  Beta  occ. eigenvalues --   -1.15646  -1.15556  -1.14469  -1.14461  -1.14391
  Beta  occ. eigenvalues --   -1.14331  -1.14308  -1.14258  -1.14176  -1.14149
  Beta  occ. eigenvalues --   -1.14131  -1.13978  -1.13945  -1.13937  -1.12856
  Beta  occ. eigenvalues --   -1.12824  -1.12816  -1.12745  -1.12745  -1.12659
  Beta  occ. eigenvalues --   -0.15409  -0.13251  -0.11294
  Beta virt. eigenvalues --   -0.08682  -0.06377  -0.05622  -0.04409  -0.03128
  Beta virt. eigenvalues --   -0.02826  -0.02224  -0.01897  -0.01731  -0.01173
  Beta virt. eigenvalues --   -0.00653  -0.00273  -0.00164  -0.00105   0.00083

 Mulliken charges and spin densities:
               1          2
     1  Na  -0.441972   0.151920
     2  Na  -0.279845  -0.029634
     3  Na   0.285134  -0.001115
     4  Na   0.095558   0.077162
     5  Na   0.062115   0.273994
     6  Na  -0.030223   0.025260
     7  Na   0.309234   0.502413
 Sum of Mulliken charges =  -0.00000   1.00000

 Dipole moment (field-independent basis, Debye):
    X=              1.7550    Y=              0.4230    Z=              0.6192  Tot=              1.9085
 Quadrupole moment (field-independent basis, Debye-Ang):
   XX=            -68.7915   YY=            -66.8560   ZZ=            -69.0914
   XY=             -3.0707   XZ=             -2.0363   YZ=             -0.7867

 Normal termination of Gaussian 16 at Sun Dec  3 17:06:14 2023.
