 Gaussian 16, Revision B.01,
 Gaussian 16:  ES64L-G16RevB.01 20-Dec-2017

 -------------------------
 #P B3LYP/6-311+g(d) force
 -------------------------

 -----
 DPGEN
 -----
 Symbolic Z-matrix:
 Charge =  0 Multiplicity = 2

                         Standard orientation:
 ---------------------------------------------------------------------
 Center     Atomic      Atomic             Coordinates (Angstroms)
 Number     Number       Type             X           Y           Z
 ---------------------------------------------------------------------
      1         11           0        0.336190   -3.152575   -1.056220
      2         11           0        2.929783   -0.712212    1.834551
      3         11           0        0.056363   -0.391665    0.485599
      4         11           0        2.446748    1.043137   -1.685027
      5         11           0       -3.104099   -1.866385    0.269455
      6         11           0        0.130769    3.083667    0.114842
      7         11           0       -2.795754    1.996033    0.036800
 ---------------------------------------------------------------------

 SCF Done:  E(UB3LYP) =  -1136.12298564     A.U. after   20 cycles

 The electronic state is 2-A.
 Alpha  occ. eigenvalues --  -38.44679 -38.44547 -38.44143 -38.43880 -38.43842
 Alpha  occ. eigenvalues --  -38.43804 -38.42896  -2.20467  -2.20308  -2.19949
 Alpha  occ. eigenvalues --   -2.19723  -2.19659  -2.19639  -2.18887  -1.14155
 Alpha  occ. eigenvalues --   -1.14124  -1.14076  -1.13997  -1.13974  -1.13937
 Alpha  occ. eigenvalues --   -1.13619  -1.13592  -1.13574  -1.13462  -1.13390
 Alpha  occ. eigenvalues --   -1.13371  -1.13322  -1.13314  -1.13297  -1.13262
 Alpha  occ. eigenvalues --   -1.13260  -1.13246  -1.12607  -1.12553  -1.12515
 Alpha  occ. eigenvalues --   -0.17394  -0.12964  -0.12850  -0.10206
 Alpha virt. eigenvalues --   -0.06461  -0.05428  -0.05049  -0.03015  -0.02747
 Alpha virt. eigenvalues --   -0.02098  -0.01532  -0.01347  -0.01245  -0.00895
 Alpha virt. eigenvalues --   -0.00265   0.00270   0.00402   0.00654   0.00669

  Beta  occ. eigenvalues --  -38.44651 -38.44557 -38.44090 -38.43879 -38.43840
  Beta  occ. eigenvalues --  -38.43708 -38.42882  -2.20414  -2.20328  -2.19851
  Beta  occ. eigenvalues --   -2.19723  -2.19654  -2.19461  -2.18867  -1.14122
  Beta  occ. eigenvalues --   -1.14081  -1.14041  -1.14010  -1.13987  -1.13944
  Beta  occ. eigenvalues --   -1.13549  -1.13525  -1.13504  -1.13464  -1.13390
  Beta  occ. eigenvalues --   -1.13359  -1.13316  -1.13293  -1.13260  -1.13188
  Beta  occ. eigenvalues --   -1.13141  -1.13126  -1.12556  -1.12540  -1.12507
  Beta  occ. eigenvalues --   -0.16956  -0.12622  -0.12571
  Beta virt. eigenvalues --   -0.06582  -0.06250  -0.05229  -0.04779  -0.02638
  Beta virt. eigenvalues --   -0.02317  -0.01785  -0.01337  -0.01028  -0.00860
  Beta virt. eigenvalues --   -0.00821   0.00051   0.00390   0.00515   0.00690

 Mulliken charges and spin densities:
               1          2
     1  Na   0.210911   0.090190
     2  Na   0.346760   0.262324
     3  Na  -1.641413   0.507599
     4  Na   0.110557   0.220640
     5  Na   0.408239  -0.111413
     6  Na   0.420386   0.152568
     7  Na   0.144561  -0.121909
 Sum of Mulliken charges =  -0.00000   1.00000

 Dipole moment (field-independent basis, Debye):
    X=             -0.4096    Y=             -0.4262    Z=             -0.5685  Tot=              0.8201
 Quadrupole moment (field-independent basis, Debye-Ang):
   XX=            -57.8183   YY=            -61.1331   ZZ=            -74.1499
   XY=              0.8515   XZ=             -2.0795   YZ=              2.1949

 Normal termination of Gaussian 16 at Tue Dec  5 22:39:07 2023.
