 Gaussian 16, Revision B.01,
 Gaussian 16:  ES64L-G16RevB.01 20-Dec-2017

 -------------------------
 #P B3LYP/6-311+g(d) force
 -------------------------

 -----
 DPGEN
 -----
 Symbolic Z-matrix:
 Charge =  0 Multiplicity = 2

                         Standard orientation:
 ---------------------------------------------------------------------
 Center     Atomic      Atomic             Coordinates (Angstroms)
 Number     Number       Type             X           Y           Z
 ---------------------------------------------------------------------
      1         11           0       -2.957111   -0.225581    0.129886
      2         11           0       -0.720738   -2.696421    0.186027
      3         11           0        2.660981   -1.594838   -0.394479
      4         11           0       -0.951503    2.696625   -0.140886
      5         11           0        2.347854    1.784460    0.106601
      6         11           0       -0.521428   -0.006746   -1.759957
      7         11           0        0.141945    0.042500    1.872809
 ---------------------------------------------------------------------

 SCF Done:  E(UB3LYP) =  -1136.13916027     A.U. after   19 cycles

 The electronic state is 2-A.
 Alpha  occ. eigenvalues --  -38.43766 -38.43713 -38.43594 -38.43333 -38.43316
 Alpha  occ. eigenvalues --  -38.43301 -38.43279  -2.19669  -2.19534  -2.19453
 Alpha  occ. eigenvalues --   -2.19308  -2.19288  -2.19196  -2.19168  -1.13397
 Alpha  occ. eigenvalues --   -1.13327  -1.13300  -1.13210  -1.13199  -1.13184
 Alpha  occ. eigenvalues --   -1.13149  -1.13113  -1.13082  -1.13009  -1.12989
 Alpha  occ. eigenvalues --   -1.12959  -1.12936  -1.12921  -1.12904  -1.12856
 Alpha  occ. eigenvalues --   -1.12848  -1.12821  -1.12816  -1.12814  -1.12787
 Alpha  occ. eigenvalues --   -0.19061  -0.13077  -0.12660  -0.10857
 Alpha virt. eigenvalues --   -0.05347  -0.05130  -0.04724  -0.03229  -0.02989
 Alpha virt. eigenvalues --   -0.02495  -0.01333  -0.01052  -0.00247  -0.00151
 Alpha virt. eigenvalues --    0.00008   0.00371   0.00875   0.00920   0.00928

  Beta  occ. eigenvalues --  -38.43759 -38.43706 -38.43590 -38.43293 -38.43272
  Beta  occ. eigenvalues --  -38.43248 -38.43243  -2.19660  -2.19523  -2.19450
  Beta  occ. eigenvalues --   -2.19185  -2.19175  -2.19159  -2.19133  -1.13384
  Beta  occ. eigenvalues --   -1.13302  -1.13288  -1.13204  -1.13180  -1.13176
  Beta  occ. eigenvalues --   -1.13135  -1.13098  -1.13081  -1.12941  -1.12927
  Beta  occ. eigenvalues --   -1.12873  -1.12849  -1.12829  -1.12825  -1.12810
  Beta  occ. eigenvalues --   -1.12807  -1.12791  -1.12786  -1.12773  -1.12758
  Beta  occ. eigenvalues --   -0.18319  -0.12831  -0.12390
  Beta virt. eigenvalues --   -0.06940  -0.05301  -0.05118  -0.04691  -0.02432
  Beta virt. eigenvalues --   -0.02187  -0.01457  -0.01249  -0.00983  -0.00284
  Beta virt. eigenvalues --   -0.00208   0.00132   0.00392   0.00910   0.00916

 Mulliken charges and spin densities:
               1          2
     1  Na   0.364962  -0.071963
     2  Na   0.149455  -0.033408
     3  Na  -0.082057  -0.044710
     4  Na   0.169340  -0.121035
     5  Na   0.077517  -0.066964
     6  Na  -0.367503   0.696810
     7  Na  -0.311713   0.641271
 Sum of Mulliken charges =  -0.00000   1.00000

 Dipole moment (field-independent basis, Debye):
    X=              0.0065    Y=             -0.0135    Z=              0.0411  Tot=              0.0438
 Quadrupole moment (field-independent basis, Debye-Ang):
   XX=            -57.9693   YY=            -62.2932   ZZ=            -73.6144
   XY=             -0.1369   XZ=             -1.5281   YZ=              0.0812

 Normal termination of Gaussian 16 at Thu Dec  7 15:52:59 2023.
