 Gaussian 16, Revision B.01,
 Gaussian 16:  ES64L-G16RevB.01 20-Dec-2017

 -------------------------
 #P B3LYP/6-311+g(d) force
 -------------------------

 -----
 DPGEN
 -----
 Symbolic Z-matrix:
 Charge =  0 Multiplicity = 2

                         Standard orientation:
 ---------------------------------------------------------------------
 Center     Atomic      Atomic             Coordinates (Angstroms)
 Number     Number       Type             X           Y           Z
 ---------------------------------------------------------------------
      1         11           0        2.483583    1.886258   -0.092342
      2         11           0        2.925310   -1.625589    0.015154
      3         11           0       -0.040665   -0.732060    1.858852
      4         11           0       -1.058034   -2.324832   -0.363194
      5         11           0       -3.473180    0.066888   -0.177443
      6         11           0        0.102683    0.362838   -1.828654
      7         11           0       -0.939698    2.366498    0.587626
 ---------------------------------------------------------------------

 SCF Done:  E(UB3LYP) =  -1136.13169720     A.U. after   19 cycles

 The electronic state is 2-A.
 Alpha  occ. eigenvalues --  -38.44796 -38.44305 -38.43731 -38.43552 -38.43544
 Alpha  occ. eigenvalues --  -38.43273 -38.42925  -2.20597  -2.20093  -2.19568
 Alpha  occ. eigenvalues --   -2.19490  -2.19482  -2.19194  -2.18806  -1.14265
 Alpha  occ. eigenvalues --   -1.14258  -1.14240  -1.13773  -1.13751  -1.13733
 Alpha  occ. eigenvalues --   -1.13275  -1.13270  -1.13229  -1.13204  -1.13179
 Alpha  occ. eigenvalues --   -1.13133  -1.13124  -1.13091  -1.13067  -1.12860
 Alpha  occ. eigenvalues --   -1.12847  -1.12774  -1.12495  -1.12473  -1.12422
 Alpha  occ. eigenvalues --   -0.18682  -0.13262  -0.12060  -0.10807
 Alpha virt. eigenvalues --   -0.06337  -0.05227  -0.03921  -0.03303  -0.02924
 Alpha virt. eigenvalues --   -0.02481  -0.02113  -0.01142  -0.00239  -0.00109
 Alpha virt. eigenvalues --   -0.00003   0.00299   0.00735   0.00783   0.00858

  Beta  occ. eigenvalues --  -38.44795 -38.44305 -38.43729 -38.43479 -38.43467
  Beta  occ. eigenvalues --  -38.43258 -38.42906  -2.20598  -2.20096  -2.19566
  Beta  occ. eigenvalues --   -2.19356  -2.19340  -2.19171  -2.18775  -1.14264
  Beta  occ. eigenvalues --   -1.14243  -1.14242  -1.13766  -1.13747  -1.13736
  Beta  occ. eigenvalues --   -1.13255  -1.13214  -1.13206  -1.13192  -1.13092
  Beta  occ. eigenvalues --   -1.13039  -1.13025  -1.12997  -1.12964  -1.12836
  Beta  occ. eigenvalues --   -1.12791  -1.12757  -1.12477  -1.12425  -1.12403
  Beta  occ. eigenvalues --   -0.17933  -0.13059  -0.11825
  Beta virt. eigenvalues --   -0.06879  -0.06272  -0.05221  -0.03861  -0.02571
  Beta virt. eigenvalues --   -0.02201  -0.01994  -0.01428  -0.01098  -0.00272
  Beta virt. eigenvalues --   -0.00048   0.00080   0.00321   0.00797   0.00837

 Mulliken charges and spin densities:
               1          2
     1  Na   0.091901  -0.049761
     2  Na   0.099743  -0.132796
     3  Na  -0.362088   0.657275
     4  Na   0.321579  -0.071865
     5  Na   0.077213  -0.045953
     6  Na  -0.295206   0.606232
     7  Na   0.066857   0.036868
 Sum of Mulliken charges =  -0.00000   1.00000

 Dipole moment (field-independent basis, Debye):
    X=             -0.0608    Y=             -0.0907    Z=             -0.0653  Tot=              0.1272
 Quadrupole moment (field-independent basis, Debye-Ang):
   XX=            -49.8676   YY=            -69.0169   ZZ=            -73.6788
   XY=             -0.6636   XZ=              0.4411   YZ=              1.7590

 Normal termination of Gaussian 16 at Tue Dec  5 23:29:15 2023.
