 Gaussian 16, Revision B.01,
 Gaussian 16:  ES64L-G16RevB.01 20-Dec-2017

 -------------------------
 #P B3LYP/6-311+g(d) force
 -------------------------

 -----
 DPGEN
 -----
 Symbolic Z-matrix:
 Charge =  0 Multiplicity = 2

                         Standard orientation:
 ---------------------------------------------------------------------
 Center     Atomic      Atomic             Coordinates (Angstroms)
 Number     Number       Type             X           Y           Z
 ---------------------------------------------------------------------
      1         11           0        0.030986   -0.032246    0.666073
      2         11           0        2.613252    2.476461   -0.402399
      3         11           0       -3.991030    0.568269    0.946648
      4         11           0        3.704189   -1.139515    0.606543
      5         11           0       -0.678114    3.330624   -0.522911
      6         11           0       -2.447421   -1.951126   -0.995666
      7         11           0        0.768138   -3.252467   -0.298288
 ---------------------------------------------------------------------

 SCF Done:  E(UB3LYP) =  -1136.12656120     A.U. after   21 cycles

 The electronic state is 2-A.
 Alpha  occ. eigenvalues --  -38.44578 -38.44512 -38.44328 -38.44173 -38.43755
 Alpha  occ. eigenvalues --  -38.43574 -38.43443  -2.20363  -2.20349  -2.20143
 Alpha  occ. eigenvalues --   -2.19969  -2.19578  -2.19379  -2.19246  -1.14088
 Alpha  occ. eigenvalues --   -1.14050  -1.14031  -1.14000  -1.13995  -1.13974
 Alpha  occ. eigenvalues --   -1.13828  -1.13807  -1.13772  -1.13639  -1.13622
 Alpha  occ. eigenvalues --   -1.13592  -1.13255  -1.13246  -1.13198  -1.13033
 Alpha  occ. eigenvalues --   -1.13023  -1.12990  -1.12911  -1.12885  -1.12870
 Alpha  occ. eigenvalues --   -0.16846  -0.13537  -0.13015  -0.09985
 Alpha virt. eigenvalues --   -0.06411  -0.05741  -0.04464  -0.03599  -0.02756
 Alpha virt. eigenvalues --   -0.02419  -0.01844  -0.01383  -0.01149  -0.00717
 Alpha virt. eigenvalues --   -0.00340   0.00096   0.00338   0.00568   0.00676

  Beta  occ. eigenvalues --  -38.44574 -38.44521 -38.44313 -38.44148 -38.43731
  Beta  occ. eigenvalues --  -38.43496 -38.43384  -2.20367  -2.20360  -2.20121
  Beta  occ. eigenvalues --   -2.19924  -2.19538  -2.19231  -2.19136  -1.14090
  Beta  occ. eigenvalues --   -1.14052  -1.14036  -1.14012  -1.13993  -1.13965
  Beta  occ. eigenvalues --   -1.13818  -1.13799  -1.13714  -1.13608  -1.13594
  Beta  occ. eigenvalues --   -1.13552  -1.13232  -1.13221  -1.13148  -1.12932
  Beta  occ. eigenvalues --   -1.12923  -1.12895  -1.12835  -1.12809  -1.12800
  Beta  occ. eigenvalues --   -0.16559  -0.12855  -0.12418
  Beta virt. eigenvalues --   -0.06761  -0.06427  -0.05518  -0.04108  -0.03157
  Beta virt. eigenvalues --   -0.02380  -0.02154  -0.01638  -0.01181  -0.00957
  Beta virt. eigenvalues --   -0.00439  -0.00047   0.00295   0.00479   0.00636

 Mulliken charges and spin densities:
               1          2
     1  Na  -2.377792  -0.144122
     2  Na   0.273853   0.029089
     3  Na   0.611419   0.504498
     4  Na   0.577834   0.349826
     5  Na   0.297187   0.108136
     6  Na   0.364531   0.047116
     7  Na   0.252969   0.105457
 Sum of Mulliken charges =  -0.00000   1.00000

 Dipole moment (field-independent basis, Debye):
    X=              0.1971    Y=              0.2595    Z=             -0.7346  Tot=              0.8036
 Quadrupole moment (field-independent basis, Debye-Ang):
   XX=            -65.8748   YY=            -62.1482   ZZ=            -70.6678
   XY=              0.9906   XZ=              1.0457   YZ=              0.4561

 Normal termination of Gaussian 16 at Wed Nov 29 16:19:28 2023.
