 Gaussian 16, Revision B.01,
 Gaussian 16:  ES64L-G16RevB.01 20-Dec-2017

 -------------------------
 #P B3LYP/6-311+g(d) force
 -------------------------

 -----
 DPGEN
 -----
 Symbolic Z-matrix:
 Charge =  0 Multiplicity = 2

                         Standard orientation:
 ---------------------------------------------------------------------
 Center     Atomic      Atomic             Coordinates (Angstroms)
 Number     Number       Type             X           Y           Z
 ---------------------------------------------------------------------
      1         11           0        3.155479   -0.829328   -0.044796
      2         11           0        1.601328    2.863870    0.335462
      3         11           0       -2.027001    1.897193    0.076908
      4         11           0        0.554343   -3.048379   -0.150590
      5         11           0       -2.940478   -1.097991   -0.354207
      6         11           0       -0.502964   -0.458412    1.841970
      7         11           0        0.159292    0.673045   -1.704746
 ---------------------------------------------------------------------

 SCF Done:  E(UB3LYP) =  -1136.13370671     A.U. after   19 cycles

 The electronic state is 2-A.
 Alpha  occ. eigenvalues --  -38.44314 -38.43909 -38.43871 -38.43734 -38.43663
 Alpha  occ. eigenvalues --  -38.43281 -38.43272  -2.20097  -2.19769  -2.19671
 Alpha  occ. eigenvalues --   -2.19595  -2.19546  -2.19214  -2.19189  -1.13776
 Alpha  occ. eigenvalues --   -1.13758  -1.13737  -1.13480  -1.13425  -1.13416
 Alpha  occ. eigenvalues --   -1.13351  -1.13331  -1.13320  -1.13309  -1.13263
 Alpha  occ. eigenvalues --   -1.13227  -1.13209  -1.13190  -1.13183  -1.12896
 Alpha  occ. eigenvalues --   -1.12861  -1.12844  -1.12823  -1.12817  -1.12807
 Alpha  occ. eigenvalues --   -0.18433  -0.13026  -0.12568  -0.10336
 Alpha virt. eigenvalues --   -0.05713  -0.05403  -0.04998  -0.03089  -0.02971
 Alpha virt. eigenvalues --   -0.02157  -0.01517  -0.01275  -0.00650  -0.00479
 Alpha virt. eigenvalues --    0.00003   0.00358   0.00765   0.00832   0.00856

  Beta  occ. eigenvalues --  -38.44314 -38.43900 -38.43866 -38.43731 -38.43650
  Beta  occ. eigenvalues --  -38.43219 -38.43194  -2.20099  -2.19756  -2.19663
  Beta  occ. eigenvalues --   -2.19576  -2.19544  -2.19101  -2.19045  -1.13765
  Beta  occ. eigenvalues --   -1.13758  -1.13742  -1.13474  -1.13411  -1.13384
  Beta  occ. eigenvalues --   -1.13342  -1.13315  -1.13314  -1.13298  -1.13219
  Beta  occ. eigenvalues --   -1.13212  -1.13195  -1.13184  -1.13178  -1.12821
  Beta  occ. eigenvalues --   -1.12770  -1.12760  -1.12736  -1.12710  -1.12706
  Beta  occ. eigenvalues --   -0.17712  -0.12805  -0.12380
  Beta virt. eigenvalues --   -0.06495  -0.05697  -0.05333  -0.04888  -0.02365
  Beta virt. eigenvalues --   -0.02253  -0.01428  -0.01222  -0.01171  -0.00674
  Beta virt. eigenvalues --   -0.00519   0.00160   0.00399   0.00796   0.00850

 Mulliken charges and spin densities:
               1          2
     1  Na  -0.075189  -0.117200
     2  Na  -0.067899  -0.063956
     3  Na   0.405990   0.114536
     4  Na  -0.026152  -0.107875
     5  Na   0.124138  -0.031604
     6  Na  -0.237880   0.687081
     7  Na  -0.123008   0.519019
 Sum of Mulliken charges =  -0.00000   1.00000

 Dipole moment (field-independent basis, Debye):
    X=              0.2525    Y=             -0.0915    Z=              0.0212  Tot=              0.2694
 Quadrupole moment (field-independent basis, Debye-Ang):
   XX=            -56.6953   YY=            -60.6191   ZZ=            -75.8408
   XY=              1.7031   XZ=              1.6067   YZ=              2.5788

 Normal termination of Gaussian 16 at Thu Dec  7 10:26:35 2023.
