 Gaussian 16, Revision B.01,
 Gaussian 16:  ES64L-G16RevB.01 20-Dec-2017

 -------------------------
 #P B3LYP/6-311+g(d) force
 -------------------------

 -----
 DPGEN
 -----
 Symbolic Z-matrix:
 Charge =  0 Multiplicity = 2

                         Standard orientation:
 ---------------------------------------------------------------------
 Center     Atomic      Atomic             Coordinates (Angstroms)
 Number     Number       Type             X           Y           Z
 ---------------------------------------------------------------------
      1         11           0       -3.635853   -2.127053    0.323016
      2         11           0       -3.336281    1.413159   -0.753550
      3         11           0        0.753022    0.182431    1.459885
      4         11           0        3.546191   -1.883684   -0.475532
      5         11           0       -0.688810    3.121956    0.027212
      6         11           0        3.348279    1.704290   -0.217719
      7         11           0        0.013452   -2.411099   -0.363311
 ---------------------------------------------------------------------

 SCF Done:  E(UB3LYP) =  -1136.11690958     A.U. after   24 cycles

 The electronic state is 2-A.
 Alpha  occ. eigenvalues --  -38.44911 -38.44724 -38.44633 -38.44246 -38.44063
 Alpha  occ. eigenvalues --  -38.43725 -38.43642  -2.20699  -2.20518  -2.20383
 Alpha  occ. eigenvalues --   -2.20034  -2.19935  -2.19526  -2.19466  -1.14383
 Alpha  occ. eigenvalues --   -1.14359  -1.14317  -1.14198  -1.14156  -1.14150
 Alpha  occ. eigenvalues --   -1.14062  -1.14032  -1.14026  -1.13710  -1.13702
 Alpha  occ. eigenvalues --   -1.13664  -1.13629  -1.13583  -1.13550  -1.13200
 Alpha  occ. eigenvalues --   -1.13195  -1.13160  -1.13150  -1.13133  -1.13072
 Alpha  occ. eigenvalues --   -0.16965  -0.13737  -0.12434  -0.10066
 Alpha virt. eigenvalues --   -0.07448  -0.05521  -0.04495  -0.03377  -0.03153
 Alpha virt. eigenvalues --   -0.02344  -0.02139  -0.01521  -0.01071  -0.00813
 Alpha virt. eigenvalues --    0.00006   0.00066   0.00267   0.00447   0.00576

  Beta  occ. eigenvalues --  -38.44873 -38.44686 -38.44621 -38.44218 -38.44005
  Beta  occ. eigenvalues --  -38.43724 -38.43616  -2.20632  -2.20451  -2.20363
  Beta  occ. eigenvalues --   -2.19982  -2.19830  -2.19525  -2.19420  -1.14340
  Beta  occ. eigenvalues --   -1.14318  -1.14245  -1.14155  -1.14110  -1.14083
  Beta  occ. eigenvalues --   -1.14050  -1.14019  -1.13999  -1.13675  -1.13664
  Beta  occ. eigenvalues --   -1.13628  -1.13555  -1.13511  -1.13472  -1.13201
  Beta  occ. eigenvalues --   -1.13193  -1.13151  -1.13110  -1.13096  -1.13052
  Beta  occ. eigenvalues --   -0.16377  -0.13126  -0.12287
  Beta virt. eigenvalues --   -0.07377  -0.06644  -0.05265  -0.04247  -0.02929
  Beta virt. eigenvalues --   -0.02517  -0.02182  -0.01886  -0.01363  -0.00842
  Beta virt. eigenvalues --   -0.00653   0.00106   0.00216   0.00458   0.00523

 Mulliken charges and spin densities:
               1          2
     1  Na   0.308063   0.174154
     2  Na  -0.141266   0.252378
     3  Na  -0.099370  -0.088505
     4  Na   0.287904   0.327059
     5  Na   0.028591  -0.022988
     6  Na   0.105389   0.352423
     7  Na  -0.489312   0.005479
 Sum of Mulliken charges =  -0.00000   1.00000

 Dipole moment (field-independent basis, Debye):
    X=              0.4948    Y=             -0.2058    Z=              0.1411  Tot=              0.5542
 Quadrupole moment (field-independent basis, Debye-Ang):
   XX=            -68.8311   YY=            -61.7426   ZZ=            -70.3954
   XY=              1.1269   XZ=             -0.8530   YZ=             -0.6238

 Normal termination of Gaussian 16 at Mon Dec  4 01:46:09 2023.
