 Gaussian 16, Revision B.01,
 Gaussian 16:  ES64L-G16RevB.01 20-Dec-2017

 -------------------------
 #P B3LYP/6-311+g(d) force
 -------------------------

 -----
 DPGEN
 -----
 Symbolic Z-matrix:
 Charge =  0 Multiplicity = 2

                         Standard orientation:
 ---------------------------------------------------------------------
 Center     Atomic      Atomic             Coordinates (Angstroms)
 Number     Number       Type             X           Y           Z
 ---------------------------------------------------------------------
      1         11           0        2.159965    2.059925   -0.657212
      2         11           0       -2.115797   -1.901140   -0.791983
      3         11           0        1.396473   -1.513776   -1.205556
      4         11           0        0.268281    0.225515    1.907496
      5         11           0       -4.158639    0.157473    1.020015
      6         11           0        4.025137   -0.755668    0.844170
      7         11           0       -1.575421    1.727671   -1.116930
 ---------------------------------------------------------------------

 SCF Done:  E(UB3LYP) =  -1136.11804570     A.U. after   34 cycles

 The electronic state is 2-A.
 Alpha  occ. eigenvalues --  -38.46251 -38.44741 -38.44482 -38.43668 -38.43636
 Alpha  occ. eigenvalues --  -38.43473 -38.43458  -2.22004  -2.20541  -2.20279
 Alpha  occ. eigenvalues --   -2.19480  -2.19454  -2.19325  -2.19289  -1.15706
 Alpha  occ. eigenvalues --   -1.15652  -1.15630  -1.14202  -1.14187  -1.14166
 Alpha  occ. eigenvalues --   -1.13952  -1.13935  -1.13915  -1.13166  -1.13148
 Alpha  occ. eigenvalues --   -1.13140  -1.13110  -1.13096  -1.13068  -1.13021
 Alpha  occ. eigenvalues --   -1.12981  -1.12972  -1.12969  -1.12942  -1.12911
 Alpha  occ. eigenvalues --   -0.17739  -0.14178  -0.11012  -0.10718
 Alpha virt. eigenvalues --   -0.07355  -0.05428  -0.04979  -0.03122  -0.03059
 Alpha virt. eigenvalues --   -0.02437  -0.02108  -0.01505  -0.01149  -0.00464
 Alpha virt. eigenvalues --   -0.00120   0.00178   0.00189   0.00385   0.00591

  Beta  occ. eigenvalues --  -38.46246 -38.44695 -38.44473 -38.43640 -38.43616
  Beta  occ. eigenvalues --  -38.43434 -38.43432  -2.21993  -2.20455  -2.20262
  Beta  occ. eigenvalues --   -2.19428  -2.19417  -2.19255  -2.19250  -1.15690
  Beta  occ. eigenvalues --   -1.15648  -1.15617  -1.14138  -1.14133  -1.14110
  Beta  occ. eigenvalues --   -1.13939  -1.13926  -1.13901  -1.13124  -1.13112
  Beta  occ. eigenvalues --   -1.13109  -1.13091  -1.13058  -1.13035  -1.12973
  Beta  occ. eigenvalues --   -1.12942  -1.12934  -1.12928  -1.12889  -1.12852
  Beta  occ. eigenvalues --   -0.17140  -0.13947  -0.10518
  Beta virt. eigenvalues --   -0.07343  -0.07078  -0.05259  -0.04463  -0.02894
  Beta virt. eigenvalues --   -0.02782  -0.01921  -0.01531  -0.01116  -0.01051
  Beta virt. eigenvalues --   -0.00387  -0.00040   0.00216   0.00327   0.00522

 Mulliken charges and spin densities:
               1          2
     1  Na   0.107516   0.115484
     2  Na  -0.097178  -0.058900
     3  Na  -0.560686   0.198634
     4  Na  -0.464699   0.139054
     5  Na   0.461706   0.374486
     6  Na   0.771310   0.029846
     7  Na  -0.217968   0.201394
 Sum of Mulliken charges =  -0.00000   1.00000

 Dipole moment (field-independent basis, Debye):
    X=              0.0884    Y=              0.4191    Z=              0.8995  Tot=              0.9963
 Quadrupole moment (field-independent basis, Debye-Ang):
   XX=            -51.6268   YY=            -79.3850   ZZ=            -66.7568
   XY=              0.5486   XZ=             -0.5230   YZ=             -1.3846

 Normal termination of Gaussian 16 at Thu Dec  7 04:24:03 2023.
