 Gaussian 16, Revision B.01,
 Gaussian 16:  ES64L-G16RevB.01 20-Dec-2017

 -------------------------
 #P B3LYP/6-311+g(d) force
 -------------------------

 -----
 DPGEN
 -----
 Symbolic Z-matrix:
 Charge =  0 Multiplicity = 2

                         Standard orientation:
 ---------------------------------------------------------------------
 Center     Atomic      Atomic             Coordinates (Angstroms)
 Number     Number       Type             X           Y           Z
 ---------------------------------------------------------------------
      1         11           0        0.808783    2.567169   -0.296350
      2         11           0       -3.267223    0.525413   -1.623570
      3         11           0       -2.751790   -0.907847    1.735374
      4         11           0       -0.744815   -0.527457   -0.599588
      5         11           0        1.061054    0.428030    2.075421
      6         11           0        2.939550    0.376345   -0.420728
      7         11           0        1.954441   -2.461652   -0.870561
 ---------------------------------------------------------------------

 SCF Done:  E(UB3LYP) =  -1136.11546824     A.U. after   23 cycles

 The electronic state is 2-A.
 Alpha  occ. eigenvalues --  -38.44973 -38.44834 -38.44451 -38.44081 -38.43101
 Alpha  occ. eigenvalues --  -38.42996 -38.42178  -2.20801  -2.20682  -2.20368
 Alpha  occ. eigenvalues --   -2.20062  -2.19154  -2.18903  -2.18048  -1.14495
 Alpha  occ. eigenvalues --   -1.14441  -1.14418  -1.14404  -1.14301  -1.14279
 Alpha  occ. eigenvalues --   -1.14071  -1.14041  -1.13971  -1.13754  -1.13722
 Alpha  occ. eigenvalues --   -1.13684  -1.12888  -1.12809  -1.12782  -1.12589
 Alpha  occ. eigenvalues --   -1.12555  -1.12518  -1.11730  -1.11706  -1.11681
 Alpha  occ. eigenvalues --   -0.18612  -0.14122  -0.11516  -0.11211
 Alpha virt. eigenvalues --   -0.06067  -0.05695  -0.04017  -0.03387  -0.02897
 Alpha virt. eigenvalues --   -0.02226  -0.01975  -0.01122  -0.00472   0.00034
 Alpha virt. eigenvalues --    0.00179   0.00232   0.00360   0.00661   0.00795

  Beta  occ. eigenvalues --  -38.44925 -38.44783 -38.44402 -38.44074 -38.43078
  Beta  occ. eigenvalues --  -38.42984 -38.42178  -2.20712  -2.20589  -2.20278
  Beta  occ. eigenvalues --   -2.20050  -2.19119  -2.18882  -2.18049  -1.14435
  Beta  occ. eigenvalues --   -1.14382  -1.14347  -1.14331  -1.14237  -1.14216
  Beta  occ. eigenvalues --   -1.14016  -1.13973  -1.13903  -1.13735  -1.13711
  Beta  occ. eigenvalues --   -1.13676  -1.12806  -1.12782  -1.12769  -1.12573
  Beta  occ. eigenvalues --   -1.12539  -1.12497  -1.11729  -1.11707  -1.11678
  Beta  occ. eigenvalues --   -0.17974  -0.13827  -0.11117
  Beta virt. eigenvalues --   -0.07640  -0.05889  -0.04917  -0.03819  -0.03289
  Beta virt. eigenvalues --   -0.02169  -0.01863  -0.01727  -0.00546  -0.00406
  Beta virt. eigenvalues --    0.00173   0.00267   0.00332   0.00473   0.00783

 Mulliken charges and spin densities:
               1          2
     1  Na  -0.386007   0.206482
     2  Na   0.683466   0.289932
     3  Na  -0.272600   0.305080
     4  Na  -0.831682   0.135809
     5  Na   0.441009   0.218561
     6  Na   0.479156   0.043863
     7  Na  -0.113342  -0.199727
 Sum of Mulliken charges =  -0.00000   1.00000

 Dipole moment (field-independent basis, Debye):
    X=             -1.2436    Y=              0.5617    Z=              0.6025  Tot=              1.4916
 Quadrupole moment (field-independent basis, Debye-Ang):
   XX=            -54.2138   YY=            -74.0217   ZZ=            -65.7185
   XY=              1.6348   XZ=              0.6565   YZ=             -5.1533

 Normal termination of Gaussian 16 at Thu Dec  7 23:52:36 2023.
