 Gaussian 16, Revision B.01,
 Gaussian 16:  ES64L-G16RevB.01 20-Dec-2017

 -------------------------
 #P B3LYP/6-311+g(d) force
 -------------------------

 -----
 DPGEN
 -----
 Symbolic Z-matrix:
 Charge =  0 Multiplicity = 2

                         Standard orientation:
 ---------------------------------------------------------------------
 Center     Atomic      Atomic             Coordinates (Angstroms)
 Number     Number       Type             X           Y           Z
 ---------------------------------------------------------------------
      1         11           0        2.602348   -2.232490    0.351360
      2         11           0       -3.517789   -1.509666   -0.248803
      3         11           0       -0.386249   -0.278123    1.925092
      4         11           0       -2.805205    1.379201    0.086158
      5         11           0        0.185317   -0.832668   -1.791672
      6         11           0        3.296635    0.839902   -0.101434
      7         11           0        0.624943    2.633846   -0.220701
 ---------------------------------------------------------------------

 SCF Done:  E(UB3LYP) =  -1136.12142251     A.U. after   24 cycles

 The electronic state is 2-A.
 Alpha  occ. eigenvalues --  -38.45107 -38.44817 -38.44595 -38.44508 -38.44108
 Alpha  occ. eigenvalues --  -38.43556 -38.42234  -2.20948  -2.20632  -2.20411
 Alpha  occ. eigenvalues --   -2.20376  -2.19953  -2.19390  -2.18082  -1.14619
 Alpha  occ. eigenvalues --   -1.14610  -1.14599  -1.14390  -1.14275  -1.14264
 Alpha  occ. eigenvalues --   -1.14102  -1.14059  -1.14042  -1.14026  -1.14018
 Alpha  occ. eigenvalues --   -1.13996  -1.13631  -1.13581  -1.13568  -1.13072
 Alpha  occ. eigenvalues --   -1.13040  -1.13034  -1.11765  -1.11748  -1.11729
 Alpha  occ. eigenvalues --   -0.18106  -0.14182  -0.11459  -0.10506
 Alpha virt. eigenvalues --   -0.07131  -0.05798  -0.04066  -0.03554  -0.02696
 Alpha virt. eigenvalues --   -0.02480  -0.02298  -0.01535  -0.00737  -0.00227
 Alpha virt. eigenvalues --   -0.00113   0.00196   0.00396   0.00542   0.00704

  Beta  occ. eigenvalues --  -38.45104 -38.44816 -38.44533 -38.44504 -38.44018
  Beta  occ. eigenvalues --  -38.43552 -38.42231  -2.20945  -2.20631  -2.20371
  Beta  occ. eigenvalues --   -2.20297  -2.19788  -2.19385  -2.18079  -1.14616
  Beta  occ. eigenvalues --   -1.14604  -1.14592  -1.14393  -1.14266  -1.14257
  Beta  occ. eigenvalues --   -1.14029  -1.14020  -1.14011  -1.13995  -1.13975
  Beta  occ. eigenvalues --   -1.13937  -1.13518  -1.13465  -1.13447  -1.13073
  Beta  occ. eigenvalues --   -1.13036  -1.13012  -1.11766  -1.11745  -1.11708
  Beta  occ. eigenvalues --   -0.17420  -0.14038  -0.11252
  Beta virt. eigenvalues --   -0.06952  -0.06717  -0.05730  -0.03775  -0.03077
  Beta virt. eigenvalues --   -0.02479  -0.01816  -0.01575  -0.01290  -0.00750
  Beta virt. eigenvalues --   -0.00110   0.00003   0.00228   0.00616   0.00652

 Mulliken charges and spin densities:
               1          2
     1  Na   0.374493   0.060189
     2  Na   0.280719   0.038722
     3  Na  -0.352987   0.454767
     4  Na   0.224083   0.092564
     5  Na  -0.433039   0.391589
     6  Na   0.058869   0.008185
     7  Na  -0.152138  -0.046014
 Sum of Mulliken charges =  -0.00000   1.00000

 Dipole moment (field-independent basis, Debye):
    X=             -0.3356    Y=             -0.4226    Z=             -0.0208  Tot=              0.5400
 Quadrupole moment (field-independent basis, Debye-Ang):
   XX=            -49.2517   YY=            -70.8699   ZZ=            -75.3926
   XY=              1.0060   XZ=              0.7174   YZ=             -0.5250

 Normal termination of Gaussian 16 at Tue Dec  5 21:02:44 2023.
