 Gaussian 16, Revision B.01,
 Gaussian 16:  ES64L-G16RevB.01 20-Dec-2017

 -------------------------
 #P B3LYP/6-311+g(d) force
 -------------------------

 -----
 DPGEN
 -----
 Symbolic Z-matrix:
 Charge =  0 Multiplicity = 2

                         Standard orientation:
 ---------------------------------------------------------------------
 Center     Atomic      Atomic             Coordinates (Angstroms)
 Number     Number       Type             X           Y           Z
 ---------------------------------------------------------------------
      1         11           0        1.156427   -3.033566    0.748994
      2         11           0       -2.999330    2.697349   -0.124590
      3         11           0       -4.077347   -0.706995    0.202006
      4         11           0        4.144613   -1.296080   -0.430093
      5         11           0        3.272420    2.000043    0.120845
      6         11           0       -1.804772   -3.520490   -0.534940
      7         11           0        0.307989    3.859739    0.017778
 ---------------------------------------------------------------------

 SCF Done:  E(UB3LYP) =  -1136.11023151     A.U. after   23 cycles

 The electronic state is 2-A.
 Alpha  occ. eigenvalues --  -38.45293 -38.45252 -38.44951 -38.44772 -38.44133
 Alpha  occ. eigenvalues --  -38.43852 -38.43765  -2.21070  -2.21019  -2.20717
 Alpha  occ. eigenvalues --   -2.20532  -2.19934  -2.19657  -2.19563  -1.14751
 Alpha  occ. eigenvalues --   -1.14742  -1.14705  -1.14699  -1.14692  -1.14652
 Alpha  occ. eigenvalues --   -1.14392  -1.14377  -1.14341  -1.14217  -1.14206
 Alpha  occ. eigenvalues --   -1.14164  -1.13598  -1.13591  -1.13571  -1.13308
 Alpha  occ. eigenvalues --   -1.13301  -1.13293  -1.13224  -1.13218  -1.13194
 Alpha  occ. eigenvalues --   -0.15535  -0.13820  -0.13681  -0.10815
 Alpha virt. eigenvalues --   -0.07807  -0.04916  -0.04245  -0.03570  -0.03368
 Alpha virt. eigenvalues --   -0.02589  -0.02413  -0.01877  -0.01590  -0.00364
 Alpha virt. eigenvalues --   -0.00123  -0.00072  -0.00031   0.00254   0.00319

  Beta  occ. eigenvalues --  -38.45267 -38.45234 -38.44912 -38.44767 -38.44102
  Beta  occ. eigenvalues --  -38.43797 -38.43718  -2.21027  -2.20992  -2.20646
  Beta  occ. eigenvalues --   -2.20527  -2.19881  -2.19555  -2.19476  -1.14724
  Beta  occ. eigenvalues --   -1.14716  -1.14693  -1.14680  -1.14638  -1.14587
  Beta  occ. eigenvalues --   -1.14345  -1.14331  -1.14280  -1.14216  -1.14205
  Beta  occ. eigenvalues --   -1.14135  -1.13560  -1.13552  -1.13530  -1.13239
  Beta  occ. eigenvalues --   -1.13230  -1.13227  -1.13165  -1.13160  -1.13136
  Beta  occ. eigenvalues --   -0.14979  -0.13045  -0.13025
  Beta virt. eigenvalues --   -0.08032  -0.07608  -0.04506  -0.03694  -0.03395
  Beta virt. eigenvalues --   -0.02947  -0.02375  -0.02207  -0.01719  -0.01453
  Beta virt. eigenvalues --   -0.00059   0.00038   0.00143   0.00159   0.00350

 Mulliken charges and spin densities:
               1          2
     1  Na  -0.351887   0.131005
     2  Na   0.106650   0.054594
     3  Na  -0.103917   0.142462
     4  Na   0.115385   0.249169
     5  Na  -0.107332   0.131498
     6  Na   0.005132   0.102920
     7  Na   0.335968   0.188351
 Sum of Mulliken charges =  -0.00000   1.00000

 Dipole moment (field-independent basis, Debye):
    X=             -0.1395    Y=             -0.5115    Z=              0.0491  Tot=              0.5325
 Quadrupole moment (field-independent basis, Debye-Ang):
   XX=            -62.5614   YY=            -65.6769   ZZ=            -71.9835
   XY=              1.0987   XZ=              0.6509   YZ=              0.1734

 Normal termination of Gaussian 16 at Sun Dec  3 18:56:48 2023.
