 Gaussian 16, Revision B.01,
 Gaussian 16:  ES64L-G16RevB.01 20-Dec-2017

 -------------------------
 #P B3LYP/6-311+g(d) force
 -------------------------

 -----
 DPGEN
 -----
 Symbolic Z-matrix:
 Charge =  0 Multiplicity = 2

                         Standard orientation:
 ---------------------------------------------------------------------
 Center     Atomic      Atomic             Coordinates (Angstroms)
 Number     Number       Type             X           Y           Z
 ---------------------------------------------------------------------
      1         11           0        2.047091   -2.625869   -0.137380
      2         11           0       -1.686685   -2.337957   -0.277801
      3         11           0       -0.523712    3.256859   -0.152971
      4         11           0       -3.129712    0.225451    0.139990
      5         11           0        3.001174    1.282412   -0.155725
      6         11           0        0.300051   -0.012526    2.085370
      7         11           0       -0.008206    0.211630   -1.501483
 ---------------------------------------------------------------------

 SCF Done:  E(UB3LYP) =  -1136.13251155     A.U. after   19 cycles

 The electronic state is 2-A.
 Alpha  occ. eigenvalues --  -38.44597 -38.44058 -38.44011 -38.43907 -38.43487
 Alpha  occ. eigenvalues --  -38.43486 -38.43059  -2.20376  -2.19841  -2.19788
 Alpha  occ. eigenvalues --   -2.19766  -2.19382  -2.19341  -2.19020  -1.14062
 Alpha  occ. eigenvalues --   -1.14039  -1.14001  -1.13527  -1.13518  -1.13499
 Alpha  occ. eigenvalues --   -1.13476  -1.13463  -1.13445  -1.13432  -1.13414
 Alpha  occ. eigenvalues --   -1.13397  -1.13068  -1.13030  -1.13012  -1.13000
 Alpha  occ. eigenvalues --   -1.12964  -1.12955  -1.12715  -1.12658  -1.12641
 Alpha  occ. eigenvalues --   -0.18238  -0.12936  -0.12345  -0.10359
 Alpha virt. eigenvalues --   -0.06049  -0.05327  -0.04860  -0.03084  -0.02715
 Alpha virt. eigenvalues --   -0.02355  -0.01616  -0.01564  -0.00692  -0.00509
 Alpha virt. eigenvalues --   -0.00010   0.00329   0.00712   0.00812   0.00853

  Beta  occ. eigenvalues --  -38.44593 -38.44056 -38.44010 -38.43904 -38.43480
  Beta  occ. eigenvalues --  -38.43385 -38.43005  -2.20372  -2.19840  -2.19787
  Beta  occ. eigenvalues --   -2.19763  -2.19371  -2.19156  -2.18924  -1.14046
  Beta  occ. eigenvalues --   -1.14030  -1.14001  -1.13519  -1.13517  -1.13490
  Beta  occ. eigenvalues --   -1.13477  -1.13448  -1.13444  -1.13433  -1.13399
  Beta  occ. eigenvalues --   -1.13387  -1.13057  -1.13005  -1.12991  -1.12887
  Beta  occ. eigenvalues --   -1.12834  -1.12823  -1.12642  -1.12587  -1.12572
  Beta  occ. eigenvalues --   -0.17532  -0.12722  -0.12146
  Beta virt. eigenvalues --   -0.06458  -0.06060  -0.05228  -0.04856  -0.02305
  Beta virt. eigenvalues --   -0.02024  -0.01529  -0.01495  -0.01296  -0.00739
  Beta virt. eigenvalues --   -0.00544   0.00145   0.00369   0.00723   0.00851

 Mulliken charges and spin densities:
               1          2
     1  Na   0.088918  -0.055963
     2  Na   0.223747   0.017373
     3  Na   0.104866  -0.065312
     4  Na   0.175719   0.036338
     5  Na   0.068231  -0.113298
     6  Na  -0.483249   0.805919
     7  Na  -0.178232   0.374942
 Sum of Mulliken charges =  -0.00000   1.00000

 Dipole moment (field-independent basis, Debye):
    X=              0.4415    Y=              0.3348    Z=              0.0899  Tot=              0.5614
 Quadrupole moment (field-independent basis, Debye-Ang):
   XX=            -56.3235   YY=            -58.9549   ZZ=            -76.9258
   XY=             -0.7393   XZ=             -0.8578   YZ=              0.6419

 Normal termination of Gaussian 16 at Thu Dec  7 13:01:49 2023.
