 Gaussian 16, Revision B.01,
 Gaussian 16:  ES64L-G16RevB.01 20-Dec-2017

 -------------------------
 #P B3LYP/6-311+g(d) force
 -------------------------

 -----
 DPGEN
 -----
 Symbolic Z-matrix:
 Charge =  0 Multiplicity = 2

                         Standard orientation:
 ---------------------------------------------------------------------
 Center     Atomic      Atomic             Coordinates (Angstroms)
 Number     Number       Type             X           Y           Z
 ---------------------------------------------------------------------
      1         11           0       -1.374018   -0.438138    1.773532
      2         11           0       -4.158349    1.779419    0.228650
      3         11           0       -0.309267    1.810911   -0.801608
      4         11           0       -3.308001   -1.624906   -1.200063
      5         11           0       -0.026248   -1.820071    0.028606
      6         11           0        6.280024    0.321104   -0.220138
      7         11           0        2.895858   -0.028320    0.191022
 ---------------------------------------------------------------------

 SCF Done:  E(UB3LYP) =  -1136.10283557     A.U. after   27 cycles

 The electronic state is 2-A.
 Alpha  occ. eigenvalues --  -38.46125 -38.45373 -38.45133 -38.44223 -38.43473
 Alpha  occ. eigenvalues --  -38.43400 -38.43381  -2.22040  -2.21167  -2.20949
 Alpha  occ. eigenvalues --   -2.20014  -2.19385  -2.19246  -2.19191  -1.15913
 Alpha  occ. eigenvalues --   -1.15663  -1.15626  -1.14859  -1.14829  -1.14752
 Alpha  occ. eigenvalues --   -1.14627  -1.14577  -1.14551  -1.13652  -1.13652
 Alpha  occ. eigenvalues --   -1.13633  -1.13147  -1.13006  -1.12961  -1.12931
 Alpha  occ. eigenvalues --   -1.12904  -1.12891  -1.12883  -1.12881  -1.12808
 Alpha  occ. eigenvalues --   -0.18038  -0.13682  -0.11502  -0.11450
 Alpha virt. eigenvalues --   -0.07395  -0.05520  -0.04411  -0.03294  -0.02955
 Alpha virt. eigenvalues --   -0.02279  -0.02180  -0.01939  -0.01372  -0.01068
 Alpha virt. eigenvalues --   -0.00358  -0.00006   0.00303   0.00437   0.00507

  Beta  occ. eigenvalues --  -38.46145 -38.45321 -38.45055 -38.44136 -38.43471
  Beta  occ. eigenvalues --  -38.43397 -38.43388  -2.22079  -2.21074  -2.20804
  Beta  occ. eigenvalues --   -2.19852  -2.19380  -2.19243  -2.19210  -1.15942
  Beta  occ. eigenvalues --   -1.15674  -1.15647  -1.14792  -1.14765  -1.14686
  Beta  occ. eigenvalues --   -1.14527  -1.14483  -1.14446  -1.13543  -1.13542
  Beta  occ. eigenvalues --   -1.13527  -1.13161  -1.13005  -1.12935  -1.12930
  Beta  occ. eigenvalues --   -1.12907  -1.12894  -1.12894  -1.12881  -1.12777
  Beta  occ. eigenvalues --   -0.17492  -0.13029  -0.11011
  Beta virt. eigenvalues --   -0.08121  -0.07143  -0.05214  -0.03949  -0.03035
  Beta virt. eigenvalues --   -0.02830  -0.01913  -0.01798  -0.01665  -0.00962
  Beta virt. eigenvalues --   -0.00766  -0.00219   0.00159   0.00330   0.00511

 Mulliken charges and spin densities:
               1          2
     1  Na   0.398886   0.191200
     2  Na  -0.073892  -0.000171
     3  Na  -0.033763   0.063216
     4  Na   0.092622   0.315595
     5  Na   0.467911  -0.161970
     6  Na  -0.075640   0.106922
     7  Na  -0.776124   0.485209
 Sum of Mulliken charges =  -0.00000   1.00000

 Dipole moment (field-independent basis, Debye):
    X=             -1.2583    Y=             -0.1349    Z=             -0.0759  Tot=              1.2677
 Quadrupole moment (field-independent basis, Debye-Ang):
   XX=            -65.8125   YY=            -75.3780   ZZ=            -63.0797
   XY=              2.0876   XZ=             -1.0567   YZ=              1.7264

 Normal termination of Gaussian 16 at Thu Dec  7 10:44:53 2023.
