 Gaussian 16, Revision B.01,
 Gaussian 16:  ES64L-G16RevB.01 20-Dec-2017

 -------------------------
 #P B3LYP/6-311+g(d) force
 -------------------------

 -----
 DPGEN
 -----
 Symbolic Z-matrix:
 Charge =  0 Multiplicity = 2

                         Standard orientation:
 ---------------------------------------------------------------------
 Center     Atomic      Atomic             Coordinates (Angstroms)
 Number     Number       Type             X           Y           Z
 ---------------------------------------------------------------------
      1         11           0       -1.327989    2.122785    0.222056
      2         11           0       -2.846632   -0.396700   -1.584513
      3         11           0        3.546362   -1.265240   -0.374658
      4         11           0        2.272759    1.680057   -0.398432
      5         11           0       -2.396736   -1.046841    1.463423
      6         11           0        0.784677   -0.227731    1.894239
      7         11           0       -0.032442   -0.866329   -1.222114
 ---------------------------------------------------------------------

 SCF Done:  E(UB3LYP) =  -1136.12206891     A.U. after   28 cycles

 The electronic state is 2-A.
 Alpha  occ. eigenvalues --  -38.44526 -38.44294 -38.44151 -38.43642 -38.43422
 Alpha  occ. eigenvalues --  -38.43359 -38.43163  -2.20441  -2.20189  -2.19980
 Alpha  occ. eigenvalues --   -2.19616  -2.19364  -2.19299  -2.19054  -1.14124
 Alpha  occ. eigenvalues --   -1.14093  -1.14052  -1.13873  -1.13868  -1.13812
 Alpha  occ. eigenvalues --   -1.13646  -1.13631  -1.13604  -1.13401  -1.13311
 Alpha  occ. eigenvalues --   -1.13278  -1.13014  -1.13001  -1.12984  -1.12961
 Alpha  occ. eigenvalues --   -1.12942  -1.12894  -1.12738  -1.12698  -1.12674
 Alpha  occ. eigenvalues --   -0.19135  -0.14440  -0.11715  -0.10861
 Alpha virt. eigenvalues --   -0.06466  -0.05297  -0.04603  -0.03280  -0.02593
 Alpha virt. eigenvalues --   -0.02322  -0.02134  -0.01060  -0.00659  -0.00044
 Alpha virt. eigenvalues --    0.00177   0.00358   0.00482   0.00613   0.00789

  Beta  occ. eigenvalues --  -38.44471 -38.44266 -38.44148 -38.43623 -38.43406
  Beta  occ. eigenvalues --  -38.43315 -38.43127  -2.20341  -2.20138  -2.19975
  Beta  occ. eigenvalues --   -2.19587  -2.19336  -2.19221  -2.18990  -1.14041
  Beta  occ. eigenvalues --   -1.14024  -1.13986  -1.13840  -1.13826  -1.13781
  Beta  occ. eigenvalues --   -1.13634  -1.13628  -1.13598  -1.13370  -1.13290
  Beta  occ. eigenvalues --   -1.13233  -1.12982  -1.12964  -1.12951  -1.12942
  Beta  occ. eigenvalues --   -1.12863  -1.12840  -1.12691  -1.12646  -1.12626
  Beta  occ. eigenvalues --   -0.18394  -0.14279  -0.10624
  Beta virt. eigenvalues --   -0.07679  -0.06302  -0.04863  -0.04304  -0.02844
  Beta virt. eigenvalues --   -0.02268  -0.01971  -0.01539  -0.00725  -0.00409
  Beta virt. eigenvalues --    0.00073   0.00213   0.00462   0.00537   0.00675

 Mulliken charges and spin densities:
               1          2
     1  Na  -0.544691   0.356618
     2  Na   1.626439  -0.197542
     3  Na   0.996056  -0.002234
     4  Na   0.201856  -0.034749
     5  Na  -0.046121   0.035445
     6  Na  -0.140435   0.261691
     7  Na  -2.093106   0.580772
 Sum of Mulliken charges =  -0.00000   1.00000

 Dipole moment (field-independent basis, Debye):
    X=              0.3838    Y=              0.3138    Z=              0.4965  Tot=              0.7016
 Quadrupole moment (field-independent basis, Debye-Ang):
   XX=            -50.6794   YY=            -70.8570   ZZ=            -73.5293
   XY=             -0.6247   XZ=             -1.4764   YZ=             -6.7689

 Normal termination of Gaussian 16 at Thu Dec  7 15:48:28 2023.
