 Gaussian 16, Revision B.01,
 Gaussian 16:  ES64L-G16RevB.01 20-Dec-2017

 -------------------------
 #P B3LYP/6-311+g(d) force
 -------------------------

 -----
 DPGEN
 -----
 Symbolic Z-matrix:
 Charge =  0 Multiplicity = 2

                         Standard orientation:
 ---------------------------------------------------------------------
 Center     Atomic      Atomic             Coordinates (Angstroms)
 Number     Number       Type             X           Y           Z
 ---------------------------------------------------------------------
      1         11           0        0.229639    2.963492   -0.034361
      2         11           0       -2.613866   -1.922537   -0.349284
      3         11           0       -0.130677   -0.484720    2.097144
      4         11           0        2.045606   -2.292043   -0.002202
      5         11           0        2.912214    0.801206   -0.143930
      6         11           0        0.145797   -0.363640   -1.559640
      7         11           0       -2.588713    1.298243   -0.007728
 ---------------------------------------------------------------------

 SCF Done:  E(UB3LYP) =  -1136.13523800     A.U. after   19 cycles

 The electronic state is 2-A.
 Alpha  occ. eigenvalues --  -38.44094 -38.43928 -38.43806 -38.43803 -38.43678
 Alpha  occ. eigenvalues --  -38.43276 -38.42900  -2.19966  -2.19767  -2.19686
 Alpha  occ. eigenvalues --   -2.19684  -2.19549  -2.19263  -2.18745  -1.13659
 Alpha  occ. eigenvalues --   -1.13627  -1.13614  -1.13469  -1.13433  -1.13409
 Alpha  occ. eigenvalues --   -1.13391  -1.13361  -1.13349  -1.13337  -1.13312
 Alpha  occ. eigenvalues --   -1.13302  -1.13209  -1.13171  -1.13165  -1.12943
 Alpha  occ. eigenvalues --   -1.12900  -1.12884  -1.12416  -1.12401  -1.12399
 Alpha  occ. eigenvalues --   -0.18717  -0.13512  -0.12253  -0.10735
 Alpha virt. eigenvalues --   -0.05718  -0.05454  -0.04508  -0.03404  -0.02719
 Alpha virt. eigenvalues --   -0.02523  -0.01620  -0.01149  -0.00472  -0.00208
 Alpha virt. eigenvalues --   -0.00016   0.00346   0.00754   0.00838   0.00888

  Beta  occ. eigenvalues --  -38.44089 -38.43920 -38.43802 -38.43797 -38.43577
  Beta  occ. eigenvalues --  -38.43219 -38.42899  -2.19959  -2.19756  -2.19681
  Beta  occ. eigenvalues --   -2.19678  -2.19362  -2.19160  -2.18746  -1.13653
  Beta  occ. eigenvalues --   -1.13617  -1.13599  -1.13465  -1.13417  -1.13390
  Beta  occ. eigenvalues --   -1.13382  -1.13359  -1.13321  -1.13317  -1.13301
  Beta  occ. eigenvalues --   -1.13298  -1.13087  -1.13039  -1.13034  -1.12869
  Beta  occ. eigenvalues --   -1.12828  -1.12806  -1.12419  -1.12405  -1.12384
  Beta  occ. eigenvalues --   -0.18004  -0.13272  -0.12040
  Beta virt. eigenvalues --   -0.06801  -0.05689  -0.05406  -0.04465  -0.02587
  Beta virt. eigenvalues --   -0.01976  -0.01529  -0.01475  -0.01079  -0.00535
  Beta virt. eigenvalues --   -0.00230   0.00150   0.00384   0.00830   0.00840

 Mulliken charges and spin densities:
               1          2
     1  Na  -0.150983  -0.011372
     2  Na   0.369069   0.014050
     3  Na  -0.548117   0.626696
     4  Na   0.434708   0.022985
     5  Na   0.118664   0.074582
     6  Na  -0.305972   0.200666
     7  Na   0.082631   0.072393
 Sum of Mulliken charges =  -0.00000   1.00000

 Dipole moment (field-independent basis, Debye):
    X=              0.0634    Y=             -0.4418    Z=              0.1405  Tot=              0.4680
 Quadrupole moment (field-independent basis, Debye-Ang):
   XX=            -55.9188   YY=            -63.6935   ZZ=            -74.7075
   XY=              0.4181   XZ=              0.4104   YZ=              0.3986

 Normal termination of Gaussian 16 at Thu Dec  7 05:15:20 2023.
