 Gaussian 16, Revision B.01,
 Gaussian 16:  ES64L-G16RevB.01 20-Dec-2017

 -------------------------
 #P B3LYP/6-311+g(d) force
 -------------------------

 -----
 DPGEN
 -----
 Symbolic Z-matrix:
 Charge =  0 Multiplicity = 2

                         Standard orientation:
 ---------------------------------------------------------------------
 Center     Atomic      Atomic             Coordinates (Angstroms)
 Number     Number       Type             X           Y           Z
 ---------------------------------------------------------------------
      1         11           0       -0.011058   -0.165625   -1.710198
      2         11           0        0.897606   -2.987554   -0.307641
      3         11           0        1.500462    2.625144   -0.347926
      4         11           0        3.190564   -0.024824    0.349941
      5         11           0       -0.350966   -0.256576    2.163094
      6         11           0       -2.396772    2.356705    0.011995
      7         11           0       -2.829837   -1.547270   -0.159264
 ---------------------------------------------------------------------

 SCF Done:  E(UB3LYP) =  -1136.13421455     A.U. after   19 cycles

 The electronic state is 2-A.
 Alpha  occ. eigenvalues --  -38.44415 -38.44121 -38.43941 -38.43921 -38.43719
 Alpha  occ. eigenvalues --  -38.43500 -38.43392  -2.20205  -2.19881  -2.19760
 Alpha  occ. eigenvalues --   -2.19752  -2.19530  -2.19330  -2.19309  -1.13889
 Alpha  occ. eigenvalues --   -1.13871  -1.13831  -1.13561  -1.13536  -1.13525
 Alpha  occ. eigenvalues --   -1.13444  -1.13423  -1.13412  -1.13399  -1.13384
 Alpha  occ. eigenvalues --   -1.13368  -1.13235  -1.13186  -1.13158  -1.13027
 Alpha  occ. eigenvalues --   -1.12994  -1.12983  -1.12961  -1.12933  -1.12928
 Alpha  occ. eigenvalues --   -0.17979  -0.12818  -0.12244  -0.10673
 Alpha virt. eigenvalues --   -0.05887  -0.05436  -0.04769  -0.03218  -0.02859
 Alpha virt. eigenvalues --   -0.02671  -0.01551  -0.01407  -0.00637  -0.00531
 Alpha virt. eigenvalues --   -0.00043   0.00353   0.00740   0.00776   0.00856

  Beta  occ. eigenvalues --  -38.44411 -38.44123 -38.43936 -38.43824 -38.43712
  Beta  occ. eigenvalues --  -38.43496 -38.43327  -2.20201  -2.19886  -2.19753
  Beta  occ. eigenvalues --   -2.19575  -2.19521  -2.19324  -2.19192  -1.13874
  Beta  occ. eigenvalues --   -1.13862  -1.13830  -1.13552  -1.13539  -1.13529
  Beta  occ. eigenvalues --   -1.13443  -1.13400  -1.13398  -1.13292  -1.13261
  Beta  occ. eigenvalues --   -1.13240  -1.13218  -1.13168  -1.13154  -1.13010
  Beta  occ. eigenvalues --   -1.12976  -1.12960  -1.12907  -1.12852  -1.12846
  Beta  occ. eigenvalues --   -0.17265  -0.12632  -0.12036
  Beta virt. eigenvalues --   -0.06790  -0.05905  -0.05302  -0.04710  -0.02472
  Beta virt. eigenvalues --   -0.02155  -0.01634  -0.01445  -0.01336  -0.00691
  Beta virt. eigenvalues --   -0.00556   0.00110   0.00386   0.00756   0.00838

 Mulliken charges and spin densities:
               1          2
     1  Na   0.128784   0.489361
     2  Na   0.134676  -0.054252
     3  Na   0.038906  -0.052508
     4  Na   0.016897   0.044859
     5  Na  -0.398144   0.791690
     6  Na  -0.050198  -0.096523
     7  Na   0.129078  -0.122627
 Sum of Mulliken charges =  -0.00000   1.00000

 Dipole moment (field-independent basis, Debye):
    X=             -0.3638    Y=             -0.2230    Z=              0.1096  Tot=              0.4405
 Quadrupole moment (field-independent basis, Debye-Ang):
   XX=            -57.1344   YY=            -61.5383   ZZ=            -75.0114
   XY=             -0.4371   XZ=              1.0059   YZ=              0.0691

 Normal termination of Gaussian 16 at Tue Dec  5 13:33:30 2023.
