 Gaussian 16, Revision B.01,
 Gaussian 16:  ES64L-G16RevB.01 20-Dec-2017

 -------------------------
 #P B3LYP/6-311+g(d) force
 -------------------------

 -----
 DPGEN
 -----
 Symbolic Z-matrix:
 Charge =  0 Multiplicity = 2

                         Standard orientation:
 ---------------------------------------------------------------------
 Center     Atomic      Atomic             Coordinates (Angstroms)
 Number     Number       Type             X           Y           Z
 ---------------------------------------------------------------------
      1         11           0        0.043983   -0.944104   -1.415665
      2         11           0        0.402939   -0.131150    1.865449
      3         11           0        3.153809   -1.836550   -0.193017
      4         11           0       -0.722380    3.156570    0.365906
      5         11           0       -2.423248   -2.437647    0.628902
      6         11           0        2.313545    1.639260   -0.345820
      7         11           0       -2.768649    0.553622   -0.905756
 ---------------------------------------------------------------------

 SCF Done:  E(UB3LYP) =  -1136.13316404     A.U. after   20 cycles

 The electronic state is 2-A.
 Alpha  occ. eigenvalues --  -38.44171 -38.44170 -38.44048 -38.43808 -38.43625
 Alpha  occ. eigenvalues --  -38.43450 -38.43128  -2.20018  -2.19973  -2.19861
 Alpha  occ. eigenvalues --   -2.19671  -2.19508  -2.19379  -2.18938  -1.13711
 Alpha  occ. eigenvalues --   -1.13705  -1.13646  -1.13642  -1.13628  -1.13591
 Alpha  occ. eigenvalues --   -1.13532  -1.13511  -1.13511  -1.13380  -1.13320
 Alpha  occ. eigenvalues --   -1.13281  -1.13211  -1.13129  -1.13121  -1.13069
 Alpha  occ. eigenvalues --   -1.13037  -1.12978  -1.12610  -1.12596  -1.12588
 Alpha  occ. eigenvalues --   -0.18191  -0.13362  -0.12156  -0.10419
 Alpha virt. eigenvalues --   -0.05830  -0.05652  -0.04708  -0.03300  -0.02685
 Alpha virt. eigenvalues --   -0.02256  -0.01882  -0.01444  -0.00614  -0.00248
 Alpha virt. eigenvalues --    0.00018   0.00300   0.00696   0.00716   0.00749

  Beta  occ. eigenvalues --  -38.44167 -38.44165 -38.44034 -38.43781 -38.43541
  Beta  occ. eigenvalues --  -38.43408 -38.43129  -2.20010  -2.19968  -2.19836
  Beta  occ. eigenvalues --   -2.19622  -2.19354  -2.19304  -2.18942  -1.13708
  Beta  occ. eigenvalues --   -1.13682  -1.13642  -1.13630  -1.13616  -1.13589
  Beta  occ. eigenvalues --   -1.13518  -1.13497  -1.13475  -1.13338  -1.13279
  Beta  occ. eigenvalues --   -1.13250  -1.13113  -1.13023  -1.13014  -1.13004
  Beta  occ. eigenvalues --   -1.12967  -1.12924  -1.12615  -1.12594  -1.12580
  Beta  occ. eigenvalues --   -0.17521  -0.13115  -0.11962
  Beta virt. eigenvalues --   -0.06670  -0.05726  -0.05501  -0.04563  -0.02685
  Beta virt. eigenvalues --   -0.02098  -0.01761  -0.01364  -0.01283  -0.00593
  Beta virt. eigenvalues --   -0.00165   0.00142   0.00363   0.00740   0.00793

 Mulliken charges and spin densities:
               1          2
     1  Na  -0.053606   0.270335
     2  Na  -0.119933   0.584378
     3  Na   0.215259   0.042649
     4  Na  -0.211140  -0.016567
     5  Na  -0.087542   0.036143
     6  Na   0.051128   0.004966
     7  Na   0.205834   0.078096
 Sum of Mulliken charges =  -0.00000   1.00000

 Dipole moment (field-independent basis, Debye):
    X=              0.3865    Y=             -0.5277    Z=              0.1263  Tot=              0.6662
 Quadrupole moment (field-independent basis, Debye-Ang):
   XX=            -55.1859   YY=            -62.5279   ZZ=            -75.0119
   XY=             -0.2646   XZ=             -0.8944   YZ=             -1.7143

 Normal termination of Gaussian 16 at Wed Dec  6 00:16:55 2023.
