 Gaussian 16, Revision B.01,
 Gaussian 16:  ES64L-G16RevB.01 20-Dec-2017

 -------------------------
 #P B3LYP/6-311+g(d) force
 -------------------------

 -----
 DPGEN
 -----
 Symbolic Z-matrix:
 Charge =  0 Multiplicity = 2

                         Standard orientation:
 ---------------------------------------------------------------------
 Center     Atomic      Atomic             Coordinates (Angstroms)
 Number     Number       Type             X           Y           Z
 ---------------------------------------------------------------------
      1         11           0        3.120647    0.259792    0.990571
      2         11           0        1.971910    3.764249   -0.178578
      3         11           0       -4.178141    1.044660   -0.465018
      4         11           0        4.118532   -2.552410   -0.276587
      5         11           0       -5.804449   -1.445599    0.541038
      6         11           0       -0.027920    1.077582   -0.104374
      7         11           0        0.799422   -2.148275   -0.507051
 ---------------------------------------------------------------------

 SCF Done:  E(UB3LYP) =  -1136.11670695     A.U. after   20 cycles

 The electronic state is 2-A.
 Alpha  occ. eigenvalues --  -38.44553 -38.44263 -38.44186 -38.44113 -38.43971
 Alpha  occ. eigenvalues --  -38.43928 -38.43422  -2.20408  -2.20053  -2.20043
 Alpha  occ. eigenvalues --   -2.19889  -2.19809  -2.19718  -2.19300  -1.14113
 Alpha  occ. eigenvalues --   -1.14090  -1.14007  -1.13738  -1.13718  -1.13709
 Alpha  occ. eigenvalues --   -1.13702  -1.13700  -1.13656  -1.13557  -1.13542
 Alpha  occ. eigenvalues --   -1.13513  -1.13472  -1.13460  -1.13429  -1.13384
 Alpha  occ. eigenvalues --   -1.13380  -1.13346  -1.12990  -1.12974  -1.12901
 Alpha  occ. eigenvalues --   -0.16891  -0.13451  -0.12426  -0.10791
 Alpha virt. eigenvalues --   -0.06236  -0.05970  -0.03922  -0.03779  -0.03114
 Alpha virt. eigenvalues --   -0.02300  -0.02111  -0.01294  -0.01071  -0.01035
 Alpha virt. eigenvalues --   -0.00295   0.00004   0.00058   0.00464   0.00575

  Beta  occ. eigenvalues --  -38.44518 -38.44232 -38.44127 -38.44122 -38.43946
  Beta  occ. eigenvalues --  -38.43908 -38.43379  -2.20346  -2.19994  -2.19937
  Beta  occ. eigenvalues --   -2.19908  -2.19762  -2.19680  -2.19225  -1.14063
  Beta  occ. eigenvalues --   -1.14040  -1.13959  -1.13709  -1.13663  -1.13660
  Beta  occ. eigenvalues --   -1.13640  -1.13638  -1.13575  -1.13572  -1.13552
  Beta  occ. eigenvalues --   -1.13506  -1.13432  -1.13425  -1.13400  -1.13358
  Beta  occ. eigenvalues --   -1.13352  -1.13320  -1.12944  -1.12925  -1.12820
  Beta  occ. eigenvalues --   -0.16156  -0.13170  -0.12185
  Beta virt. eigenvalues --   -0.07231  -0.05973  -0.05563  -0.03679  -0.03440
  Beta virt. eigenvalues --   -0.02629  -0.02176  -0.01977  -0.01069  -0.00962
  Beta virt. eigenvalues --   -0.00577  -0.00011   0.00096   0.00298   0.00559

 Mulliken charges and spin densities:
               1          2
     1  Na  -0.048947   0.322085
     2  Na   0.920985   0.272639
     3  Na  -0.381560  -0.021106
     4  Na   0.728007   0.262123
     5  Na   0.026415   0.103600
     6  Na  -1.081172   0.081714
     7  Na  -0.163727  -0.021055
 Sum of Mulliken charges =  -0.00000   1.00000

 Dipole moment (field-independent basis, Debye):
    X=              0.5794    Y=             -0.6474    Z=             -0.2001  Tot=              0.8916
 Quadrupole moment (field-independent basis, Debye-Ang):
   XX=            -67.4548   YY=            -57.2054   ZZ=            -71.1910
   XY=              2.5679   XZ=             -2.2078   YZ=             -1.9937

 Normal termination of Gaussian 16 at Wed Nov 29 02:03:54 2023.
