 Gaussian 16, Revision B.01,
 Gaussian 16:  ES64L-G16RevB.01 20-Dec-2017

 -------------------------
 #P B3LYP/6-311+g(d) force
 -------------------------

 -----
 DPGEN
 -----
 Symbolic Z-matrix:
 Charge =  0 Multiplicity = 2

                         Standard orientation:
 ---------------------------------------------------------------------
 Center     Atomic      Atomic             Coordinates (Angstroms)
 Number     Number       Type             X           Y           Z
 ---------------------------------------------------------------------
      1         11           0        2.681031   -1.768959    0.100246
      2         11           0        0.390137    0.210254    2.210071
      3         11           0       -0.975686   -2.815484   -0.160901
      4         11           0       -3.465245   -0.206821   -0.078786
      5         11           0       -1.121420    2.875412   -0.010122
      6         11           0        0.192528   -0.237808   -1.502308
      7         11           0        2.298655    1.943406   -0.558200
 ---------------------------------------------------------------------

 SCF Done:  E(UB3LYP) =  -1136.13492127     A.U. after   19 cycles

 The electronic state is 2-A.
 Alpha  occ. eigenvalues --  -38.44220 -38.43981 -38.43789 -38.43756 -38.43713
 Alpha  occ. eigenvalues --  -38.43672 -38.43181  -2.19983  -2.19803  -2.19635
 Alpha  occ. eigenvalues --   -2.19608  -2.19510  -2.19506  -2.19166  -1.13663
 Alpha  occ. eigenvalues --   -1.13633  -1.13632  -1.13482  -1.13467  -1.13441
 Alpha  occ. eigenvalues --   -1.13325  -1.13292  -1.13271  -1.13251  -1.13247
 Alpha  occ. eigenvalues --   -1.13239  -1.13231  -1.13186  -1.13174  -1.13167
 Alpha  occ. eigenvalues --   -1.13141  -1.13113  -1.12844  -1.12810  -1.12776
 Alpha  occ. eigenvalues --   -0.18212  -0.12710  -0.12486  -0.10658
 Alpha virt. eigenvalues --   -0.05727  -0.05397  -0.04851  -0.02935  -0.02923
 Alpha virt. eigenvalues --   -0.02622  -0.01590  -0.01279  -0.00657  -0.00518
 Alpha virt. eigenvalues --   -0.00036   0.00322   0.00770   0.00831   0.00833

  Beta  occ. eigenvalues --  -38.44224 -38.43976 -38.43738 -38.43712 -38.43684
  Beta  occ. eigenvalues --  -38.43668 -38.43129  -2.19990  -2.19797  -2.19579
  Beta  occ. eigenvalues --   -2.19510  -2.19501  -2.19440  -2.19072  -1.13661
  Beta  occ. eigenvalues --   -1.13638  -1.13637  -1.13476  -1.13444  -1.13438
  Beta  occ. eigenvalues --   -1.13296  -1.13229  -1.13224  -1.13216  -1.13179
  Beta  occ. eigenvalues --   -1.13170  -1.13158  -1.13149  -1.13142  -1.13128
  Beta  occ. eigenvalues --   -1.13111  -1.13105  -1.12777  -1.12740  -1.12710
  Beta  occ. eigenvalues --   -0.17507  -0.12507  -0.12291
  Beta virt. eigenvalues --   -0.06688  -0.05698  -0.05378  -0.04768  -0.02260
  Beta virt. eigenvalues --   -0.02175  -0.01562  -0.01482  -0.01189  -0.00679
  Beta virt. eigenvalues --   -0.00570   0.00135   0.00369   0.00821   0.00829

 Mulliken charges and spin densities:
               1          2
     1  Na   0.231812   0.016507
     2  Na  -0.529769   0.807146
     3  Na   0.147923  -0.032182
     4  Na  -0.083814  -0.056702
     5  Na  -0.009091  -0.036503
     6  Na  -0.047021   0.278815
     7  Na   0.289959   0.022919
 Sum of Mulliken charges =  -0.00000   1.00000

 Dipole moment (field-independent basis, Debye):
    X=              0.0464    Y=             -0.0549    Z=              0.1645  Tot=              0.1795
 Quadrupole moment (field-independent basis, Debye-Ang):
   XX=            -56.0948   YY=            -61.5766   ZZ=            -75.4551
   XY=             -1.0821   XZ=             -0.5460   YZ=             -0.9581

 Normal termination of Gaussian 16 at Thu Dec  7 19:35:29 2023.
