 Gaussian 16, Revision B.01,
 Gaussian 16:  ES64L-G16RevB.01 20-Dec-2017

 -------------------------
 #P B3LYP/6-311+g(d) force
 -------------------------

 -----
 DPGEN
 -----
 Symbolic Z-matrix:
 Charge =  0 Multiplicity = 2

                         Standard orientation:
 ---------------------------------------------------------------------
 Center     Atomic      Atomic             Coordinates (Angstroms)
 Number     Number       Type             X           Y           Z
 ---------------------------------------------------------------------
      1         11           0        1.586585    1.534126    0.656394
      2         11           0       -1.819991    2.328890    0.301362
      3         11           0       -3.401937   -0.352760   -1.164919
      4         11           0       -1.396072   -0.662554    1.728848
      5         11           0        2.176072   -1.619344    1.242817
      6         11           0       -0.306039   -2.043770   -1.151534
      7         11           0        3.161382    0.815412   -1.612968
 ---------------------------------------------------------------------

 SCF Done:  E(UB3LYP) =  -1136.12529341     A.U. after   21 cycles

 The electronic state is 2-A.
 Alpha  occ. eigenvalues --  -38.44514 -38.44483 -38.44111 -38.44039 -38.43458
 Alpha  occ. eigenvalues --  -38.43252 -38.43211  -2.20371  -2.20318  -2.20006
 Alpha  occ. eigenvalues --   -2.19891  -2.19292  -2.19140  -2.19089  -1.14112
 Alpha  occ. eigenvalues --   -1.13995  -1.13988  -1.13966  -1.13959  -1.13947
 Alpha  occ. eigenvalues --   -1.13700  -1.13656  -1.13629  -1.13583  -1.13543
 Alpha  occ. eigenvalues --   -1.13510  -1.12976  -1.12954  -1.12919  -1.12840
 Alpha  occ. eigenvalues --   -1.12800  -1.12785  -1.12761  -1.12748  -1.12716
 Alpha  occ. eigenvalues --   -0.18127  -0.14061  -0.11578  -0.11169
 Alpha virt. eigenvalues --   -0.05863  -0.05394  -0.04942  -0.03417  -0.02788
 Alpha virt. eigenvalues --   -0.02528  -0.01790  -0.00819  -0.00709  -0.00070
 Alpha virt. eigenvalues --    0.00051   0.00295   0.00341   0.00451   0.00581

  Beta  occ. eigenvalues --  -38.44456 -38.44442 -38.44068 -38.44017 -38.43444
  Beta  occ. eigenvalues --  -38.43245 -38.43203  -2.20263  -2.20241  -2.19931
  Beta  occ. eigenvalues --   -2.19852  -2.19269  -2.19132  -2.19080  -1.14043
  Beta  occ. eigenvalues --   -1.13933  -1.13920  -1.13912  -1.13892  -1.13890
  Beta  occ. eigenvalues --   -1.13653  -1.13587  -1.13570  -1.13551  -1.13519
  Beta  occ. eigenvalues --   -1.13469  -1.12964  -1.12933  -1.12891  -1.12813
  Beta  occ. eigenvalues --   -1.12788  -1.12769  -1.12744  -1.12741  -1.12708
  Beta  occ. eigenvalues --   -0.17477  -0.13668  -0.11324
  Beta virt. eigenvalues --   -0.07586  -0.05618  -0.05161  -0.04373  -0.03314
  Beta virt. eigenvalues --   -0.02272  -0.01772  -0.01615  -0.00680  -0.00373
  Beta virt. eigenvalues --    0.00001   0.00137   0.00380   0.00469   0.00588

 Mulliken charges and spin densities:
               1          2
     1  Na  -0.287633   0.110452
     2  Na  -0.015836  -0.035965
     3  Na   0.240409   0.159910
     4  Na   0.077203   0.313619
     5  Na   0.313692   0.090405
     6  Na  -0.542792   0.202740
     7  Na   0.214956   0.158839
 Sum of Mulliken charges =  -0.00000   1.00000

 Dipole moment (field-independent basis, Debye):
    X=             -0.2057    Y=             -0.5437    Z=             -0.3168  Tot=              0.6620
 Quadrupole moment (field-independent basis, Debye-Ang):
   XX=            -56.4784   YY=            -75.2912   ZZ=            -64.8755
   XY=             -2.9463   XZ=              0.4377   YZ=             -1.7088

 Normal termination of Gaussian 16 at Tue Nov 28 20:28:51 2023.
