 Gaussian 16, Revision B.01,
 Gaussian 16:  ES64L-G16RevB.01 20-Dec-2017

 -------------------------
 #P B3LYP/6-311+g(d) force
 -------------------------

 -----
 DPGEN
 -----
 Symbolic Z-matrix:
 Charge =  0 Multiplicity = 2

                         Standard orientation:
 ---------------------------------------------------------------------
 Center     Atomic      Atomic             Coordinates (Angstroms)
 Number     Number       Type             X           Y           Z
 ---------------------------------------------------------------------
      1         11           0       -0.515670    3.053586   -0.187343
      2         11           0        0.160721    0.092847    2.112757
      3         11           0        2.708283    1.348730   -0.343920
      4         11           0       -2.826230    0.468202    0.118757
      5         11           0       -1.972829   -2.508803   -0.084353
      6         11           0        2.817700   -2.079287    0.019879
      7         11           0       -0.371975   -0.375274   -1.635778
 ---------------------------------------------------------------------

 SCF Done:  E(UB3LYP) =  -1136.13222890     A.U. after   20 cycles

 The electronic state is 2-A.
 Alpha  occ. eigenvalues --  -38.44177 -38.44098 -38.43893 -38.43809 -38.43787
 Alpha  occ. eigenvalues --  -38.43526 -38.43064  -2.19947  -2.19914  -2.19819
 Alpha  occ. eigenvalues --   -2.19684  -2.19640  -2.19480  -2.18888  -1.13623
 Alpha  occ. eigenvalues --   -1.13616  -1.13599  -1.13593  -1.13575  -1.13573
 Alpha  occ. eigenvalues --   -1.13526  -1.13497  -1.13464  -1.13396  -1.13314
 Alpha  occ. eigenvalues --   -1.13303  -1.13297  -1.13267  -1.13253  -1.13152
 Alpha  occ. eigenvalues --   -1.13101  -1.13088  -1.12555  -1.12548  -1.12541
 Alpha  occ. eigenvalues --   -0.18397  -0.13325  -0.12100  -0.10664
 Alpha virt. eigenvalues --   -0.05752  -0.05472  -0.04699  -0.03404  -0.02703
 Alpha virt. eigenvalues --   -0.02545  -0.01557  -0.01283  -0.00629  -0.00365
 Alpha virt. eigenvalues --   -0.00027   0.00344   0.00756   0.00783   0.00851

  Beta  occ. eigenvalues --  -38.44180 -38.44091 -38.43884 -38.43805 -38.43688
  Beta  occ. eigenvalues --  -38.43468 -38.43061  -2.19953  -2.19903  -2.19807
  Beta  occ. eigenvalues --   -2.19681  -2.19457  -2.19374  -2.18885  -1.13626
  Beta  occ. eigenvalues --   -1.13609  -1.13603  -1.13572  -1.13568  -1.13565
  Beta  occ. eigenvalues --   -1.13523  -1.13484  -1.13429  -1.13381  -1.13298
  Beta  occ. eigenvalues --   -1.13292  -1.13184  -1.13138  -1.13122  -1.13082
  Beta  occ. eigenvalues --   -1.13025  -1.13013  -1.12552  -1.12542  -1.12528
  Beta  occ. eigenvalues --   -0.17663  -0.13123  -0.11911
  Beta virt. eigenvalues --   -0.06741  -0.05740  -0.05352  -0.04680  -0.02606
  Beta virt. eigenvalues --   -0.02007  -0.01559  -0.01436  -0.01190  -0.00674
  Beta virt. eigenvalues --   -0.00394   0.00133   0.00379   0.00789   0.00846

 Mulliken charges and spin densities:
               1          2
     1  Na  -0.093227  -0.020796
     2  Na  -0.403338   0.666492
     3  Na   0.037342  -0.014305
     4  Na   0.313200   0.167515
     5  Na   0.290864  -0.051776
     6  Na  -0.026252  -0.088272
     7  Na  -0.118589   0.341141
 Sum of Mulliken charges =  -0.00000   1.00000

 Dipole moment (field-independent basis, Debye):
    X=              0.2041    Y=             -0.3523    Z=              0.1139  Tot=              0.4228
 Quadrupole moment (field-independent basis, Debye-Ang):
   XX=            -58.1281   YY=            -61.2167   ZZ=            -74.9380
   XY=              0.0946   XZ=             -1.0484   YZ=             -1.0743

 Normal termination of Gaussian 16 at Thu Dec  7 12:11:38 2023.
