 Gaussian 16, Revision B.01,
 Gaussian 16:  ES64L-G16RevB.01 20-Dec-2017

 -------------------------
 #P B3LYP/6-311+g(d) force
 -------------------------

 -----
 DPGEN
 -----
 Symbolic Z-matrix:
 Charge =  0 Multiplicity = 2

                         Standard orientation:
 ---------------------------------------------------------------------
 Center     Atomic      Atomic             Coordinates (Angstroms)
 Number     Number       Type             X           Y           Z
 ---------------------------------------------------------------------
      1         11           0       -2.850744    1.794381   -0.168117
      2         11           0        3.417911   -0.359883    0.391401
      3         11           0        0.220405    0.018301   -1.491297
      4         11           0       -2.683564   -1.587958   -0.345094
      5         11           0        1.810630    2.344496   -0.355515
      6         11           0        0.852259   -2.383587   -0.161189
      7         11           0       -0.766896    0.174250    2.129810
 ---------------------------------------------------------------------

 SCF Done:  E(UB3LYP) =  -1136.12375370     A.U. after   22 cycles

 The electronic state is 2-A.
 Alpha  occ. eigenvalues --  -38.44916 -38.44312 -38.44235 -38.43956 -38.43498
 Alpha  occ. eigenvalues --  -38.43465 -38.42750  -2.20752  -2.20118  -2.20084
 Alpha  occ. eigenvalues --   -2.19812  -2.19500  -2.19357  -2.18676  -1.14416
 Alpha  occ. eigenvalues --   -1.14409  -1.14403  -1.13808  -1.13788  -1.13767
 Alpha  occ. eigenvalues --   -1.13756  -1.13739  -1.13700  -1.13473  -1.13441
 Alpha  occ. eigenvalues --   -1.13426  -1.13294  -1.13221  -1.13108  -1.13004
 Alpha  occ. eigenvalues --   -1.12987  -1.12976  -1.12390  -1.12308  -1.12274
 Alpha  occ. eigenvalues --   -0.18618  -0.13873  -0.11686  -0.10643
 Alpha virt. eigenvalues --   -0.06506  -0.05616  -0.03756  -0.03630  -0.02614
 Alpha virt. eigenvalues --   -0.02385  -0.02152  -0.01286  -0.00488  -0.00082
 Alpha virt. eigenvalues --   -0.00055   0.00270   0.00649   0.00731   0.00793

  Beta  occ. eigenvalues --  -38.44912 -38.44312 -38.44226 -38.43865 -38.43490
  Beta  occ. eigenvalues --  -38.43404 -38.42743  -2.20744  -2.20121  -2.20070
  Beta  occ. eigenvalues --   -2.19641  -2.19391  -2.19345  -2.18668  -1.14415
  Beta  occ. eigenvalues --   -1.14400  -1.14389  -1.13810  -1.13775  -1.13762
  Beta  occ. eigenvalues --   -1.13733  -1.13722  -1.13695  -1.13359  -1.13323
  Beta  occ. eigenvalues --   -1.13304  -1.13220  -1.13157  -1.13038  -1.12985
  Beta  occ. eigenvalues --   -1.12968  -1.12941  -1.12376  -1.12280  -1.12266
  Beta  occ. eigenvalues --   -0.17925  -0.13678  -0.11427
  Beta virt. eigenvalues --   -0.06819  -0.06296  -0.05620  -0.03714  -0.02935
  Beta virt. eigenvalues --   -0.02063  -0.01760  -0.01488  -0.01161  -0.00515
  Beta virt. eigenvalues --   -0.00078   0.00100   0.00311   0.00731   0.00806

 Mulliken charges and spin densities:
               1          2
     1  Na   0.140491  -0.065203
     2  Na  -0.041692   0.102887
     3  Na  -0.281315   0.120920
     4  Na   0.307436   0.050767
     5  Na   0.249448  -0.006874
     6  Na   0.262140   0.137202
     7  Na  -0.636508   0.660301
 Sum of Mulliken charges =  -0.00000   1.00000

 Dipole moment (field-independent basis, Debye):
    X=             -0.1387    Y=              0.0931    Z=              0.3188  Tot=              0.3599
 Quadrupole moment (field-independent basis, Debye-Ang):
   XX=            -49.2099   YY=            -69.0535   ZZ=            -74.7989
   XY=             -0.4945   XZ=              3.0922   YZ=             -0.6354

 Normal termination of Gaussian 16 at Tue Dec  5 10:01:02 2023.
