 Gaussian 16, Revision B.01,
 Gaussian 16:  ES64L-G16RevB.01 20-Dec-2017

 -------------------------
 #P B3LYP/6-311+g(d) force
 -------------------------

 -----
 DPGEN
 -----
 Symbolic Z-matrix:
 Charge =  0 Multiplicity = 2

                         Standard orientation:
 ---------------------------------------------------------------------
 Center     Atomic      Atomic             Coordinates (Angstroms)
 Number     Number       Type             X           Y           Z
 ---------------------------------------------------------------------
      1         11           0       -4.289547   -1.131640   -0.030776
      2         11           0       -1.573456   -3.117284   -0.592767
      3         11           0        3.270928    2.537963    0.124040
      4         11           0        3.599221   -0.643901   -0.321924
      5         11           0        2.174817   -3.732738    0.594356
      6         11           0       -0.382854    3.896437   -0.400942
      7         11           0       -2.799108    2.191162    0.628013
 ---------------------------------------------------------------------

 SCF Done:  E(UB3LYP) =  -1136.10983420     A.U. after   21 cycles

 The electronic state is 2-A.
 Alpha  occ. eigenvalues --  -38.45503 -38.44704 -38.44615 -38.44442 -38.44308
 Alpha  occ. eigenvalues --  -38.44208 -38.44094  -2.21239  -2.20501  -2.20401
 Alpha  occ. eigenvalues --   -2.20238  -2.20112  -2.20002  -2.19883  -1.14930
 Alpha  occ. eigenvalues --   -1.14917  -1.14864  -1.14201  -1.14166  -1.14139
 Alpha  occ. eigenvalues --   -1.14090  -1.14081  -1.14054  -1.13898  -1.13893
 Alpha  occ. eigenvalues --   -1.13864  -1.13763  -1.13760  -1.13732  -1.13660
 Alpha  occ. eigenvalues --   -1.13646  -1.13643  -1.13535  -1.13520  -1.13514
 Alpha  occ. eigenvalues --   -0.15465  -0.13920  -0.13563  -0.11074
 Alpha virt. eigenvalues --   -0.07447  -0.04816  -0.04458  -0.03466  -0.03365
 Alpha virt. eigenvalues --   -0.02540  -0.02329  -0.01925  -0.01782  -0.00594
 Alpha virt. eigenvalues --   -0.00275  -0.00149   0.00070   0.00399   0.00454

  Beta  occ. eigenvalues --  -38.45495 -38.44676 -38.44602 -38.44416 -38.44247
  Beta  occ. eigenvalues --  -38.44170 -38.44029  -2.21229  -2.20454  -2.20387
  Beta  occ. eigenvalues --   -2.20195  -2.20003  -2.19932  -2.19760  -1.14928
  Beta  occ. eigenvalues --   -1.14915  -1.14825  -1.14158  -1.14138  -1.14096
  Beta  occ. eigenvalues --   -1.14080  -1.14074  -1.14001  -1.13871  -1.13863
  Beta  occ. eigenvalues --   -1.13818  -1.13690  -1.13685  -1.13654  -1.13613
  Beta  occ. eigenvalues --   -1.13602  -1.13591  -1.13451  -1.13441  -1.13431
  Beta  occ. eigenvalues --   -0.14917  -0.13111  -0.12748
  Beta virt. eigenvalues --   -0.07970  -0.07669  -0.04363  -0.04078  -0.03159
  Beta virt. eigenvalues --   -0.03038  -0.02321  -0.02065  -0.01734  -0.01587
  Beta virt. eigenvalues --   -0.00230  -0.00059   0.00051   0.00202   0.00407

 Mulliken charges and spin densities:
               1          2
     1  Na   0.426338   0.172498
     2  Na  -0.232382   0.071294
     3  Na   0.102051   0.218920
     4  Na  -0.243782   0.074902
     5  Na   0.196135   0.309021
     6  Na  -0.038247   0.025946
     7  Na  -0.210113   0.127419
 Sum of Mulliken charges =  -0.00000   1.00000

 Dipole moment (field-independent basis, Debye):
    X=             -0.4760    Y=              0.0402    Z=             -0.0332  Tot=              0.4788
 Quadrupole moment (field-independent basis, Debye-Ang):
   XX=            -64.2331   YY=            -63.5911   ZZ=            -72.1536
   XY=              1.3210   XZ=             -0.8186   YZ=             -0.1956

 Normal termination of Gaussian 16 at Sun Dec  3 20:05:32 2023.
