 Gaussian 16, Revision B.01,
 Gaussian 16:  ES64L-G16RevB.01 20-Dec-2017

 -------------------------
 #P B3LYP/6-311+g(d) force
 -------------------------

 -----
 DPGEN
 -----
 Symbolic Z-matrix:
 Charge =  0 Multiplicity = 2

                         Standard orientation:
 ---------------------------------------------------------------------
 Center     Atomic      Atomic             Coordinates (Angstroms)
 Number     Number       Type             X           Y           Z
 ---------------------------------------------------------------------
      1         11           0       -2.777872    1.855341   -0.045539
      2         11           0       -2.628813   -1.687287   -0.197010
      3         11           0        1.450390    2.729335   -0.034533
      4         11           0       -0.519022    0.089158   -1.224312
      5         11           0        0.884547   -2.734907    0.109978
      6         11           0        2.992212   -0.260777   -0.902338
      7         11           0        0.598557    0.009137    2.293755
 ---------------------------------------------------------------------

 SCF Done:  E(UB3LYP) =  -1136.13233832     A.U. after   19 cycles

 The electronic state is 2-A.
 Alpha  occ. eigenvalues --  -38.44232 -38.44097 -38.43909 -38.43789 -38.43621
 Alpha  occ. eigenvalues --  -38.43092 -38.43036  -2.20048  -2.19957  -2.19757
 Alpha  occ. eigenvalues --   -2.19643  -2.19434  -2.19082  -2.18954  -1.13762
 Alpha  occ. eigenvalues --   -1.13719  -1.13703  -1.13668  -1.13605  -1.13551
 Alpha  occ. eigenvalues --   -1.13430  -1.13405  -1.13396  -1.13295  -1.13268
 Alpha  occ. eigenvalues --   -1.13259  -1.13109  -1.13097  -1.13072  -1.12771
 Alpha  occ. eigenvalues --   -1.12730  -1.12721  -1.12622  -1.12617  -1.12592
 Alpha  occ. eigenvalues --   -0.18403  -0.13258  -0.12205  -0.10733
 Alpha virt. eigenvalues --   -0.05753  -0.05317  -0.04585  -0.03201  -0.02775
 Alpha virt. eigenvalues --   -0.02607  -0.01591  -0.01218  -0.00537  -0.00354
 Alpha virt. eigenvalues --   -0.00025   0.00318   0.00767   0.00815   0.00895

  Beta  occ. eigenvalues --  -38.44233 -38.44095 -38.43878 -38.43678 -38.43617
  Beta  occ. eigenvalues --  -38.43086 -38.43005  -2.20053  -2.19955  -2.19701
  Beta  occ. eigenvalues --   -2.19438  -2.19431  -2.19028  -2.18947  -1.13762
  Beta  occ. eigenvalues --   -1.13716  -1.13700  -1.13670  -1.13594  -1.13552
  Beta  occ. eigenvalues --   -1.13385  -1.13362  -1.13357  -1.13159  -1.13129
  Beta  occ. eigenvalues --   -1.13118  -1.13101  -1.13080  -1.13064  -1.12724
  Beta  occ. eigenvalues --   -1.12691  -1.12684  -1.12616  -1.12591  -1.12580
  Beta  occ. eigenvalues --   -0.17741  -0.12999  -0.12023
  Beta virt. eigenvalues --   -0.06771  -0.05724  -0.05203  -0.04535  -0.02543
  Beta virt. eigenvalues --   -0.02021  -0.01621  -0.01415  -0.01176  -0.00527
  Beta virt. eigenvalues --   -0.00344   0.00151   0.00384   0.00804   0.00889

 Mulliken charges and spin densities:
               1          2
     1  Na   0.067491  -0.005817
     2  Na   0.184619   0.004050
     3  Na   0.092260   0.031535
     4  Na  -0.224058   0.046029
     5  Na   0.277750   0.089683
     6  Na   0.170642   0.144038
     7  Na  -0.568704   0.690482
 Sum of Mulliken charges =  -0.00000   1.00000

 Dipole moment (field-independent basis, Debye):
    X=             -0.4037    Y=              0.2027    Z=              0.2334  Tot=              0.5085
 Quadrupole moment (field-independent basis, Debye-Ang):
   XX=            -56.5789   YY=            -62.0845   ZZ=            -74.4888
   XY=             -0.2823   XZ=             -2.2533   YZ=              0.4254

 Normal termination of Gaussian 16 at Thu Dec  7 07:38:30 2023.
