 Gaussian 16, Revision B.01,
 Gaussian 16:  ES64L-G16RevB.01 20-Dec-2017

 -------------------------
 #P B3LYP/6-311+g(d) force
 -------------------------

 -----
 DPGEN
 -----
 Symbolic Z-matrix:
 Charge =  0 Multiplicity = 2

                         Standard orientation:
 ---------------------------------------------------------------------
 Center     Atomic      Atomic             Coordinates (Angstroms)
 Number     Number       Type             X           Y           Z
 ---------------------------------------------------------------------
      1         11           0        2.508393    2.599474   -0.010483
      2         11           0       -2.410923   -2.414237   -0.373464
      3         11           0       -0.604657    3.282907   -0.628101
      4         11           0       -3.674868    0.867481    0.645885
      5         11           0       -0.338848   -0.110309    0.181414
      6         11           0        3.189415   -0.850169    0.503325
      7         11           0        1.331488   -3.375146   -0.318578
 ---------------------------------------------------------------------

 SCF Done:  E(UB3LYP) =  -1136.12626866     A.U. after   24 cycles

 The electronic state is 2-A.
 Alpha  occ. eigenvalues --  -38.44422 -38.44362 -38.44245 -38.44076 -38.43965
 Alpha  occ. eigenvalues --  -38.43536 -38.43013  -2.20250  -2.20180  -2.20057
 Alpha  occ. eigenvalues --   -2.19908  -2.19870  -2.19362  -2.18878  -1.13969
 Alpha  occ. eigenvalues --   -1.13924  -1.13856  -1.13851  -1.13848  -1.13831
 Alpha  occ. eigenvalues --   -1.13737  -1.13729  -1.13693  -1.13603  -1.13578
 Alpha  occ. eigenvalues --   -1.13566  -1.13531  -1.13510  -1.13489  -1.13020
 Alpha  occ. eigenvalues --   -1.13004  -1.12979  -1.12530  -1.12521  -1.12518
 Alpha  occ. eigenvalues --   -0.17229  -0.13681  -0.13484  -0.09575
 Alpha virt. eigenvalues --   -0.06736  -0.05745  -0.04274  -0.03310  -0.02763
 Alpha virt. eigenvalues --   -0.02190  -0.01990  -0.01607  -0.01475  -0.00268
 Alpha virt. eigenvalues --    0.00039   0.00266   0.00388   0.00624   0.00685

  Beta  occ. eigenvalues --  -38.44397 -38.44350 -38.44238 -38.44040 -38.43975
  Beta  occ. eigenvalues --  -38.43472 -38.42961  -2.20209  -2.20164  -2.20047
  Beta  occ. eigenvalues --   -2.19887  -2.19845  -2.19241  -2.18779  -1.13948
  Beta  occ. eigenvalues --   -1.13900  -1.13851  -1.13836  -1.13786  -1.13784
  Beta  occ. eigenvalues --   -1.13735  -1.13723  -1.13656  -1.13606  -1.13556
  Beta  occ. eigenvalues --   -1.13529  -1.13520  -1.13496  -1.13464  -1.12936
  Beta  occ. eigenvalues --   -1.12923  -1.12903  -1.12462  -1.12460  -1.12453
  Beta  occ. eigenvalues --   -0.16941  -0.13042  -0.12884
  Beta virt. eigenvalues --   -0.06751  -0.06352  -0.05449  -0.04117  -0.02733
  Beta virt. eigenvalues --   -0.02219  -0.02031  -0.01852  -0.01305  -0.01278
  Beta virt. eigenvalues --   -0.00093   0.00311   0.00410   0.00508   0.00705

 Mulliken charges and spin densities:
               1          2
     1  Na   0.396430   0.074235
     2  Na   1.222630   0.215226
     3  Na   0.699031   0.202114
     4  Na   1.341174   0.397373
     5  Na  -4.554517  -0.225713
     6  Na   0.469704   0.254300
     7  Na   0.425548   0.082464
 Sum of Mulliken charges =  -0.00000   1.00000

 Dipole moment (field-independent basis, Debye):
    X=             -0.2770    Y=             -0.0659    Z=             -0.3104  Tot=              0.4212
 Quadrupole moment (field-independent basis, Debye-Ang):
   XX=            -62.4618   YY=            -60.9804   ZZ=            -72.9409
   XY=              0.7105   XZ=              0.8840   YZ=              0.8496

 Normal termination of Gaussian 16 at Fri Dec  8 19:58:18 2023.
