 Gaussian 16, Revision B.01,
 Gaussian 16:  ES64L-G16RevB.01 20-Dec-2017

 -------------------------
 #P B3LYP/6-311+g(d) force
 -------------------------

 -----
 DPGEN
 -----
 Symbolic Z-matrix:
 Charge =  0 Multiplicity = 2

                         Standard orientation:
 ---------------------------------------------------------------------
 Center     Atomic      Atomic             Coordinates (Angstroms)
 Number     Number       Type             X           Y           Z
 ---------------------------------------------------------------------
      1         11           0       -1.445157   -0.367524    2.410224
      2         11           0       -0.230922    3.092724   -1.461822
      3         11           0       -2.448584    1.626737    0.061097
      4         11           0       -2.069348   -1.808167   -0.297279
      5         11           0        0.171457   -2.906214   -1.590808
      6         11           0        1.574398    0.239894    0.332432
      7         11           0        4.448156    0.122551    0.546156
 ---------------------------------------------------------------------

 SCF Done:  E(UB3LYP) =  -1136.11059604     A.U. after   22 cycles

 The electronic state is 2-A.
 Alpha  occ. eigenvalues --  -38.45060 -38.44391 -38.44270 -38.44193 -38.43804
 Alpha  occ. eigenvalues --  -38.43790 -38.43193  -2.20953  -2.20253  -2.20086
 Alpha  occ. eigenvalues --   -2.20020  -2.19752  -2.19685  -2.19071  -1.14603
 Alpha  occ. eigenvalues --   -1.14585  -1.14575  -1.14059  -1.13870  -1.13851
 Alpha  occ. eigenvalues --   -1.13821  -1.13718  -1.13717  -1.13713  -1.13659
 Alpha  occ. eigenvalues --   -1.13645  -1.13411  -1.13397  -1.13385  -1.13358
 Alpha  occ. eigenvalues --   -1.13331  -1.13314  -1.12754  -1.12736  -1.12698
 Alpha  occ. eigenvalues --   -0.17936  -0.12947  -0.12918  -0.11542
 Alpha virt. eigenvalues --   -0.06400  -0.04924  -0.04599  -0.03360  -0.03310
 Alpha virt. eigenvalues --   -0.02386  -0.02017  -0.00911  -0.00706  -0.00374
 Alpha virt. eigenvalues --   -0.00312   0.00052   0.00423   0.00483   0.00753

  Beta  occ. eigenvalues --  -38.44970 -38.44333 -38.44259 -38.44140 -38.43794
  Beta  occ. eigenvalues --  -38.43786 -38.43188  -2.20786  -2.20147  -2.20065
  Beta  occ. eigenvalues --   -2.19923  -2.19742  -2.19685  -2.19065  -1.14494
  Beta  occ. eigenvalues --   -1.14473  -1.14458  -1.13987  -1.13807  -1.13798
  Beta  occ. eigenvalues --   -1.13778  -1.13702  -1.13699  -1.13654  -1.13593
  Beta  occ. eigenvalues --   -1.13580  -1.13404  -1.13389  -1.13356  -1.13343
  Beta  occ. eigenvalues --   -1.13323  -1.13276  -1.12744  -1.12718  -1.12700
  Beta  occ. eigenvalues --   -0.17331  -0.12665  -0.12184
  Beta virt. eigenvalues --   -0.08148  -0.06144  -0.04435  -0.04358  -0.02991
  Beta virt. eigenvalues --   -0.02854  -0.01975  -0.01800  -0.00779  -0.00429
  Beta virt. eigenvalues --   -0.00236  -0.00104   0.00154   0.00541   0.00721

 Mulliken charges and spin densities:
               1          2
     1  Na   0.461318   0.164269
     2  Na   0.339942   0.261061
     3  Na   0.729118   0.011781
     4  Na   0.820590   0.319937
     5  Na   0.127531   0.083128
     6  Na  -1.213282   0.385489
     7  Na  -1.265217  -0.225666
 Sum of Mulliken charges =  -0.00000   1.00000

 Dipole moment (field-independent basis, Debye):
    X=              0.0928    Y=             -0.0887    Z=              0.1875  Tot=              0.2272
 Quadrupole moment (field-independent basis, Debye-Ang):
   XX=            -59.8175   YY=            -70.4948   ZZ=            -66.3239
   XY=             -0.6217   XZ=             -2.3180   YZ=             -0.9983

 Normal termination of Gaussian 16 at Thu Dec  7 12:13:26 2023.
