 Gaussian 16, Revision B.01,
 Gaussian 16:  ES64L-G16RevB.01 20-Dec-2017

 -------------------------
 #P B3LYP/6-311+g(d) force
 -------------------------

 -----
 DPGEN
 -----
 Symbolic Z-matrix:
 Charge =  0 Multiplicity = 2

                         Standard orientation:
 ---------------------------------------------------------------------
 Center     Atomic      Atomic             Coordinates (Angstroms)
 Number     Number       Type             X           Y           Z
 ---------------------------------------------------------------------
      1         11           0        2.793729   -1.338659    0.749205
      2         11           0        5.921474   -1.083621   -0.455609
      3         11           0        3.549188    1.692066    0.116183
      4         11           0        0.145976    2.066389   -0.082581
      5         11           0       -0.380429   -0.848636   -0.479059
      6         11           0       -4.451926   -0.053750    0.375245
      7         11           0       -7.578012   -0.433788   -0.223385
 ---------------------------------------------------------------------

 SCF Done:  E(UB3LYP) =  -1136.11444483     A.U. after   20 cycles

 The electronic state is 2-A.
 Alpha  occ. eigenvalues --  -38.44818 -38.44754 -38.44574 -38.44374 -38.44015
 Alpha  occ. eigenvalues --  -38.43829 -38.43726  -2.20629  -2.20604  -2.20443
 Alpha  occ. eigenvalues --   -2.20235  -2.19885  -2.19603  -2.19499  -1.14350
 Alpha  occ. eigenvalues --   -1.14312  -1.14287  -1.14270  -1.14251  -1.14187
 Alpha  occ. eigenvalues --   -1.14123  -1.14103  -1.14024  -1.13960  -1.13888
 Alpha  occ. eigenvalues --   -1.13864  -1.13532  -1.13519  -1.13511  -1.13282
 Alpha  occ. eigenvalues --   -1.13262  -1.13262  -1.13175  -1.13172  -1.13094
 Alpha  occ. eigenvalues --   -0.17321  -0.13651  -0.12224  -0.11211
 Alpha virt. eigenvalues --   -0.07042  -0.05145  -0.04865  -0.03464  -0.03108
 Alpha virt. eigenvalues --   -0.02716  -0.01999  -0.01608  -0.01368  -0.00886
 Alpha virt. eigenvalues --   -0.00442  -0.00109   0.00109   0.00393   0.00431

  Beta  occ. eigenvalues --  -38.44813 -38.44714 -38.44502 -38.44344 -38.43973
  Beta  occ. eigenvalues --  -38.43825 -38.43727  -2.20596  -2.20557  -2.20312
  Beta  occ. eigenvalues --   -2.20183  -2.19808  -2.19596  -2.19500  -1.14291
  Beta  occ. eigenvalues --   -1.14276  -1.14267  -1.14251  -1.14235  -1.14145
  Beta  occ. eigenvalues --   -1.14039  -1.14019  -1.13922  -1.13912  -1.13856
  Beta  occ. eigenvalues --   -1.13804  -1.13474  -1.13468  -1.13455  -1.13278
  Beta  occ. eigenvalues --   -1.13257  -1.13257  -1.13176  -1.13173  -1.13093
  Beta  occ. eigenvalues --   -0.16569  -0.13586  -0.12026
  Beta virt. eigenvalues --   -0.07350  -0.06739  -0.04950  -0.04394  -0.03206
  Beta virt. eigenvalues --   -0.02687  -0.02272  -0.01727  -0.01531  -0.01341
  Beta virt. eigenvalues --   -0.00448  -0.00085   0.00031   0.00240   0.00478

 Mulliken charges and spin densities:
               1          2
     1  Na  -0.200246   0.276072
     2  Na   0.491164  -0.006012
     3  Na   0.200198   0.201662
     4  Na  -0.175174   0.285350
     5  Na  -0.192585   0.272695
     6  Na  -0.646316  -0.031764
     7  Na   0.522960   0.001996
 Sum of Mulliken charges =  -0.00000   1.00000

 Dipole moment (field-independent basis, Debye):
    X=              2.4558    Y=             -0.1377    Z=             -0.3642  Tot=              2.4865
 Quadrupole moment (field-independent basis, Debye-Ang):
   XX=            -52.5429   YY=            -70.8410   ZZ=            -71.5031
   XY=             -3.1922   XZ=             -0.6964   YZ=              0.7246

 Normal termination of Gaussian 16 at Tue Nov 28 22:13:40 2023.
