 Gaussian 16, Revision B.01,
 Gaussian 16:  ES64L-G16RevB.01 20-Dec-2017

 -------------------------
 #P B3LYP/6-311+g(d) force
 -------------------------

 -----
 DPGEN
 -----
 Symbolic Z-matrix:
 Charge =  0 Multiplicity = 2

                         Standard orientation:
 ---------------------------------------------------------------------
 Center     Atomic      Atomic             Coordinates (Angstroms)
 Number     Number       Type             X           Y           Z
 ---------------------------------------------------------------------
      1         11           0       -0.470175    2.035544    0.368108
      2         11           0        3.386967    1.496512   -0.501463
      3         11           0       -5.500356   -1.418740    0.030484
      4         11           0       -3.654372    1.539935   -0.015972
      5         11           0        5.687060   -1.097591    0.008334
      6         11           0       -1.414449   -1.472617   -0.507795
      7         11           0        1.965326   -1.083043    0.618305
 ---------------------------------------------------------------------

 SCF Done:  E(UB3LYP) =  -1136.11848820     A.U. after   23 cycles

 The electronic state is 2-A.
 Alpha  occ. eigenvalues --  -38.45368 -38.44469 -38.44409 -38.44177 -38.44086
 Alpha  occ. eigenvalues --  -38.43765 -38.42962  -2.21188  -2.20285  -2.20272
 Alpha  occ. eigenvalues --   -2.19945  -2.19925  -2.19536  -2.18803  -1.14897
 Alpha  occ. eigenvalues --   -1.14869  -1.14762  -1.13973  -1.13968  -1.13956
 Alpha  occ. eigenvalues --   -1.13939  -1.13891  -1.13841  -1.13625  -1.13622
 Alpha  occ. eigenvalues --   -1.13603  -1.13599  -1.13576  -1.13540  -1.13203
 Alpha  occ. eigenvalues --   -1.13197  -1.13160  -1.12479  -1.12475  -1.12424
 Alpha  occ. eigenvalues --   -0.16845  -0.14504  -0.11295  -0.11174
 Alpha virt. eigenvalues --   -0.07026  -0.05429  -0.04270  -0.03587  -0.02967
 Alpha virt. eigenvalues --   -0.02763  -0.02082  -0.01450  -0.00965  -0.00810
 Alpha virt. eigenvalues --   -0.00054  -0.00023   0.00180   0.00278   0.00557

  Beta  occ. eigenvalues --  -38.45353 -38.44395 -38.44367 -38.44198 -38.44046
  Beta  occ. eigenvalues --  -38.43743 -38.42928  -2.21159  -2.20197  -2.20151
  Beta  occ. eigenvalues --   -2.19984  -2.19854  -2.19496  -2.18742  -1.14877
  Beta  occ. eigenvalues --   -1.14847  -1.14752  -1.13922  -1.13898  -1.13884
  Beta  occ. eigenvalues --   -1.13848  -1.13798  -1.13753  -1.13650  -1.13649
  Beta  occ. eigenvalues --   -1.13600  -1.13557  -1.13552  -1.13469  -1.13176
  Beta  occ. eigenvalues --   -1.13166  -1.13136  -1.12438  -1.12435  -1.12368
  Beta  occ. eigenvalues --   -0.16278  -0.14188  -0.11097
  Beta virt. eigenvalues --   -0.07278  -0.06793  -0.05045  -0.04064  -0.03383
  Beta virt. eigenvalues --   -0.02730  -0.02157  -0.01664  -0.01306  -0.00887
  Beta virt. eigenvalues --   -0.00447   0.00087   0.00155   0.00329   0.00388

 Mulliken charges and spin densities:
               1          2
     1  Na  -0.150252   0.220580
     2  Na   0.205122   0.117238
     3  Na   0.415982   0.093270
     4  Na   0.016445   0.104541
     5  Na   0.597117  -0.118305
     6  Na  -0.418184   0.375613
     7  Na  -0.666229   0.207063
 Sum of Mulliken charges =  -0.00000   1.00000

 Dipole moment (field-independent basis, Debye):
    X=              1.4406    Y=             -0.1264    Z=             -0.1619  Tot=              1.4552
 Quadrupole moment (field-independent basis, Debye-Ang):
   XX=            -59.9850   YY=            -65.7505   ZZ=            -71.4414
   XY=              0.6495   XZ=             -0.7942   YZ=             -1.8616

 Normal termination of Gaussian 16 at Sun Dec  3 11:43:34 2023.
