 Gaussian 16, Revision B.01,
 Gaussian 16:  ES64L-G16RevB.01 20-Dec-2017

 -------------------------
 #P B3LYP/6-311+g(d) force
 -------------------------

 -----
 DPGEN
 -----
 Symbolic Z-matrix:
 Charge =  0 Multiplicity = 2

                         Standard orientation:
 ---------------------------------------------------------------------
 Center     Atomic      Atomic             Coordinates (Angstroms)
 Number     Number       Type             X           Y           Z
 ---------------------------------------------------------------------
      1         11           0       -1.387270   -2.383949   -0.619372
      2         11           0       -0.305127    0.070270    2.158271
      3         11           0       -3.303798    0.142814   -0.027827
      4         11           0        2.650572   -1.975179    0.346770
      5         11           0        0.551721   -0.271641   -1.276813
      6         11           0       -0.977396    2.579941   -0.294205
      7         11           0        2.771297    1.837744   -0.286824
 ---------------------------------------------------------------------

 SCF Done:  E(UB3LYP) =  -1136.12935382     A.U. after   19 cycles

 The electronic state is 2-A.
 Alpha  occ. eigenvalues --  -38.44350 -38.44348 -38.44240 -38.43744 -38.43412
 Alpha  occ. eigenvalues --  -38.43257 -38.42973  -2.20194  -2.20153  -2.20046
 Alpha  occ. eigenvalues --   -2.19609  -2.19304  -2.19106  -2.19027  -1.13868
 Alpha  occ. eigenvalues --   -1.13855  -1.13847  -1.13842  -1.13809  -1.13782
 Alpha  occ. eigenvalues --   -1.13740  -1.13699  -1.13670  -1.13278  -1.13235
 Alpha  occ. eigenvalues --   -1.13216  -1.13100  -1.12938  -1.12912  -1.12812
 Alpha  occ. eigenvalues --   -1.12773  -1.12731  -1.12694  -1.12653  -1.12637
 Alpha  occ. eigenvalues --   -0.18544  -0.13343  -0.12117  -0.10583
 Alpha virt. eigenvalues --   -0.06008  -0.05691  -0.04160  -0.03271  -0.02611
 Alpha virt. eigenvalues --   -0.02404  -0.01888  -0.01393  -0.00479  -0.00214
 Alpha virt. eigenvalues --   -0.00032   0.00291   0.00695   0.00798   0.00886

  Beta  occ. eigenvalues --  -38.44348 -38.44343 -38.44234 -38.43641 -38.43393
  Beta  occ. eigenvalues --  -38.43251 -38.42932  -2.20192  -2.20145  -2.20037
  Beta  occ. eigenvalues --   -2.19417  -2.19272  -2.19099  -2.18955  -1.13871
  Beta  occ. eigenvalues --   -1.13849  -1.13840  -1.13824  -1.13790  -1.13780
  Beta  occ. eigenvalues --   -1.13727  -1.13688  -1.13665  -1.13151  -1.13105
  Beta  occ. eigenvalues --   -1.13077  -1.13069  -1.12912  -1.12880  -1.12804
  Beta  occ. eigenvalues --   -1.12750  -1.12724  -1.12633  -1.12600  -1.12589
  Beta  occ. eigenvalues --   -0.17853  -0.13141  -0.11857
  Beta virt. eigenvalues --   -0.06700  -0.05913  -0.05634  -0.04113  -0.02558
  Beta virt. eigenvalues --   -0.01931  -0.01772  -0.01356  -0.01290  -0.00507
  Beta virt. eigenvalues --   -0.00223   0.00135   0.00344   0.00772   0.00802

 Mulliken charges and spin densities:
               1          2
     1  Na   0.459570   0.121105
     2  Na  -0.558468   0.731242
     3  Na   0.176198   0.049418
     4  Na   0.035244   0.071868
     5  Na  -0.395436   0.013670
     6  Na   0.115654   0.017409
     7  Na   0.167238  -0.004713
 Sum of Mulliken charges =  -0.00000   1.00000

 Dipole moment (field-independent basis, Debye):
    X=              0.3335    Y=              0.0276    Z=              0.3756  Tot=              0.5030
 Quadrupole moment (field-independent basis, Debye-Ang):
   XX=            -51.2109   YY=            -65.4653   ZZ=            -75.4469
   XY=             -0.6627   XZ=              1.5050   YZ=             -1.0230

 Normal termination of Gaussian 16 at Thu Dec  7 12:09:17 2023.
