 Gaussian 16, Revision B.01,
 Gaussian 16:  ES64L-G16RevB.01 20-Dec-2017

 -------------------------
 #P B3LYP/6-311+g(d) force
 -------------------------

 -----
 DPGEN
 -----
 Symbolic Z-matrix:
 Charge =  0 Multiplicity = 2

                         Standard orientation:
 ---------------------------------------------------------------------
 Center     Atomic      Atomic             Coordinates (Angstroms)
 Number     Number       Type             X           Y           Z
 ---------------------------------------------------------------------
      1         11           0       -0.048362    2.678778    0.320381
      2         11           0       -2.862967    2.004714    0.172301
      3         11           0       -0.719733   -1.644442    1.621839
      4         11           0        2.701041   -0.797612    1.518433
      5         11           0        3.103745    0.904925   -1.179279
      6         11           0        0.835893   -1.414169   -1.599193
      7         11           0       -3.009618   -1.732194   -0.854481
 ---------------------------------------------------------------------

 SCF Done:  E(UB3LYP) =  -1136.12356230     A.U. after   20 cycles

 The electronic state is 2-A.
 Alpha  occ. eigenvalues --  -38.44474 -38.44441 -38.44303 -38.44287 -38.43979
 Alpha  occ. eigenvalues --  -38.43653 -38.43316  -2.20312  -2.20295  -2.20146
 Alpha  occ. eigenvalues --   -2.20095  -2.19818  -2.19482  -2.19140  -1.14003
 Alpha  occ. eigenvalues --   -1.13987  -1.13968  -1.13952  -1.13948  -1.13927
 Alpha  occ. eigenvalues --   -1.13799  -1.13772  -1.13770  -1.13766  -1.13744
 Alpha  occ. eigenvalues --   -1.13735  -1.13498  -1.13469  -1.13438  -1.13272
 Alpha  occ. eigenvalues --   -1.13134  -1.13099  -1.12795  -1.12792  -1.12752
 Alpha  occ. eigenvalues --   -0.17655  -0.13659  -0.12065  -0.11093
 Alpha virt. eigenvalues --   -0.06339  -0.05572  -0.04642  -0.03683  -0.02894
 Alpha virt. eigenvalues --   -0.02431  -0.02007  -0.01143  -0.00692  -0.00277
 Alpha virt. eigenvalues --   -0.00035   0.00204   0.00298   0.00330   0.00734

  Beta  occ. eigenvalues --  -38.44429 -38.44389 -38.44288 -38.44257 -38.43936
  Beta  occ. eigenvalues --  -38.43655 -38.43313  -2.20231  -2.20202  -2.20091
  Beta  occ. eigenvalues --   -2.20067  -2.19740  -2.19486  -2.19136  -1.13951
  Beta  occ. eigenvalues --   -1.13924  -1.13902  -1.13884  -1.13875  -1.13867
  Beta  occ. eigenvalues --   -1.13750  -1.13749  -1.13730  -1.13728  -1.13725
  Beta  occ. eigenvalues --   -1.13715  -1.13450  -1.13419  -1.13359  -1.13274
  Beta  occ. eigenvalues --   -1.13134  -1.13102  -1.12794  -1.12782  -1.12752
  Beta  occ. eigenvalues --   -0.17004  -0.13489  -0.11863
  Beta virt. eigenvalues --   -0.07223  -0.06144  -0.05481  -0.04008  -0.03546
  Beta virt. eigenvalues --   -0.02229  -0.01881  -0.01748  -0.01054  -0.00298
  Beta virt. eigenvalues --   -0.00256   0.00033   0.00319   0.00377   0.00542

 Mulliken charges and spin densities:
               1          2
     1  Na  -0.545975   0.077531
     2  Na   0.306278  -0.139564
     3  Na  -0.418536   0.297211
     4  Na   0.186528   0.097352
     5  Na   0.408152   0.273927
     6  Na  -0.407106   0.257385
     7  Na   0.470659   0.136159
 Sum of Mulliken charges =  -0.00000   1.00000

 Dipole moment (field-independent basis, Debye):
    X=              0.3434    Y=             -0.6402    Z=             -0.2678  Tot=              0.7742
 Quadrupole moment (field-independent basis, Debye-Ang):
   XX=            -52.8695   YY=            -75.2084   ZZ=            -69.9971
   XY=              4.3826   XZ=              1.7541   YZ=             -0.3188

 Normal termination of Gaussian 16 at Mon Dec  4 04:04:58 2023.
