 Gaussian 16, Revision B.01,
 Gaussian 16:  ES64L-G16RevB.01 20-Dec-2017

 -------------------------
 #P B3LYP/6-311+g(d) force
 -------------------------

 -----
 DPGEN
 -----
 Symbolic Z-matrix:
 Charge =  0 Multiplicity = 2

                         Standard orientation:
 ---------------------------------------------------------------------
 Center     Atomic      Atomic             Coordinates (Angstroms)
 Number     Number       Type             X           Y           Z
 ---------------------------------------------------------------------
      1         11           0        2.022027   -0.910258   -1.080864
      2         11           0        5.278172   -1.183358    1.233411
      3         11           0        4.009819    1.985684    0.003707
      4         11           0        0.182330    1.447758   -0.576508
      5         11           0       -1.086090   -1.443053   -0.039431
      6         11           0       -4.253290   -0.564197   -0.762636
      7         11           0       -6.152968    0.667425    1.222322
 ---------------------------------------------------------------------

 SCF Done:  E(UB3LYP) =  -1136.11309816     A.U. after   20 cycles

 The electronic state is 2-A.
 Alpha  occ. eigenvalues --  -38.44861 -38.44411 -38.44199 -38.44181 -38.43935
 Alpha  occ. eigenvalues --  -38.43920 -38.43775  -2.20739  -2.20306  -2.19999
 Alpha  occ. eigenvalues --   -2.19970  -2.19762  -2.19715  -2.19666  -1.14487
 Alpha  occ. eigenvalues --   -1.14432  -1.14331  -1.13978  -1.13969  -1.13906
 Alpha  occ. eigenvalues --   -1.13726  -1.13658  -1.13647  -1.13645  -1.13630
 Alpha  occ. eigenvalues --   -1.13592  -1.13438  -1.13413  -1.13385  -1.13375
 Alpha  occ. eigenvalues --   -1.13368  -1.13328  -1.13324  -1.13309  -1.13285
 Alpha  occ. eigenvalues --   -0.17051  -0.14223  -0.11996  -0.10651
 Alpha virt. eigenvalues --   -0.06724  -0.05493  -0.04792  -0.03317  -0.02861
 Alpha virt. eigenvalues --   -0.02766  -0.02274  -0.01170  -0.01032  -0.00750
 Alpha virt. eigenvalues --   -0.00309  -0.00227  -0.00013   0.00296   0.00587

  Beta  occ. eigenvalues --  -38.44850 -38.44366 -38.44192 -38.44159 -38.43920
  Beta  occ. eigenvalues --  -38.43877 -38.43747  -2.20722  -2.20225  -2.19985
  Beta  occ. eigenvalues --   -2.19932  -2.19762  -2.19613  -2.19606  -1.14456
  Beta  occ. eigenvalues --   -1.14404  -1.14322  -1.13927  -1.13917  -1.13825
  Beta  occ. eigenvalues --   -1.13718  -1.13637  -1.13636  -1.13635  -1.13605
  Beta  occ. eigenvalues --   -1.13540  -1.13432  -1.13414  -1.13378  -1.13300
  Beta  occ. eigenvalues --   -1.13290  -1.13290  -1.13274  -1.13257  -1.13253
  Beta  occ. eigenvalues --   -0.16517  -0.13929  -0.11751
  Beta virt. eigenvalues --   -0.07155  -0.06407  -0.05033  -0.04490  -0.03146
  Beta virt. eigenvalues --   -0.02730  -0.02281  -0.01821  -0.01101  -0.00942
  Beta virt. eigenvalues --   -0.00365  -0.00045   0.00051   0.00157   0.00384

 Mulliken charges and spin densities:
               1          2
     1  Na   0.240349   0.071284
     2  Na   0.025961   0.293945
     3  Na   0.272242  -0.048786
     4  Na  -0.427214   0.457621
     5  Na  -0.183597   0.170253
     6  Na   0.086133   0.016870
     7  Na  -0.013874   0.038813
 Sum of Mulliken charges =  -0.00000   1.00000

 Dipole moment (field-independent basis, Debye):
    X=             -0.0929    Y=              0.3872    Z=              0.2043  Tot=              0.4476
 Quadrupole moment (field-independent basis, Debye-Ang):
   XX=            -69.1709   YY=            -67.3711   ZZ=            -66.7676
   XY=             -1.7519   XZ=             -2.6195   YZ=              2.1044

 Normal termination of Gaussian 16 at Wed Nov 29 03:09:27 2023.
