 Gaussian 16, Revision B.01,
 Gaussian 16:  ES64L-G16RevB.01 20-Dec-2017

 -------------------------
 #P B3LYP/6-311+g(d) force
 -------------------------

 -----
 DPGEN
 -----
 Symbolic Z-matrix:
 Charge =  0 Multiplicity = 2

                         Standard orientation:
 ---------------------------------------------------------------------
 Center     Atomic      Atomic             Coordinates (Angstroms)
 Number     Number       Type             X           Y           Z
 ---------------------------------------------------------------------
      1         11           0        2.141707    1.868719    0.123777
      2         11           0       -1.173527   -2.771715   -0.178949
      3         11           0        0.122480   -0.311236   -1.765970
      4         11           0       -2.955286    0.166644    0.283933
      5         11           0       -0.777277    2.766952   -0.447184
      6         11           0        0.017722    0.023680    1.908601
      7         11           0        2.624180   -1.743044    0.075793
 ---------------------------------------------------------------------

 SCF Done:  E(UB3LYP) =  -1136.13967393     A.U. after   19 cycles

 The electronic state is 2-A.
 Alpha  occ. eigenvalues --  -38.43789 -38.43774 -38.43519 -38.43486 -38.43440
 Alpha  occ. eigenvalues --  -38.43307 -38.43262  -2.19638  -2.19593  -2.19384
 Alpha  occ. eigenvalues --   -2.19376  -2.19375  -2.19228  -2.19197  -1.13349
 Alpha  occ. eigenvalues --   -1.13299  -1.13274  -1.13265  -1.13255  -1.13229
 Alpha  occ. eigenvalues --   -1.13124  -1.13085  -1.13072  -1.13041  -1.13031
 Alpha  occ. eigenvalues --   -1.13019  -1.13009  -1.12988  -1.12972  -1.12904
 Alpha  occ. eigenvalues --   -1.12881  -1.12851  -1.12836  -1.12827  -1.12824
 Alpha  occ. eigenvalues --   -0.18896  -0.12916  -0.12670  -0.10884
 Alpha virt. eigenvalues --   -0.05458  -0.04996  -0.04764  -0.03175  -0.03047
 Alpha virt. eigenvalues --   -0.02580  -0.01309  -0.01205  -0.00261  -0.00170
 Alpha virt. eigenvalues --    0.00022   0.00375   0.00873   0.00902   0.00928

  Beta  occ. eigenvalues --  -38.43784 -38.43772 -38.43512 -38.43479 -38.43354
  Beta  occ. eigenvalues --  -38.43296 -38.43189  -2.19631  -2.19592  -2.19376
  Beta  occ. eigenvalues --   -2.19366  -2.19218  -2.19181  -2.19094  -1.13335
  Beta  occ. eigenvalues --   -1.13279  -1.13267  -1.13261  -1.13247  -1.13227
  Beta  occ. eigenvalues --   -1.13112  -1.13057  -1.13032  -1.13016  -1.13014
  Beta  occ. eigenvalues --   -1.13007  -1.12935  -1.12886  -1.12869  -1.12852
  Beta  occ. eigenvalues --   -1.12822  -1.12806  -1.12805  -1.12760  -1.12742
  Beta  occ. eigenvalues --   -0.18154  -0.12648  -0.12427
  Beta virt. eigenvalues --   -0.06970  -0.05467  -0.04914  -0.04762  -0.02354
  Beta virt. eigenvalues --   -0.02276  -0.01534  -0.01232  -0.01123  -0.00301
  Beta virt. eigenvalues --   -0.00206   0.00129   0.00388   0.00863   0.00916

 Mulliken charges and spin densities:
               1          2
     1  Na   0.196217  -0.028786
     2  Na   0.084766  -0.134117
     3  Na  -0.198627   0.602831
     4  Na   0.116339  -0.005538
     5  Na   0.088823   0.023088
     6  Na  -0.305897   0.684257
     7  Na   0.018379  -0.141736
 Sum of Mulliken charges =  -0.00000   1.00000

 Dipole moment (field-independent basis, Debye):
    X=              0.0689    Y=             -0.3359    Z=              0.0753  Tot=              0.3511
 Quadrupole moment (field-independent basis, Debye-Ang):
   XX=            -59.6581   YY=            -60.4151   ZZ=            -73.6700
   XY=             -0.5205   XZ=              0.3088   YZ=             -0.7755

 Normal termination of Gaussian 16 at Thu Dec  7 04:42:50 2023.
