 Gaussian 16, Revision B.01,
 Gaussian 16:  ES64L-G16RevB.01 20-Dec-2017

 -------------------------
 #P B3LYP/6-311+g(d) force
 -------------------------

 -----
 DPGEN
 -----
 Symbolic Z-matrix:
 Charge =  0 Multiplicity = 2

                         Standard orientation:
 ---------------------------------------------------------------------
 Center     Atomic      Atomic             Coordinates (Angstroms)
 Number     Number       Type             X           Y           Z
 ---------------------------------------------------------------------
      1         11           0       -0.022326   -0.391195    1.984117
      2         11           0       -1.867930   -2.334234    0.183978
      3         11           0        2.792429    1.669013    0.158790
      4         11           0       -0.317243    2.758430   -0.097712
      5         11           0        2.594530   -2.082043   -0.282503
      6         11           0       -3.218042    0.849703   -0.221583
      7         11           0        0.038582   -0.469675   -1.725086
 ---------------------------------------------------------------------

 SCF Done:  E(UB3LYP) =  -1136.13443269     A.U. after   20 cycles

 The electronic state is 2-A.
 Alpha  occ. eigenvalues --  -38.44293 -38.44150 -38.44130 -38.43832 -38.43625
 Alpha  occ. eigenvalues --  -38.43466 -38.42962  -2.20102  -2.19945  -2.19934
 Alpha  occ. eigenvalues --   -2.19698  -2.19511  -2.19385  -2.18811  -1.13770
 Alpha  occ. eigenvalues --   -1.13762  -1.13749  -1.13629  -1.13608  -1.13602
 Alpha  occ. eigenvalues --   -1.13600  -1.13587  -1.13563  -1.13407  -1.13380
 Alpha  occ. eigenvalues --   -1.13313  -1.13175  -1.13134  -1.13123  -1.13063
 Alpha  occ. eigenvalues --   -1.13027  -1.12998  -1.12491  -1.12478  -1.12452
 Alpha  occ. eigenvalues --   -0.18322  -0.13108  -0.12275  -0.10620
 Alpha virt. eigenvalues --   -0.05965  -0.05681  -0.04359  -0.03216  -0.02773
 Alpha virt. eigenvalues --   -0.02524  -0.01820  -0.01385  -0.00600  -0.00244
 Alpha virt. eigenvalues --   -0.00040   0.00314   0.00707   0.00769   0.00876

  Beta  occ. eigenvalues --  -38.44289 -38.44143 -38.44129 -38.43821 -38.43534
  Beta  occ. eigenvalues --  -38.43401 -38.42959  -2.20096  -2.19936  -2.19932
  Beta  occ. eigenvalues --   -2.19682  -2.19342  -2.19266  -2.18808  -1.13763
  Beta  occ. eigenvalues --   -1.13749  -1.13745  -1.13610  -1.13609  -1.13592
  Beta  occ. eigenvalues --   -1.13587  -1.13581  -1.13563  -1.13392  -1.13334
  Beta  occ. eigenvalues --   -1.13308  -1.13066  -1.13015  -1.13004  -1.12980
  Beta  occ. eigenvalues --   -1.12944  -1.12908  -1.12490  -1.12467  -1.12442
  Beta  occ. eigenvalues --   -0.17617  -0.12898  -0.12021
  Beta virt. eigenvalues --   -0.06764  -0.05913  -0.05623  -0.04307  -0.02483
  Beta virt. eigenvalues --   -0.02054  -0.01723  -0.01471  -0.01306  -0.00658
  Beta virt. eigenvalues --   -0.00268   0.00114   0.00354   0.00752   0.00801

 Mulliken charges and spin densities:
               1          2
     1  Na  -0.319660   0.655316
     2  Na   0.427361  -0.059533
     3  Na  -0.021831  -0.036064
     4  Na  -0.082882  -0.048058
     5  Na   0.171033  -0.099028
     6  Na   0.028418  -0.003044
     7  Na  -0.202439   0.590410
 Sum of Mulliken charges =  -0.00000   1.00000

 Dipole moment (field-independent basis, Debye):
    X=              0.0687    Y=             -0.3297    Z=              0.0583  Tot=              0.3417
 Quadrupole moment (field-independent basis, Debye-Ang):
   XX=            -53.0853   YY=            -65.1937   ZZ=            -75.1891
   XY=             -0.2624   XZ=              0.6528   YZ=             -0.0429

 Normal termination of Gaussian 16 at Fri Dec  8 01:09:11 2023.
