 Gaussian 16, Revision B.01,
 Gaussian 16:  ES64L-G16RevB.01 20-Dec-2017

 -------------------------
 #P B3LYP/6-311+g(d) force
 -------------------------

 -----
 DPGEN
 -----
 Symbolic Z-matrix:
 Charge =  0 Multiplicity = 2

                         Standard orientation:
 ---------------------------------------------------------------------
 Center     Atomic      Atomic             Coordinates (Angstroms)
 Number     Number       Type             X           Y           Z
 ---------------------------------------------------------------------
      1         11           0       -2.151610    1.511867   -1.306008
      2         11           0        2.572264    1.014382    0.776887
      3         11           0        0.012276   -2.540002   -1.730773
      4         11           0       -3.104626   -0.910625    0.730418
      5         11           0        2.425039   -2.189179    0.140150
      6         11           0       -0.853769    0.137998    2.245515
      7         11           0        1.100427    2.975559   -0.856189
 ---------------------------------------------------------------------

 SCF Done:  E(UB3LYP) =  -1136.11710279     A.U. after   20 cycles

 The electronic state is 2-A.
 Alpha  occ. eigenvalues --  -38.44964 -38.44578 -38.44330 -38.44218 -38.43812
 Alpha  occ. eigenvalues --  -38.43773 -38.43636  -2.20824  -2.20389  -2.20132
 Alpha  occ. eigenvalues --   -2.20092  -2.19687  -2.19604  -2.19472  -1.14552
 Alpha  occ. eigenvalues --   -1.14443  -1.14439  -1.14054  -1.14040  -1.14032
 Alpha  occ. eigenvalues --   -1.13817  -1.13784  -1.13783  -1.13755  -1.13718
 Alpha  occ. eigenvalues --   -1.13707  -1.13504  -1.13345  -1.13337  -1.13249
 Alpha  occ. eigenvalues --   -1.13235  -1.13193  -1.13140  -1.13121  -1.13113
 Alpha  occ. eigenvalues --   -0.17487  -0.13437  -0.12547  -0.11483
 Alpha virt. eigenvalues --   -0.05925  -0.05571  -0.04778  -0.03662  -0.03411
 Alpha virt. eigenvalues --   -0.02902  -0.01280  -0.00905  -0.00487  -0.00362
 Alpha virt. eigenvalues --   -0.00250   0.00301   0.00375   0.00506   0.00723

  Beta  occ. eigenvalues --  -38.44879 -38.44532 -38.44285 -38.44207 -38.43803
  Beta  occ. eigenvalues --  -38.43767 -38.43643  -2.20668  -2.20303  -2.20075
  Beta  occ. eigenvalues --   -2.20048  -2.19669  -2.19594  -2.19488  -1.14444
  Beta  occ. eigenvalues --   -1.14339  -1.14329  -1.13993  -1.13982  -1.13970
  Beta  occ. eigenvalues --   -1.13764  -1.13749  -1.13724  -1.13708  -1.13698
  Beta  occ. eigenvalues --   -1.13685  -1.13498  -1.13337  -1.13316  -1.13239
  Beta  occ. eigenvalues --   -1.13224  -1.13184  -1.13144  -1.13134  -1.13110
  Beta  occ. eigenvalues --   -0.16842  -0.13278  -0.12192
  Beta virt. eigenvalues --   -0.07873  -0.05601  -0.05315  -0.04229  -0.03232
  Beta virt. eigenvalues --   -0.03024  -0.02234  -0.01240  -0.00808  -0.00301
  Beta virt. eigenvalues --   -0.00227  -0.00022   0.00422   0.00443   0.00654

 Mulliken charges and spin densities:
               1          2
     1  Na  -0.495520   0.365106
     2  Na  -0.167051   0.185152
     3  Na  -0.129527   0.164449
     4  Na   0.594368   0.200069
     5  Na   0.091662  -0.061140
     6  Na  -0.148418   0.210417
     7  Na   0.254486  -0.064052
 Sum of Mulliken charges =  -0.00000   1.00000

 Dipole moment (field-independent basis, Debye):
    X=             -0.7482    Y=             -0.1138    Z=             -0.0222  Tot=              0.7572
 Quadrupole moment (field-independent basis, Debye-Ang):
   XX=            -62.5556   YY=            -70.4073   ZZ=            -68.2357
   XY=              1.7717   XZ=              3.2115   YZ=             -1.3334

 Normal termination of Gaussian 16 at Sun Dec  3 18:29:59 2023.
