 Gaussian 16, Revision B.01,
 Gaussian 16:  ES64L-G16RevB.01 20-Dec-2017

 -------------------------
 #P B3LYP/6-311+g(d) force
 -------------------------

 -----
 DPGEN
 -----
 Symbolic Z-matrix:
 Charge =  0 Multiplicity = 2

                         Standard orientation:
 ---------------------------------------------------------------------
 Center     Atomic      Atomic             Coordinates (Angstroms)
 Number     Number       Type             X           Y           Z
 ---------------------------------------------------------------------
      1         11           0        2.266468   -2.503641   -0.596565
      2         11           0        0.026511   -0.256713   -1.182207
      3         11           0       -3.787160   -0.365343   -0.920339
      4         11           0       -1.680619    1.854025    0.872270
      5         11           0       -1.085416   -1.310423    1.249205
      6         11           0        2.339496    2.463580   -0.930463
      7         11           0        1.920721    0.118515    1.508100
 ---------------------------------------------------------------------

 SCF Done:  E(UB3LYP) =  -1136.12461241     A.U. after   23 cycles

 The electronic state is 2-A.
 Alpha  occ. eigenvalues --  -38.44609 -38.44116 -38.43637 -38.43575 -38.43490
 Alpha  occ. eigenvalues --  -38.43484 -38.43078  -2.20415  -2.19972  -2.19565
 Alpha  occ. eigenvalues --   -2.19564  -2.19516  -2.19319  -2.18881  -1.14079
 Alpha  occ. eigenvalues --   -1.14073  -1.14032  -1.13695  -1.13645  -1.13564
 Alpha  occ. eigenvalues --   -1.13498  -1.13293  -1.13244  -1.13195  -1.13185
 Alpha  occ. eigenvalues --   -1.13161  -1.13146  -1.13099  -1.13084  -1.12986
 Alpha  occ. eigenvalues --   -1.12967  -1.12932  -1.12553  -1.12538  -1.12508
 Alpha  occ. eigenvalues --   -0.18687  -0.13640  -0.11395  -0.10789
 Alpha virt. eigenvalues --   -0.06132  -0.05391  -0.04389  -0.03068  -0.02430
 Alpha virt. eigenvalues --   -0.02264  -0.01943  -0.01259  -0.00788   0.00031
 Alpha virt. eigenvalues --    0.00195   0.00227   0.00514   0.00598   0.00720

  Beta  occ. eigenvalues --  -38.44580 -38.44097 -38.43606 -38.43528 -38.43473
  Beta  occ. eigenvalues --  -38.43457 -38.43060  -2.20361  -2.19940  -2.19512
  Beta  occ. eigenvalues --   -2.19490  -2.19454  -2.19301  -2.18848  -1.14040
  Beta  occ. eigenvalues --   -1.14031  -1.14000  -1.13670  -1.13600  -1.13544
  Beta  occ. eigenvalues --   -1.13447  -1.13252  -1.13173  -1.13150  -1.13129
  Beta  occ. eigenvalues --   -1.13104  -1.13096  -1.13050  -1.13031  -1.12966
  Beta  occ. eigenvalues --   -1.12950  -1.12919  -1.12529  -1.12511  -1.12487
  Beta  occ. eigenvalues --   -0.17940  -0.13381  -0.11211
  Beta virt. eigenvalues --   -0.06983  -0.05870  -0.05250  -0.04013  -0.02786
  Beta virt. eigenvalues --   -0.02005  -0.01982  -0.01247  -0.01129  -0.00407
  Beta virt. eigenvalues --    0.00085   0.00239   0.00292   0.00598   0.00710

 Mulliken charges and spin densities:
               1          2
     1  Na   0.057028  -0.014588
     2  Na  -0.973920   0.500424
     3  Na   0.417564   0.115516
     4  Na  -0.092792  -0.014086
     5  Na   0.240005   0.310514
     6  Na  -0.023171  -0.019091
     7  Na   0.375286   0.121311
 Sum of Mulliken charges =  -0.00000   1.00000

 Dipole moment (field-independent basis, Debye):
    X=             -0.8884    Y=             -0.1625    Z=              0.1958  Tot=              0.9241
 Quadrupole moment (field-independent basis, Debye-Ang):
   XX=            -52.1512   YY=            -69.2614   ZZ=            -69.6286
   XY=             -2.2203   XZ=              1.5053   YZ=              0.7513

 Normal termination of Gaussian 16 at Tue Dec  5 10:04:21 2023.
