 Gaussian 16, Revision B.01,
 Gaussian 16:  ES64L-G16RevB.01 20-Dec-2017

 -------------------------
 #P B3LYP/6-311+g(d) force
 -------------------------

 -----
 DPGEN
 -----
 Symbolic Z-matrix:
 Charge =  0 Multiplicity = 2

                         Standard orientation:
 ---------------------------------------------------------------------
 Center     Atomic      Atomic             Coordinates (Angstroms)
 Number     Number       Type             X           Y           Z
 ---------------------------------------------------------------------
      1         11           0       -0.228382   -0.113048    2.122227
      2         11           0       -2.436518    2.059672   -0.086936
      3         11           0       -2.863655   -1.186753   -0.316982
      4         11           0       -0.143626   -0.027302   -1.666638
      5         11           0        3.159788   -0.421109   -0.410664
      6         11           0        0.638389   -2.836260    0.201831
      7         11           0        1.874005    2.524801    0.157163
 ---------------------------------------------------------------------

 SCF Done:  E(UB3LYP) =  -1136.13602424     A.U. after   20 cycles

 The electronic state is 2-A.
 Alpha  occ. eigenvalues --  -38.44176 -38.44109 -38.43931 -38.43739 -38.43530
 Alpha  occ. eigenvalues --  -38.43528 -38.42948  -2.20036  -2.19946  -2.19756
 Alpha  occ. eigenvalues --   -2.19608  -2.19468  -2.19338  -2.18794  -1.13735
 Alpha  occ. eigenvalues --   -1.13700  -1.13664  -1.13620  -1.13611  -1.13585
 Alpha  occ. eigenvalues --   -1.13428  -1.13414  -1.13394  -1.13270  -1.13232
 Alpha  occ. eigenvalues --   -1.13227  -1.13154  -1.13106  -1.13093  -1.13007
 Alpha  occ. eigenvalues --   -1.13000  -1.12982  -1.12471  -1.12461  -1.12430
 Alpha  occ. eigenvalues --   -0.18408  -0.13375  -0.11972  -0.10829
 Alpha virt. eigenvalues --   -0.05729  -0.05502  -0.04450  -0.03357  -0.02758
 Alpha virt. eigenvalues --   -0.02708  -0.01686  -0.01139  -0.00518  -0.00342
 Alpha virt. eigenvalues --   -0.00031   0.00349   0.00724   0.00836   0.00886

  Beta  occ. eigenvalues --  -38.44166 -38.44102 -38.43929 -38.43637 -38.43530
  Beta  occ. eigenvalues --  -38.43471 -38.42943  -2.20021  -2.19935  -2.19754
  Beta  occ. eigenvalues --   -2.19419  -2.19364  -2.19339  -2.18788  -1.13719
  Beta  occ. eigenvalues --   -1.13681  -1.13647  -1.13608  -1.13595  -1.13580
  Beta  occ. eigenvalues --   -1.13421  -1.13411  -1.13384  -1.13146  -1.13103
  Beta  occ. eigenvalues --   -1.13089  -1.13081  -1.13034  -1.13016  -1.13006
  Beta  occ. eigenvalues --   -1.12990  -1.12978  -1.12468  -1.12436  -1.12425
  Beta  occ. eigenvalues --   -0.17684  -0.13146  -0.11759
  Beta virt. eigenvalues --   -0.06911  -0.05638  -0.05508  -0.04391  -0.02615
  Beta virt. eigenvalues --   -0.02013  -0.01648  -0.01575  -0.01073  -0.00553
  Beta virt. eigenvalues --   -0.00375   0.00116   0.00386   0.00814   0.00834

 Mulliken charges and spin densities:
               1          2
     1  Na  -0.433980   0.793226
     2  Na  -0.014569  -0.057169
     3  Na   0.353867   0.004768
     4  Na  -0.061593   0.368846
     5  Na   0.119606  -0.008423
     6  Na   0.098053  -0.044549
     7  Na  -0.061384  -0.056699
 Sum of Mulliken charges =  -0.00000   1.00000

 Dipole moment (field-independent basis, Debye):
    X=             -0.2757    Y=              0.0560    Z=              0.0217  Tot=              0.2822
 Quadrupole moment (field-independent basis, Debye-Ang):
   XX=            -55.7655   YY=            -64.3917   ZZ=            -74.0819
   XY=             -0.5998   XZ=             -0.1428   YZ=              0.6194

 Normal termination of Gaussian 16 at Thu Dec  7 04:52:27 2023.
