 Gaussian 16, Revision B.01,
 Gaussian 16:  ES64L-G16RevB.01 20-Dec-2017

 -------------------------
 #P B3LYP/6-311+g(d) force
 -------------------------

 -----
 DPGEN
 -----
 Symbolic Z-matrix:
 Charge =  0 Multiplicity = 2

                         Standard orientation:
 ---------------------------------------------------------------------
 Center     Atomic      Atomic             Coordinates (Angstroms)
 Number     Number       Type             X           Y           Z
 ---------------------------------------------------------------------
      1         11           0        1.400043   -2.478429   -0.093165
      2         11           0       -2.406509   -2.681057    0.367140
      3         11           0       -3.494303    0.414605    0.068753
      4         11           0        4.043612   -0.619974   -0.210700
      5         11           0       -0.532015    3.532373   -0.198041
      6         11           0       -0.751672    0.135276   -0.756631
      7         11           0        1.740843    1.697206    0.822644
 ---------------------------------------------------------------------

 SCF Done:  E(UB3LYP) =  -1136.12227860     A.U. after   21 cycles

 The electronic state is 2-A.
 Alpha  occ. eigenvalues --  -38.44448 -38.44377 -38.44073 -38.43943 -38.43588
 Alpha  occ. eigenvalues --  -38.43376 -38.43048  -2.20273  -2.20258  -2.20062
 Alpha  occ. eigenvalues --   -2.19791  -2.19439  -2.19288  -2.18908  -1.13968
 Alpha  occ. eigenvalues --   -1.13956  -1.13942  -1.13938  -1.13913  -1.13897
 Alpha  occ. eigenvalues --   -1.13840  -1.13756  -1.13639  -1.13452  -1.13442
 Alpha  occ. eigenvalues --   -1.13417  -1.13128  -1.13112  -1.13067  -1.12961
 Alpha  occ. eigenvalues --   -1.12910  -1.12874  -1.12564  -1.12546  -1.12526
 Alpha  occ. eigenvalues --   -0.17743  -0.13982  -0.13284  -0.09619
 Alpha virt. eigenvalues --   -0.06403  -0.05658  -0.04704  -0.02951  -0.02672
 Alpha virt. eigenvalues --   -0.02275  -0.01839  -0.01643  -0.01103  -0.00285
 Alpha virt. eigenvalues --    0.00075   0.00280   0.00503   0.00548   0.00731

  Beta  occ. eigenvalues --  -38.44439 -38.44367 -38.44065 -38.43936 -38.43561
  Beta  occ. eigenvalues --  -38.43304 -38.42983  -2.20263  -2.20243  -2.20050
  Beta  occ. eigenvalues --   -2.19779  -2.19395  -2.19154  -2.18786  -1.13955
  Beta  occ. eigenvalues --   -1.13953  -1.13939  -1.13931  -1.13867  -1.13856
  Beta  occ. eigenvalues --   -1.13812  -1.13744  -1.13632  -1.13442  -1.13427
  Beta  occ. eigenvalues --   -1.13410  -1.13103  -1.13084  -1.13000  -1.12876
  Beta  occ. eigenvalues --   -1.12818  -1.12785  -1.12479  -1.12462  -1.12450
  Beta  occ. eigenvalues --   -0.17362  -0.13336  -0.12792
  Beta virt. eigenvalues --   -0.06338  -0.06163  -0.05499  -0.04525  -0.02504
  Beta virt. eigenvalues --   -0.02182  -0.02056  -0.01724  -0.01116  -0.00973
  Beta virt. eigenvalues --   -0.00174   0.00340   0.00425   0.00585   0.00789

 Mulliken charges and spin densities:
               1          2
     1  Na   0.136297   0.046107
     2  Na   0.355061  -0.014382
     3  Na   0.523500   0.382998
     4  Na   0.212190   0.521211
     5  Na   0.334006   0.015034
     6  Na  -1.718345   0.057405
     7  Na   0.157291  -0.008374
 Sum of Mulliken charges =  -0.00000   1.00000

 Dipole moment (field-independent basis, Debye):
    X=             -0.6536    Y=              0.3219    Z=              0.3310  Tot=              0.8003
 Quadrupole moment (field-independent basis, Debye-Ang):
   XX=            -74.0624   YY=            -57.2780   ZZ=            -69.0273
   XY=              1.9889   XZ=             -1.3088   YZ=             -1.1505

 Normal termination of Gaussian 16 at Wed Nov 29 03:35:28 2023.
