 Gaussian 16, Revision B.01,
 Gaussian 16:  ES64L-G16RevB.01 20-Dec-2017

 -------------------------
 #P B3LYP/6-311+g(d) force
 -------------------------

 -----
 DPGEN
 -----
 Symbolic Z-matrix:
 Charge =  0 Multiplicity = 2

                         Standard orientation:
 ---------------------------------------------------------------------
 Center     Atomic      Atomic             Coordinates (Angstroms)
 Number     Number       Type             X           Y           Z
 ---------------------------------------------------------------------
      1         11           0       -4.476267   -0.204531    0.012889
      2         11           0        5.091809   -0.702285   -0.048178
      3         11           0       -1.328522   -0.095155    2.238206
      4         11           0        1.532178   -1.014786   -0.076274
      5         11           0        2.547217    1.747868   -0.045596
      6         11           0       -1.708556   -1.624651   -1.172370
      7         11           0       -1.657859    1.893540   -0.908678
 ---------------------------------------------------------------------

 SCF Done:  E(UB3LYP) =  -1136.10455334     A.U. after   32 cycles

 The electronic state is 2-A.
 Alpha  occ. eigenvalues --  -38.45817 -38.45055 -38.44633 -38.44573 -38.43484
 Alpha  occ. eigenvalues --  -38.43032 -38.42962  -2.21591  -2.20880  -2.20477
 Alpha  occ. eigenvalues --   -2.20455  -2.19409  -2.18822  -2.18793  -1.15272
 Alpha  occ. eigenvalues --   -1.15246  -1.15218  -1.14588  -1.14525  -1.14458
 Alpha  occ. eigenvalues --   -1.14238  -1.14152  -1.14150  -1.14093  -1.14065
 Alpha  occ. eigenvalues --   -1.14028  -1.13123  -1.13105  -1.12970  -1.12499
 Alpha  occ. eigenvalues --   -1.12494  -1.12471  -1.12453  -1.12452  -1.12435
 Alpha  occ. eigenvalues --   -0.17907  -0.14228  -0.11251  -0.10207
 Alpha virt. eigenvalues --   -0.08078  -0.05469  -0.04181  -0.03251  -0.03151
 Alpha virt. eigenvalues --   -0.02391  -0.02127  -0.01852  -0.01237  -0.00766
 Alpha virt. eigenvalues --   -0.00332   0.00067   0.00171   0.00566   0.00595

  Beta  occ. eigenvalues --  -38.45811 -38.44989 -38.44610 -38.44513 -38.43449
  Beta  occ. eigenvalues --  -38.43039 -38.42962  -2.21582  -2.20757  -2.20434
  Beta  occ. eigenvalues --   -2.20348  -2.19350  -2.18835  -2.18794  -1.15250
  Beta  occ. eigenvalues --   -1.15236  -1.15217  -1.14500  -1.14445  -1.14363
  Beta  occ. eigenvalues --   -1.14212  -1.14122  -1.14081  -1.14026  -1.13993
  Beta  occ. eigenvalues --   -1.13960  -1.13075  -1.13055  -1.12923  -1.12506
  Beta  occ. eigenvalues --   -1.12502  -1.12475  -1.12460  -1.12448  -1.12431
  Beta  occ. eigenvalues --   -0.17184  -0.14104  -0.10070
  Beta virt. eigenvalues --   -0.07785  -0.07326  -0.05092  -0.03936  -0.03173
  Beta virt. eigenvalues --   -0.02778  -0.01895  -0.01512  -0.01415  -0.00993
  Beta virt. eigenvalues --   -0.00740  -0.00189   0.00201   0.00242   0.00645

 Mulliken charges and spin densities:
               1          2
     1  Na   0.156338   0.197857
     2  Na   0.552511   0.150750
     3  Na   0.226855  -0.108120
     4  Na  -1.208506   0.451489
     5  Na   0.156751   0.067885
     6  Na   0.351608  -0.183218
     7  Na  -0.235557   0.423356
 Sum of Mulliken charges =  -0.00000   1.00000

 Dipole moment (field-independent basis, Debye):
    X=             -0.4985    Y=              0.5676    Z=              1.0567  Tot=              1.2990
 Quadrupole moment (field-independent basis, Debye-Ang):
   XX=            -76.9152   YY=            -69.5619   ZZ=            -62.6174
   XY=             -0.4021   XZ=             -5.4608   YZ=             -2.2755

 Normal termination of Gaussian 16 at Fri Dec  8 06:26:10 2023.
