 Gaussian 16, Revision B.01,
 Gaussian 16:  ES64L-G16RevB.01 20-Dec-2017

 -------------------------
 #P B3LYP/6-311+g(d) force
 -------------------------

 -----
 DPGEN
 -----
 Symbolic Z-matrix:
 Charge =  0 Multiplicity = 2

                         Standard orientation:
 ---------------------------------------------------------------------
 Center     Atomic      Atomic             Coordinates (Angstroms)
 Number     Number       Type             X           Y           Z
 ---------------------------------------------------------------------
      1         11           0        2.711047    1.833174    0.143270
      2         11           0       -0.832856    2.567682   -0.057382
      3         11           0       -3.332612    0.380562   -0.034966
      4         11           0        0.493577   -0.401094    1.768830
      5         11           0       -0.451321   -0.238894   -1.521844
      6         11           0        2.629905   -1.693523   -0.643354
      7         11           0       -1.217739   -2.447908    0.345446
 ---------------------------------------------------------------------

 SCF Done:  E(UB3LYP) =  -1136.13145869     A.U. after   23 cycles

 The electronic state is 2-A.
 Alpha  occ. eigenvalues --  -38.44455 -38.44099 -38.44024 -38.43339 -38.43247
 Alpha  occ. eigenvalues --  -38.43139 -38.43136  -2.20300  -2.19927  -2.19829
 Alpha  occ. eigenvalues --   -2.19282  -2.19264  -2.19104  -2.19012  -1.13974
 Alpha  occ. eigenvalues --   -1.13962  -1.13940  -1.13600  -1.13587  -1.13558
 Alpha  occ. eigenvalues --   -1.13505  -1.13480  -1.13472  -1.13125  -1.13017
 Alpha  occ. eigenvalues --   -1.12968  -1.12883  -1.12850  -1.12839  -1.12768
 Alpha  occ. eigenvalues --   -1.12715  -1.12704  -1.12696  -1.12674  -1.12625
 Alpha  occ. eigenvalues --   -0.18867  -0.13421  -0.12332  -0.10449
 Alpha virt. eigenvalues --   -0.06032  -0.05464  -0.04275  -0.03241  -0.02655
 Alpha virt. eigenvalues --   -0.02097  -0.01953  -0.01239  -0.00379  -0.00196
 Alpha virt. eigenvalues --    0.00008   0.00301   0.00732   0.00825   0.00884

  Beta  occ. eigenvalues --  -38.44453 -38.44075 -38.44022 -38.43322 -38.43191
  Beta  occ. eigenvalues --  -38.43135 -38.43056  -2.20300  -2.19884  -2.19828
  Beta  occ. eigenvalues --   -2.19247  -2.19172  -2.19007  -2.18959  -1.13968
  Beta  occ. eigenvalues --   -1.13962  -1.13932  -1.13564  -1.13548  -1.13533
  Beta  occ. eigenvalues --   -1.13490  -1.13481  -1.13467  -1.13089  -1.12953
  Beta  occ. eigenvalues --   -1.12899  -1.12847  -1.12800  -1.12783  -1.12687
  Beta  occ. eigenvalues --   -1.12676  -1.12661  -1.12618  -1.12610  -1.12595
  Beta  occ. eigenvalues --   -0.18189  -0.13177  -0.12055
  Beta virt. eigenvalues --   -0.06590  -0.05944  -0.05432  -0.04224  -0.02537
  Beta virt. eigenvalues --   -0.01919  -0.01838  -0.01242  -0.01045  -0.00388
  Beta virt. eigenvalues --   -0.00208   0.00147   0.00353   0.00797   0.00837

 Mulliken charges and spin densities:
               1          2
     1  Na  -0.033629  -0.035654
     2  Na  -0.020158  -0.075443
     3  Na   0.194592  -0.027235
     4  Na  -0.265231   0.554552
     5  Na  -0.341802   0.509306
     6  Na   0.021726   0.063030
     7  Na   0.444502   0.011444
 Sum of Mulliken charges =  -0.00000   1.00000

 Dipole moment (field-independent basis, Debye):
    X=             -0.0209    Y=             -0.0176    Z=              0.0650  Tot=              0.0705
 Quadrupole moment (field-independent basis, Debye-Ang):
   XX=            -50.8472   YY=            -65.4602   ZZ=            -75.7121
   XY=              0.3442   XZ=             -1.6470   YZ=              0.6813

 Normal termination of Gaussian 16 at Wed Nov 29 17:21:10 2023.
