 Gaussian 16, Revision B.01,
 Gaussian 16:  ES64L-G16RevB.01 20-Dec-2017

 -------------------------
 #P B3LYP/6-311+g(d) force
 -------------------------

 -----
 DPGEN
 -----
 Symbolic Z-matrix:
 Charge =  0 Multiplicity = 2

                         Standard orientation:
 ---------------------------------------------------------------------
 Center     Atomic      Atomic             Coordinates (Angstroms)
 Number     Number       Type             X           Y           Z
 ---------------------------------------------------------------------
      1         11           0        0.409372    2.721736   -0.871791
      2         11           0       -2.284017    0.866909    1.071228
      3         11           0        3.826480   -1.444612   -0.849715
      4         11           0       -0.259026   -0.831158   -1.193197
      5         11           0       -3.786124   -0.882925   -1.031979
      6         11           0        2.388582    1.009186    1.001459
      7         11           0       -0.295268   -1.439136    1.873995
 ---------------------------------------------------------------------

 SCF Done:  E(UB3LYP) =  -1136.11503179     A.U. after   24 cycles

 The electronic state is 2-A.
 Alpha  occ. eigenvalues --  -38.44914 -38.44770 -38.44409 -38.44308 -38.44232
 Alpha  occ. eigenvalues --  -38.44141 -38.42153  -2.20794  -2.20605  -2.20321
 Alpha  occ. eigenvalues --   -2.20209  -2.20008  -2.19992  -2.17994  -1.14563
 Alpha  occ. eigenvalues --   -1.14449  -1.14394  -1.14305  -1.14243  -1.14219
 Alpha  occ. eigenvalues --   -1.14066  -1.13974  -1.13922  -1.13873  -1.13827
 Alpha  occ. eigenvalues --   -1.13788  -1.13703  -1.13676  -1.13667  -1.13661
 Alpha  occ. eigenvalues --   -1.13636  -1.13590  -1.11669  -1.11658  -1.11626
 Alpha  occ. eigenvalues --   -0.18351  -0.13878  -0.11338  -0.10971
 Alpha virt. eigenvalues --   -0.07036  -0.05628  -0.03909  -0.03431  -0.02770
 Alpha virt. eigenvalues --   -0.02478  -0.02262  -0.01638  -0.00462  -0.00373
 Alpha virt. eigenvalues --    0.00016   0.00117   0.00204   0.00596   0.00666

  Beta  occ. eigenvalues --  -38.44903 -38.44725 -38.44392 -38.44214 -38.44203
  Beta  occ. eigenvalues --  -38.44142 -38.42146  -2.20776  -2.20521  -2.20297
  Beta  occ. eigenvalues --   -2.20039  -2.19997  -2.19952  -2.17981  -1.14527
  Beta  occ. eigenvalues --   -1.14438  -1.14380  -1.14253  -1.14179  -1.14165
  Beta  occ. eigenvalues --   -1.14015  -1.13935  -1.13909  -1.13769  -1.13701
  Beta  occ. eigenvalues --   -1.13683  -1.13681  -1.13662  -1.13656  -1.13624
  Beta  occ. eigenvalues --   -1.13610  -1.13574  -1.11657  -1.11648  -1.11617
  Beta  occ. eigenvalues --   -0.17664  -0.13498  -0.10867
  Beta virt. eigenvalues --   -0.07557  -0.06801  -0.05244  -0.03567  -0.03065
  Beta virt. eigenvalues --   -0.02571  -0.02063  -0.01593  -0.01415  -0.00289
  Beta virt. eigenvalues --   -0.00231   0.00114   0.00241   0.00319   0.00678

 Mulliken charges and spin densities:
               1          2
     1  Na   0.018473  -0.107992
     2  Na   0.357722   0.174482
     3  Na  -0.020749   0.057205
     4  Na  -0.619768   0.339080
     5  Na   0.206190   0.065641
     6  Na   0.204549   0.149522
     7  Na  -0.146417   0.322061
 Sum of Mulliken charges =  -0.00000   1.00000

 Dipole moment (field-independent basis, Debye):
    X=             -0.7908    Y=             -0.4840    Z=              0.1136  Tot=              0.9341
 Quadrupole moment (field-independent basis, Debye-Ang):
   XX=            -53.8432   YY=            -75.9919   ZZ=            -66.7845
   XY=              0.1657   XZ=              0.5272   YZ=              2.5829

 Normal termination of Gaussian 16 at Tue Dec  5 10:19:00 2023.
