 Gaussian 16, Revision B.01,
 Gaussian 16:  ES64L-G16RevB.01 20-Dec-2017

 -------------------------
 #P B3LYP/6-311+g(d) force
 -------------------------

 -----
 DPGEN
 -----
 Symbolic Z-matrix:
 Charge =  0 Multiplicity = 2

                         Standard orientation:
 ---------------------------------------------------------------------
 Center     Atomic      Atomic             Coordinates (Angstroms)
 Number     Number       Type             X           Y           Z
 ---------------------------------------------------------------------
      1         11           0       -1.171903   -1.623951   -0.341735
      2         11           0       -1.931031    1.509804    0.371017
      3         11           0        1.771975    0.765054   -0.769313
      4         11           0        2.539435   -0.998654    1.838519
      5         11           0        2.336855   -2.583311   -0.972843
      6         11           0        0.713737    4.165281   -0.251643
      7         11           0       -4.259068   -1.234222    0.125997
 ---------------------------------------------------------------------

 SCF Done:  E(UB3LYP) =  -1136.12443911     A.U. after   23 cycles

 The electronic state is 2-A.
 Alpha  occ. eigenvalues --  -38.44688 -38.44424 -38.44020 -38.44007 -38.43893
 Alpha  occ. eigenvalues --  -38.43859 -38.43163  -2.20495  -2.20247  -2.19892
 Alpha  occ. eigenvalues --   -2.19871  -2.19746  -2.19658  -2.19055  -1.14231
 Alpha  occ. eigenvalues --   -1.14195  -1.14059  -1.13934  -1.13899  -1.13870
 Alpha  occ. eigenvalues --   -1.13614  -1.13593  -1.13557  -1.13535  -1.13514
 Alpha  occ. eigenvalues --   -1.13461  -1.13457  -1.13425  -1.13330  -1.13327
 Alpha  occ. eigenvalues --   -1.13326  -1.13281  -1.12708  -1.12686  -1.12664
 Alpha  occ. eigenvalues --   -0.17525  -0.14073  -0.12542  -0.09693
 Alpha virt. eigenvalues --   -0.06333  -0.05671  -0.05367  -0.03261  -0.02432
 Alpha virt. eigenvalues --   -0.02251  -0.01989  -0.01611  -0.01202  -0.00520
 Alpha virt. eigenvalues --   -0.00155   0.00092   0.00361   0.00580   0.00666

  Beta  occ. eigenvalues --  -38.44685 -38.44415 -38.44007 -38.43982 -38.43895
  Beta  occ. eigenvalues --  -38.43834 -38.43067  -2.20491  -2.20230  -2.19873
  Beta  occ. eigenvalues --   -2.19828  -2.19704  -2.19663  -2.18876  -1.14229
  Beta  occ. eigenvalues --   -1.14189  -1.14053  -1.13922  -1.13887  -1.13858
  Beta  occ. eigenvalues --   -1.13599  -1.13543  -1.13538  -1.13507  -1.13452
  Beta  occ. eigenvalues --   -1.13442  -1.13434  -1.13392  -1.13333  -1.13329
  Beta  occ. eigenvalues --   -1.13284  -1.13279  -1.12583  -1.12563  -1.12545
  Beta  occ. eigenvalues --   -0.17004  -0.13750  -0.12421
  Beta virt. eigenvalues --   -0.06218  -0.05870  -0.05497  -0.05145  -0.02827
  Beta virt. eigenvalues --   -0.02341  -0.02003  -0.01830  -0.01161  -0.00913
  Beta virt. eigenvalues --   -0.00296   0.00153   0.00280   0.00619   0.00713

 Mulliken charges and spin densities:
               1          2
     1  Na  -2.205004   0.046345
     2  Na  -0.472369   0.029743
     3  Na  -1.238309   0.333761
     4  Na   0.075288   0.396407
     5  Na   1.824358   0.112780
     6  Na   0.653943  -0.139697
     7  Na   1.362093   0.220662
 Sum of Mulliken charges =  -0.00000   1.00000

 Dipole moment (field-independent basis, Debye):
    X=             -1.3817    Y=             -0.0606    Z=             -0.4213  Tot=              1.4457
 Quadrupole moment (field-independent basis, Debye-Ang):
   XX=            -58.4063   YY=            -58.9898   ZZ=            -76.1836
   XY=              0.7573   XZ=             -5.8082   YZ=              0.8898

 Normal termination of Gaussian 16 at Wed Nov 29 02:10:24 2023.
