 Gaussian 16, Revision B.01,
 Gaussian 16:  ES64L-G16RevB.01 20-Dec-2017

 -------------------------
 #P B3LYP/6-311+g(d) force
 -------------------------

 -----
 DPGEN
 -----
 Symbolic Z-matrix:
 Charge =  0 Multiplicity = 2

                         Standard orientation:
 ---------------------------------------------------------------------
 Center     Atomic      Atomic             Coordinates (Angstroms)
 Number     Number       Type             X           Y           Z
 ---------------------------------------------------------------------
      1         11           0        2.694815    1.053932   -0.492583
      2         11           0       -0.239948   -0.322119    2.102127
      3         11           0       -3.977313   -0.904255    0.320097
      4         11           0       -0.084192   -1.735478   -1.433298
      5         11           0        2.913754   -2.074490    0.335408
      6         11           0       -1.691272    1.033703   -1.120974
      7         11           0        0.384157    2.948706    0.289222
 ---------------------------------------------------------------------

 SCF Done:  E(UB3LYP) =  -1136.12402824     A.U. after   22 cycles

 The electronic state is 2-A.
 Alpha  occ. eigenvalues --  -38.45307 -38.44421 -38.44374 -38.44179 -38.43672
 Alpha  occ. eigenvalues --  -38.43468 -38.42599  -2.21062  -2.20277  -2.20191
 Alpha  occ. eigenvalues --   -2.20019  -2.19495  -2.19393  -2.18484  -1.14747
 Alpha  occ. eigenvalues --   -1.14721  -1.14693  -1.13955  -1.13947  -1.13927
 Alpha  occ. eigenvalues --   -1.13861  -1.13826  -1.13798  -1.13733  -1.13682
 Alpha  occ. eigenvalues --   -1.13611  -1.13177  -1.13145  -1.13135  -1.13096
 Alpha  occ. eigenvalues --   -1.13058  -1.13007  -1.12163  -1.12150  -1.12115
 Alpha  occ. eigenvalues --   -0.18095  -0.13374  -0.12017  -0.10754
 Alpha virt. eigenvalues --   -0.06936  -0.05090  -0.04147  -0.03545  -0.02770
 Alpha virt. eigenvalues --   -0.02715  -0.02386  -0.01167  -0.00451  -0.00318
 Alpha virt. eigenvalues --    0.00092   0.00181   0.00424   0.00620   0.00775

  Beta  occ. eigenvalues --  -38.45312 -38.44416 -38.44278 -38.44130 -38.43674
  Beta  occ. eigenvalues --  -38.43436 -38.42597  -2.21073  -2.20270  -2.20013
  Beta  occ. eigenvalues --   -2.19932  -2.19500  -2.19337  -2.18483  -1.14755
  Beta  occ. eigenvalues --   -1.14717  -1.14701  -1.13953  -1.13930  -1.13921
  Beta  occ. eigenvalues --   -1.13741  -1.13701  -1.13672  -1.13671  -1.13605
  Beta  occ. eigenvalues --   -1.13552  -1.13182  -1.13139  -1.13134  -1.13054
  Beta  occ. eigenvalues --   -1.13004  -1.12967  -1.12165  -1.12149  -1.12096
  Beta  occ. eigenvalues --   -0.17363  -0.13271  -0.11847
  Beta virt. eigenvalues --   -0.06902  -0.06690  -0.05020  -0.04070  -0.02943
  Beta virt. eigenvalues --   -0.02319  -0.02089  -0.01642  -0.01072  -0.00492
  Beta virt. eigenvalues --   -0.00093   0.00144   0.00219   0.00599   0.00700

 Mulliken charges and spin densities:
               1          2
     1  Na  -0.448688   0.059620
     2  Na  -0.767978   0.768267
     3  Na   0.195033  -0.163347
     4  Na  -0.044131   0.145552
     5  Na   0.470133  -0.038104
     6  Na  -0.151797   0.333617
     7  Na   0.747429  -0.105604
 Sum of Mulliken charges =  -0.00000   1.00000

 Dipole moment (field-independent basis, Debye):
    X=             -0.6467    Y=             -0.6810    Z=              0.2116  Tot=              0.9627
 Quadrupole moment (field-independent basis, Debye-Ang):
   XX=            -50.5123   YY=            -69.5424   ZZ=            -73.6126
   XY=              1.1929   XZ=             -0.9039   YZ=             -0.6712

 Normal termination of Gaussian 16 at Thu Dec  7 09:21:22 2023.
