 Gaussian 16, Revision B.01,
 Gaussian 16:  ES64L-G16RevB.01 20-Dec-2017

 -------------------------
 #P B3LYP/6-311+g(d) force
 -------------------------

 -----
 DPGEN
 -----
 Symbolic Z-matrix:
 Charge =  0 Multiplicity = 2

                         Standard orientation:
 ---------------------------------------------------------------------
 Center     Atomic      Atomic             Coordinates (Angstroms)
 Number     Number       Type             X           Y           Z
 ---------------------------------------------------------------------
      1         11           0       -0.347455   -0.138891   -1.718975
      2         11           0       -1.010228    0.370468    1.755093
      3         11           0        4.151173   -0.118102   -0.219621
      4         11           0        1.562014    0.862630    0.381719
      5         11           0       -2.685558   -1.200106   -0.308412
      6         11           0        0.074856   -1.848315    0.469991
      7         11           0       -1.744802    2.072315   -0.359796
 ---------------------------------------------------------------------

 SCF Done:  E(UB3LYP) =  -1136.08436359     A.U. after   26 cycles

 The electronic state is 2-A.
 Alpha  occ. eigenvalues --  -38.45975 -38.44516 -38.44218 -38.44013 -38.43338
 Alpha  occ. eigenvalues --  -38.43173 -38.42737  -2.21778  -2.20678  -2.20257
 Alpha  occ. eigenvalues --   -2.20211  -2.19438  -2.19304  -2.18754  -1.15521
 Alpha  occ. eigenvalues --   -1.15412  -1.15393  -1.14463  -1.14375  -1.14298
 Alpha  occ. eigenvalues --   -1.14033  -1.13989  -1.13902  -1.13880  -1.13845
 Alpha  occ. eigenvalues --   -1.13771  -1.13197  -1.13098  -1.13033  -1.12973
 Alpha  occ. eigenvalues --   -1.12940  -1.12826  -1.12442  -1.12427  -1.12339
 Alpha  occ. eigenvalues --   -0.20744  -0.14099  -0.11898  -0.11596
 Alpha virt. eigenvalues --   -0.07450  -0.03823  -0.03695  -0.03368  -0.02657
 Alpha virt. eigenvalues --   -0.02482  -0.02425  -0.00856  -0.00475   0.00017
 Alpha virt. eigenvalues --    0.00295   0.00422   0.00448   0.00844   0.01015

  Beta  occ. eigenvalues --  -38.45984 -38.44435 -38.44199 -38.43920 -38.43316
  Beta  occ. eigenvalues --  -38.43144 -38.42722  -2.21795  -2.20533  -2.20226
  Beta  occ. eigenvalues --   -2.20044  -2.19404  -2.19261  -2.18732  -1.15534
  Beta  occ. eigenvalues --   -1.15421  -1.15405  -1.14379  -1.14263  -1.14193
  Beta  occ. eigenvalues --   -1.13975  -1.13878  -1.13859  -1.13822  -1.13746
  Beta  occ. eigenvalues --   -1.13672  -1.13176  -1.13021  -1.13017  -1.12954
  Beta  occ. eigenvalues --   -1.12844  -1.12802  -1.12434  -1.12377  -1.12317
  Beta  occ. eigenvalues --   -0.19888  -0.13914  -0.11312
  Beta virt. eigenvalues --   -0.07602  -0.07272  -0.03801  -0.03342  -0.02949
  Beta virt. eigenvalues --   -0.02466  -0.01719  -0.01480  -0.00819  -0.00181
  Beta virt. eigenvalues --    0.00059   0.00321   0.00438   0.00649   0.00895

 Mulliken charges and spin densities:
               1          2
     1  Na   0.109258   0.783219
     2  Na   0.399100   0.415086
     3  Na   0.412928  -0.024007
     4  Na  -0.518771  -0.011126
     5  Na   0.082003  -0.047267
     6  Na   0.030879  -0.019130
     7  Na  -0.515397  -0.096776
 Sum of Mulliken charges =  -0.00000   1.00000

 Dipole moment (field-independent basis, Debye):
    X=              1.0050    Y=             -0.1995    Z=             -0.2334  Tot=              1.0508
 Quadrupole moment (field-independent basis, Debye-Ang):
   XX=            -44.6927   YY=            -77.0012   ZZ=            -69.7462
   XY=             -1.4386   XZ=             -1.0920   YZ=             -0.6797

 Normal termination of Gaussian 16 at Fri Dec  8 17:23:29 2023.
