 Gaussian 16, Revision B.01,
 Gaussian 16:  ES64L-G16RevB.01 20-Dec-2017

 -------------------------
 #P B3LYP/6-311+g(d) force
 -------------------------

 -----
 DPGEN
 -----
 Symbolic Z-matrix:
 Charge =  0 Multiplicity = 2

                         Standard orientation:
 ---------------------------------------------------------------------
 Center     Atomic      Atomic             Coordinates (Angstroms)
 Number     Number       Type             X           Y           Z
 ---------------------------------------------------------------------
      1         11           0       -0.116575   -0.409282    1.972406
      2         11           0        1.226590   -0.930719   -1.718405
      3         11           0       -1.865336   -2.003331   -0.587051
      4         11           0       -3.979316    0.456860    0.528191
      5         11           0        3.673181   -0.769921    0.718557
      6         11           0       -1.087605    1.808882   -0.824523
      7         11           0        2.149060    1.847510   -0.089174
 ---------------------------------------------------------------------

 SCF Done:  E(UB3LYP) =  -1136.11945459     A.U. after   28 cycles

 The electronic state is 2-A.
 Alpha  occ. eigenvalues --  -38.45704 -38.45549 -38.44957 -38.43637 -38.43135
 Alpha  occ. eigenvalues --  -38.43101 -38.42382  -2.21497  -2.21338  -2.20795
 Alpha  occ. eigenvalues --   -2.19541  -2.19013  -2.18989  -2.18257  -1.15193
 Alpha  occ. eigenvalues --   -1.15148  -1.15109  -1.15013  -1.14986  -1.14968
 Alpha  occ. eigenvalues --   -1.14473  -1.14448  -1.14417  -1.13219  -1.13187
 Alpha  occ. eigenvalues --   -1.13160  -1.12690  -1.12676  -1.12672  -1.12664
 Alpha  occ. eigenvalues --   -1.12652  -1.12624  -1.11953  -1.11922  -1.11884
 Alpha  occ. eigenvalues --   -0.18455  -0.14323  -0.11170  -0.10781
 Alpha virt. eigenvalues --   -0.07598  -0.05019  -0.04580  -0.03187  -0.03067
 Alpha virt. eigenvalues --   -0.02355  -0.02313  -0.01112  -0.01016  -0.00237
 Alpha virt. eigenvalues --   -0.00037   0.00213   0.00229   0.00715   0.00737

  Beta  occ. eigenvalues --  -38.45671 -38.45536 -38.44927 -38.43562 -38.43120
  Beta  occ. eigenvalues --  -38.43091 -38.42364  -2.21434  -2.21314  -2.20740
  Beta  occ. eigenvalues --   -2.19407  -2.19000  -2.18965  -2.18229  -1.15146
  Beta  occ. eigenvalues --   -1.15107  -1.15060  -1.14994  -1.14973  -1.14950
  Beta  occ. eigenvalues --   -1.14440  -1.14399  -1.14381  -1.13127  -1.13088
  Beta  occ. eigenvalues --   -1.13060  -1.12680  -1.12668  -1.12658  -1.12631
  Beta  occ. eigenvalues --   -1.12624  -1.12590  -1.11938  -1.11887  -1.11855
  Beta  occ. eigenvalues --   -0.17746  -0.14081  -0.10515
  Beta virt. eigenvalues --   -0.07492  -0.07248  -0.05004  -0.03982  -0.02909
  Beta virt. eigenvalues --   -0.02794  -0.01758  -0.01638  -0.01032  -0.00675
  Beta virt. eigenvalues --   -0.00195   0.00025   0.00229   0.00382   0.00770

 Mulliken charges and spin densities:
               1          2
     1  Na  -0.350034   0.186957
     2  Na  -0.032739   0.215614
     3  Na  -0.071461   0.093994
     4  Na   0.579401   0.092627
     5  Na   0.465931   0.238786
     6  Na  -0.579710   0.028767
     7  Na  -0.011389   0.143254
 Sum of Mulliken charges =  -0.00000   1.00000

 Dipole moment (field-independent basis, Debye):
    X=             -0.3484    Y=             -0.3198    Z=              0.7771  Tot=              0.9097
 Quadrupole moment (field-independent basis, Debye-Ang):
   XX=            -44.2133   YY=            -80.6326   ZZ=            -68.8643
   XY=             -1.0919   XZ=             -0.7544   YZ=              1.3996

 Normal termination of Gaussian 16 at Thu Dec  7 02:03:06 2023.
