 Gaussian 16, Revision B.01,
 Gaussian 16:  ES64L-G16RevB.01 20-Dec-2017

 -------------------------
 #P B3LYP/6-311+g(d) force
 -------------------------

 -----
 DPGEN
 -----
 Symbolic Z-matrix:
 Charge =  0 Multiplicity = 2

                         Standard orientation:
 ---------------------------------------------------------------------
 Center     Atomic      Atomic             Coordinates (Angstroms)
 Number     Number       Type             X           Y           Z
 ---------------------------------------------------------------------
      1         11           0       -3.400519   -0.685521   -1.191507
      2         11           0       -1.636650   -0.037662    2.021082
      3         11           0        0.122776   -2.822477   -0.024413
      4         11           0        0.608187   -0.280987   -1.675281
      5         11           0        2.948713   -1.423516    0.989449
      6         11           0       -1.217986    2.952310    0.614827
      7         11           0        2.575481    2.297851   -0.734157
 ---------------------------------------------------------------------

 SCF Done:  E(UB3LYP) =  -1136.12247708     A.U. after   20 cycles

 The electronic state is 2-A.
 Alpha  occ. eigenvalues --  -38.44812 -38.44580 -38.44127 -38.44053 -38.43948
 Alpha  occ. eigenvalues --  -38.43601 -38.43578  -2.20568  -2.20374  -2.19895
 Alpha  occ. eigenvalues --   -2.19871  -2.19833  -2.19463  -2.19356  -1.14238
 Alpha  occ. eigenvalues --   -1.14211  -1.14197  -1.14041  -1.14029  -1.14006
 Alpha  occ. eigenvalues --   -1.13610  -1.13560  -1.13559  -1.13527  -1.13526
 Alpha  occ. eigenvalues --   -1.13500  -1.13495  -1.13484  -1.13445  -1.13159
 Alpha  occ. eigenvalues --   -1.13124  -1.13065  -1.13036  -1.13009  -1.12989
 Alpha  occ. eigenvalues --   -0.17319  -0.12960  -0.12125  -0.10797
 Alpha virt. eigenvalues --   -0.06186  -0.05511  -0.04647  -0.03644  -0.02890
 Alpha virt. eigenvalues --   -0.02528  -0.01935  -0.01033  -0.00881  -0.00303
 Alpha virt. eigenvalues --   -0.00152   0.00265   0.00407   0.00530   0.00722

  Beta  occ. eigenvalues --  -38.44775 -38.44555 -38.44112 -38.44001 -38.43903
  Beta  occ. eigenvalues --  -38.43597 -38.43568  -2.20499  -2.20329  -2.19870
  Beta  occ. eigenvalues --   -2.19775  -2.19751  -2.19459  -2.19338  -1.14188
  Beta  occ. eigenvalues --   -1.14158  -1.14153  -1.14008  -1.14000  -1.13970
  Beta  occ. eigenvalues --   -1.13573  -1.13541  -1.13506  -1.13504  -1.13467
  Beta  occ. eigenvalues --   -1.13442  -1.13433  -1.13422  -1.13380  -1.13151
  Beta  occ. eigenvalues --   -1.13111  -1.13050  -1.13014  -1.12999  -1.12980
  Beta  occ. eigenvalues --   -0.16742  -0.12585  -0.11841
  Beta virt. eigenvalues --   -0.07320  -0.05938  -0.05188  -0.04522  -0.03200
  Beta virt. eigenvalues --   -0.02372  -0.01802  -0.01683  -0.00923  -0.00735
  Beta virt. eigenvalues --   -0.00321  -0.00016   0.00371   0.00525   0.00693

 Mulliken charges and spin densities:
               1          2
     1  Na   0.080436   0.125117
     2  Na   0.098889   0.373246
     3  Na   0.273582   0.166280
     4  Na   0.127626   0.316818
     5  Na  -0.373217   0.096372
     6  Na  -0.373723  -0.061438
     7  Na   0.166407  -0.016395
 Sum of Mulliken charges =  -0.00000   1.00000

 Dipole moment (field-independent basis, Debye):
    X=             -0.1320    Y=             -0.2270    Z=              0.2727  Tot=              0.3786
 Quadrupole moment (field-independent basis, Debye-Ang):
   XX=            -57.4217   YY=            -66.9710   ZZ=            -71.1822
   XY=              0.3627   XZ=              4.9476   YZ=             -1.2034

 Normal termination of Gaussian 16 at Mon Dec  4 00:38:30 2023.
