 Gaussian 16, Revision B.01,
 Gaussian 16:  ES64L-G16RevB.01 20-Dec-2017

 -------------------------
 #P B3LYP/6-311+g(d) force
 -------------------------

 -----
 DPGEN
 -----
 Symbolic Z-matrix:
 Charge =  0 Multiplicity = 2

                         Standard orientation:
 ---------------------------------------------------------------------
 Center     Atomic      Atomic             Coordinates (Angstroms)
 Number     Number       Type             X           Y           Z
 ---------------------------------------------------------------------
      1         11           0        0.306770   -0.754247   -1.410743
      2         11           0        0.669381   -1.092435    1.343857
      3         11           0        3.000360   -0.449560   -0.307943
      4         11           0        1.199389    1.755582    0.382757
      5         11           0       -1.424002    1.468797   -1.165543
      6         11           0       -1.598572    0.538691    1.497757
      7         11           0       -2.153327   -1.466827   -0.340143
 ---------------------------------------------------------------------

 SCF Done:  E(UB3LYP) =  -1136.08388761     A.U. after   22 cycles

 The electronic state is 2-A.
 Alpha  occ. eigenvalues --  -38.44461 -38.44390 -38.44036 -38.43785 -38.43639
 Alpha  occ. eigenvalues --  -38.43524 -38.42685  -2.20569  -2.20470  -2.20322
 Alpha  occ. eigenvalues --   -2.19986  -2.19725  -2.19639  -2.18785  -1.14407
 Alpha  occ. eigenvalues --   -1.14347  -1.14329  -1.14200  -1.14174  -1.14121
 Alpha  occ. eigenvalues --   -1.14099  -1.14005  -1.13937  -1.13622  -1.13568
 Alpha  occ. eigenvalues --   -1.13521  -1.13378  -1.13356  -1.13310  -1.13292
 Alpha  occ. eigenvalues --   -1.13259  -1.13184  -1.12495  -1.12427  -1.12398
 Alpha  occ. eigenvalues --   -0.21405  -0.14414  -0.12669  -0.11814
 Alpha virt. eigenvalues --   -0.05816  -0.04285  -0.04062  -0.03620  -0.02769
 Alpha virt. eigenvalues --   -0.02721  -0.01441  -0.00384  -0.00301   0.00300
 Alpha virt. eigenvalues --    0.00643   0.00848   0.00964   0.01030   0.01068

  Beta  occ. eigenvalues --  -38.44456 -38.44326 -38.43967 -38.43727 -38.43624
  Beta  occ. eigenvalues --  -38.43486 -38.42670  -2.20462  -2.20456  -2.20201
  Beta  occ. eigenvalues --   -2.19887  -2.19704  -2.19572  -2.18763  -1.14337
  Beta  occ. eigenvalues --   -1.14307  -1.14231  -1.14147  -1.14106  -1.14095
  Beta  occ. eigenvalues --   -1.14061  -1.13921  -1.13866  -1.13551  -1.13480
  Beta  occ. eigenvalues --   -1.13444  -1.13360  -1.13306  -1.13276  -1.13250
  Beta  occ. eigenvalues --   -1.13193  -1.13134  -1.12483  -1.12391  -1.12365
  Beta  occ. eigenvalues --   -0.20558  -0.14158  -0.11588
  Beta virt. eigenvalues --   -0.08219  -0.05736  -0.04114  -0.03456  -0.03197
  Beta virt. eigenvalues --   -0.02044  -0.01801  -0.01373  -0.00350  -0.00055
  Beta virt. eigenvalues --    0.00338   0.00698   0.00871   0.01037   0.01096

 Mulliken charges and spin densities:
               1          2
     1  Na  -0.057268   0.466227
     2  Na  -0.592099   0.264479
     3  Na   1.068057  -0.018469
     4  Na  -0.909934   0.098622
     5  Na   0.146781   0.048400
     6  Na   0.552799   0.239560
     7  Na  -0.208337  -0.098820
 Sum of Mulliken charges =  -0.00000   1.00000

 Dipole moment (field-independent basis, Debye):
    X=              0.3207    Y=              0.1076    Z=             -0.0175  Tot=              0.3387
 Quadrupole moment (field-independent basis, Debye-Ang):
   XX=            -55.0336   YY=            -75.4311   ZZ=            -65.8640
   XY=              0.2279   XZ=             -0.3485   YZ=              0.2201

 Normal termination of Gaussian 16 at Sat Dec  9 06:54:04 2023.
