 Gaussian 16, Revision B.01,
 Gaussian 16:  ES64L-G16RevB.01 20-Dec-2017

 -------------------------
 #P B3LYP/6-311+g(d) force
 -------------------------

 -----
 DPGEN
 -----
 Symbolic Z-matrix:
 Charge =  0 Multiplicity = 2

                         Standard orientation:
 ---------------------------------------------------------------------
 Center     Atomic      Atomic             Coordinates (Angstroms)
 Number     Number       Type             X           Y           Z
 ---------------------------------------------------------------------
      1         11           0        2.596487    2.957416   -0.353263
      2         11           0        4.922250   -0.476347    0.781305
      3         11           0        2.632449   -1.857818   -0.556820
      4         11           0       -0.894034   -2.083587    0.172419
      5         11           0       -0.436057    1.342456    0.104594
      6         11           0       -3.036873   -0.378237   -0.771801
      7         11           0       -5.784221    0.496117    0.623565
 ---------------------------------------------------------------------

 SCF Done:  E(UB3LYP) =  -1136.10515357     A.U. after   28 cycles

 The electronic state is 2-A.
 Alpha  occ. eigenvalues --  -38.45213 -38.45077 -38.44751 -38.44274 -38.44156
 Alpha  occ. eigenvalues --  -38.43699 -38.43488  -2.21027  -2.20890  -2.20600
 Alpha  occ. eigenvalues --   -2.20212  -2.19977  -2.19469  -2.19378  -1.14738
 Alpha  occ. eigenvalues --   -1.14667  -1.14624  -1.14539  -1.14517  -1.14511
 Alpha  occ. eigenvalues --   -1.14292  -1.14251  -1.14229  -1.13944  -1.13878
 Alpha  occ. eigenvalues --   -1.13847  -1.13666  -1.13628  -1.13616  -1.13139
 Alpha  occ. eigenvalues --   -1.13132  -1.13095  -1.13049  -1.13027  -1.13002
 Alpha  occ. eigenvalues --   -0.17053  -0.14572  -0.12196  -0.11522
 Alpha virt. eigenvalues --   -0.06148  -0.05645  -0.04796  -0.03336  -0.02987
 Alpha virt. eigenvalues --   -0.02712  -0.02259  -0.01216  -0.01020  -0.00861
 Alpha virt. eigenvalues --   -0.00547  -0.00144   0.00199   0.00290   0.00663

  Beta  occ. eigenvalues --  -38.45157 -38.44976 -38.44695 -38.44266 -38.44151
  Beta  occ. eigenvalues --  -38.43670 -38.43486  -2.20925  -2.20702  -2.20500
  Beta  occ. eigenvalues --   -2.20205  -2.19971  -2.19418  -2.19374  -1.14661
  Beta  occ. eigenvalues --   -1.14599  -1.14557  -1.14410  -1.14390  -1.14386
  Beta  occ. eigenvalues --   -1.14229  -1.14191  -1.14138  -1.13930  -1.13863
  Beta  occ. eigenvalues --   -1.13816  -1.13656  -1.13629  -1.13601  -1.13106
  Beta  occ. eigenvalues --   -1.13089  -1.13058  -1.13051  -1.13016  -1.13006
  Beta  occ. eigenvalues --   -0.16552  -0.13700  -0.10989
  Beta virt. eigenvalues --   -0.08683  -0.05779  -0.05552  -0.04634  -0.03021
  Beta virt. eigenvalues --   -0.02723  -0.02245  -0.01801  -0.01075  -0.00755
  Beta virt. eigenvalues --   -0.00525  -0.00251  -0.00022   0.00217   0.00334

 Mulliken charges and spin densities:
               1          2
     1  Na   0.326631  -0.056771
     2  Na   0.270628   0.055480
     3  Na  -0.362791   0.295029
     4  Na  -0.149312  -0.120124
     5  Na  -1.161251   0.316513
     6  Na   1.095795   0.105686
     7  Na  -0.019699   0.404187
 Sum of Mulliken charges =  -0.00000   1.00000

 Dipole moment (field-independent basis, Debye):
    X=             -0.0334    Y=             -0.3247    Z=              0.5753  Tot=              0.6614
 Quadrupole moment (field-independent basis, Debye-Ang):
   XX=            -51.8732   YY=            -74.8285   ZZ=            -69.0633
   XY=              1.0851   XZ=              0.1206   YZ=              0.1960

 Normal termination of Gaussian 16 at Tue Nov 28 22:32:57 2023.
