 Gaussian 16, Revision B.01,
 Gaussian 16:  ES64L-G16RevB.01 20-Dec-2017

 -------------------------
 #P B3LYP/6-311+g(d) force
 -------------------------

 -----
 DPGEN
 -----
 Symbolic Z-matrix:
 Charge =  0 Multiplicity = 2

                         Standard orientation:
 ---------------------------------------------------------------------
 Center     Atomic      Atomic             Coordinates (Angstroms)
 Number     Number       Type             X           Y           Z
 ---------------------------------------------------------------------
      1         11           0        0.088215    0.525117   -1.584327
      2         11           0       -0.469513   -2.576177   -0.036526
      3         11           0        0.418354   -0.384969    2.059745
      4         11           0        2.469759    1.972799   -0.155874
      5         11           0       -1.442863    2.465452    0.442266
      6         11           0       -3.378807   -0.390786   -0.344758
      7         11           0        2.314855   -1.611436   -0.380526
 ---------------------------------------------------------------------

 SCF Done:  E(UB3LYP) =  -1136.13296473     A.U. after   20 cycles

 The electronic state is 2-A.
 Alpha  occ. eigenvalues --  -38.44159 -38.43831 -38.43754 -38.43618 -38.43616
 Alpha  occ. eigenvalues --  -38.43206 -38.43085  -2.19947  -2.19667  -2.19595
 Alpha  occ. eigenvalues --   -2.19559  -2.19541  -2.19204  -2.19022  -1.13619
 Alpha  occ. eigenvalues --   -1.13603  -1.13592  -1.13376  -1.13336  -1.13319
 Alpha  occ. eigenvalues --   -1.13307  -1.13276  -1.13256  -1.13238  -1.13229
 Alpha  occ. eigenvalues --   -1.13202  -1.13187  -1.13157  -1.13138  -1.12881
 Alpha  occ. eigenvalues --   -1.12849  -1.12814  -1.12696  -1.12678  -1.12632
 Alpha  occ. eigenvalues --   -0.18888  -0.13039  -0.12530  -0.10885
 Alpha virt. eigenvalues --   -0.05716  -0.05168  -0.04479  -0.03231  -0.02944
 Alpha virt. eigenvalues --   -0.02577  -0.01605  -0.01066  -0.00329  -0.00083
 Alpha virt. eigenvalues --   -0.00009   0.00331   0.00821   0.00859   0.00923

  Beta  occ. eigenvalues --  -38.44157 -38.43822 -38.43750 -38.43603 -38.43521
  Beta  occ. eigenvalues --  -38.43151 -38.43076  -2.19945  -2.19653  -2.19591
  Beta  occ. eigenvalues --   -2.19540  -2.19363  -2.19105  -2.19010  -1.13606
  Beta  occ. eigenvalues --   -1.13604  -1.13592  -1.13365  -1.13308  -1.13304
  Beta  occ. eigenvalues --   -1.13295  -1.13268  -1.13246  -1.13217  -1.13188
  Beta  occ. eigenvalues --   -1.13163  -1.13096  -1.13038  -1.13021  -1.12817
  Beta  occ. eigenvalues --   -1.12774  -1.12741  -1.12688  -1.12648  -1.12612
  Beta  occ. eigenvalues --   -0.18141  -0.12822  -0.12285
  Beta virt. eigenvalues --   -0.06943  -0.05655  -0.05120  -0.04431  -0.02490
  Beta virt. eigenvalues --   -0.02205  -0.01539  -0.01508  -0.00994  -0.00323
  Beta virt. eigenvalues --   -0.00098   0.00120   0.00364   0.00866   0.00883

 Mulliken charges and spin densities:
               1          2
     1  Na  -0.341233   0.365133
     2  Na   0.217685   0.069647
     3  Na  -0.506592   0.608542
     4  Na   0.236805  -0.031065
     5  Na   0.032319   0.032461
     6  Na  -0.014121  -0.052336
     7  Na   0.375137   0.007619
 Sum of Mulliken charges =  -0.00000   1.00000

 Dipole moment (field-independent basis, Debye):
    X=             -0.1223    Y=              0.3107    Z=              0.1619  Tot=              0.3711
 Quadrupole moment (field-independent basis, Debye-Ang):
   XX=            -55.8888   YY=            -64.5643   ZZ=            -73.3710
   XY=              0.7844   XZ=             -0.1885   YZ=              2.0812

 Normal termination of Gaussian 16 at Thu Dec  7 13:14:51 2023.
