 Gaussian 16, Revision B.01,
 Gaussian 16:  ES64L-G16RevB.01 20-Dec-2017

 -------------------------
 #P B3LYP/6-311+g(d) force
 -------------------------

 -----
 DPGEN
 -----
 Symbolic Z-matrix:
 Charge =  0 Multiplicity = 2

                         Standard orientation:
 ---------------------------------------------------------------------
 Center     Atomic      Atomic             Coordinates (Angstroms)
 Number     Number       Type             X           Y           Z
 ---------------------------------------------------------------------
      1         11           0        0.460288   -0.140457    2.201424
      2         11           0       -1.494331   -2.531498    0.016764
      3         11           0        2.257546    1.922469   -0.341800
      4         11           0       -3.257281    0.023574   -0.340329
      5         11           0        0.219330   -0.149349   -1.420473
      6         11           0       -1.248016    2.465902    0.153028
      7         11           0        3.062464   -1.590640   -0.268614
 ---------------------------------------------------------------------

 SCF Done:  E(UB3LYP) =  -1136.13155619     A.U. after   19 cycles

 The electronic state is 2-A.
 Alpha  occ. eigenvalues --  -38.44479 -38.44226 -38.43929 -38.43703 -38.43487
 Alpha  occ. eigenvalues --  -38.43274 -38.42904  -2.20276  -2.20095  -2.19797
 Alpha  occ. eigenvalues --   -2.19565  -2.19345  -2.19284  -2.18779  -1.13952
 Alpha  occ. eigenvalues --   -1.13925  -1.13921  -1.13772  -1.13758  -1.13748
 Alpha  occ. eigenvalues --   -1.13529  -1.13452  -1.13405  -1.13226  -1.13188
 Alpha  occ. eigenvalues --   -1.13178  -1.13060  -1.13000  -1.12982  -1.12967
 Alpha  occ. eigenvalues --   -1.12915  -1.12898  -1.12462  -1.12434  -1.12421
 Alpha  occ. eigenvalues --   -0.18623  -0.13568  -0.11968  -0.10756
 Alpha virt. eigenvalues --   -0.06141  -0.05461  -0.04103  -0.03322  -0.02721
 Alpha virt. eigenvalues --   -0.02545  -0.01934  -0.01226  -0.00487  -0.00139
 Alpha virt. eigenvalues --   -0.00038   0.00292   0.00695   0.00808   0.00891

  Beta  occ. eigenvalues --  -38.44474 -38.44221 -38.43919 -38.43592 -38.43484
  Beta  occ. eigenvalues --  -38.43230 -38.42900  -2.20269  -2.20088  -2.19781
  Beta  occ. eigenvalues --   -2.19360  -2.19341  -2.19205  -2.18774  -1.13937
  Beta  occ. eigenvalues --   -1.13924  -1.13908  -1.13772  -1.13754  -1.13729
  Beta  occ. eigenvalues --   -1.13512  -1.13425  -1.13393  -1.13091  -1.13050
  Beta  occ. eigenvalues --   -1.13045  -1.13030  -1.12995  -1.12962  -1.12910
  Beta  occ. eigenvalues --   -1.12865  -1.12840  -1.12460  -1.12424  -1.12403
  Beta  occ. eigenvalues --   -0.17926  -0.13321  -0.11767
  Beta virt. eigenvalues --   -0.06787  -0.06089  -0.05418  -0.04078  -0.02609
  Beta virt. eigenvalues --   -0.01898  -0.01832  -0.01514  -0.01168  -0.00503
  Beta virt. eigenvalues --   -0.00156   0.00124   0.00341   0.00775   0.00828

 Mulliken charges and spin densities:
               1          2
     1  Na  -0.637520   0.690937
     2  Na   0.370215   0.067377
     3  Na   0.318309   0.082517
     4  Na   0.040242   0.018539
     5  Na  -0.538540   0.016362
     6  Na   0.247336   0.102833
     7  Na   0.199958   0.021436
 Sum of Mulliken charges =  -0.00000   1.00000

 Dipole moment (field-independent basis, Debye):
    X=              0.4645    Y=             -0.2282    Z=              0.1407  Tot=              0.5363
 Quadrupole moment (field-independent basis, Debye-Ang):
   XX=            -52.7389   YY=            -66.0143   ZZ=            -74.6513
   XY=             -0.8376   XZ=             -0.1062   YZ=             -0.0878

 Normal termination of Gaussian 16 at Thu Dec  7 17:48:27 2023.
