 Gaussian 16, Revision B.01,
 Gaussian 16:  ES64L-G16RevB.01 20-Dec-2017

 -------------------------
 #P B3LYP/6-311+g(d) force
 -------------------------

 -----
 DPGEN
 -----
 Symbolic Z-matrix:
 Charge =  0 Multiplicity = 2

                         Standard orientation:
 ---------------------------------------------------------------------
 Center     Atomic      Atomic             Coordinates (Angstroms)
 Number     Number       Type             X           Y           Z
 ---------------------------------------------------------------------
      1         11           0        1.635706   -1.485020   -1.429478
      2         11           0        1.366352   -1.498305    1.546110
      3         11           0       -1.952196    0.139090    2.136813
      4         11           0       -3.640343    1.299270   -0.832935
      5         11           0        0.027997    1.282393   -0.504683
      6         11           0       -1.298468   -1.633498   -0.952641
      7         11           0        3.860952    1.896071    0.036815
 ---------------------------------------------------------------------

 SCF Done:  E(UB3LYP) =  -1136.11972241     A.U. after   23 cycles

 The electronic state is 2-A.
 Alpha  occ. eigenvalues --  -38.44657 -38.44640 -38.44512 -38.43843 -38.43823
 Alpha  occ. eigenvalues --  -38.43276 -38.43183  -2.20508  -2.20436  -2.20392
 Alpha  occ. eigenvalues --   -2.19788  -2.19744  -2.19238  -2.18919  -1.14190
 Alpha  occ. eigenvalues --   -1.14158  -1.14120  -1.14113  -1.14101  -1.14097
 Alpha  occ. eigenvalues --   -1.14057  -1.14048  -1.13983  -1.13545  -1.13460
 Alpha  occ. eigenvalues --   -1.13457  -1.13436  -1.13372  -1.13310  -1.12945
 Alpha  occ. eigenvalues --   -1.12886  -1.12818  -1.12599  -1.12595  -1.12547
 Alpha  occ. eigenvalues --   -0.18746  -0.13567  -0.11752  -0.10926
 Alpha virt. eigenvalues --   -0.06303  -0.05437  -0.04815  -0.03269  -0.02729
 Alpha virt. eigenvalues --   -0.02245  -0.02103  -0.01366  -0.00853  -0.00035
 Alpha virt. eigenvalues --    0.00082   0.00271   0.00330   0.00521   0.00566

  Beta  occ. eigenvalues --  -38.44626 -38.44585 -38.44472 -38.43822 -38.43797
  Beta  occ. eigenvalues --  -38.43242 -38.43194  -2.20410  -2.20375  -2.20321
  Beta  occ. eigenvalues --   -2.19742  -2.19710  -2.19181  -2.18939  -1.14099
  Beta  occ. eigenvalues --   -1.14085  -1.14074  -1.14071  -1.14065  -1.14048
  Beta  occ. eigenvalues --   -1.14001  -1.13983  -1.13934  -1.13507  -1.13422
  Beta  occ. eigenvalues --   -1.13415  -1.13399  -1.13339  -1.13288  -1.12903
  Beta  occ. eigenvalues --   -1.12822  -1.12780  -1.12611  -1.12609  -1.12559
  Beta  occ. eigenvalues --   -0.17940  -0.13427  -0.10830
  Beta virt. eigenvalues --   -0.07627  -0.06097  -0.05295  -0.04203  -0.02830
  Beta virt. eigenvalues --   -0.02251  -0.01955  -0.01718  -0.01180  -0.00415
  Beta virt. eigenvalues --    0.00035   0.00144   0.00343   0.00471   0.00601

 Mulliken charges and spin densities:
               1          2
     1  Na   0.772158  -0.029247
     2  Na  -0.179538   0.266073
     3  Na   0.023822   0.207757
     4  Na   1.095400   0.031747
     5  Na  -1.771755   0.357392
     6  Na   0.010324   0.312660
     7  Na   0.049589  -0.146381
 Sum of Mulliken charges =  -0.00000   1.00000

 Dipole moment (field-independent basis, Debye):
    X=             -1.5474    Y=             -0.7266    Z=              0.2959  Tot=              1.7349
 Quadrupole moment (field-independent basis, Debye-Ang):
   XX=            -55.2313   YY=            -74.2713   ZZ=            -65.9892
   XY=             -6.2043   XZ=              1.6919   YZ=             -1.0641

 Normal termination of Gaussian 16 at Fri Dec  8 04:18:20 2023.
