 Gaussian 16, Revision B.01,
 Gaussian 16:  ES64L-G16RevB.01 20-Dec-2017

 -------------------------
 #P B3LYP/6-311+g(d) force
 -------------------------

 -----
 DPGEN
 -----
 Symbolic Z-matrix:
 Charge =  0 Multiplicity = 2

                         Standard orientation:
 ---------------------------------------------------------------------
 Center     Atomic      Atomic             Coordinates (Angstroms)
 Number     Number       Type             X           Y           Z
 ---------------------------------------------------------------------
      1         11           0        2.919542    1.805864   -0.127639
      2         11           0       -0.003598    0.050373    2.063010
      3         11           0       -3.552671   -0.489868    0.223384
      4         11           0       -0.598101   -2.582059   -0.671118
      5         11           0        0.193682    0.326481   -1.591895
      6         11           0        2.654598   -1.683515    0.292598
      7         11           0       -1.613452    2.572724   -0.188339
 ---------------------------------------------------------------------

 SCF Done:  E(UB3LYP) =  -1136.13035197     A.U. after   20 cycles

 The electronic state is 2-A.
 Alpha  occ. eigenvalues --  -38.45062 -38.44336 -38.44003 -38.43988 -38.43682
 Alpha  occ. eigenvalues --  -38.43168 -38.42793  -2.20822  -2.20125  -2.19849
 Alpha  occ. eigenvalues --   -2.19819  -2.19501  -2.19136  -2.18657  -1.14498
 Alpha  occ. eigenvalues --   -1.14476  -1.14460  -1.13806  -1.13779  -1.13770
 Alpha  occ. eigenvalues --   -1.13529  -1.13500  -1.13482  -1.13476  -1.13459
 Alpha  occ. eigenvalues --   -1.13453  -1.13216  -1.13162  -1.13118  -1.12825
 Alpha  occ. eigenvalues --   -1.12789  -1.12753  -1.12358  -1.12303  -1.12273
 Alpha  occ. eigenvalues --   -0.18221  -0.13197  -0.11868  -0.10635
 Alpha virt. eigenvalues --   -0.06500  -0.05480  -0.04059  -0.03329  -0.02682
 Alpha virt. eigenvalues --   -0.02530  -0.02151  -0.01305  -0.00593  -0.00248
 Alpha virt. eigenvalues --   -0.00042   0.00282   0.00666   0.00700   0.00759

  Beta  occ. eigenvalues --  -38.45062 -38.44336 -38.43983 -38.43915 -38.43677
  Beta  occ. eigenvalues --  -38.43100 -38.42774  -2.20823  -2.20126  -2.19812
  Beta  occ. eigenvalues --   -2.19686  -2.19495  -2.19013  -2.18627  -1.14489
  Beta  occ. eigenvalues --   -1.14477  -1.14463  -1.13799  -1.13774  -1.13771
  Beta  occ. eigenvalues --   -1.13484  -1.13466  -1.13452  -1.13413  -1.13367
  Beta  occ. eigenvalues --   -1.13340  -1.13204  -1.13146  -1.13115  -1.12740
  Beta  occ. eigenvalues --   -1.12695  -1.12668  -1.12328  -1.12267  -1.12256
  Beta  occ. eigenvalues --   -0.17500  -0.13021  -0.11613
  Beta virt. eigenvalues --   -0.06781  -0.06396  -0.05443  -0.04029  -0.02617
  Beta virt. eigenvalues --   -0.02102  -0.01909  -0.01477  -0.01220  -0.00647
  Beta virt. eigenvalues --   -0.00214   0.00080   0.00309   0.00742   0.00756

 Mulliken charges and spin densities:
               1          2
     1  Na   0.028901  -0.070902
     2  Na  -0.361075   0.680000
     3  Na  -0.017912   0.008490
     4  Na   0.033918   0.040899
     5  Na   0.178061   0.327705
     6  Na   0.119441   0.091637
     7  Na   0.018665  -0.077828
 Sum of Mulliken charges =  -0.00000   1.00000

 Dipole moment (field-independent basis, Debye):
    X=             -0.1769    Y=              0.2087    Z=              0.3484  Tot=              0.4430
 Quadrupole moment (field-independent basis, Debye-Ang):
   XX=            -49.7135   YY=            -66.8710   ZZ=            -75.3944
   XY=              0.7004   XZ=              0.0589   YZ=              0.1097

 Normal termination of Gaussian 16 at Thu Dec  7 07:59:40 2023.
