 Gaussian 16, Revision B.01,
 Gaussian 16:  ES64L-G16RevB.01 20-Dec-2017

 -------------------------
 #P B3LYP/6-311+g(d) force
 -------------------------

 -----
 DPGEN
 -----
 Symbolic Z-matrix:
 Charge =  0 Multiplicity = 2

                         Standard orientation:
 ---------------------------------------------------------------------
 Center     Atomic      Atomic             Coordinates (Angstroms)
 Number     Number       Type             X           Y           Z
 ---------------------------------------------------------------------
      1         11           0       -2.175278   -1.892603   -0.741307
      2         11           0       -1.507845    1.002048    1.087030
      3         11           0        1.905997    0.552359    1.638923
      4         11           0        1.393612   -1.243153   -1.114360
      5         11           0        4.394542   -1.028054    0.309253
      6         11           0        0.648742    2.778693   -1.582304
      7         11           0       -4.659770   -0.169289    0.402764
 ---------------------------------------------------------------------

 SCF Done:  E(UB3LYP) =  -1136.11769647     A.U. after   31 cycles

 The electronic state is 2-A.
 Alpha  occ. eigenvalues --  -38.44471 -38.44376 -38.44147 -38.43944 -38.43863
 Alpha  occ. eigenvalues --  -38.43740 -38.43405  -2.20346  -2.20119  -2.19977
 Alpha  occ. eigenvalues --   -2.19795  -2.19713  -2.19617  -2.19246  -1.14056
 Alpha  occ. eigenvalues --   -1.14017  -1.13934  -1.13800  -1.13792  -1.13730
 Alpha  occ. eigenvalues --   -1.13646  -1.13636  -1.13624  -1.13486  -1.13461
 Alpha  occ. eigenvalues --   -1.13434  -1.13402  -1.13385  -1.13316  -1.13287
 Alpha  occ. eigenvalues --   -1.13266  -1.13232  -1.12910  -1.12902  -1.12879
 Alpha  occ. eigenvalues --   -0.17473  -0.14195  -0.11388  -0.10871
 Alpha virt. eigenvalues --   -0.07328  -0.05187  -0.04212  -0.03273  -0.02986
 Alpha virt. eigenvalues --   -0.02670  -0.02052  -0.01410  -0.01160  -0.00509
 Alpha virt. eigenvalues --   -0.00237   0.00134   0.00463   0.00640   0.00767

  Beta  occ. eigenvalues --  -38.44438 -38.44369 -38.44124 -38.43904 -38.43845
  Beta  occ. eigenvalues --  -38.43684 -38.43395  -2.20286  -2.20106  -2.19934
  Beta  occ. eigenvalues --   -2.19725  -2.19681  -2.19517  -2.19228  -1.14013
  Beta  occ. eigenvalues --   -1.13978  -1.13887  -1.13792  -1.13777  -1.13723
  Beta  occ. eigenvalues --   -1.13618  -1.13604  -1.13591  -1.13444  -1.13418
  Beta  occ. eigenvalues --   -1.13410  -1.13357  -1.13320  -1.13264  -1.13253
  Beta  occ. eigenvalues --   -1.13195  -1.13143  -1.12892  -1.12885  -1.12870
  Beta  occ. eigenvalues --   -0.16846  -0.13955  -0.11137
  Beta virt. eigenvalues --   -0.07273  -0.06905  -0.04769  -0.03959  -0.03044
  Beta virt. eigenvalues --   -0.02735  -0.02335  -0.01568  -0.01079  -0.00830
  Beta virt. eigenvalues --   -0.00348  -0.00161   0.00274   0.00634   0.00743

 Mulliken charges and spin densities:
               1          2
     1  Na  -0.103124   0.048571
     2  Na  -0.602630   0.207575
     3  Na   0.134017   0.213560
     4  Na  -0.492968   0.336888
     5  Na   0.490793   0.033234
     6  Na   0.038363   0.013585
     7  Na   0.535549   0.146587
 Sum of Mulliken charges =  -0.00000   1.00000

 Dipole moment (field-independent basis, Debye):
    X=             -0.3085    Y=              0.6825    Z=             -0.3728  Tot=              0.8367
 Quadrupole moment (field-independent basis, Debye-Ang):
   XX=            -57.6641   YY=            -73.0562   ZZ=            -66.6908
   XY=              1.2373   XZ=             -1.8696   YZ=             -1.9684

 Normal termination of Gaussian 16 at Tue Nov 28 22:39:02 2023.
