 Gaussian 16, Revision B.01,
 Gaussian 16:  ES64L-G16RevB.01 20-Dec-2017

 -------------------------
 #P B3LYP/6-311+g(d) force
 -------------------------

 -----
 DPGEN
 -----
 Symbolic Z-matrix:
 Charge =  0 Multiplicity = 2

                         Standard orientation:
 ---------------------------------------------------------------------
 Center     Atomic      Atomic             Coordinates (Angstroms)
 Number     Number       Type             X           Y           Z
 ---------------------------------------------------------------------
      1         11           0       -2.865351    1.112859    0.064980
      2         11           0       -0.078673   -0.659124    1.863583
      3         11           0        0.337287    2.871409   -0.663142
      4         11           0        2.220448    0.926357    1.045864
      5         11           0       -2.970836   -2.014063   -0.185195
      6         11           0        0.261513   -0.371987   -1.505082
      7         11           0        3.095612   -1.865451   -0.621008
 ---------------------------------------------------------------------

 SCF Done:  E(UB3LYP) =  -1136.12568268     A.U. after   21 cycles

 The electronic state is 2-A.
 Alpha  occ. eigenvalues --  -38.44563 -38.44154 -38.44114 -38.43953 -38.43739
 Alpha  occ. eigenvalues --  -38.43676 -38.42502  -2.20399  -2.20076  -2.19935
 Alpha  occ. eigenvalues --   -2.19776  -2.19716  -2.19620  -2.18365  -1.14084
 Alpha  occ. eigenvalues --   -1.14074  -1.14034  -1.13854  -1.13719  -1.13671
 Alpha  occ. eigenvalues --   -1.13600  -1.13592  -1.13570  -1.13456  -1.13450
 Alpha  occ. eigenvalues --   -1.13411  -1.13388  -1.13361  -1.13316  -1.13294
 Alpha  occ. eigenvalues --   -1.13257  -1.13223  -1.12044  -1.12029  -1.11997
 Alpha  occ. eigenvalues --   -0.18606  -0.13771  -0.11718  -0.11030
 Alpha virt. eigenvalues --   -0.06117  -0.05567  -0.04095  -0.03493  -0.02606
 Alpha virt. eigenvalues --   -0.02530  -0.02004  -0.01325  -0.00430  -0.00188
 Alpha virt. eigenvalues --    0.00127   0.00275   0.00667   0.00723   0.00792

  Beta  occ. eigenvalues --  -38.44562 -38.44115 -38.44066 -38.43933 -38.43702
  Beta  occ. eigenvalues --  -38.43621 -38.42494  -2.20399  -2.19939  -2.19917
  Beta  occ. eigenvalues --   -2.19741  -2.19654  -2.19520  -2.18354  -1.14082
  Beta  occ. eigenvalues --   -1.14067  -1.14034  -1.13747  -1.13604  -1.13600
  Beta  occ. eigenvalues --   -1.13586  -1.13569  -1.13565  -1.13430  -1.13416
  Beta  occ. eigenvalues --   -1.13383  -1.13338  -1.13286  -1.13259  -1.13241
  Beta  occ. eigenvalues --   -1.13185  -1.13149  -1.12039  -1.12007  -1.11989
  Beta  occ. eigenvalues --   -0.17902  -0.13564  -0.11485
  Beta virt. eigenvalues --   -0.07047  -0.06011  -0.05519  -0.03870  -0.02933
  Beta virt. eigenvalues --   -0.02063  -0.01839  -0.01564  -0.01160  -0.00416
  Beta virt. eigenvalues --   -0.00040   0.00199   0.00303   0.00725   0.00763

 Mulliken charges and spin densities:
               1          2
     1  Na   0.106513   0.048934
     2  Na  -0.260109   0.282840
     3  Na  -0.165083  -0.131407
     4  Na   0.661400   0.297665
     5  Na   0.179007  -0.052742
     6  Na  -0.451681   0.584360
     7  Na  -0.070048  -0.029650
 Sum of Mulliken charges =  -0.00000   1.00000

 Dipole moment (field-independent basis, Debye):
    X=             -0.5729    Y=             -0.5170    Z=              0.0069  Tot=              0.7717
 Quadrupole moment (field-independent basis, Debye-Ang):
   XX=            -54.1718   YY=            -66.5822   ZZ=            -73.3654
   XY=             -0.1185   XZ=              0.3517   YZ=              1.3812

 Normal termination of Gaussian 16 at Tue Dec  5 10:35:56 2023.
