 Gaussian 16, Revision B.01,
 Gaussian 16:  ES64L-G16RevB.01 20-Dec-2017

 -------------------------
 #P B3LYP/6-311+g(d) force
 -------------------------

 -----
 DPGEN
 -----
 Symbolic Z-matrix:
 Charge =  0 Multiplicity = 2

                         Standard orientation:
 ---------------------------------------------------------------------
 Center     Atomic      Atomic             Coordinates (Angstroms)
 Number     Number       Type             X           Y           Z
 ---------------------------------------------------------------------
      1         11           0       -0.318020    1.475257   -0.338269
      2         11           0       -0.952878   -1.611735    1.393217
      3         11           0        2.388629   -0.296250    1.894261
      4         11           0        3.206558    1.143160   -1.311764
      5         11           0       -3.070570   -0.975569   -1.515689
      6         11           0       -2.608093    1.862287    0.905390
      7         11           0        1.354374   -1.597150   -1.027146
 ---------------------------------------------------------------------

 SCF Done:  E(UB3LYP) =  -1136.11819453     A.U. after   25 cycles

 The electronic state is 2-A.
 Alpha  occ. eigenvalues --  -38.45099 -38.44781 -38.43945 -38.43913 -38.43699
 Alpha  occ. eigenvalues --  -38.43402 -38.42838  -2.20888  -2.20621  -2.19843
 Alpha  occ. eigenvalues --   -2.19827  -2.19535  -2.19370  -2.18708  -1.14559
 Alpha  occ. eigenvalues --   -1.14517  -1.14507  -1.14290  -1.14274  -1.14234
 Alpha  occ. eigenvalues --   -1.13831  -1.13549  -1.13499  -1.13468  -1.13427
 Alpha  occ. eigenvalues --   -1.13400  -1.13202  -1.13183  -1.13168  -1.13013
 Alpha  occ. eigenvalues --   -1.13000  -1.12904  -1.12412  -1.12372  -1.12328
 Alpha  occ. eigenvalues --   -0.18367  -0.14089  -0.11194  -0.11114
 Alpha virt. eigenvalues --   -0.06414  -0.05264  -0.04879  -0.03130  -0.02673
 Alpha virt. eigenvalues --   -0.02367  -0.02143  -0.01193  -0.00762   0.00000
 Alpha virt. eigenvalues --    0.00164   0.00263   0.00364   0.00431   0.00676

  Beta  occ. eigenvalues --  -38.45043 -38.44736 -38.43927 -38.43888 -38.43682
  Beta  occ. eigenvalues --  -38.43384 -38.42828  -2.20782  -2.20538  -2.19812
  Beta  occ. eigenvalues --   -2.19782  -2.19506  -2.19342  -2.18695  -1.14484
  Beta  occ. eigenvalues --   -1.14446  -1.14436  -1.14226  -1.14222  -1.14172
  Beta  occ. eigenvalues --   -1.13795  -1.13532  -1.13462  -1.13443  -1.13393
  Beta  occ. eigenvalues --   -1.13366  -1.13171  -1.13164  -1.13153  -1.12989
  Beta  occ. eigenvalues --   -1.12954  -1.12887  -1.12408  -1.12350  -1.12302
  Beta  occ. eigenvalues --   -0.17756  -0.13794  -0.10847
  Beta virt. eigenvalues --   -0.07563  -0.06025  -0.04816  -0.04668  -0.02939
  Beta virt. eigenvalues --   -0.02232  -0.01893  -0.01690  -0.00752  -0.00626
  Beta virt. eigenvalues --    0.00145   0.00263   0.00355   0.00438   0.00534

 Mulliken charges and spin densities:
               1          2
     1  Na  -1.486352   0.412661
     2  Na   0.134298   0.360709
     3  Na   0.004939   0.065716
     4  Na   0.489001  -0.132614
     5  Na  -0.026609   0.197539
     6  Na   0.959215  -0.154869
     7  Na  -0.074491   0.250859
 Sum of Mulliken charges =  -0.00000   1.00000

 Dipole moment (field-independent basis, Debye):
    X=              0.1111    Y=             -0.4524    Z=              0.0665  Tot=              0.4705
 Quadrupole moment (field-independent basis, Debye-Ang):
   XX=            -50.9499   YY=            -78.2367   ZZ=            -65.0793
   XY=              1.9707   XZ=              2.4043   YZ=              3.5237

 Normal termination of Gaussian 16 at Thu Dec  7 09:57:11 2023.
