 Gaussian 16, Revision B.01,
 Gaussian 16:  ES64L-G16RevB.01 20-Dec-2017

 -------------------------
 #P B3LYP/6-311+g(d) force
 -------------------------

 -----
 DPGEN
 -----
 Symbolic Z-matrix:
 Charge =  0 Multiplicity = 2

                         Standard orientation:
 ---------------------------------------------------------------------
 Center     Atomic      Atomic             Coordinates (Angstroms)
 Number     Number       Type             X           Y           Z
 ---------------------------------------------------------------------
      1         11           0        1.266093   -2.801238    0.516524
      2         11           0       -3.594233    1.353406   -0.570567
      3         11           0        3.483892   -0.044248   -0.426172
      4         11           0        0.014535   -0.412636   -1.692495
      5         11           0       -2.200781   -2.067179    0.258536
      6         11           0       -0.434675    0.946218    1.805931
      7         11           0        1.465169    3.025677    0.108243
 ---------------------------------------------------------------------

 SCF Done:  E(UB3LYP) =  -1136.12766666     A.U. after   21 cycles

 The electronic state is 2-A.
 Alpha  occ. eigenvalues --  -38.44593 -38.44415 -38.44362 -38.44007 -38.43768
 Alpha  occ. eigenvalues --  -38.43505 -38.43455  -2.20350  -2.20212  -2.20198
 Alpha  occ. eigenvalues --   -2.19836  -2.19561  -2.19350  -2.19273  -1.14017
 Alpha  occ. eigenvalues --   -1.14005  -1.13973  -1.13913  -1.13879  -1.13869
 Alpha  occ. eigenvalues --   -1.13852  -1.13830  -1.13817  -1.13525  -1.13508
 Alpha  occ. eigenvalues --   -1.13450  -1.13253  -1.13226  -1.13197  -1.13022
 Alpha  occ. eigenvalues --   -1.12983  -1.12966  -1.12944  -1.12938  -1.12913
 Alpha  occ. eigenvalues --   -0.17624  -0.13063  -0.12233  -0.10199
 Alpha virt. eigenvalues --   -0.06512  -0.05489  -0.04862  -0.03089  -0.02935
 Alpha virt. eigenvalues --   -0.02182  -0.02065  -0.01392  -0.01022  -0.00487
 Alpha virt. eigenvalues --   -0.00133   0.00231   0.00544   0.00673   0.00731

  Beta  occ. eigenvalues --  -38.44561 -38.44399 -38.44323 -38.43996 -38.43765
  Beta  occ. eigenvalues --  -38.43447 -38.43437  -2.20292  -2.20170  -2.20139
  Beta  occ. eigenvalues --   -2.19821  -2.19560  -2.19261  -2.19224  -1.13975
  Beta  occ. eigenvalues --   -1.13960  -1.13937  -1.13857  -1.13849  -1.13834
  Beta  occ. eigenvalues --   -1.13820  -1.13814  -1.13765  -1.13515  -1.13488
  Beta  occ. eigenvalues --   -1.13426  -1.13240  -1.13222  -1.13193  -1.12940
  Beta  occ. eigenvalues --   -1.12935  -1.12932  -1.12894  -1.12887  -1.12877
  Beta  occ. eigenvalues --   -0.17048  -0.12752  -0.11930
  Beta virt. eigenvalues --   -0.06776  -0.06225  -0.05409  -0.04627  -0.02578
  Beta virt. eigenvalues --   -0.02317  -0.01947  -0.01390  -0.01266  -0.00916
  Beta virt. eigenvalues --   -0.00492   0.00042   0.00308   0.00660   0.00709

 Mulliken charges and spin densities:
               1          2
     1  Na  -0.237176   0.085059
     2  Na  -0.041520   0.154531
     3  Na   0.052129   0.101131
     4  Na   0.108106   0.271480
     5  Na   0.159769   0.138025
     6  Na  -0.022338   0.330512
     7  Na  -0.018971  -0.080736
 Sum of Mulliken charges =  -0.00000   1.00000

 Dipole moment (field-independent basis, Debye):
    X=             -0.0371    Y=              0.0276    Z=             -0.0464  Tot=              0.0655
 Quadrupole moment (field-independent basis, Debye-Ang):
   XX=            -55.6521   YY=            -64.3521   ZZ=            -74.5735
   XY=             -0.3763   XZ=              0.2588   YZ=             -3.3500

 Normal termination of Gaussian 16 at Sun Dec  3 20:08:48 2023.
