 Gaussian 16, Revision B.01,
 Gaussian 16:  ES64L-G16RevB.01 20-Dec-2017

 -------------------------
 #P B3LYP/6-311+g(d) force
 -------------------------

 -----
 DPGEN
 -----
 Symbolic Z-matrix:
 Charge =  0 Multiplicity = 2

                         Standard orientation:
 ---------------------------------------------------------------------
 Center     Atomic      Atomic             Coordinates (Angstroms)
 Number     Number       Type             X           Y           Z
 ---------------------------------------------------------------------
      1         11           0       -0.078285    1.147434   -0.472443
      2         11           0       -2.646172    3.620338    0.423315
      3         11           0       -3.051447    0.472022   -0.241941
      4         11           0       -0.386296   -2.268017    1.274969
      5         11           0        3.046178   -1.072342    0.188505
      6         11           0       -2.388839   -3.034921   -0.850947
      7         11           0        5.504862    1.135486   -0.321457
 ---------------------------------------------------------------------

 SCF Done:  E(UB3LYP) =  -1136.11906575     A.U. after   21 cycles

 The electronic state is 2-A.
 Alpha  occ. eigenvalues --  -38.45197 -38.44969 -38.44344 -38.44163 -38.43686
 Alpha  occ. eigenvalues --  -38.43460 -38.43067  -2.21026  -2.20768  -2.20239
 Alpha  occ. eigenvalues --   -2.20019  -2.19537  -2.19265  -2.18866  -1.14757
 Alpha  occ. eigenvalues --   -1.14715  -1.14598  -1.14447  -1.14430  -1.14391
 Alpha  occ. eigenvalues --   -1.13966  -1.13916  -1.13801  -1.13736  -1.13680
 Alpha  occ. eigenvalues --   -1.13648  -1.13194  -1.13177  -1.13159  -1.12905
 Alpha  occ. eigenvalues --   -1.12903  -1.12888  -1.12558  -1.12541  -1.12507
 Alpha  occ. eigenvalues --   -0.17253  -0.13613  -0.12857  -0.10257
 Alpha virt. eigenvalues --   -0.06677  -0.05344  -0.04925  -0.03398  -0.02748
 Alpha virt. eigenvalues --   -0.02342  -0.02161  -0.01770  -0.01069  -0.00528
 Alpha virt. eigenvalues --   -0.00325  -0.00190   0.00401   0.00513   0.00542

  Beta  occ. eigenvalues --  -38.45173 -38.44969 -38.44322 -38.44141 -38.43653
  Beta  occ. eigenvalues --  -38.43368 -38.43068  -2.20983  -2.20769  -2.20201
  Beta  occ. eigenvalues --   -2.19982  -2.19477  -2.19092  -2.18875  -1.14735
  Beta  occ. eigenvalues --   -1.14683  -1.14560  -1.14446  -1.14430  -1.14390
  Beta  occ. eigenvalues --   -1.13938  -1.13888  -1.13766  -1.13711  -1.13658
  Beta  occ. eigenvalues --   -1.13601  -1.13155  -1.13135  -1.13113  -1.12788
  Beta  occ. eigenvalues --   -1.12785  -1.12777  -1.12572  -1.12556  -1.12455
  Beta  occ. eigenvalues --   -0.16808  -0.13292  -0.12204
  Beta virt. eigenvalues --   -0.06869  -0.06540  -0.05113  -0.04496  -0.03030
  Beta virt. eigenvalues --   -0.02550  -0.02184  -0.01916  -0.01502  -0.00806
  Beta virt. eigenvalues --   -0.00196  -0.00098   0.00092   0.00472   0.00591

 Mulliken charges and spin densities:
               1          2
     1  Na  -1.107334  -0.136302
     2  Na   0.807631  -0.026221
     3  Na   0.015492   0.379559
     4  Na   0.048551   0.080350
     5  Na  -0.338547   0.123206
     6  Na   0.286186   0.174458
     7  Na   0.288021   0.404950
 Sum of Mulliken charges =  -0.00000   1.00000

 Dipole moment (field-independent basis, Debye):
    X=             -2.3469    Y=              1.2297    Z=              0.3640  Tot=              2.6744
 Quadrupole moment (field-independent basis, Debye-Ang):
   XX=            -77.2418   YY=            -55.7583   ZZ=            -68.7480
   XY=             -5.7836   XZ=             -1.2963   YZ=              1.0963

 Normal termination of Gaussian 16 at Tue Nov 28 23:43:46 2023.
