 Gaussian 16, Revision B.01,
 Gaussian 16:  ES64L-G16RevB.01 20-Dec-2017

 -------------------------
 #P B3LYP/6-311+g(d) force
 -------------------------

 -----
 DPGEN
 -----
 Symbolic Z-matrix:
 Charge =  0 Multiplicity = 2

                         Standard orientation:
 ---------------------------------------------------------------------
 Center     Atomic      Atomic             Coordinates (Angstroms)
 Number     Number       Type             X           Y           Z
 ---------------------------------------------------------------------
      1         11           0       -2.763828   -1.069324   -0.197779
      2         11           0        0.099374   -2.639357    0.080482
      3         11           0        2.965840   -0.647348    0.009436
      4         11           0        1.309010    2.383254   -0.332196
      5         11           0       -1.811627    2.140956    0.357901
      6         11           0        0.228469   -0.073859    1.966533
      7         11           0       -0.027239   -0.094323   -1.884377
 ---------------------------------------------------------------------

 SCF Done:  E(UB3LYP) =  -1136.13931567     A.U. after   19 cycles

 The electronic state is 2-A.
 Alpha  occ. eigenvalues --  -38.43665 -38.43636 -38.43552 -38.43500 -38.43241
 Alpha  occ. eigenvalues --  -38.43205 -38.43146  -2.19624  -2.19537  -2.19497
 Alpha  occ. eigenvalues --   -2.19377  -2.19133  -2.19116  -2.19079  -1.13312
 Alpha  occ. eigenvalues --   -1.13268  -1.13253  -1.13222  -1.13206  -1.13178
 Alpha  occ. eigenvalues --   -1.13156  -1.13141  -1.13136  -1.13041  -1.13037
 Alpha  occ. eigenvalues --   -1.13030  -1.12859  -1.12800  -1.12790  -1.12774
 Alpha  occ. eigenvalues --   -1.12763  -1.12759  -1.12749  -1.12703  -1.12680
 Alpha  occ. eigenvalues --   -0.19298  -0.12939  -0.12735  -0.11321
 Alpha virt. eigenvalues --   -0.05242  -0.04774  -0.04566  -0.03262  -0.03214
 Alpha virt. eigenvalues --   -0.02908  -0.01295  -0.00881  -0.00098   0.00093
 Alpha virt. eigenvalues --    0.00112   0.00377   0.00891   0.00970   0.00982

  Beta  occ. eigenvalues --  -38.43633 -38.43577 -38.43496 -38.43470 -38.43233
  Beta  occ. eigenvalues --  -38.43195 -38.43137  -2.19495  -2.19463  -2.19386
  Beta  occ. eigenvalues --   -2.19373  -2.19122  -2.19103  -2.19068  -1.13220
  Beta  occ. eigenvalues --   -1.13173  -1.13155  -1.13152  -1.13138  -1.13125
  Beta  occ. eigenvalues --   -1.13100  -1.13097  -1.13066  -1.13038  -1.13018
  Beta  occ. eigenvalues --   -1.12996  -1.12854  -1.12780  -1.12768  -1.12756
  Beta  occ. eigenvalues --   -1.12755  -1.12734  -1.12706  -1.12697  -1.12675
  Beta  occ. eigenvalues --   -0.18522  -0.12684  -0.12454
  Beta virt. eigenvalues --   -0.07347  -0.05221  -0.04775  -0.04539  -0.02450
  Beta virt. eigenvalues --   -0.02355  -0.01823  -0.01224  -0.00814  -0.00017
  Beta virt. eigenvalues --    0.00039   0.00118   0.00388   0.00943   0.00957

 Mulliken charges and spin densities:
               1          2
     1  Na   0.135295  -0.053242
     2  Na   0.328926  -0.069633
     3  Na   0.190785  -0.103108
     4  Na   0.218311  -0.024329
     5  Na   0.131423  -0.008068
     6  Na  -0.535640   0.661608
     7  Na  -0.469099   0.596773
 Sum of Mulliken charges =  -0.00000   1.00000

 Dipole moment (field-independent basis, Debye):
    X=              0.1095    Y=             -0.0712    Z=              0.0469  Tot=              0.1388
 Quadrupole moment (field-independent basis, Debye-Ang):
   XX=            -58.7823   YY=            -64.9691   ZZ=            -71.1994
   XY=             -0.1353   XZ=             -0.5029   YZ=              0.0672

 Normal termination of Gaussian 16 at Sun Dec  3 20:30:07 2023.
