 Gaussian 16, Revision B.01,
 Gaussian 16:  ES64L-G16RevB.01 20-Dec-2017

 -------------------------
 #P B3LYP/6-311+g(d) force
 -------------------------

 -----
 DPGEN
 -----
 Symbolic Z-matrix:
 Charge =  0 Multiplicity = 2

                         Standard orientation:
 ---------------------------------------------------------------------
 Center     Atomic      Atomic             Coordinates (Angstroms)
 Number     Number       Type             X           Y           Z
 ---------------------------------------------------------------------
      1         11           0       -3.500991    0.562114    0.120909
      2         11           0        0.023525   -0.105184    2.023572
      3         11           0       -1.604045   -2.592742   -0.304453
      4         11           0        0.240317   -0.355407   -1.744505
      5         11           0       -0.494408    2.966839   -0.196960
      6         11           0        2.495707   -2.075925    0.229169
      7         11           0        2.839895    1.600304   -0.127732
 ---------------------------------------------------------------------

 SCF Done:  E(UB3LYP) =  -1136.13433292     A.U. after   19 cycles

 The electronic state is 2-A.
 Alpha  occ. eigenvalues --  -38.44606 -38.44110 -38.44055 -38.43762 -38.43757
 Alpha  occ. eigenvalues --  -38.43415 -38.43387  -2.20358  -2.19910  -2.19861
 Alpha  occ. eigenvalues --   -2.19607  -2.19582  -2.19298  -2.19210  -1.14037
 Alpha  occ. eigenvalues --   -1.14010  -1.14003  -1.13588  -1.13572  -1.13555
 Alpha  occ. eigenvalues --   -1.13535  -1.13522  -1.13496  -1.13295  -1.13279
 Alpha  occ. eigenvalues --   -1.13250  -1.13229  -1.13219  -1.13200  -1.12975
 Alpha  occ. eigenvalues --   -1.12927  -1.12924  -1.12888  -1.12879  -1.12840
 Alpha  occ. eigenvalues --   -0.17978  -0.12842  -0.12211  -0.10502
 Alpha virt. eigenvalues --   -0.06060  -0.05545  -0.04693  -0.03104  -0.02805
 Alpha virt. eigenvalues --   -0.02500  -0.01826  -0.01370  -0.00739  -0.00525
 Alpha virt. eigenvalues --   -0.00051   0.00325   0.00699   0.00778   0.00835

  Beta  occ. eigenvalues --  -38.44608 -38.44107 -38.44049 -38.43753 -38.43668
  Beta  occ. eigenvalues --  -38.43412 -38.43319  -2.20363  -2.19907  -2.19853
  Beta  occ. eigenvalues --   -2.19568  -2.19441  -2.19207  -2.19173  -1.14030
  Beta  occ. eigenvalues --   -1.14015  -1.14007  -1.13574  -1.13566  -1.13551
  Beta  occ. eigenvalues --   -1.13520  -1.13503  -1.13493  -1.13274  -1.13219
  Beta  occ. eigenvalues --   -1.13195  -1.13166  -1.13123  -1.13098  -1.12895
  Beta  occ. eigenvalues --   -1.12882  -1.12872  -1.12839  -1.12836  -1.12826
  Beta  occ. eigenvalues --   -0.17262  -0.12664  -0.11980
  Beta virt. eigenvalues --   -0.06649  -0.05977  -0.05556  -0.04603  -0.02401
  Beta virt. eigenvalues --   -0.02074  -0.01721  -0.01466  -0.01299  -0.00787
  Beta virt. eigenvalues --   -0.00560   0.00101   0.00357   0.00766   0.00782

 Mulliken charges and spin densities:
               1          2
     1  Na  -0.066935  -0.069928
     2  Na  -0.287510   0.817490
     3  Na   0.139990  -0.111938
     4  Na   0.090276   0.610785
     5  Na  -0.128036  -0.107778
     6  Na   0.174335  -0.075326
     7  Na   0.077880  -0.063305
 Sum of Mulliken charges =  -0.00000   1.00000

 Dipole moment (field-independent basis, Debye):
    X=             -0.0058    Y=             -0.1519    Z=              0.0946  Tot=              0.1790
 Quadrupole moment (field-independent basis, Debye-Ang):
   XX=            -53.3054   YY=            -63.5698   ZZ=            -75.9209
   XY=             -0.5519   XZ=              0.1843   YZ=             -0.5709

 Normal termination of Gaussian 16 at Thu Dec  7 14:30:42 2023.
