 Gaussian 16, Revision B.01,
 Gaussian 16:  ES64L-G16RevB.01 20-Dec-2017

 -------------------------
 #P B3LYP/6-311+g(d) force
 -------------------------

 -----
 DPGEN
 -----
 Symbolic Z-matrix:
 Charge =  0 Multiplicity = 2

                         Standard orientation:
 ---------------------------------------------------------------------
 Center     Atomic      Atomic             Coordinates (Angstroms)
 Number     Number       Type             X           Y           Z
 ---------------------------------------------------------------------
      1         11           0        2.991780   -0.838491    0.103967
      2         11           0       -2.296018    2.162369   -0.035866
      3         11           0        0.147064   -2.841162   -0.416645
      4         11           0       -2.927511   -1.161936   -0.102744
      5         11           0        0.410892    0.113345   -1.499358
      6         11           0        0.098365   -0.271313    2.091946
      7         11           0        1.575428    2.837188   -0.141299
 ---------------------------------------------------------------------

 SCF Done:  E(UB3LYP) =  -1136.13643130     A.U. after   19 cycles

 The electronic state is 2-A.
 Alpha  occ. eigenvalues --  -38.44125 -38.43966 -38.43868 -38.43730 -38.43569
 Alpha  occ. eigenvalues --  -38.43360 -38.43022  -2.19977  -2.19763  -2.19668
 Alpha  occ. eigenvalues --   -2.19553  -2.19443  -2.19246  -2.19023  -1.13675
 Alpha  occ. eigenvalues --   -1.13641  -1.13601  -1.13444  -1.13432  -1.13403
 Alpha  occ. eigenvalues --   -1.13363  -1.13325  -1.13298  -1.13221  -1.13212
 Alpha  occ. eigenvalues --   -1.13202  -1.13111  -1.13068  -1.13058  -1.12972
 Alpha  occ. eigenvalues --   -1.12896  -1.12865  -1.12703  -1.12650  -1.12648
 Alpha  occ. eigenvalues --   -0.18498  -0.12925  -0.12506  -0.10566
 Alpha virt. eigenvalues --   -0.05737  -0.05289  -0.04857  -0.03047  -0.02792
 Alpha virt. eigenvalues --   -0.02476  -0.01493  -0.01303  -0.00597  -0.00459
 Alpha virt. eigenvalues --   -0.00004   0.00342   0.00810   0.00825   0.00874

  Beta  occ. eigenvalues --  -38.44118 -38.43967 -38.43866 -38.43728 -38.43468
  Beta  occ. eigenvalues --  -38.43346 -38.42967  -2.19968  -2.19765  -2.19667
  Beta  occ. eigenvalues --   -2.19552  -2.19257  -2.19224  -2.18924  -1.13667
  Beta  occ. eigenvalues --   -1.13607  -1.13600  -1.13443  -1.13423  -1.13407
  Beta  occ. eigenvalues --   -1.13354  -1.13316  -1.13300  -1.13212  -1.13209
  Beta  occ. eigenvalues --   -1.13197  -1.12991  -1.12950  -1.12935  -1.12923
  Beta  occ. eigenvalues --   -1.12859  -1.12850  -1.12633  -1.12580  -1.12572
  Beta  occ. eigenvalues --   -0.17780  -0.12728  -0.12274
  Beta virt. eigenvalues --   -0.06618  -0.05723  -0.05258  -0.04805  -0.02287
  Beta virt. eigenvalues --   -0.02076  -0.01431  -0.01386  -0.01212  -0.00636
  Beta virt. eigenvalues --   -0.00508   0.00152   0.00382   0.00816   0.00862

 Mulliken charges and spin densities:
               1          2
     1  Na   0.331221   0.009254
     2  Na  -0.011489  -0.072062
     3  Na   0.353498   0.050372
     4  Na   0.020124  -0.028688
     5  Na  -0.231932   0.336269
     6  Na  -0.503950   0.793663
     7  Na   0.042529  -0.088808
 Sum of Mulliken charges =  -0.00000   1.00000

 Dipole moment (field-independent basis, Debye):
    X=              0.1888    Y=              0.1526    Z=              0.1917  Tot=              0.3093
 Quadrupole moment (field-independent basis, Debye-Ang):
   XX=            -56.6628   YY=            -60.4599   ZZ=            -75.7560
   XY=             -0.0698   XZ=              0.6333   YZ=              0.9139

 Normal termination of Gaussian 16 at Tue Dec  5 20:34:43 2023.
