 Gaussian 16, Revision B.01,
 Gaussian 16:  ES64L-G16RevB.01 20-Dec-2017

 -------------------------
 #P B3LYP/6-311+g(d) force
 -------------------------

 -----
 DPGEN
 -----
 Symbolic Z-matrix:
 Charge =  0 Multiplicity = 2

                         Standard orientation:
 ---------------------------------------------------------------------
 Center     Atomic      Atomic             Coordinates (Angstroms)
 Number     Number       Type             X           Y           Z
 ---------------------------------------------------------------------
      1         11           0       -0.309818    1.452964   -0.019153
      2         11           0        2.261036    3.535257    0.071331
      3         11           0        3.287547    0.214208   -0.283590
      4         11           0        0.133181   -1.695235   -0.999513
      5         11           0       -3.068052   -1.266998   -0.455009
      6         11           0        3.225417   -2.775141    1.007944
      7         11           0       -5.529311    0.534943    0.677990
 ---------------------------------------------------------------------

 SCF Done:  E(UB3LYP) =  -1136.12525227     A.U. after   19 cycles

 The electronic state is 2-A.
 Alpha  occ. eigenvalues --  -38.44641 -38.44449 -38.44062 -38.43913 -38.43780
 Alpha  occ. eigenvalues --  -38.43660 -38.43438  -2.20457  -2.20286  -2.19915
 Alpha  occ. eigenvalues --   -2.19789  -2.19586  -2.19503  -2.19256  -1.14092
 Alpha  occ. eigenvalues --   -1.14085  -1.14077  -1.13997  -1.13980  -1.13871
 Alpha  occ. eigenvalues --   -1.13620  -1.13598  -1.13523  -1.13481  -1.13465
 Alpha  occ. eigenvalues --   -1.13389  -1.13249  -1.13241  -1.13201  -1.13177
 Alpha  occ. eigenvalues --   -1.13177  -1.13151  -1.12922  -1.12914  -1.12892
 Alpha  occ. eigenvalues --   -0.17028  -0.14164  -0.12261  -0.11368
 Alpha virt. eigenvalues --   -0.05778  -0.05477  -0.04573  -0.03860  -0.02632
 Alpha virt. eigenvalues --   -0.02431  -0.01943  -0.01603  -0.01141  -0.00755
 Alpha virt. eigenvalues --   -0.00449  -0.00079   0.00409   0.00500   0.00752

  Beta  occ. eigenvalues --  -38.44531 -38.44432 -38.44042 -38.43862 -38.43753
  Beta  occ. eigenvalues --  -38.43654 -38.43437  -2.20256  -2.20254  -2.19879
  Beta  occ. eigenvalues --   -2.19700  -2.19535  -2.19503  -2.19252  -1.13968
  Beta  occ. eigenvalues --   -1.13961  -1.13956  -1.13946  -1.13941  -1.13849
  Beta  occ. eigenvalues --   -1.13592  -1.13576  -1.13490  -1.13422  -1.13405
  Beta  occ. eigenvalues --   -1.13314  -1.13211  -1.13200  -1.13187  -1.13175
  Beta  occ. eigenvalues --   -1.13173  -1.13087  -1.12918  -1.12912  -1.12890
  Beta  occ. eigenvalues --   -0.16488  -0.13272  -0.12084
  Beta virt. eigenvalues --   -0.07816  -0.05543  -0.05267  -0.04134  -0.03613
  Beta virt. eigenvalues --   -0.02334  -0.02055  -0.01743  -0.01300  -0.00826
  Beta virt. eigenvalues --   -0.00508  -0.00072   0.00050   0.00539   0.00578

 Mulliken charges and spin densities:
               1          2
     1  Na  -1.355325  -0.124456
     2  Na   0.928392   0.040242
     3  Na  -0.317579   0.346007
     4  Na  -0.702036   0.082905
     5  Na   0.495255   0.092555
     6  Na   0.453451   0.086848
     7  Na   0.497842   0.475899
 Sum of Mulliken charges =  -0.00000   1.00000

 Dipole moment (field-independent basis, Debye):
    X=              0.1936    Y=              0.2086    Z=              0.2786  Tot=              0.3983
 Quadrupole moment (field-independent basis, Debye-Ang):
   XX=            -64.6879   YY=            -62.9160   ZZ=            -70.0760
   XY=             -0.1873   XZ=             -0.5638   YZ=              0.0249

 Normal termination of Gaussian 16 at Tue Nov 28 23:36:54 2023.
