 Gaussian 16, Revision B.01,
 Gaussian 16:  ES64L-G16RevB.01 20-Dec-2017

 -------------------------
 #P B3LYP/6-311+g(d) force
 -------------------------

 -----
 DPGEN
 -----
 Symbolic Z-matrix:
 Charge =  0 Multiplicity = 2

                         Standard orientation:
 ---------------------------------------------------------------------
 Center     Atomic      Atomic             Coordinates (Angstroms)
 Number     Number       Type             X           Y           Z
 ---------------------------------------------------------------------
      1         11           0        0.632525   -1.745311    1.008288
      2         11           0        4.255948   -2.692124   -0.548139
      3         11           0        2.703973    0.226111   -0.247170
      4         11           0        0.852277    4.218611   -0.510448
      5         11           0       -0.195857    1.679233    1.118400
      6         11           0       -2.090657   -0.418529   -0.501026
      7         11           0       -6.158210   -1.267991   -0.319905
 ---------------------------------------------------------------------

 SCF Done:  E(UB3LYP) =  -1136.11384911     A.U. after   21 cycles

 The electronic state is 2-A.
 Alpha  occ. eigenvalues --  -38.45080 -38.44499 -38.44493 -38.44432 -38.43895
 Alpha  occ. eigenvalues --  -38.43596 -38.43528  -2.20851  -2.20356  -2.20316
 Alpha  occ. eigenvalues --   -2.20283  -2.19700  -2.19512  -2.19328  -1.14483
 Alpha  occ. eigenvalues --   -1.14483  -1.14450  -1.14150  -1.14051  -1.13997
 Alpha  occ. eigenvalues --   -1.13990  -1.13965  -1.13942  -1.13931  -1.13881
 Alpha  occ. eigenvalues --   -1.13861  -1.13413  -1.13369  -1.13347  -1.13216
 Alpha  occ. eigenvalues --   -1.13187  -1.13140  -1.12981  -1.12978  -1.12940
 Alpha  occ. eigenvalues --   -0.17317  -0.13306  -0.12570  -0.11164
 Alpha virt. eigenvalues --   -0.06356  -0.05391  -0.05092  -0.03324  -0.02754
 Alpha virt. eigenvalues --   -0.02338  -0.02033  -0.01576  -0.01434  -0.00951
 Alpha virt. eigenvalues --   -0.00647  -0.00151   0.00080   0.00419   0.00520

  Beta  occ. eigenvalues --  -38.44945 -38.44501 -38.44464 -38.44400 -38.43915
  Beta  occ. eigenvalues --  -38.43590 -38.43503  -2.20598  -2.20361  -2.20259
  Beta  occ. eigenvalues --   -2.20230  -2.19742  -2.19504  -2.19280  -1.14312
  Beta  occ. eigenvalues --   -1.14311  -1.14282  -1.14133  -1.14055  -1.13974
  Beta  occ. eigenvalues --   -1.13962  -1.13935  -1.13905  -1.13897  -1.13845
  Beta  occ. eigenvalues --   -1.13832  -1.13447  -1.13402  -1.13340  -1.13213
  Beta  occ. eigenvalues --   -1.13186  -1.13113  -1.12948  -1.12945  -1.12910
  Beta  occ. eigenvalues --   -0.17007  -0.12884  -0.11694
  Beta virt. eigenvalues --   -0.07799  -0.05926  -0.05214  -0.04908  -0.03043
  Beta virt. eigenvalues --   -0.02527  -0.02106  -0.01855  -0.01091  -0.00874
  Beta virt. eigenvalues --   -0.00710  -0.00277   0.00026   0.00220   0.00532

 Mulliken charges and spin densities:
               1          2
     1  Na  -0.139473   0.014958
     2  Na   0.625528   0.120557
     3  Na  -0.685503   0.047889
     4  Na   0.329766   0.137240
     5  Na  -0.067661   0.068889
     6  Na  -0.006510  -0.052892
     7  Na  -0.056147   0.663360
 Sum of Mulliken charges =  -0.00000   1.00000

 Dipole moment (field-independent basis, Debye):
    X=              0.9030    Y=             -1.0778    Z=             -0.0415  Tot=              1.4067
 Quadrupole moment (field-independent basis, Debye-Ang):
   XX=            -65.9178   YY=            -64.1628   ZZ=            -68.6246
   XY=             -6.3613   XZ=             -2.1804   YZ=             -2.0694

 Normal termination of Gaussian 16 at Wed Nov 29 00:53:17 2023.
