 Gaussian 16, Revision B.01,
 Gaussian 16:  ES64L-G16RevB.01 20-Dec-2017

 -------------------------
 #P B3LYP/6-311+g(d) force
 -------------------------

 -----
 DPGEN
 -----
 Symbolic Z-matrix:
 Charge =  0 Multiplicity = 2

                         Standard orientation:
 ---------------------------------------------------------------------
 Center     Atomic      Atomic             Coordinates (Angstroms)
 Number     Number       Type             X           Y           Z
 ---------------------------------------------------------------------
      1         11           0       -0.596731    2.616662   -1.135670
      2         11           0       -0.571999   -2.563627    1.170061
      3         11           0        3.858093   -0.390295   -0.264257
      4         11           0        1.205514    0.027664   -0.415462
      5         11           0       -1.359596   -1.369808   -1.909931
      6         11           0        0.061824    1.529450    2.087870
      7         11           0       -2.597106    0.149954    0.467388
 ---------------------------------------------------------------------

 SCF Done:  E(UB3LYP) =  -1136.11885975     A.U. after   22 cycles

 The electronic state is 2-A.
 Alpha  occ. eigenvalues --  -38.44186 -38.44094 -38.43991 -38.43922 -38.43911
 Alpha  occ. eigenvalues --  -38.43689 -38.42394  -2.20020  -2.19979  -2.19840
 Alpha  occ. eigenvalues --   -2.19833  -2.19828  -2.19547  -2.18497  -1.13854
 Alpha  occ. eigenvalues --   -1.13683  -1.13633  -1.13632  -1.13623  -1.13618
 Alpha  occ. eigenvalues --   -1.13580  -1.13538  -1.13509  -1.13493  -1.13486
 Alpha  occ. eigenvalues --   -1.13468  -1.13442  -1.13409  -1.13393  -1.13243
 Alpha  occ. eigenvalues --   -1.13182  -1.13167  -1.12181  -1.12175  -1.12087
 Alpha  occ. eigenvalues --   -0.18888  -0.12575  -0.12077  -0.11714
 Alpha virt. eigenvalues --   -0.05885  -0.04808  -0.04202  -0.03238  -0.02986
 Alpha virt. eigenvalues --   -0.02837  -0.01485  -0.00978  -0.00566   0.00221
 Alpha virt. eigenvalues --    0.00278   0.00374   0.00515   0.00823   0.00832

  Beta  occ. eigenvalues --  -38.44193 -38.44035 -38.43962 -38.43894 -38.43874
  Beta  occ. eigenvalues --  -38.43664 -38.42373  -2.20034  -2.19870  -2.19811
  Beta  occ. eigenvalues --   -2.19780  -2.19744  -2.19503  -2.18463  -1.13862
  Beta  occ. eigenvalues --   -1.13638  -1.13633  -1.13612  -1.13589  -1.13544
  Beta  occ. eigenvalues --   -1.13502  -1.13487  -1.13461  -1.13450  -1.13441
  Beta  occ. eigenvalues --   -1.13427  -1.13403  -1.13367  -1.13336  -1.13210
  Beta  occ. eigenvalues --   -1.13150  -1.13128  -1.12170  -1.12102  -1.12067
  Beta  occ. eigenvalues --   -0.18025  -0.12452  -0.11938
  Beta virt. eigenvalues --   -0.07676  -0.05742  -0.04403  -0.03792  -0.03063
  Beta virt. eigenvalues --   -0.02398  -0.01935  -0.01414  -0.00882  -0.00237
  Beta virt. eigenvalues --    0.00265   0.00313   0.00444   0.00571   0.00845

 Mulliken charges and spin densities:
               1          2
     1  Na   0.348931   0.185444
     2  Na  -0.079853   0.240591
     3  Na  -0.063606  -0.669338
     4  Na  -0.908250   0.382561
     5  Na   0.373782   0.312192
     6  Na  -0.026148   0.412837
     7  Na   0.355144   0.135712
 Sum of Mulliken charges =  -0.00000   1.00000

 Dipole moment (field-independent basis, Debye):
    X=             -0.5703    Y=              0.0062    Z=              0.2998  Tot=              0.6443
 Quadrupole moment (field-independent basis, Debye-Ang):
   XX=            -63.0063   YY=            -66.4728   ZZ=            -63.5462
   XY=             -0.4618   XZ=              1.3211   YZ=             -2.2353

 Normal termination of Gaussian 16 at Fri Dec  8 03:06:35 2023.
