 Gaussian 16, Revision B.01,
 Gaussian 16:  ES64L-G16RevB.01 20-Dec-2017

 -------------------------
 #P B3LYP/6-311+g(d) force
 -------------------------

 -----
 DPGEN
 -----
 Symbolic Z-matrix:
 Charge =  0 Multiplicity = 2

                         Standard orientation:
 ---------------------------------------------------------------------
 Center     Atomic      Atomic             Coordinates (Angstroms)
 Number     Number       Type             X           Y           Z
 ---------------------------------------------------------------------
      1         11           0       -0.280412   -1.086173    0.297311
      2         11           0       -1.782942    2.442611    0.148817
      3         11           0       -3.223587   -1.308990    1.566083
      4         11           0        1.347234    1.471267   -1.115184
      5         11           0        3.160919   -1.738323   -1.243658
      6         11           0       -3.076695   -0.360158   -1.369583
      7         11           0        3.855483    0.579766    1.716214
 ---------------------------------------------------------------------

 SCF Done:  E(UB3LYP) =  -1136.11383359     A.U. after   26 cycles

 The electronic state is 2-A.
 Alpha  occ. eigenvalues --  -38.45996 -38.44403 -38.44306 -38.43911 -38.43847
 Alpha  occ. eigenvalues --  -38.43576 -38.42978  -2.21859  -2.20207  -2.20186
 Alpha  occ. eigenvalues --   -2.19721  -2.19712  -2.19416  -2.18804  -1.15550
 Alpha  occ. eigenvalues --   -1.15532  -1.15465  -1.13930  -1.13870  -1.13862
 Alpha  occ. eigenvalues --   -1.13845  -1.13831  -1.13808  -1.13393  -1.13373
 Alpha  occ. eigenvalues --   -1.13361  -1.13353  -1.13346  -1.13310  -1.13134
 Alpha  occ. eigenvalues --   -1.13097  -1.13003  -1.12484  -1.12463  -1.12440
 Alpha  occ. eigenvalues --   -0.17771  -0.14518  -0.11052  -0.10236
 Alpha virt. eigenvalues --   -0.06877  -0.05989  -0.05167  -0.03095  -0.02850
 Alpha virt. eigenvalues --   -0.02151  -0.01980  -0.01327  -0.01148  -0.00505
 Alpha virt. eigenvalues --   -0.00225   0.00021   0.00164   0.00312   0.00358

  Beta  occ. eigenvalues --  -38.45995 -38.44378 -38.44289 -38.43838 -38.43800
  Beta  occ. eigenvalues --  -38.43565 -38.42978  -2.21860  -2.20178  -2.20141
  Beta  occ. eigenvalues --   -2.19704  -2.19505  -2.19398  -2.18805  -1.15540
  Beta  occ. eigenvalues --   -1.15532  -1.15469  -1.13893  -1.13851  -1.13834
  Beta  occ. eigenvalues --   -1.13817  -1.13784  -1.13781  -1.13381  -1.13363
  Beta  occ. eigenvalues --   -1.13334  -1.13220  -1.13210  -1.13173  -1.13124
  Beta  occ. eigenvalues --   -1.13055  -1.12998  -1.12485  -1.12464  -1.12435
  Beta  occ. eigenvalues --   -0.17439  -0.13958  -0.10971
  Beta virt. eigenvalues --   -0.06942  -0.06480  -0.05394  -0.04920  -0.02987
  Beta virt. eigenvalues --   -0.02571  -0.01912  -0.01337  -0.01165  -0.00839
  Beta virt. eigenvalues --   -0.00316   0.00114   0.00157   0.00315   0.00392

 Mulliken charges and spin densities:
               1          2
     1  Na  -2.184260   0.300859
     2  Na  -0.170445  -0.027903
     3  Na   0.603202   0.224827
     4  Na   0.124504   0.250733
     5  Na   1.141235  -0.165243
     6  Na   0.570770  -0.120289
     7  Na  -0.085005   0.537016
 Sum of Mulliken charges =  -0.00000   1.00000

 Dipole moment (field-independent basis, Debye):
    X=             -1.6576    Y=             -0.5734    Z=             -1.0916  Tot=              2.0659
 Quadrupole moment (field-independent basis, Debye-Ang):
   XX=            -59.5024   YY=            -77.4015   ZZ=            -64.1616
   XY=             -4.2517   XZ=             -2.7128   YZ=              2.3646

 Normal termination of Gaussian 16 at Tue Dec  5 17:17:17 2023.
