 Gaussian 16, Revision B.01,
 Gaussian 16:  ES64L-G16RevB.01 20-Dec-2017

 -------------------------
 #P B3LYP/6-311+g(d) force
 -------------------------

 -----
 DPGEN
 -----
 Symbolic Z-matrix:
 Charge =  0 Multiplicity = 2

                         Standard orientation:
 ---------------------------------------------------------------------
 Center     Atomic      Atomic             Coordinates (Angstroms)
 Number     Number       Type             X           Y           Z
 ---------------------------------------------------------------------
      1         11           0       -3.248211   -0.715477   -0.437129
      2         11           0        0.402639   -0.071745    1.914648
      3         11           0       -0.448770   -2.533999    0.403442
      4         11           0       -1.540650    2.218984    0.434126
      5         11           0       -0.200519    0.345924   -1.718207
      6         11           0        3.007533   -1.508908   -0.484894
      7         11           0        2.027977    2.265221   -0.111987
 ---------------------------------------------------------------------

 SCF Done:  E(UB3LYP) =  -1136.13524491     A.U. after   20 cycles

 The electronic state is 2-A.
 Alpha  occ. eigenvalues --  -38.44219 -38.43919 -38.43662 -38.43498 -38.43452
 Alpha  occ. eigenvalues --  -38.43413 -38.43151  -2.19998  -2.19750  -2.19502
 Alpha  occ. eigenvalues --   -2.19454  -2.19411  -2.19310  -2.19043  -1.13675
 Alpha  occ. eigenvalues --   -1.13646  -1.13638  -1.13422  -1.13406  -1.13399
 Alpha  occ. eigenvalues --   -1.13218  -1.13185  -1.13165  -1.13140  -1.13124
 Alpha  occ. eigenvalues --   -1.13104  -1.13067  -1.13055  -1.13017  -1.12963
 Alpha  occ. eigenvalues --   -1.12961  -1.12909  -1.12734  -1.12698  -1.12636
 Alpha  occ. eigenvalues --   -0.18738  -0.12971  -0.12363  -0.10903
 Alpha virt. eigenvalues --   -0.05716  -0.05332  -0.04214  -0.03237  -0.02989
 Alpha virt. eigenvalues --   -0.02532  -0.01723  -0.01197  -0.00283  -0.00068
 Alpha virt. eigenvalues --    0.00029   0.00326   0.00748   0.00845   0.00906

  Beta  occ. eigenvalues --  -38.44210 -38.43913 -38.43658 -38.43438 -38.43400
  Beta  occ. eigenvalues --  -38.43362 -38.43138  -2.19983  -2.19741  -2.19498
  Beta  occ. eigenvalues --   -2.19345  -2.19290  -2.19247  -2.19023  -1.13657
  Beta  occ. eigenvalues --   -1.13634  -1.13628  -1.13407  -1.13400  -1.13388
  Beta  occ. eigenvalues --   -1.13197  -1.13163  -1.13123  -1.13107  -1.13045
  Beta  occ. eigenvalues --   -1.13023  -1.12986  -1.12977  -1.12922  -1.12917
  Beta  occ. eigenvalues --   -1.12898  -1.12881  -1.12704  -1.12658  -1.12629
  Beta  occ. eigenvalues --   -0.18010  -0.12714  -0.12112
  Beta virt. eigenvalues --   -0.07026  -0.05589  -0.05319  -0.04175  -0.02560
  Beta virt. eigenvalues --   -0.02201  -0.01590  -0.01515  -0.01153  -0.00251
  Beta virt. eigenvalues --   -0.00077   0.00114   0.00360   0.00822   0.00848

 Mulliken charges and spin densities:
               1          2
     1  Na   0.058670  -0.008721
     2  Na  -0.042841   0.443972
     3  Na   0.182236  -0.020533
     4  Na   0.281061   0.023284
     5  Na  -0.389923   0.668789
     6  Na  -0.142540  -0.015961
     7  Na   0.053337  -0.090830
 Sum of Mulliken charges =  -0.00000   1.00000

 Dipole moment (field-independent basis, Debye):
    X=              0.2017    Y=              0.1040    Z=             -0.1371  Tot=              0.2651
 Quadrupole moment (field-independent basis, Debye-Ang):
   XX=            -54.0564   YY=            -65.6258   ZZ=            -73.2399
   XY=              0.2967   XZ=             -1.0582   YZ=              1.4720

 Normal termination of Gaussian 16 at Thu Dec  7 02:33:18 2023.
