 Gaussian 16, Revision B.01,
 Gaussian 16:  ES64L-G16RevB.01 20-Dec-2017

 -------------------------
 #P B3LYP/6-311+g(d) force
 -------------------------

 -----
 DPGEN
 -----
 Symbolic Z-matrix:
 Charge =  0 Multiplicity = 2

                         Standard orientation:
 ---------------------------------------------------------------------
 Center     Atomic      Atomic             Coordinates (Angstroms)
 Number     Number       Type             X           Y           Z
 ---------------------------------------------------------------------
      1         11           0        0.058102   -2.604556   -1.471046
      2         11           0       -3.163736   -1.575374   -0.193732
      3         11           0       -0.701904    3.205776   -1.278120
      4         11           0        0.144474   -0.762429    1.418706
      5         11           0        1.798759    0.662470   -1.729321
      6         11           0       -1.933662    1.351013    1.897477
      7         11           0        3.797966   -0.276901    1.356037
 ---------------------------------------------------------------------

 SCF Done:  E(UB3LYP) =  -1136.11846585     A.U. after   22 cycles

 The electronic state is 2-A.
 Alpha  occ. eigenvalues --  -38.44855 -38.44679 -38.44111 -38.44064 -38.43964
 Alpha  occ. eigenvalues --  -38.43731 -38.43692  -2.20624  -2.20439  -2.20021
 Alpha  occ. eigenvalues --   -2.19865  -2.19729  -2.19545  -2.19527  -1.14283
 Alpha  occ. eigenvalues --   -1.14277  -1.14236  -1.14127  -1.14087  -1.14083
 Alpha  occ. eigenvalues --   -1.13765  -1.13699  -1.13618  -1.13551  -1.13529
 Alpha  occ. eigenvalues --   -1.13486  -1.13397  -1.13379  -1.13353  -1.13233
 Alpha  occ. eigenvalues --   -1.13215  -1.13211  -1.13154  -1.13153  -1.13125
 Alpha  occ. eigenvalues --   -0.17238  -0.12812  -0.11944  -0.11604
 Alpha virt. eigenvalues --   -0.06410  -0.05186  -0.04588  -0.03471  -0.03103
 Alpha virt. eigenvalues --   -0.02710  -0.02174  -0.00839  -0.00672  -0.00208
 Alpha virt. eigenvalues --   -0.00023   0.00144   0.00242   0.00426   0.00641

  Beta  occ. eigenvalues --  -38.44802 -38.44690 -38.44069 -38.44031 -38.43925
  Beta  occ. eigenvalues --  -38.43698 -38.43669  -2.20525  -2.20461  -2.19948
  Beta  occ. eigenvalues --   -2.19808  -2.19658  -2.19486  -2.19485  -1.14211
  Beta  occ. eigenvalues --   -1.14207  -1.14175  -1.14141  -1.14102  -1.14091
  Beta  occ. eigenvalues --   -1.13710  -1.13638  -1.13564  -1.13512  -1.13486
  Beta  occ. eigenvalues --   -1.13432  -1.13349  -1.13326  -1.13305  -1.13195
  Beta  occ. eigenvalues --   -1.13174  -1.13166  -1.13129  -1.13117  -1.13097
  Beta  occ. eigenvalues --   -0.16638  -0.12462  -0.11517
  Beta virt. eigenvalues --   -0.08086  -0.06097  -0.04803  -0.04264  -0.03122
  Beta virt. eigenvalues --   -0.02833  -0.02145  -0.01865  -0.00712  -0.00401
  Beta virt. eigenvalues --   -0.00082   0.00096   0.00281   0.00344   0.00557

 Mulliken charges and spin densities:
               1          2
     1  Na  -0.045777   0.204551
     2  Na   0.211651  -0.014645
     3  Na  -0.078071   0.197040
     4  Na  -0.041516   0.218475
     5  Na  -0.126083   0.181396
     6  Na  -0.039006  -0.006891
     7  Na   0.118802   0.220074
 Sum of Mulliken charges =  -0.00000   1.00000

 Dipole moment (field-independent basis, Debye):
    X=             -0.0674    Y=             -0.3498    Z=             -0.0957  Tot=              0.3688
 Quadrupole moment (field-independent basis, Debye-Ang):
   XX=            -55.5370   YY=            -71.4762   ZZ=            -67.7461
   XY=             -0.4423   XZ=              2.4799   YZ=              0.1811

 Normal termination of Gaussian 16 at Sun Dec  3 21:53:58 2023.
