 Gaussian 16, Revision B.01,
 Gaussian 16:  ES64L-G16RevB.01 20-Dec-2017

 -------------------------
 #P B3LYP/6-311+g(d) force
 -------------------------

 -----
 DPGEN
 -----
 Symbolic Z-matrix:
 Charge =  0 Multiplicity = 2

                         Standard orientation:
 ---------------------------------------------------------------------
 Center     Atomic      Atomic             Coordinates (Angstroms)
 Number     Number       Type             X           Y           Z
 ---------------------------------------------------------------------
      1         11           0        3.720564   -1.082570   -0.401644
      2         11           0       -0.117120   -0.937516   -1.744281
      3         11           0        2.208865    1.748414   -0.538841
      4         11           0       -1.173612    2.113892    0.457479
      5         11           0        1.305792   -0.430059    1.644581
      6         11           0       -4.182236   -0.251998   -0.783716
      7         11           0       -1.762253   -1.160163    1.366422
 ---------------------------------------------------------------------

 SCF Done:  E(UB3LYP) =  -1136.11651248     A.U. after   29 cycles

 The electronic state is 2-A.
 Alpha  occ. eigenvalues --  -38.45925 -38.44916 -38.43967 -38.43958 -38.43770
 Alpha  occ. eigenvalues --  -38.43587 -38.42407  -2.21699  -2.20693  -2.19886
 Alpha  occ. eigenvalues --   -2.19815  -2.19682  -2.19569  -2.18260  -1.15415
 Alpha  occ. eigenvalues --   -1.15374  -1.15288  -1.14371  -1.14351  -1.14317
 Alpha  occ. eigenvalues --   -1.13608  -1.13534  -1.13520  -1.13506  -1.13498
 Alpha  occ. eigenvalues --   -1.13444  -1.13379  -1.13355  -1.13262  -1.13255
 Alpha  occ. eigenvalues --   -1.13197  -1.13145  -1.11945  -1.11930  -1.11883
 Alpha  occ. eigenvalues --   -0.18639  -0.14291  -0.11415  -0.10657
 Alpha virt. eigenvalues --   -0.07570  -0.04974  -0.04655  -0.03160  -0.03103
 Alpha virt. eigenvalues --   -0.02379  -0.02172  -0.01270  -0.01087  -0.00233
 Alpha virt. eigenvalues --   -0.00051   0.00218   0.00280   0.00661   0.00728

  Beta  occ. eigenvalues --  -38.45903 -38.44903 -38.43972 -38.43900 -38.43737
  Beta  occ. eigenvalues --  -38.43519 -38.42399  -2.21659  -2.20670  -2.19826
  Beta  occ. eigenvalues --   -2.19784  -2.19621  -2.19448  -2.18245  -1.15375
  Beta  occ. eigenvalues --   -1.15340  -1.15260  -1.14355  -1.14334  -1.14301
  Beta  occ. eigenvalues --   -1.13539  -1.13524  -1.13492  -1.13454  -1.13451
  Beta  occ. eigenvalues --   -1.13411  -1.13338  -1.13309  -1.13222  -1.13168
  Beta  occ. eigenvalues --   -1.13100  -1.13067  -1.11935  -1.11906  -1.11874
  Beta  occ. eigenvalues --   -0.17912  -0.14145  -0.10450
  Beta virt. eigenvalues --   -0.07452  -0.07321  -0.04743  -0.04260  -0.02977
  Beta virt. eigenvalues --   -0.02755  -0.01786  -0.01525  -0.01137  -0.00670
  Beta virt. eigenvalues --   -0.00162  -0.00018   0.00300   0.00358   0.00719

 Mulliken charges and spin densities:
               1          2
     1  Na   0.759084  -0.043926
     2  Na  -0.549027   0.248494
     3  Na   0.129622   0.267230
     4  Na  -0.560216   0.117817
     5  Na  -0.317445   0.277562
     6  Na   0.440987   0.116161
     7  Na   0.096995   0.016663
 Sum of Mulliken charges =  -0.00000   1.00000

 Dipole moment (field-independent basis, Debye):
    X=             -0.3477    Y=              0.1566    Z=             -0.4289  Tot=              0.5739
 Quadrupole moment (field-independent basis, Debye-Ang):
   XX=            -51.0562   YY=            -76.2538   ZZ=            -69.8229
   XY=             -1.2579   XZ=              0.0505   YZ=             -3.2703

 Normal termination of Gaussian 16 at Thu Dec  7 12:11:17 2023.
