 Gaussian 16, Revision B.01,
 Gaussian 16:  ES64L-G16RevB.01 20-Dec-2017

 -------------------------
 #P B3LYP/6-311+g(d) force
 -------------------------

 -----
 DPGEN
 -----
 Symbolic Z-matrix:
 Charge =  0 Multiplicity = 2

                         Standard orientation:
 ---------------------------------------------------------------------
 Center     Atomic      Atomic             Coordinates (Angstroms)
 Number     Number       Type             X           Y           Z
 ---------------------------------------------------------------------
      1         11           0       -0.193676   -0.378954   -1.762421
      2         11           0        0.382363    0.430533    2.256651
      3         11           0        0.550253   -2.518661    0.757458
      4         11           0       -2.132013    1.985752   -0.021364
      5         11           0       -2.782958   -1.468981   -0.282348
      6         11           0        1.193083    2.527708   -0.209770
      7         11           0        2.982948   -0.577396   -0.738206
 ---------------------------------------------------------------------

 SCF Done:  E(UB3LYP) =  -1136.13833874     A.U. after   19 cycles

 The electronic state is 2-A.
 Alpha  occ. eigenvalues --  -38.44238 -38.43746 -38.43529 -38.43481 -38.43477
 Alpha  occ. eigenvalues --  -38.43326 -38.43187  -2.20119  -2.19590  -2.19498
 Alpha  occ. eigenvalues --   -2.19326  -2.19323  -2.19208  -2.19058  -1.13779
 Alpha  occ. eigenvalues --   -1.13755  -1.13735  -1.13291  -1.13238  -1.13229
 Alpha  occ. eigenvalues --   -1.13198  -1.13153  -1.13131  -1.13007  -1.13001
 Alpha  occ. eigenvalues --   -1.12987  -1.12978  -1.12964  -1.12933  -1.12899
 Alpha  occ. eigenvalues --   -1.12861  -1.12820  -1.12736  -1.12729  -1.12680
 Alpha  occ. eigenvalues --   -0.18700  -0.12782  -0.12443  -0.11573
 Alpha virt. eigenvalues --   -0.05147  -0.05000  -0.04472  -0.03396  -0.03344
 Alpha virt. eigenvalues --   -0.03099  -0.01307  -0.00899  -0.00237   0.00034
 Alpha virt. eigenvalues --    0.00080   0.00369   0.00813   0.00921   0.00962

  Beta  occ. eigenvalues --  -38.44140 -38.43728 -38.43480 -38.43475 -38.43471
  Beta  occ. eigenvalues --  -38.43303 -38.43182  -2.19938  -2.19560  -2.19393
  Beta  occ. eigenvalues --   -2.19325  -2.19323  -2.19170  -2.19052  -1.13658
  Beta  occ. eigenvalues --   -1.13628  -1.13605  -1.13256  -1.13212  -1.13207
  Beta  occ. eigenvalues --   -1.13135  -1.13088  -1.13066  -1.13000  -1.12996
  Beta  occ. eigenvalues --   -1.12972  -1.12962  -1.12954  -1.12933  -1.12867
  Beta  occ. eigenvalues --   -1.12812  -1.12801  -1.12732  -1.12710  -1.12670
  Beta  occ. eigenvalues --   -0.17948  -0.12531  -0.12234
  Beta virt. eigenvalues --   -0.07563  -0.05080  -0.04995  -0.04330  -0.02640
  Beta virt. eigenvalues --   -0.02626  -0.02060  -0.01194  -0.00860  -0.00085
  Beta virt. eigenvalues --    0.00002   0.00115   0.00407   0.00909   0.00926

 Mulliken charges and spin densities:
               1          2
     1  Na  -0.309937   0.411845
     2  Na  -0.381040   0.470302
     3  Na   0.094030   0.186509
     4  Na   0.024314  -0.041754
     5  Na   0.214272  -0.046392
     6  Na   0.144387   0.016761
     7  Na   0.213974   0.002728
 Sum of Mulliken charges =  -0.00000   1.00000

 Dipole moment (field-independent basis, Debye):
    X=              0.0521    Y=              0.0250    Z=              0.1622  Tot=              0.1722
 Quadrupole moment (field-independent basis, Debye-Ang):
   XX=            -59.7372   YY=            -66.0892   ZZ=            -69.6496
   XY=              0.1250   XZ=             -1.5665   YZ=             -1.1707

 Normal termination of Gaussian 16 at Tue Dec  5 11:47:39 2023.
