 Gaussian 16, Revision B.01,
 Gaussian 16:  ES64L-G16RevB.01 20-Dec-2017

 -------------------------
 #P B3LYP/6-311+g(d) force
 -------------------------

 -----
 DPGEN
 -----
 Symbolic Z-matrix:
 Charge =  0 Multiplicity = 2

                         Standard orientation:
 ---------------------------------------------------------------------
 Center     Atomic      Atomic             Coordinates (Angstroms)
 Number     Number       Type             X           Y           Z
 ---------------------------------------------------------------------
      1         11           0       -3.474718    1.989809   -0.512256
      2         11           0       -4.227491   -1.456042    0.427168
      3         11           0        2.744521    2.708286    0.998697
      4         11           0       -0.275577    2.546340   -0.659461
      5         11           0       -1.304089   -2.260609    0.522264
      6         11           0        4.261204   -0.448794   -0.225920
      7         11           0        2.276151   -3.078991   -0.550493
 ---------------------------------------------------------------------

 SCF Done:  E(UB3LYP) =  -1136.11064494     A.U. after   23 cycles

 The electronic state is 2-A.
 Alpha  occ. eigenvalues --  -38.45471 -38.45020 -38.44523 -38.44501 -38.44216
 Alpha  occ. eigenvalues --  -38.43751 -38.43670  -2.21233  -2.20815  -2.20360
 Alpha  occ. eigenvalues --   -2.20318  -2.20010  -2.19555  -2.19471  -1.14918
 Alpha  occ. eigenvalues --   -1.14899  -1.14871  -1.14504  -1.14484  -1.14474
 Alpha  occ. eigenvalues --   -1.14017  -1.14003  -1.13995  -1.13985  -1.13972
 Alpha  occ. eigenvalues --   -1.13929  -1.13690  -1.13687  -1.13646  -1.13208
 Alpha  occ. eigenvalues --   -1.13193  -1.13189  -1.13126  -1.13120  -1.13113
 Alpha  occ. eigenvalues --   -0.15999  -0.14191  -0.13134  -0.10742
 Alpha virt. eigenvalues --   -0.07558  -0.04656  -0.04382  -0.03767  -0.03530
 Alpha virt. eigenvalues --   -0.02514  -0.02412  -0.01490  -0.01031  -0.00846
 Alpha virt. eigenvalues --   -0.00513  -0.00329   0.00218   0.00526   0.00618

  Beta  occ. eigenvalues --  -38.45461 -38.44999 -38.44487 -38.44441 -38.44207
  Beta  occ. eigenvalues --  -38.43693 -38.43631  -2.21221  -2.20782  -2.20296
  Beta  occ. eigenvalues --   -2.20209  -2.20000  -2.19445  -2.19398  -1.14914
  Beta  occ. eigenvalues --   -1.14894  -1.14828  -1.14472  -1.14459  -1.14441
  Beta  occ. eigenvalues --   -1.13964  -1.13961  -1.13941  -1.13912  -1.13899
  Beta  occ. eigenvalues --   -1.13855  -1.13690  -1.13687  -1.13595  -1.13133
  Beta  occ. eigenvalues --   -1.13126  -1.13112  -1.13077  -1.13072  -1.13063
  Beta  occ. eigenvalues --   -0.15504  -0.13490  -0.12341
  Beta virt. eigenvalues --   -0.07711  -0.07576  -0.04293  -0.04022  -0.03457
  Beta virt. eigenvalues --   -0.03150  -0.02307  -0.02180  -0.01240  -0.00774
  Beta virt. eigenvalues --   -0.00515  -0.00269  -0.00182   0.00344   0.00602

 Mulliken charges and spin densities:
               1          2
     1  Na   0.202508   0.197009
     2  Na   0.239269   0.006427
     3  Na   0.485740   0.299822
     4  Na  -0.722696   0.031262
     5  Na  -0.715321   0.168706
     6  Na  -0.291835   0.082890
     7  Na   0.802335   0.213885
 Sum of Mulliken charges =  -0.00000   1.00000

 Dipole moment (field-independent basis, Debye):
    X=             -0.5786    Y=             -0.2217    Z=              0.0717  Tot=              0.6237
 Quadrupole moment (field-independent basis, Debye-Ang):
   XX=            -50.8627   YY=            -75.1936   ZZ=            -72.6580
   XY=             -0.2262   XZ=             -0.1516   YZ=              1.1454

 Normal termination of Gaussian 16 at Mon Dec  4 03:53:07 2023.
