 Gaussian 16, Revision B.01,
 Gaussian 16:  ES64L-G16RevB.01 20-Dec-2017

 -------------------------
 #P B3LYP/6-311+g(d) force
 -------------------------

 -----
 DPGEN
 -----
 Symbolic Z-matrix:
 Charge =  0 Multiplicity = 2

                         Standard orientation:
 ---------------------------------------------------------------------
 Center     Atomic      Atomic             Coordinates (Angstroms)
 Number     Number       Type             X           Y           Z
 ---------------------------------------------------------------------
      1         11           0       -2.930565    0.878436   -0.198340
      2         11           0        2.223779   -2.106178   -0.343455
      3         11           0       -1.852679   -2.519487    0.111480
      4         11           0       -0.037274   -0.219609    1.967888
      5         11           0        0.091647    0.012850   -1.758970
      6         11           0        2.531119    1.049505    0.246123
      7         11           0       -0.026028    2.904483   -0.024726
 ---------------------------------------------------------------------

 SCF Done:  E(UB3LYP) =  -1136.13889469     A.U. after   19 cycles

 The electronic state is 2-A.
 Alpha  occ. eigenvalues --  -38.43899 -38.43807 -38.43632 -38.43554 -38.43355
 Alpha  occ. eigenvalues --  -38.43306 -38.43141  -2.19726  -2.19618  -2.19488
 Alpha  occ. eigenvalues --   -2.19468  -2.19299  -2.19276  -2.19026  -1.13407
 Alpha  occ. eigenvalues --   -1.13393  -1.13363  -1.13301  -1.13279  -1.13250
 Alpha  occ. eigenvalues --   -1.13197  -1.13161  -1.13148  -1.13121  -1.13099
 Alpha  occ. eigenvalues --   -1.13084  -1.13018  -1.12955  -1.12943  -1.12931
 Alpha  occ. eigenvalues --   -1.12901  -1.12884  -1.12691  -1.12677  -1.12662
 Alpha  occ. eigenvalues --   -0.18876  -0.13031  -0.12508  -0.10915
 Alpha virt. eigenvalues --   -0.05500  -0.05083  -0.04676  -0.03240  -0.02949
 Alpha virt. eigenvalues --   -0.02628  -0.01348  -0.01175  -0.00333  -0.00142
 Alpha virt. eigenvalues --   -0.00004   0.00370   0.00856   0.00863   0.00934

  Beta  occ. eigenvalues --  -38.43895 -38.43805 -38.43624 -38.43465 -38.43344
  Beta  occ. eigenvalues --  -38.43233 -38.43137  -2.19721  -2.19616  -2.19475
  Beta  occ. eigenvalues --   -2.19306  -2.19284  -2.19143  -2.19022  -1.13396
  Beta  occ. eigenvalues --   -1.13382  -1.13360  -1.13286  -1.13270  -1.13252
  Beta  occ. eigenvalues --   -1.13185  -1.13135  -1.13108  -1.13053  -1.12998
  Beta  occ. eigenvalues --   -1.12980  -1.12969  -1.12928  -1.12899  -1.12858
  Beta  occ. eigenvalues --   -1.12810  -1.12794  -1.12686  -1.12666  -1.12643
  Beta  occ. eigenvalues --   -0.18125  -0.12782  -0.12255
  Beta virt. eigenvalues --   -0.06986  -0.05502  -0.05011  -0.04667  -0.02429
  Beta virt. eigenvalues --   -0.02179  -0.01580  -0.01257  -0.01092  -0.00381
  Beta virt. eigenvalues --   -0.00190   0.00121   0.00387   0.00852   0.00909

 Mulliken charges and spin densities:
               1          2
     1  Na   0.049449  -0.089067
     2  Na   0.167313  -0.062159
     3  Na   0.004103  -0.130923
     4  Na  -0.387109   0.653565
     5  Na  -0.305624   0.591109
     6  Na   0.410338   0.103348
     7  Na   0.061531  -0.065874
 Sum of Mulliken charges =  -0.00000   1.00000

 Dipole moment (field-independent basis, Debye):
    X=             -0.3040    Y=             -0.2975    Z=              0.0571  Tot=              0.4292
 Quadrupole moment (field-independent basis, Debye-Ang):
   XX=            -59.2035   YY=            -61.1939   ZZ=            -73.5147
   XY=             -0.6224   XZ=              0.3523   YZ=              0.6056

 Normal termination of Gaussian 16 at Fri Dec  8 01:31:33 2023.
