 Gaussian 16, Revision B.01,
 Gaussian 16:  ES64L-G16RevB.01 20-Dec-2017

 -------------------------
 #P B3LYP/6-311+g(d) force
 -------------------------

 -----
 DPGEN
 -----
 Symbolic Z-matrix:
 Charge =  0 Multiplicity = 2

                         Standard orientation:
 ---------------------------------------------------------------------
 Center     Atomic      Atomic             Coordinates (Angstroms)
 Number     Number       Type             X           Y           Z
 ---------------------------------------------------------------------
      1         11           0        0.535289    0.448597    1.906274
      2         11           0       -0.080201   -0.226628   -1.345821
      3         11           0        2.227518    2.277854   -0.248691
      4         11           0       -1.514631    2.362439   -0.040017
      5         11           0       -3.391483   -0.547597   -0.370412
      6         11           0        2.669064   -1.776665   -0.593098
      7         11           0       -0.445557   -2.538000    0.691766
 ---------------------------------------------------------------------

 SCF Done:  E(UB3LYP) =  -1136.13521315     A.U. after   19 cycles

 The electronic state is 2-A.
 Alpha  occ. eigenvalues --  -38.43916 -38.43872 -38.43871 -38.43653 -38.43255
 Alpha  occ. eigenvalues --  -38.43195 -38.42960  -2.19728  -2.19708  -2.19697
 Alpha  occ. eigenvalues --   -2.19521  -2.19157  -2.19144  -2.19008  -1.13401
 Alpha  occ. eigenvalues --   -1.13398  -1.13385  -1.13385  -1.13375  -1.13362
 Alpha  occ. eigenvalues --   -1.13351  -1.13341  -1.13325  -1.13231  -1.13204
 Alpha  occ. eigenvalues --   -1.13115  -1.12923  -1.12845  -1.12811  -1.12771
 Alpha  occ. eigenvalues --   -1.12757  -1.12736  -1.12690  -1.12638  -1.12610
 Alpha  occ. eigenvalues --   -0.18750  -0.12934  -0.12585  -0.10570
 Alpha virt. eigenvalues --   -0.05592  -0.05400  -0.04485  -0.02987  -0.02918
 Alpha virt. eigenvalues --   -0.02198  -0.01712  -0.01319  -0.00357  -0.00193
 Alpha virt. eigenvalues --    0.00043   0.00308   0.00761   0.00812   0.00885

  Beta  occ. eigenvalues --  -38.43913 -38.43868 -38.43853 -38.43647 -38.43233
  Beta  occ. eigenvalues --  -38.43107 -38.42916  -2.19724  -2.19692  -2.19676
  Beta  occ. eigenvalues --   -2.19513  -2.19120  -2.18982  -2.18929  -1.13392
  Beta  occ. eigenvalues --   -1.13382  -1.13375  -1.13370  -1.13368  -1.13352
  Beta  occ. eigenvalues --   -1.13326  -1.13319  -1.13315  -1.13226  -1.13177
  Beta  occ. eigenvalues --   -1.13110  -1.12889  -1.12775  -1.12739  -1.12722
  Beta  occ. eigenvalues --   -1.12659  -1.12623  -1.12618  -1.12586  -1.12548
  Beta  occ. eigenvalues --   -0.18054  -0.12648  -0.12376
  Beta virt. eigenvalues --   -0.06693  -0.05541  -0.05292  -0.04425  -0.02299
  Beta virt. eigenvalues --   -0.02241  -0.01610  -0.01289  -0.01180  -0.00278
  Beta virt. eigenvalues --   -0.00183   0.00147   0.00361   0.00797   0.00847

 Mulliken charges and spin densities:
               1          2
     1  Na  -0.028844   0.457274
     2  Na  -0.487725   0.355691
     3  Na  -0.020844  -0.028473
     4  Na   0.124547  -0.000856
     5  Na   0.116842  -0.005324
     6  Na   0.043584   0.054067
     7  Na   0.252439   0.167621
 Sum of Mulliken charges =  -0.00000   1.00000

 Dipole moment (field-independent basis, Debye):
    X=              0.1257    Y=              0.1654    Z=              0.0819  Tot=              0.2233
 Quadrupole moment (field-independent basis, Debye-Ang):
   XX=            -54.2664   YY=            -62.3907   ZZ=            -74.8473
   XY=              0.8093   XZ=             -1.2455   YZ=             -1.0911

 Normal termination of Gaussian 16 at Wed Dec  6 00:27:13 2023.
