 Gaussian 16, Revision B.01,
 Gaussian 16:  ES64L-G16RevB.01 20-Dec-2017

 -------------------------
 #P B3LYP/6-311+g(d) force
 -------------------------

 -----
 DPGEN
 -----
 Symbolic Z-matrix:
 Charge =  0 Multiplicity = 2

                         Standard orientation:
 ---------------------------------------------------------------------
 Center     Atomic      Atomic             Coordinates (Angstroms)
 Number     Number       Type             X           Y           Z
 ---------------------------------------------------------------------
      1         11           0       -0.620775    0.648029   -1.388802
      2         11           0        1.840929   -0.880864    1.318196
      3         11           0       -0.280384   -1.994759   -0.604459
      4         11           0       -2.814992    0.071166   -0.014937
      5         11           0       -0.731826    0.054351    1.724992
      6         11           0        1.802187    0.012853   -1.408718
      7         11           0        0.804861    2.089223    0.373727
 ---------------------------------------------------------------------

 SCF Done:  E(UB3LYP) =  -1136.06273197     A.U. after   29 cycles

 The electronic state is 2-A.
 Alpha  occ. eigenvalues --  -38.45011 -38.44774 -38.44734 -38.44361 -38.44229
 Alpha  occ. eigenvalues --  -38.42958 -38.42716  -2.21461  -2.20993  -2.20980
 Alpha  occ. eigenvalues --   -2.20403  -2.20329  -2.19085  -2.18853  -1.15720
 Alpha  occ. eigenvalues --   -1.15164  -1.15088  -1.14908  -1.14679  -1.14647
 Alpha  occ. eigenvalues --   -1.14565  -1.14515  -1.14495  -1.14065  -1.14021
 Alpha  occ. eigenvalues --   -1.13951  -1.13937  -1.13911  -1.13876  -1.12824
 Alpha  occ. eigenvalues --   -1.12738  -1.12631  -1.12620  -1.12493  -1.12408
 Alpha  occ. eigenvalues --   -0.21796  -0.13768  -0.13457  -0.12201
 Alpha virt. eigenvalues --   -0.05214  -0.04268  -0.04240  -0.03476  -0.03313
 Alpha virt. eigenvalues --   -0.03019  -0.00983  -0.00392  -0.00256   0.00314
 Alpha virt. eigenvalues --    0.00831   0.00896   0.01077   0.01134   0.01268

  Beta  occ. eigenvalues --  -38.44936 -38.44717 -38.44650 -38.44356 -38.44181
  Beta  occ. eigenvalues --  -38.42944 -38.42694  -2.21331  -2.20882  -2.20844
  Beta  occ. eigenvalues --   -2.20395  -2.20246  -2.19067  -2.18820  -1.15610
  Beta  occ. eigenvalues --   -1.15084  -1.14979  -1.14785  -1.14594  -1.14581
  Beta  occ. eigenvalues --   -1.14461  -1.14440  -1.14417  -1.14013  -1.13993
  Beta  occ. eigenvalues --   -1.13916  -1.13898  -1.13863  -1.13817  -1.12816
  Beta  occ. eigenvalues --   -1.12674  -1.12624  -1.12592  -1.12430  -1.12393
  Beta  occ. eigenvalues --   -0.20962  -0.13562  -0.11893
  Beta virt. eigenvalues --   -0.08935  -0.05163  -0.03561  -0.03481  -0.03389
  Beta virt. eigenvalues --   -0.02516  -0.02329  -0.00958  -0.00248  -0.00125
  Beta virt. eigenvalues --    0.00343   0.00913   0.01053   0.01100   0.01200

 Mulliken charges and spin densities:
               1          2
     1  Na  -1.030076   0.211123
     2  Na   0.205482   0.053183
     3  Na  -0.331799   0.135146
     4  Na   0.737458   0.037261
     5  Na  -0.286900   0.328659
     6  Na   0.615949   0.032372
     7  Na   0.089886   0.202257
 Sum of Mulliken charges =  -0.00000   1.00000

 Dipole moment (field-independent basis, Debye):
    X=             -0.0150    Y=             -0.2497    Z=              0.4352  Tot=              0.5020
 Quadrupole moment (field-independent basis, Debye-Ang):
   XX=            -60.5896   YY=            -74.4476   ZZ=            -62.9498
   XY=              0.0029   XZ=              0.4964   YZ=              0.4859

 Normal termination of Gaussian 16 at Sat Dec  9 05:48:01 2023.
