 Gaussian 16, Revision B.01,
 Gaussian 16:  ES64L-G16RevB.01 20-Dec-2017

 -------------------------
 #P B3LYP/6-311+g(d) force
 -------------------------

 -----
 DPGEN
 -----
 Symbolic Z-matrix:
 Charge =  0 Multiplicity = 2

                         Standard orientation:
 ---------------------------------------------------------------------
 Center     Atomic      Atomic             Coordinates (Angstroms)
 Number     Number       Type             X           Y           Z
 ---------------------------------------------------------------------
      1         11           0        3.592834    0.363261    1.553011
      2         11           0       -4.505056   -0.584201   -0.859217
      3         11           0       -2.648331    2.376998   -0.116232
      4         11           0        1.100783   -1.053674   -0.446527
      5         11           0        4.926155   -0.883230   -1.310336
      6         11           0       -2.734502   -2.640242    1.041788
      7         11           0        0.268116    2.421087    0.137513
 ---------------------------------------------------------------------

 SCF Done:  E(UB3LYP) =  -1136.10945465     A.U. after   22 cycles

 The electronic state is 2-A.
 Alpha  occ. eigenvalues --  -38.46262 -38.45310 -38.44719 -38.43806 -38.43763
 Alpha  occ. eigenvalues --  -38.43346 -38.42847  -2.22042  -2.21105  -2.20526
 Alpha  occ. eigenvalues --   -2.19600  -2.19532  -2.19193  -2.18696  -1.15728
 Alpha  occ. eigenvalues --   -1.15691  -1.15683  -1.14797  -1.14757  -1.14702
 Alpha  occ. eigenvalues --   -1.14181  -1.14175  -1.14133  -1.13276  -1.13267
 Alpha  occ. eigenvalues --   -1.13258  -1.13200  -1.13182  -1.13150  -1.12928
 Alpha  occ. eigenvalues --   -1.12846  -1.12818  -1.12362  -1.12356  -1.12322
 Alpha  occ. eigenvalues --   -0.16588  -0.14236  -0.11560  -0.10598
 Alpha virt. eigenvalues --   -0.07142  -0.05795  -0.04931  -0.03195  -0.02962
 Alpha virt. eigenvalues --   -0.02595  -0.02036  -0.01459  -0.01151  -0.00665
 Alpha virt. eigenvalues --   -0.00374  -0.00234   0.00030   0.00300   0.00467

  Beta  occ. eigenvalues --  -38.46264 -38.45257 -38.44648 -38.43791 -38.43747
  Beta  occ. eigenvalues --  -38.43315 -38.42853  -2.22049  -2.21009  -2.20394
  Beta  occ. eigenvalues --   -2.19572  -2.19501  -2.19135  -2.18707  -1.15733
  Beta  occ. eigenvalues --   -1.15698  -1.15659  -1.14728  -1.14684  -1.14636
  Beta  occ. eigenvalues --   -1.14086  -1.14084  -1.14050  -1.13261  -1.13250
  Beta  occ. eigenvalues --   -1.13226  -1.13179  -1.13155  -1.13128  -1.12897
  Beta  occ. eigenvalues --   -1.12805  -1.12778  -1.12372  -1.12365  -1.12313
  Beta  occ. eigenvalues --   -0.16029  -0.13731  -0.11502
  Beta virt. eigenvalues --   -0.07226  -0.06911  -0.05105  -0.04609  -0.02940
  Beta virt. eigenvalues --   -0.02755  -0.02277  -0.01704  -0.01176  -0.00899
  Beta virt. eigenvalues --   -0.00446  -0.00287  -0.00054   0.00162   0.00479

 Mulliken charges and spin densities:
               1          2
     1  Na   0.467499   0.070854
     2  Na   0.035313   0.040470
     3  Na   0.093699   0.295648
     4  Na  -0.967316   0.325474
     5  Na   0.208130   0.402794
     6  Na   0.203230   0.011009
     7  Na  -0.040556  -0.146249
 Sum of Mulliken charges =  -0.00000   1.00000

 Dipole moment (field-independent basis, Debye):
    X=              2.4684    Y=             -0.3836    Z=              0.4902  Tot=              2.5457
 Quadrupole moment (field-independent basis, Debye-Ang):
   XX=            -65.1529   YY=            -75.9791   ZZ=            -61.8230
   XY=              1.5315   XZ=              4.4479   YZ=              2.5253

 Normal termination of Gaussian 16 at Sun Dec  3 20:39:05 2023.
