 Gaussian 16, Revision B.01,
 Gaussian 16:  ES64L-G16RevB.01 20-Dec-2017

 -------------------------
 #P B3LYP/6-311+g(d) force
 -------------------------

 -----
 DPGEN
 -----
 Symbolic Z-matrix:
 Charge =  0 Multiplicity = 2

                         Standard orientation:
 ---------------------------------------------------------------------
 Center     Atomic      Atomic             Coordinates (Angstroms)
 Number     Number       Type             X           Y           Z
 ---------------------------------------------------------------------
      1         11           0       -1.387844    0.468044    1.308743
      2         11           0        0.784055   -1.111858    1.396843
      3         11           0       -0.881943    2.108543   -0.756357
      4         11           0        1.490757    1.458442    0.351243
      5         11           0        2.779055   -0.900159   -0.651657
      6         11           0       -0.035845   -0.682557   -1.175957
      7         11           0       -2.748235   -1.340456   -0.472857
 ---------------------------------------------------------------------

 SCF Done:  E(UB3LYP) =  -1136.07014044     A.U. after   22 cycles

 The electronic state is 2-A.
 Alpha  occ. eigenvalues --  -38.44349 -38.44319 -38.44153 -38.44048 -38.43631
 Alpha  occ. eigenvalues --  -38.43499 -38.43342  -2.20560  -2.20392  -2.20329
 Alpha  occ. eigenvalues --   -2.20100  -2.19989  -2.19631  -2.19554  -1.14607
 Alpha  occ. eigenvalues --   -1.14482  -1.14215  -1.14174  -1.14104  -1.14066
 Alpha  occ. eigenvalues --   -1.14010  -1.13975  -1.13875  -1.13815  -1.13712
 Alpha  occ. eigenvalues --   -1.13677  -1.13659  -1.13588  -1.13534  -1.13474
 Alpha  occ. eigenvalues --   -1.13238  -1.13194  -1.13172  -1.13136  -1.12963
 Alpha  occ. eigenvalues --   -0.21406  -0.14323  -0.12225  -0.12146
 Alpha virt. eigenvalues --   -0.05744  -0.04449  -0.03884  -0.03501  -0.02672
 Alpha virt. eigenvalues --   -0.02548  -0.01536  -0.00564  -0.00229   0.00294
 Alpha virt. eigenvalues --    0.00663   0.00732   0.00947   0.01035   0.01091

  Beta  occ. eigenvalues --  -38.44333 -38.44249 -38.44145 -38.43990 -38.43573
  Beta  occ. eigenvalues --  -38.43479 -38.43321  -2.20441  -2.20362  -2.20230
  Beta  occ. eigenvalues --   -2.20086  -2.19889  -2.19600  -2.19523  -1.14521
  Beta  occ. eigenvalues --   -1.14408  -1.14149  -1.14094  -1.14053  -1.14034
  Beta  occ. eigenvalues --   -1.13971  -1.13926  -1.13838  -1.13733  -1.13665
  Beta  occ. eigenvalues --   -1.13656  -1.13618  -1.13515  -1.13478  -1.13414
  Beta  occ. eigenvalues --   -1.13210  -1.13151  -1.13133  -1.13061  -1.12944
  Beta  occ. eigenvalues --   -0.20541  -0.14065  -0.11994
  Beta virt. eigenvalues --   -0.07737  -0.05682  -0.04360  -0.03455  -0.03080
  Beta virt. eigenvalues --   -0.01987  -0.01487  -0.01391  -0.00513   0.00005
  Beta virt. eigenvalues --    0.00331   0.00679   0.00799   0.00956   0.01059

 Mulliken charges and spin densities:
               1          2
     1  Na   0.158831  -0.145913
     2  Na  -0.429793   0.283821
     3  Na   0.154809  -0.032886
     4  Na  -0.384137   0.455657
     5  Na   1.758563  -0.057680
     6  Na  -0.843207   0.456669
     7  Na  -0.415066   0.040332
 Sum of Mulliken charges =  -0.00000   1.00000

 Dipole moment (field-independent basis, Debye):
    X=             -0.0668    Y=             -0.2228    Z=             -0.2943  Tot=              0.3751
 Quadrupole moment (field-independent basis, Debye-Ang):
   XX=            -54.4163   YY=            -72.1958   ZZ=            -68.4274
   XY=              0.0424   XZ=             -0.1369   YZ=              0.0751

 Normal termination of Gaussian 16 at Fri Dec  8 19:44:49 2023.
