 Gaussian 16, Revision B.01,
 Gaussian 16:  ES64L-G16RevB.01 20-Dec-2017

 -------------------------
 #P B3LYP/6-311+g(d) force
 -------------------------

 -----
 DPGEN
 -----
 Symbolic Z-matrix:
 Charge =  0 Multiplicity = 2

                         Standard orientation:
 ---------------------------------------------------------------------
 Center     Atomic      Atomic             Coordinates (Angstroms)
 Number     Number       Type             X           Y           Z
 ---------------------------------------------------------------------
      1         11           0       -2.471976   -0.499454    1.102573
      2         11           0        0.704964   -1.708985    1.761517
      3         11           0       -1.246934    2.296523   -1.591116
      4         11           0       -0.226774    2.382666    1.737493
      5         11           0       -1.448292   -2.629319   -1.373233
      6         11           0        1.028612    0.385430   -1.481052
      7         11           0        3.660400   -0.226862   -0.156181
 ---------------------------------------------------------------------

 SCF Done:  E(UB3LYP) =  -1136.12500016     A.U. after   20 cycles

 The electronic state is 2-A.
 Alpha  occ. eigenvalues --  -38.44560 -38.44361 -38.44303 -38.43816 -38.43695
 Alpha  occ. eigenvalues --  -38.43348 -38.43195  -2.20362  -2.20164  -2.20098
 Alpha  occ. eigenvalues --   -2.19646  -2.19553  -2.19168  -2.19141  -1.14021
 Alpha  occ. eigenvalues --   -1.14009  -1.13988  -1.13857  -1.13823  -1.13775
 Alpha  occ. eigenvalues --   -1.13757  -1.13754  -1.13717  -1.13339  -1.13327
 Alpha  occ. eigenvalues --   -1.13313  -1.13261  -1.13177  -1.13159  -1.12971
 Alpha  occ. eigenvalues --   -1.12816  -1.12803  -1.12775  -1.12761  -1.12718
 Alpha  occ. eigenvalues --   -0.17841  -0.12309  -0.12223  -0.11829
 Alpha virt. eigenvalues --   -0.05488  -0.05287  -0.04481  -0.03517  -0.03239
 Alpha virt. eigenvalues --   -0.03096  -0.01201  -0.01155  -0.00753   0.00113
 Alpha virt. eigenvalues --    0.00266   0.00318   0.00390   0.00659   0.00802

  Beta  occ. eigenvalues --  -38.44515 -38.44329 -38.44262 -38.43805 -38.43669
  Beta  occ. eigenvalues --  -38.43352 -38.43155  -2.20277  -2.20106  -2.20021
  Beta  occ. eigenvalues --   -2.19629  -2.19507  -2.19174  -2.19073  -1.13960
  Beta  occ. eigenvalues --   -1.13950  -1.13928  -1.13814  -1.13772  -1.13737
  Beta  occ. eigenvalues --   -1.13703  -1.13697  -1.13669  -1.13317  -1.13292
  Beta  occ. eigenvalues --   -1.13281  -1.13246  -1.13147  -1.13124  -1.12952
  Beta  occ. eigenvalues --   -1.12817  -1.12799  -1.12737  -1.12716  -1.12674
  Beta  occ. eigenvalues --   -0.17056  -0.12129  -0.12076
  Beta virt. eigenvalues --   -0.07999  -0.05207  -0.04740  -0.04241  -0.03288
  Beta virt. eigenvalues --   -0.02759  -0.02300  -0.01142  -0.00953  -0.00460
  Beta virt. eigenvalues --    0.00207   0.00374   0.00394   0.00491   0.00719

 Mulliken charges and spin densities:
               1          2
     1  Na   0.177390   0.159954
     2  Na   0.041191   0.129157
     3  Na   0.365646   0.038408
     4  Na  -0.234335   0.271719
     5  Na  -0.132685   0.222096
     6  Na  -0.437890   0.138699
     7  Na   0.220683   0.039967
 Sum of Mulliken charges =  -0.00000   1.00000

 Dipole moment (field-independent basis, Debye):
    X=             -0.4017    Y=             -0.0588    Z=              0.5319  Tot=              0.6691
 Quadrupole moment (field-independent basis, Debye-Ang):
   XX=            -65.3615   YY=            -66.8961   ZZ=            -63.7123
   XY=             -0.3502   XZ=              3.6542   YZ=              3.2327

 Normal termination of Gaussian 16 at Sun Dec  3 15:11:49 2023.
