 Gaussian 16, Revision B.01,
 Gaussian 16:  ES64L-G16RevB.01 20-Dec-2017

 -------------------------
 #P B3LYP/6-311+g(d) force
 -------------------------

 -----
 DPGEN
 -----
 Symbolic Z-matrix:
 Charge =  0 Multiplicity = 2

                         Standard orientation:
 ---------------------------------------------------------------------
 Center     Atomic      Atomic             Coordinates (Angstroms)
 Number     Number       Type             X           Y           Z
 ---------------------------------------------------------------------
      1         11           0        0.438779   -0.144701   -1.476629
      2         11           0        3.049164   -0.957786    0.092439
      3         11           0       -0.373736   -0.125395    2.654183
      4         11           0       -2.884472   -0.898152   -0.129123
      5         11           0       -1.757041    2.447406   -0.540439
      6         11           0        1.721670    2.392497   -0.042123
      7         11           0       -0.194365   -2.713868   -0.558306
 ---------------------------------------------------------------------

 SCF Done:  E(UB3LYP) =  -1136.12974007     A.U. after   19 cycles

 The electronic state is 2-A.
 Alpha  occ. eigenvalues --  -38.44715 -38.43941 -38.43707 -38.43576 -38.43480
 Alpha  occ. eigenvalues --  -38.43456 -38.43353  -2.20513  -2.19772  -2.19547
 Alpha  occ. eigenvalues --   -2.19427  -2.19419  -2.19378  -2.19276  -1.14142
 Alpha  occ. eigenvalues --   -1.14139  -1.14133  -1.13480  -1.13431  -1.13410
 Alpha  occ. eigenvalues --   -1.13385  -1.13228  -1.13211  -1.13201  -1.13157
 Alpha  occ. eigenvalues --   -1.13084  -1.13054  -1.13045  -1.13017  -1.12998
 Alpha  occ. eigenvalues --   -1.12963  -1.12946  -1.12928  -1.12910  -1.12904
 Alpha  occ. eigenvalues --   -0.18400  -0.12833  -0.12412  -0.11359
 Alpha virt. eigenvalues --   -0.05434  -0.05170  -0.04535  -0.03531  -0.03161
 Alpha virt. eigenvalues --   -0.02901  -0.01373  -0.00982  -0.00305  -0.00204
 Alpha virt. eigenvalues --   -0.00087   0.00337   0.00756   0.00881   0.00908

  Beta  occ. eigenvalues --  -38.44589 -38.43940 -38.43705 -38.43575 -38.43468
  Beta  occ. eigenvalues --  -38.43449 -38.43311  -2.20280  -2.19772  -2.19548
  Beta  occ. eigenvalues --   -2.19419  -2.19386  -2.19327  -2.19264  -1.13984
  Beta  occ. eigenvalues --   -1.13979  -1.13970  -1.13476  -1.13421  -1.13406
  Beta  occ. eigenvalues --   -1.13355  -1.13229  -1.13205  -1.13188  -1.13143
  Beta  occ. eigenvalues --   -1.13071  -1.13042  -1.13018  -1.12986  -1.12968
  Beta  occ. eigenvalues --   -1.12945  -1.12920  -1.12916  -1.12903  -1.12869
  Beta  occ. eigenvalues --   -0.17744  -0.12673  -0.12214
  Beta virt. eigenvalues --   -0.07214  -0.05370  -0.05136  -0.04471  -0.02625
  Beta virt. eigenvalues --   -0.02245  -0.02085  -0.01287  -0.00926  -0.00335
  Beta virt. eigenvalues --   -0.00231   0.00125   0.00387   0.00879   0.00892

 Mulliken charges and spin densities:
               1          2
     1  Na   0.077726  -0.149850
     2  Na   0.036788   0.101625
     3  Na  -0.746401   0.752125
     4  Na   0.119555   0.079030
     5  Na   0.082302   0.038799
     6  Na   0.051065   0.075343
     7  Na   0.378964   0.102929
 Sum of Mulliken charges =  -0.00000   1.00000

 Dipole moment (field-independent basis, Debye):
    X=              0.1688    Y=             -0.0015    Z=              0.4594  Tot=              0.4894
 Quadrupole moment (field-independent basis, Debye-Ang):
   XX=            -58.7002   YY=            -64.9787   ZZ=            -71.9747
   XY=             -0.3715   XZ=              1.7270   YZ=             -0.1499

 Normal termination of Gaussian 16 at Thu Dec  7 10:51:07 2023.
