 Gaussian 16, Revision B.01,
 Gaussian 16:  ES64L-G16RevB.01 20-Dec-2017

 -------------------------
 #P B3LYP/6-311+g(d) force
 -------------------------

 -----
 DPGEN
 -----
 Symbolic Z-matrix:
 Charge =  0 Multiplicity = 2

                         Standard orientation:
 ---------------------------------------------------------------------
 Center     Atomic      Atomic             Coordinates (Angstroms)
 Number     Number       Type             X           Y           Z
 ---------------------------------------------------------------------
      1         11           0       -0.838717    2.806289    0.203541
      2         11           0        3.012532    1.386825   -0.129904
      3         11           0       -1.796388   -2.489023    0.207972
      4         11           0       -0.412115    0.020705   -1.795758
      5         11           0        2.667790   -1.838905   -0.389743
      6         11           0       -3.182316    0.386905   -0.050838
      7         11           0        0.549214   -0.272796    1.954730
 ---------------------------------------------------------------------

 SCF Done:  E(UB3LYP) =  -1136.13230556     A.U. after   19 cycles

 The electronic state is 2-A.
 Alpha  occ. eigenvalues --  -38.44612 -38.44377 -38.44216 -38.43745 -38.43601
 Alpha  occ. eigenvalues --  -38.43308 -38.42878  -2.20419  -2.20250  -2.20037
 Alpha  occ. eigenvalues --   -2.19647  -2.19471  -2.19150  -2.18708  -1.14093
 Alpha  occ. eigenvalues --   -1.14088  -1.14060  -1.13936  -1.13911  -1.13892
 Alpha  occ. eigenvalues --   -1.13700  -1.13694  -1.13680  -1.13331  -1.13277
 Alpha  occ. eigenvalues --   -1.13276  -1.13141  -1.13100  -1.13092  -1.12823
 Alpha  occ. eigenvalues --   -1.12808  -1.12793  -1.12385  -1.12376  -1.12348
 Alpha  occ. eigenvalues --   -0.18275  -0.13702  -0.11773  -0.10570
 Alpha virt. eigenvalues --   -0.06151  -0.05633  -0.04321  -0.03543  -0.02624
 Alpha virt. eigenvalues --   -0.02458  -0.01890  -0.01227  -0.00586  -0.00373
 Alpha virt. eigenvalues --   -0.00051   0.00348   0.00661   0.00791   0.00795

  Beta  occ. eigenvalues --  -38.44609 -38.44375 -38.44207 -38.43681 -38.43514
  Beta  occ. eigenvalues --  -38.43304 -38.42874  -2.20415  -2.20249  -2.20022
  Beta  occ. eigenvalues --   -2.19529  -2.19312  -2.19145  -2.18704  -1.14092
  Beta  occ. eigenvalues --   -1.14068  -1.14058  -1.13931  -1.13899  -1.13890
  Beta  occ. eigenvalues --   -1.13687  -1.13674  -1.13666  -1.13250  -1.13194
  Beta  occ. eigenvalues --   -1.13189  -1.13035  -1.12987  -1.12976  -1.12823
  Beta  occ. eigenvalues --   -1.12799  -1.12775  -1.12384  -1.12362  -1.12338
  Beta  occ. eigenvalues --   -0.17573  -0.13495  -0.11562
  Beta virt. eigenvalues --   -0.06749  -0.06011  -0.05633  -0.04220  -0.02822
  Beta virt. eigenvalues --   -0.01905  -0.01777  -0.01474  -0.01155  -0.00618
  Beta virt. eigenvalues --   -0.00406   0.00119   0.00386   0.00762   0.00798

 Mulliken charges and spin densities:
               1          2
     1  Na  -0.156236  -0.106027
     2  Na   0.043018  -0.039531
     3  Na   0.033991  -0.100758
     4  Na  -0.061754   0.515258
     5  Na   0.083915  -0.030066
     6  Na   0.282041   0.029184
     7  Na  -0.224976   0.731940
 Sum of Mulliken charges =  -0.00000   1.00000

 Dipole moment (field-independent basis, Debye):
    X=              0.4237    Y=             -0.0614    Z=             -0.0671  Tot=              0.4334
 Quadrupole moment (field-independent basis, Debye-Ang):
   XX=            -53.1696   YY=            -66.2268   ZZ=            -74.8270
   XY=              0.4437   XZ=             -1.5918   YZ=              0.7334

 Normal termination of Gaussian 16 at Sun Dec  3 23:09:55 2023.
