 Gaussian 16, Revision B.01,
 Gaussian 16:  ES64L-G16RevB.01 20-Dec-2017

 -------------------------
 #P B3LYP/6-311+g(d) force
 -------------------------

 -----
 DPGEN
 -----
 Symbolic Z-matrix:
 Charge =  0 Multiplicity = 2

                         Standard orientation:
 ---------------------------------------------------------------------
 Center     Atomic      Atomic             Coordinates (Angstroms)
 Number     Number       Type             X           Y           Z
 ---------------------------------------------------------------------
      1         11           0       -4.893998   -1.164144    0.926616
      2         11           0       -0.706267    3.282391   -0.715652
      3         11           0       -3.280354    1.179864   -0.348591
      4         11           0        2.987379    2.281216    1.029633
      5         11           0        4.380857   -0.130709   -0.171904
      6         11           0        2.108289   -3.327353    0.049546
      7         11           0       -0.595906   -2.121265   -0.769648
 ---------------------------------------------------------------------

 SCF Done:  E(UB3LYP) =  -1136.10907527     A.U. after   19 cycles

 The electronic state is 2-A.
 Alpha  occ. eigenvalues --  -38.44881 -38.44728 -38.44696 -38.44556 -38.44208
 Alpha  occ. eigenvalues --  -38.43990 -38.43706  -2.20704  -2.20538  -2.20477
 Alpha  occ. eigenvalues --   -2.20349  -2.19997  -2.19825  -2.19513  -1.14366
 Alpha  occ. eigenvalues --   -1.14333  -1.14318  -1.14242  -1.14191  -1.14159
 Alpha  occ. eigenvalues --   -1.14155  -1.14140  -1.14113  -1.14001  -1.13996
 Alpha  occ. eigenvalues --   -1.13970  -1.13668  -1.13656  -1.13633  -1.13506
 Alpha  occ. eigenvalues --   -1.13493  -1.13480  -1.13189  -1.13168  -1.13149
 Alpha  occ. eigenvalues --   -0.15775  -0.14191  -0.12752  -0.11446
 Alpha virt. eigenvalues --   -0.06530  -0.05567  -0.04199  -0.03511  -0.03071
 Alpha virt. eigenvalues --   -0.02615  -0.02186  -0.01741  -0.01368  -0.00946
 Alpha virt. eigenvalues --   -0.00461  -0.00141  -0.00057   0.00469   0.00713

  Beta  occ. eigenvalues --  -38.44790 -38.44688 -38.44677 -38.44477 -38.44206
  Beta  occ. eigenvalues --  -38.43979 -38.43701  -2.20535  -2.20467  -2.20443
  Beta  occ. eigenvalues --   -2.20204  -2.19999  -2.19816  -2.19506  -1.14253
  Beta  occ. eigenvalues --   -1.14218  -1.14205  -1.14192  -1.14143  -1.14136
  Beta  occ. eigenvalues --   -1.14116  -1.14105  -1.14086  -1.13901  -1.13897
  Beta  occ. eigenvalues --   -1.13872  -1.13664  -1.13661  -1.13620  -1.13503
  Beta  occ. eigenvalues --   -1.13491  -1.13415  -1.13176  -1.13164  -1.13144
  Beta  occ. eigenvalues --   -0.15197  -0.13444  -0.12104
  Beta virt. eigenvalues --   -0.08186  -0.06528  -0.05153  -0.03864  -0.03300
  Beta virt. eigenvalues --   -0.02704  -0.02327  -0.01970  -0.01584  -0.00981
  Beta virt. eigenvalues --   -0.00663  -0.00150   0.00044   0.00132   0.00519

 Mulliken charges and spin densities:
               1          2
     1  Na   0.970176   0.338132
     2  Na  -0.039558   0.253897
     3  Na  -0.702972   0.229288
     4  Na   0.061897  -0.050494
     5  Na  -0.250899   0.192501
     6  Na   0.411307  -0.029334
     7  Na  -0.449952   0.066009
 Sum of Mulliken charges =  -0.00000   1.00000

 Dipole moment (field-independent basis, Debye):
    X=             -0.0938    Y=             -0.4116    Z=              0.2528  Tot=              0.4920
 Quadrupole moment (field-independent basis, Debye-Ang):
   XX=            -60.4117   YY=            -67.5241   ZZ=            -70.8029
   XY=             -0.9838   XZ=             -2.2790   YZ=             -1.6473

 Normal termination of Gaussian 16 at Sun Dec  3 21:31:57 2023.
