 Gaussian 16, Revision B.01,
 Gaussian 16:  ES64L-G16RevB.01 20-Dec-2017

 -------------------------
 #P B3LYP/6-311+g(d) force
 -------------------------

 -----
 DPGEN
 -----
 Symbolic Z-matrix:
 Charge =  0 Multiplicity = 2

                         Standard orientation:
 ---------------------------------------------------------------------
 Center     Atomic      Atomic             Coordinates (Angstroms)
 Number     Number       Type             X           Y           Z
 ---------------------------------------------------------------------
      1         11           0        3.681384   -0.786621   -0.688699
      2         11           0        1.600452    1.623683    1.121193
      3         11           0       -1.289317    3.268968   -0.859903
      4         11           0       -3.278634   -2.017528   -0.615171
      5         11           0       -0.126289    0.188544   -1.329906
      6         11           0        0.792750   -2.403056    0.332357
      7         11           0       -1.380347    0.126011    2.040129
 ---------------------------------------------------------------------

 SCF Done:  E(UB3LYP) =  -1136.12854352     A.U. after   20 cycles

 The electronic state is 2-A.
 Alpha  occ. eigenvalues --  -38.44361 -38.44099 -38.43905 -38.43812 -38.43793
 Alpha  occ. eigenvalues --  -38.43669 -38.43434  -2.20105  -2.19932  -2.19701
 Alpha  occ. eigenvalues --   -2.19666  -2.19644  -2.19465  -2.19376  -1.13780
 Alpha  occ. eigenvalues --   -1.13773  -1.13725  -1.13670  -1.13611  -1.13519
 Alpha  occ. eigenvalues --   -1.13389  -1.13370  -1.13367  -1.13347  -1.13327
 Alpha  occ. eigenvalues --   -1.13314  -1.13283  -1.13261  -1.13237  -1.13156
 Alpha  occ. eigenvalues --   -1.13118  -1.13089  -1.13084  -1.12996  -1.12988
 Alpha  occ. eigenvalues --   -0.17942  -0.12610  -0.12124  -0.10781
 Alpha virt. eigenvalues --   -0.06144  -0.05387  -0.04508  -0.02941  -0.02936
 Alpha virt. eigenvalues --   -0.02354  -0.01983  -0.01449  -0.00877  -0.00139
 Alpha virt. eigenvalues --    0.00070   0.00218   0.00552   0.00638   0.00745

  Beta  occ. eigenvalues --  -38.44354 -38.44095 -38.43901 -38.43785 -38.43715
  Beta  occ. eigenvalues --  -38.43641 -38.43396  -2.20092  -2.19926  -2.19693
  Beta  occ. eigenvalues --   -2.19619  -2.19504  -2.19414  -2.19307  -1.13767
  Beta  occ. eigenvalues --   -1.13762  -1.13718  -1.13667  -1.13584  -1.13520
  Beta  occ. eigenvalues --   -1.13363  -1.13358  -1.13353  -1.13325  -1.13277
  Beta  occ. eigenvalues --   -1.13238  -1.13223  -1.13183  -1.13136  -1.13110
  Beta  occ. eigenvalues --   -1.13084  -1.13054  -1.13023  -1.12948  -1.12940
  Beta  occ. eigenvalues --   -0.17257  -0.12413  -0.11891
  Beta virt. eigenvalues --   -0.06936  -0.06029  -0.05166  -0.04328  -0.02577
  Beta virt. eigenvalues --   -0.02390  -0.01893  -0.01513  -0.01281  -0.00523
  Beta virt. eigenvalues --   -0.00113   0.00147   0.00252   0.00646   0.00758

 Mulliken charges and spin densities:
               1          2
     1  Na   0.207224  -0.059119
     2  Na   0.035803   0.201112
     3  Na  -0.103054   0.011136
     4  Na  -0.077088  -0.015693
     5  Na  -0.252836   0.473530
     6  Na   0.050356   0.097249
     7  Na   0.139596   0.291784
 Sum of Mulliken charges =  -0.00000   1.00000

 Dipole moment (field-independent basis, Debye):
    X=             -0.0739    Y=             -0.1046    Z=              0.1355  Tot=              0.1864
 Quadrupole moment (field-independent basis, Debye-Ang):
   XX=            -54.6663   YY=            -64.6687   ZZ=            -72.1860
   XY=              0.2779   XZ=              0.2135   YZ=              0.5045

 Normal termination of Gaussian 16 at Tue Dec  5 11:30:56 2023.
