 Gaussian 16, Revision B.01,
 Gaussian 16:  ES64L-G16RevB.01 20-Dec-2017

 -------------------------
 #P B3LYP/6-311+g(d) force
 -------------------------

 -----
 DPGEN
 -----
 Symbolic Z-matrix:
 Charge =  0 Multiplicity = 2

                         Standard orientation:
 ---------------------------------------------------------------------
 Center     Atomic      Atomic             Coordinates (Angstroms)
 Number     Number       Type             X           Y           Z
 ---------------------------------------------------------------------
      1         11           0        1.196421   -0.056613    2.153007
      2         11           0       -0.362388    2.596023   -0.166775
      3         11           0       -2.645740   -0.000044    1.300391
      4         11           0        2.950963   -2.341679    0.019568
      5         11           0       -4.762356   -0.845816   -0.929967
      6         11           0        0.608782   -0.805164   -1.446777
      7         11           0        3.014319    1.453292   -0.929447
 ---------------------------------------------------------------------

 SCF Done:  E(UB3LYP) =  -1136.11898929     A.U. after   23 cycles

 The electronic state is 2-A.
 Alpha  occ. eigenvalues --  -38.45162 -38.44926 -38.44473 -38.44169 -38.43683
 Alpha  occ. eigenvalues --  -38.43224 -38.43170  -2.21029  -2.20751  -2.20321
 Alpha  occ. eigenvalues --   -2.19958  -2.19500  -2.19029  -2.19012  -1.14712
 Alpha  occ. eigenvalues --   -1.14692  -1.14665  -1.14436  -1.14400  -1.14351
 Alpha  occ. eigenvalues --   -1.13994  -1.13960  -1.13917  -1.13623  -1.13606
 Alpha  occ. eigenvalues --   -1.13599  -1.13181  -1.13170  -1.13134  -1.12716
 Alpha  occ. eigenvalues --   -1.12696  -1.12689  -1.12664  -1.12662  -1.12656
 Alpha  occ. eigenvalues --   -0.17856  -0.13604  -0.11385  -0.11136
 Alpha virt. eigenvalues --   -0.07029  -0.04977  -0.04855  -0.03173  -0.02853
 Alpha virt. eigenvalues --   -0.02559  -0.02283  -0.01388  -0.01219  -0.00563
 Alpha virt. eigenvalues --   -0.00082   0.00082   0.00202   0.00466   0.00671

  Beta  occ. eigenvalues --  -38.45142 -38.44894 -38.44379 -38.44135 -38.43677
  Beta  occ. eigenvalues --  -38.43223 -38.43168  -2.20994  -2.20693  -2.20147
  Beta  occ. eigenvalues --   -2.19893  -2.19493  -2.19030  -2.19012  -1.14682
  Beta  occ. eigenvalues --   -1.14653  -1.14645  -1.14382  -1.14366  -1.14314
  Beta  occ. eigenvalues --   -1.13875  -1.13844  -1.13787  -1.13582  -1.13561
  Beta  occ. eigenvalues --   -1.13555  -1.13180  -1.13169  -1.13095  -1.12717
  Beta  occ. eigenvalues --   -1.12699  -1.12682  -1.12661  -1.12657  -1.12642
  Beta  occ. eigenvalues --   -0.17189  -0.13252  -0.11144
  Beta virt. eigenvalues --   -0.07502  -0.06744  -0.04864  -0.04355  -0.02920
  Beta virt. eigenvalues --   -0.02447  -0.02103  -0.01789  -0.01155  -0.00848
  Beta virt. eigenvalues --   -0.00496   0.00012   0.00162   0.00325   0.00546

 Mulliken charges and spin densities:
               1          2
     1  Na  -0.158774   0.492406
     2  Na   0.032206  -0.019356
     3  Na   0.010443   0.010615
     4  Na   0.272265  -0.073219
     5  Na   0.022021   0.182242
     6  Na  -0.415282   0.330900
     7  Na   0.237120   0.076412
 Sum of Mulliken charges =  -0.00000   1.00000

 Dipole moment (field-independent basis, Debye):
    X=              1.0675    Y=              0.4206    Z=             -0.3861  Tot=              1.2106
 Quadrupole moment (field-independent basis, Debye-Ang):
   XX=            -57.4875   YY=            -73.1183   ZZ=            -68.0169
   XY=              1.5087   XZ=              3.7175   YZ=              1.4847

 Normal termination of Gaussian 16 at Thu Dec  7 21:23:47 2023.
