 Gaussian 16, Revision B.01,
 Gaussian 16:  ES64L-G16RevB.01 20-Dec-2017

 -------------------------
 #P B3LYP/6-311+g(d) force
 -------------------------

 -----
 DPGEN
 -----
 Symbolic Z-matrix:
 Charge =  0 Multiplicity = 2

                         Standard orientation:
 ---------------------------------------------------------------------
 Center     Atomic      Atomic             Coordinates (Angstroms)
 Number     Number       Type             X           Y           Z
 ---------------------------------------------------------------------
      1         11           0       -1.114490   -2.233555   -0.341607
      2         11           0        4.743244   -1.135316    0.139720
      3         11           0        3.080753    1.790559    1.459966
      4         11           0       -3.726948    1.694792   -1.004794
      5         11           0       -4.313982   -1.296102    1.519176
      6         11           0       -0.512545    1.727387   -0.227457
      7         11           0        1.843968   -0.547766   -1.545005
 ---------------------------------------------------------------------

 SCF Done:  E(UB3LYP) =  -1136.10630308     A.U. after   26 cycles

 The electronic state is 2-A.
 Alpha  occ. eigenvalues --  -38.45463 -38.45073 -38.44965 -38.44467 -38.44316
 Alpha  occ. eigenvalues --  -38.43974 -38.42841  -2.21219  -2.20838  -2.20755
 Alpha  occ. eigenvalues --   -2.20226  -2.20161  -2.19735  -2.18663  -1.14906
 Alpha  occ. eigenvalues --   -1.14864  -1.14847  -1.14511  -1.14502  -1.14464
 Alpha  occ. eigenvalues --   -1.14423  -1.14408  -1.14385  -1.13894  -1.13867
 Alpha  occ. eigenvalues --   -1.13850  -1.13837  -1.13823  -1.13787  -1.13431
 Alpha  occ. eigenvalues --   -1.13406  -1.13354  -1.12350  -1.12329  -1.12301
 Alpha  occ. eigenvalues --   -0.16720  -0.14202  -0.11360  -0.10801
 Alpha virt. eigenvalues --   -0.07637  -0.05508  -0.04444  -0.03659  -0.03034
 Alpha virt. eigenvalues --   -0.02389  -0.02311  -0.01840  -0.01093  -0.00667
 Alpha virt. eigenvalues --   -0.00190  -0.00124   0.00098   0.00206   0.00473

  Beta  occ. eigenvalues --  -38.45440 -38.45057 -38.44933 -38.44414 -38.44271
  Beta  occ. eigenvalues --  -38.43953 -38.42823  -2.21176  -2.20808  -2.20696
  Beta  occ. eigenvalues --   -2.20127  -2.20083  -2.19702  -2.18633  -1.14878
  Beta  occ. eigenvalues --   -1.14837  -1.14805  -1.14490  -1.14483  -1.14436
  Beta  occ. eigenvalues --   -1.14385  -1.14369  -1.14337  -1.13826  -1.13797
  Beta  occ. eigenvalues --   -1.13787  -1.13782  -1.13766  -1.13714  -1.13413
  Beta  occ. eigenvalues --   -1.13382  -1.13308  -1.12327  -1.12292  -1.12289
  Beta  occ. eigenvalues --   -0.16000  -0.13610  -0.10672
  Beta virt. eigenvalues --   -0.07838  -0.07566  -0.04945  -0.04108  -0.03325
  Beta virt. eigenvalues --   -0.02837  -0.02150  -0.01863  -0.01534  -0.00813
  Beta virt. eigenvalues --   -0.00529  -0.00130   0.00063   0.00147   0.00331

 Mulliken charges and spin densities:
               1          2
     1  Na  -0.223981   0.071168
     2  Na   0.008190   0.194496
     3  Na   0.333594   0.306569
     4  Na   0.393242   0.162034
     5  Na   0.148544   0.357525
     6  Na  -1.152948  -0.182916
     7  Na   0.493360   0.091124
 Sum of Mulliken charges =  -0.00000   1.00000

 Dipole moment (field-independent basis, Debye):
    X=              0.9298    Y=              0.1545    Z=              0.3602  Tot=              1.0091
 Quadrupole moment (field-independent basis, Debye-Ang):
   XX=            -53.8540   YY=            -76.4659   ZZ=            -65.4203
   XY=             -3.8579   XZ=              2.2400   YZ=              0.2508

 Normal termination of Gaussian 16 at Sun Dec  3 22:12:18 2023.
