 Gaussian 16, Revision B.01,
 Gaussian 16:  ES64L-G16RevB.01 20-Dec-2017

 -------------------------
 #P B3LYP/6-311+g(d) force
 -------------------------

 -----
 DPGEN
 -----
 Symbolic Z-matrix:
 Charge =  0 Multiplicity = 2

                         Standard orientation:
 ---------------------------------------------------------------------
 Center     Atomic      Atomic             Coordinates (Angstroms)
 Number     Number       Type             X           Y           Z
 ---------------------------------------------------------------------
      1         11           0       -2.382361    1.262866    0.768247
      2         11           0        0.815762    0.205690    1.590851
      3         11           0       -0.093974   -0.740699   -1.437436
      4         11           0        2.881007    0.576673   -0.725783
      5         11           0       -3.752624   -1.617778   -0.359768
      6         11           0        2.254713   -2.553075    0.552712
      7         11           0        0.277477    2.866324   -0.388823
 ---------------------------------------------------------------------

 SCF Done:  E(UB3LYP) =  -1136.12866693     A.U. after   21 cycles

 The electronic state is 2-A.
 Alpha  occ. eigenvalues --  -38.44297 -38.44129 -38.43967 -38.43754 -38.43585
 Alpha  occ. eigenvalues --  -38.43409 -38.42922  -2.20223  -2.19900  -2.19864
 Alpha  occ. eigenvalues --   -2.19608  -2.19461  -2.19415  -2.18803  -1.13932
 Alpha  occ. eigenvalues --   -1.13898  -1.13820  -1.13590  -1.13571  -1.13565
 Alpha  occ. eigenvalues --   -1.13536  -1.13509  -1.13464  -1.13289  -1.13261
 Alpha  occ. eigenvalues --   -1.13242  -1.13161  -1.13140  -1.13097  -1.13081
 Alpha  occ. eigenvalues --   -1.13071  -1.12985  -1.12475  -1.12463  -1.12449
 Alpha  occ. eigenvalues --   -0.18731  -0.13623  -0.12030  -0.10562
 Alpha virt. eigenvalues --   -0.06381  -0.05388  -0.04469  -0.03124  -0.02597
 Alpha virt. eigenvalues --   -0.02290  -0.01883  -0.01402  -0.00653  -0.00161
 Alpha virt. eigenvalues --   -0.00019   0.00229   0.00515   0.00735   0.00757

  Beta  occ. eigenvalues --  -38.44265 -38.44127 -38.43920 -38.43736 -38.43568
  Beta  occ. eigenvalues --  -38.43345 -38.42917  -2.20168  -2.19896  -2.19780
  Beta  occ. eigenvalues --   -2.19578  -2.19430  -2.19299  -2.18799  -1.13898
  Beta  occ. eigenvalues --   -1.13837  -1.13776  -1.13569  -1.13560  -1.13531
  Beta  occ. eigenvalues --   -1.13528  -1.13449  -1.13397  -1.13256  -1.13240
  Beta  occ. eigenvalues --   -1.13216  -1.13130  -1.13120  -1.13044  -1.13020
  Beta  occ. eigenvalues --   -1.12998  -1.12897  -1.12476  -1.12464  -1.12411
  Beta  occ. eigenvalues --   -0.18036  -0.13395  -0.11760
  Beta virt. eigenvalues --   -0.06789  -0.06194  -0.05273  -0.04223  -0.02649
  Beta virt. eigenvalues --   -0.02065  -0.01986  -0.01340  -0.01053  -0.00628
  Beta virt. eigenvalues --    0.00038   0.00048   0.00279   0.00626   0.00803

 Mulliken charges and spin densities:
               1          2
     1  Na   0.181245   0.036802
     2  Na  -0.114348   0.319137
     3  Na  -0.483275   0.370994
     4  Na   0.560729   0.251363
     5  Na  -0.030778  -0.027329
     6  Na   0.137897   0.039960
     7  Na  -0.251470   0.009074
 Sum of Mulliken charges =  -0.00000   1.00000

 Dipole moment (field-independent basis, Debye):
    X=              0.3933    Y=             -0.3178    Z=             -0.1160  Tot=              0.5188
 Quadrupole moment (field-independent basis, Debye-Ang):
   XX=            -55.4200   YY=            -63.2168   ZZ=            -74.4098
   XY=             -0.2747   XZ=             -1.3320   YZ=             -0.8541

 Normal termination of Gaussian 16 at Tue Dec  5 21:16:15 2023.
