 Gaussian 16, Revision B.01,
 Gaussian 16:  ES64L-G16RevB.01 20-Dec-2017

 -------------------------
 #P B3LYP/6-311+g(d) force
 -------------------------

 -----
 DPGEN
 -----
 Symbolic Z-matrix:
 Charge =  0 Multiplicity = 2

                         Standard orientation:
 ---------------------------------------------------------------------
 Center     Atomic      Atomic             Coordinates (Angstroms)
 Number     Number       Type             X           Y           Z
 ---------------------------------------------------------------------
      1         11           0        0.797754   -0.250623   -0.683792
      2         11           0        6.428391   -1.137227    0.452735
      3         11           0       -2.403120   -1.772701    0.639531
      4         11           0       -5.431396   -1.121763   -0.220377
      5         11           0       -0.385151    2.126972    1.287110
      6         11           0       -3.376562    1.477040   -0.634799
      7         11           0        4.370084    0.678303   -0.840408
 ---------------------------------------------------------------------

 SCF Done:  E(UB3LYP) =  -1136.11564684     A.U. after   19 cycles

 The electronic state is 2-A.
 Alpha  occ. eigenvalues --  -38.44310 -38.44295 -38.44282 -38.44233 -38.43950
 Alpha  occ. eigenvalues --  -38.43945 -38.43775  -2.20156  -2.20138  -2.20076
 Alpha  occ. eigenvalues --   -2.20039  -2.19770  -2.19759  -2.19606  -1.13833
 Alpha  occ. eigenvalues --   -1.13825  -1.13816  -1.13784  -1.13783  -1.13780
 Alpha  occ. eigenvalues --   -1.13749  -1.13726  -1.13723  -1.13707  -1.13691
 Alpha  occ. eigenvalues --   -1.13682  -1.13443  -1.13431  -1.13420  -1.13411
 Alpha  occ. eigenvalues --   -1.13395  -1.13378  -1.13270  -1.13261  -1.13249
 Alpha  occ. eigenvalues --   -0.16760  -0.13975  -0.12052  -0.10644
 Alpha virt. eigenvalues --   -0.06791  -0.05790  -0.04134  -0.03498  -0.02907
 Alpha virt. eigenvalues --   -0.02562  -0.02005  -0.01785  -0.01184  -0.00977
 Alpha virt. eigenvalues --   -0.00243   0.00028   0.00205   0.00374   0.00555

  Beta  occ. eigenvalues --  -38.44276 -38.44250 -38.44231 -38.44207 -38.43946
  Beta  occ. eigenvalues --  -38.43920 -38.43774  -2.20064  -2.20047  -2.20021
  Beta  occ. eigenvalues --   -2.19993  -2.19761  -2.19714  -2.19607  -1.13776
  Beta  occ. eigenvalues --   -1.13759  -1.13748  -1.13733  -1.13718  -1.13715
  Beta  occ. eigenvalues --   -1.13706  -1.13697  -1.13679  -1.13668  -1.13654
  Beta  occ. eigenvalues --   -1.13629  -1.13423  -1.13416  -1.13404  -1.13389
  Beta  occ. eigenvalues --   -1.13368  -1.13357  -1.13267  -1.13253  -1.13247
  Beta  occ. eigenvalues --   -0.16075  -0.13869  -0.11842
  Beta virt. eigenvalues --   -0.07043  -0.06358  -0.05408  -0.04006  -0.03148
  Beta virt. eigenvalues --   -0.02638  -0.02086  -0.01808  -0.01495  -0.01025
  Beta virt. eigenvalues --   -0.00581  -0.00097   0.00236   0.00304   0.00479

 Mulliken charges and spin densities:
               1          2
     1  Na  -0.369610   0.186170
     2  Na   0.202929   0.013190
     3  Na  -0.255630   0.259390
     4  Na   0.517607  -0.037548
     5  Na   0.183452   0.128451
     6  Na  -0.182693   0.398680
     7  Na  -0.096054   0.051665
 Sum of Mulliken charges =  -0.00000   1.00000

 Dipole moment (field-independent basis, Debye):
    X=             -0.2930    Y=             -0.1778    Z=              0.4413  Tot=              0.5587
 Quadrupole moment (field-independent basis, Debye-Ang):
   XX=            -61.8463   YY=            -69.7270   ZZ=            -66.4675
   XY=             -0.6004   XZ=              4.3172   YZ=             -1.8128

 Normal termination of Gaussian 16 at Sun Dec  3 20:27:43 2023.
