 Gaussian 16, Revision B.01,
 Gaussian 16:  ES64L-G16RevB.01 20-Dec-2017

 -------------------------
 #P B3LYP/6-311+g(d) force
 -------------------------

 -----
 DPGEN
 -----
 Symbolic Z-matrix:
 Charge =  0 Multiplicity = 2

                         Standard orientation:
 ---------------------------------------------------------------------
 Center     Atomic      Atomic             Coordinates (Angstroms)
 Number     Number       Type             X           Y           Z
 ---------------------------------------------------------------------
      1         11           0        1.919657    1.705617   -0.564020
      2         11           0       -1.255124   -0.324002    0.957984
      3         11           0       -1.666570   -2.876614   -0.562184
      4         11           0        1.787048   -1.818283    0.180117
      5         11           0        4.618389    0.010104    0.112783
      6         11           0       -3.983093    0.226597   -0.128125
      7         11           0       -1.420307    3.076581    0.003445
 ---------------------------------------------------------------------

 SCF Done:  E(UB3LYP) =  -1136.12692611     A.U. after   19 cycles

 The electronic state is 2-A.
 Alpha  occ. eigenvalues --  -38.44108 -38.44066 -38.43920 -38.43868 -38.43668
 Alpha  occ. eigenvalues --  -38.43649 -38.43411  -2.19939  -2.19902  -2.19789
 Alpha  occ. eigenvalues --   -2.19724  -2.19660  -2.19509  -2.19211  -1.13664
 Alpha  occ. eigenvalues --   -1.13637  -1.13621  -1.13576  -1.13568  -1.13568
 Alpha  occ. eigenvalues --   -1.13516  -1.13431  -1.13429  -1.13416  -1.13373
 Alpha  occ. eigenvalues --   -1.13330  -1.13321  -1.13287  -1.13235  -1.13158
 Alpha  occ. eigenvalues --   -1.13145  -1.13118  -1.12890  -1.12869  -1.12848
 Alpha  occ. eigenvalues --   -0.17505  -0.14424  -0.12455  -0.10361
 Alpha virt. eigenvalues --   -0.06088  -0.05337  -0.04666  -0.03508  -0.02781
 Alpha virt. eigenvalues --   -0.02103  -0.01971  -0.01165  -0.00853  -0.00643
 Alpha virt. eigenvalues --   -0.00157   0.00012   0.00588   0.00642   0.00722

  Beta  occ. eigenvalues --  -38.44092 -38.44070 -38.43849 -38.43840 -38.43651
  Beta  occ. eigenvalues --  -38.43581 -38.43402  -2.19916  -2.19913  -2.19694
  Beta  occ. eigenvalues --   -2.19646  -2.19628  -2.19381  -2.19197  -1.13671
  Beta  occ. eigenvalues --   -1.13624  -1.13607  -1.13580  -1.13516  -1.13506
  Beta  occ. eigenvalues --   -1.13481  -1.13408  -1.13394  -1.13335  -1.13300
  Beta  occ. eigenvalues --   -1.13280  -1.13277  -1.13237  -1.13196  -1.13070
  Beta  occ. eigenvalues --   -1.13057  -1.13041  -1.12883  -1.12860  -1.12821
  Beta  occ. eigenvalues --   -0.16926  -0.13749  -0.12060
  Beta virt. eigenvalues --   -0.06968  -0.05971  -0.05198  -0.04264  -0.02881
  Beta virt. eigenvalues --   -0.02501  -0.01905  -0.01515  -0.01033  -0.00714
  Beta virt. eigenvalues --   -0.00347   0.00051   0.00342   0.00715   0.00737

 Mulliken charges and spin densities:
               1          2
     1  Na  -0.444127   0.120255
     2  Na  -0.490882   0.052575
     3  Na   0.073039   0.004127
     4  Na  -0.159541   0.019550
     5  Na   0.502297   0.391468
     6  Na   0.278016   0.431605
     7  Na   0.241197  -0.019580
 Sum of Mulliken charges =  -0.00000   1.00000

 Dipole moment (field-independent basis, Debye):
    X=             -0.0135    Y=             -0.3815    Z=             -0.4728  Tot=              0.6077
 Quadrupole moment (field-independent basis, Debye-Ang):
   XX=            -65.6167   YY=            -63.7868   ZZ=            -68.9690
   XY=              0.0081   XZ=              2.5036   YZ=              0.8593

 Normal termination of Gaussian 16 at Wed Nov 29 00:48:26 2023.
