 Gaussian 16, Revision B.01,
 Gaussian 16:  ES64L-G16RevB.01 20-Dec-2017

 -------------------------
 #P B3LYP/6-311+g(d) force
 -------------------------

 -----
 DPGEN
 -----
 Symbolic Z-matrix:
 Charge =  0 Multiplicity = 2

                         Standard orientation:
 ---------------------------------------------------------------------
 Center     Atomic      Atomic             Coordinates (Angstroms)
 Number     Number       Type             X           Y           Z
 ---------------------------------------------------------------------
      1         11           0        2.028317    2.289005    0.063388
      2         11           0       -0.420050    0.112240    1.882986
      3         11           0       -1.125899   -2.612273    0.134597
      4         11           0        2.114203   -1.688964    0.592189
      5         11           0        4.241540   -0.194577   -1.466669
      6         11           0       -4.718577   -0.499722   -1.241091
      7         11           0       -2.119535    2.594292    0.034601
 ---------------------------------------------------------------------

 SCF Done:  E(UB3LYP) =  -1136.11862743     A.U. after   21 cycles

 The electronic state is 2-A.
 Alpha  occ. eigenvalues --  -38.45408 -38.44419 -38.44183 -38.44158 -38.44104
 Alpha  occ. eigenvalues --  -38.43611 -38.43570  -2.21172  -2.20179  -2.20037
 Alpha  occ. eigenvalues --   -2.19994  -2.19846  -2.19436  -2.19418  -1.14815
 Alpha  occ. eigenvalues --   -1.14799  -1.14776  -1.13885  -1.13866  -1.13782
 Alpha  occ. eigenvalues --   -1.13727  -1.13716  -1.13659  -1.13645  -1.13634
 Alpha  occ. eigenvalues --   -1.13608  -1.13537  -1.13519  -1.13476  -1.13147
 Alpha  occ. eigenvalues --   -1.13131  -1.13095  -1.13090  -1.13066  -1.13005
 Alpha  occ. eigenvalues --   -0.16873  -0.13655  -0.11808  -0.11549
 Alpha virt. eigenvalues --   -0.06110  -0.05639  -0.04904  -0.03554  -0.03037
 Alpha virt. eigenvalues --   -0.02459  -0.02036  -0.01125  -0.00976  -0.00722
 Alpha virt. eigenvalues --   -0.00404  -0.00011   0.00121   0.00244   0.00562

  Beta  occ. eigenvalues --  -38.45285 -38.44417 -38.44133 -38.44119 -38.44115
  Beta  occ. eigenvalues --  -38.43616 -38.43563  -2.20941  -2.20178  -2.19958
  Beta  occ. eigenvalues --   -2.19903  -2.19875  -2.19430  -2.19427  -1.14658
  Beta  occ. eigenvalues --   -1.14641  -1.14623  -1.13884  -1.13867  -1.13768
  Beta  occ. eigenvalues --   -1.13678  -1.13667  -1.13595  -1.13583  -1.13580
  Beta  occ. eigenvalues --   -1.13556  -1.13551  -1.13536  -1.13478  -1.13138
  Beta  occ. eigenvalues --   -1.13122  -1.13103  -1.13098  -1.13056  -1.12991
  Beta  occ. eigenvalues --   -0.16439  -0.12773  -0.11702
  Beta virt. eigenvalues --   -0.08015  -0.05870  -0.05142  -0.04597  -0.03513
  Beta virt. eigenvalues --   -0.02475  -0.02019  -0.01591  -0.00984  -0.00857
  Beta virt. eigenvalues --   -0.00435  -0.00279   0.00246   0.00321   0.00384

 Mulliken charges and spin densities:
               1          2
     1  Na  -0.402002  -0.031304
     2  Na   0.872387   0.078324
     3  Na  -0.193171   0.023361
     4  Na  -0.466242   0.014935
     5  Na   0.404660   0.278024
     6  Na  -0.016266   0.661181
     7  Na  -0.199365  -0.024521
 Sum of Mulliken charges =  -0.00000   1.00000

 Dipole moment (field-independent basis, Debye):
    X=              0.1037    Y=             -0.0064    Z=             -0.4546  Tot=              0.4663
 Quadrupole moment (field-independent basis, Debye-Ang):
   XX=            -61.1508   YY=            -69.8125   ZZ=            -67.7568
   XY=              0.4552   XZ=             -0.5788   YZ=              1.3668

 Normal termination of Gaussian 16 at Tue Nov 28 19:59:12 2023.
