 Gaussian 16, Revision B.01,
 Gaussian 16:  ES64L-G16RevB.01 20-Dec-2017

 -------------------------
 #P B3LYP/6-311+g(d) force
 -------------------------

 -----
 DPGEN
 -----
 Symbolic Z-matrix:
 Charge =  0 Multiplicity = 2

                         Standard orientation:
 ---------------------------------------------------------------------
 Center     Atomic      Atomic             Coordinates (Angstroms)
 Number     Number       Type             X           Y           Z
 ---------------------------------------------------------------------
      1         11           0       -0.067877    0.347284    1.964643
      2         11           0       -1.158608    2.499329   -0.024168
      3         11           0       -0.244852   -0.116121   -1.682647
      4         11           0        2.919268   -1.306538    0.506146
      5         11           0       -0.278528   -2.682339   -0.385673
      6         11           0        2.140056    1.857502   -0.576861
      7         11           0       -3.309459   -0.599117    0.198561
 ---------------------------------------------------------------------

 SCF Done:  E(UB3LYP) =  -1136.13371127     A.U. after   20 cycles

 The electronic state is 2-A.
 Alpha  occ. eigenvalues --  -38.44398 -38.43819 -38.43746 -38.43504 -38.43341
 Alpha  occ. eigenvalues --  -38.43340 -38.43177  -2.20191  -2.19661  -2.19636
 Alpha  occ. eigenvalues --   -2.19383  -2.19367  -2.19222  -2.19089  -1.13870
 Alpha  occ. eigenvalues --   -1.13838  -1.13834  -1.13357  -1.13317  -1.13305
 Alpha  occ. eigenvalues --   -1.13295  -1.13278  -1.13260  -1.13224  -1.13102
 Alpha  occ. eigenvalues --   -1.13037  -1.13020  -1.13010  -1.12950  -1.12863
 Alpha  occ. eigenvalues --   -1.12840  -1.12800  -1.12774  -1.12753  -1.12688
 Alpha  occ. eigenvalues --   -0.18850  -0.12958  -0.12456  -0.10987
 Alpha virt. eigenvalues --   -0.05864  -0.04895  -0.04365  -0.03258  -0.03012
 Alpha virt. eigenvalues --   -0.02632  -0.01766  -0.00986  -0.00224  -0.00055
 Alpha virt. eigenvalues --    0.00037   0.00338   0.00819   0.00886   0.00908

  Beta  occ. eigenvalues --  -38.44397 -38.43810 -38.43664 -38.43489 -38.43330
  Beta  occ. eigenvalues --  -38.43267 -38.43169  -2.20191  -2.19622  -2.19509
  Beta  occ. eigenvalues --   -2.19360  -2.19240  -2.19201  -2.19079  -1.13861
  Beta  occ. eigenvalues --   -1.13839  -1.13830  -1.13297  -1.13283  -1.13269
  Beta  occ. eigenvalues --   -1.13257  -1.13197  -1.13155  -1.13152  -1.13066
  Beta  occ. eigenvalues --   -1.13011  -1.12992  -1.12940  -1.12868  -1.12836
  Beta  occ. eigenvalues --   -1.12805  -1.12776  -1.12757  -1.12718  -1.12676
  Beta  occ. eigenvalues --   -0.18118  -0.12728  -0.12163
  Beta virt. eigenvalues --   -0.07082  -0.05806  -0.04858  -0.04329  -0.02544
  Beta virt. eigenvalues --   -0.02215  -0.01672  -0.01571  -0.00903  -0.00205
  Beta virt. eigenvalues --   -0.00090   0.00123   0.00360   0.00867   0.00901

 Mulliken charges and spin densities:
               1          2
     1  Na  -0.451813   0.760053
     2  Na   0.254815  -0.065719
     3  Na  -0.024423   0.353338
     4  Na  -0.067970   0.039346
     5  Na   0.122040  -0.047711
     6  Na   0.208477   0.038837
     7  Na  -0.041126  -0.078144
 Sum of Mulliken charges =  -0.00000   1.00000

 Dipole moment (field-independent basis, Debye):
    X=             -0.2964    Y=             -0.0254    Z=              0.2842  Tot=              0.4115
 Quadrupole moment (field-independent basis, Debye-Ang):
   XX=            -54.2379   YY=            -65.8345   ZZ=            -73.1440
   XY=              0.1640   XZ=             -0.4372   YZ=             -1.5609

 Normal termination of Gaussian 16 at Fri Dec  8 04:57:25 2023.
