 Gaussian 16, Revision B.01,
 Gaussian 16:  ES64L-G16RevB.01 20-Dec-2017

 -------------------------
 #P B3LYP/6-311+g(d) force
 -------------------------

 -----
 DPGEN
 -----
 Symbolic Z-matrix:
 Charge =  0 Multiplicity = 2

                         Standard orientation:
 ---------------------------------------------------------------------
 Center     Atomic      Atomic             Coordinates (Angstroms)
 Number     Number       Type             X           Y           Z
 ---------------------------------------------------------------------
      1         11           0       -0.190808    0.170875   -1.505214
      2         11           0       -0.846201    2.280666    0.373586
      3         11           0       -2.734184   -0.098057   -0.104114
      4         11           0       -0.662777   -2.362968   -0.143014
      5         11           0        0.107924   -0.185797    1.639486
      6         11           0        2.253227   -1.421502    0.071286
      7         11           0        2.072820    1.616782   -0.332014
 ---------------------------------------------------------------------

 SCF Done:  E(UB3LYP) =  -1136.10687727     A.U. after   18 cycles

 The electronic state is 2-A.
 Alpha  occ. eigenvalues --  -38.43631 -38.43497 -38.43442 -38.43335 -38.43299
 Alpha  occ. eigenvalues --  -38.43295 -38.43274  -2.19657  -2.19582  -2.19556
 Alpha  occ. eigenvalues --   -2.19514  -2.19461  -2.19371  -2.19344  -1.13574
 Alpha  occ. eigenvalues --   -1.13489  -1.13469  -1.13353  -1.13320  -1.13300
 Alpha  occ. eigenvalues --   -1.13266  -1.13245  -1.13197  -1.13178  -1.13143
 Alpha  occ. eigenvalues --   -1.13107  -1.13058  -1.13044  -1.13027  -1.12981
 Alpha  occ. eigenvalues --   -1.12969  -1.12928  -1.12923  -1.12915  -1.12898
 Alpha  occ. eigenvalues --   -0.20954  -0.13661  -0.13188  -0.11377
 Alpha virt. eigenvalues --   -0.05109  -0.04644  -0.04450  -0.03249  -0.03040
 Alpha virt. eigenvalues --   -0.02274  -0.01187  -0.00789   0.00014   0.00341
 Alpha virt. eigenvalues --    0.00491   0.00517   0.00971   0.01070   0.01075

  Beta  occ. eigenvalues --  -38.43621 -38.43488 -38.43430 -38.43282 -38.43261
  Beta  occ. eigenvalues --  -38.43249 -38.43218  -2.19643  -2.19510  -2.19459
  Beta  occ. eigenvalues --   -2.19430  -2.19397  -2.19344  -2.19323  -1.13532
  Beta  occ. eigenvalues --   -1.13435  -1.13412  -1.13328  -1.13272  -1.13252
  Beta  occ. eigenvalues --   -1.13227  -1.13182  -1.13156  -1.13117  -1.13094
  Beta  occ. eigenvalues --   -1.13063  -1.13025  -1.12990  -1.12963  -1.12934
  Beta  occ. eigenvalues --   -1.12916  -1.12900  -1.12889  -1.12880  -1.12838
  Beta  occ. eigenvalues --   -0.20194  -0.13320  -0.12850
  Beta virt. eigenvalues --   -0.07258  -0.05122  -0.04624  -0.04452  -0.02356
  Beta virt. eigenvalues --   -0.02154  -0.01191  -0.01117  -0.00735   0.00140
  Beta virt. eigenvalues --    0.00365   0.00449   0.00478   0.00999   0.01063

 Mulliken charges and spin densities:
               1          2
     1  Na  -0.929695   0.428765
     2  Na   0.455343   0.081044
     3  Na   0.279849  -0.023917
     4  Na   0.360892  -0.004599
     5  Na  -0.710506   0.515836
     6  Na   0.287227  -0.004018
     7  Na   0.256890   0.006888
 Sum of Mulliken charges =  -0.00000   1.00000

 Dipole moment (field-independent basis, Debye):
    X=              0.0389    Y=             -0.0084    Z=              0.0855  Tot=              0.0943
 Quadrupole moment (field-independent basis, Debye-Ang):
   XX=            -58.1410   YY=            -64.0646   ZZ=            -72.6497
   XY=              0.0379   XZ=             -0.6069   YZ=              0.6106

 Normal termination of Gaussian 16 at Thu Dec  7 12:34:29 2023.
