 Gaussian 16, Revision B.01,
 Gaussian 16:  ES64L-G16RevB.01 20-Dec-2017

 -------------------------
 #P B3LYP/6-311+g(d) force
 -------------------------

 -----
 DPGEN
 -----
 Symbolic Z-matrix:
 Charge =  0 Multiplicity = 2

                         Standard orientation:
 ---------------------------------------------------------------------
 Center     Atomic      Atomic             Coordinates (Angstroms)
 Number     Number       Type             X           Y           Z
 ---------------------------------------------------------------------
      1         11           0       -0.105798   -0.378961   -1.671103
      2         11           0       -3.074488    0.615527   -0.349049
      3         11           0       -1.768923   -2.592072    0.330636
      4         11           0        2.266913   -2.163534   -0.010376
      5         11           0        2.998795    1.225808   -0.343332
      6         11           0        0.213705    0.325105    1.977865
      7         11           0       -0.530205    2.968128    0.065359
 ---------------------------------------------------------------------

 SCF Done:  E(UB3LYP) =  -1136.13813442     A.U. after   19 cycles

 The electronic state is 2-A.
 Alpha  occ. eigenvalues --  -38.44212 -38.43971 -38.43936 -38.43679 -38.43416
 Alpha  occ. eigenvalues --  -38.43327 -38.43315  -2.20013  -2.19806  -2.19753
 Alpha  occ. eigenvalues --   -2.19492  -2.19299  -2.19254  -2.19146  -1.13689
 Alpha  occ. eigenvalues --   -1.13672  -1.13653  -1.13491  -1.13464  -1.13442
 Alpha  occ. eigenvalues --   -1.13437  -1.13417  -1.13383  -1.13167  -1.13157
 Alpha  occ. eigenvalues --   -1.13130  -1.12983  -1.12941  -1.12932  -1.12919
 Alpha  occ. eigenvalues --   -1.12892  -1.12875  -1.12814  -1.12805  -1.12781
 Alpha  occ. eigenvalues --   -0.18285  -0.13063  -0.12290  -0.10495
 Alpha virt. eigenvalues --   -0.05656  -0.05488  -0.04794  -0.03167  -0.02875
 Alpha virt. eigenvalues --   -0.02373  -0.01608  -0.01257  -0.00574  -0.00525
 Alpha virt. eigenvalues --   -0.00009   0.00355   0.00758   0.00818   0.00856

  Beta  occ. eigenvalues --  -38.44205 -38.43962 -38.43932 -38.43672 -38.43326
  Beta  occ. eigenvalues --  -38.43312 -38.43269  -2.20003  -2.19793  -2.19751
  Beta  occ. eigenvalues --   -2.19483  -2.19150  -2.19142  -2.19133  -1.13669
  Beta  occ. eigenvalues --   -1.13666  -1.13643  -1.13473  -1.13445  -1.13437
  Beta  occ. eigenvalues --   -1.13429  -1.13406  -1.13377  -1.13159  -1.13141
  Beta  occ. eigenvalues --   -1.13120  -1.12890  -1.12860  -1.12833  -1.12817
  Beta  occ. eigenvalues --   -1.12806  -1.12796  -1.12790  -1.12786  -1.12763
  Beta  occ. eigenvalues --   -0.17579  -0.12826  -0.12075
  Beta virt. eigenvalues --   -0.06662  -0.05621  -0.05452  -0.04705  -0.02435
  Beta virt. eigenvalues --   -0.02130  -0.01501  -0.01375  -0.01174  -0.00617
  Beta virt. eigenvalues --   -0.00559   0.00133   0.00389   0.00811   0.00838

 Mulliken charges and spin densities:
               1          2
     1  Na  -0.049844   0.471926
     2  Na   0.159149  -0.016579
     3  Na  -0.013145  -0.022097
     4  Na   0.097805  -0.055581
     5  Na   0.039445  -0.062720
     6  Na  -0.309999   0.777891
     7  Na   0.076589  -0.092840
 Sum of Mulliken charges =  -0.00000   1.00000

 Dipole moment (field-independent basis, Debye):
    X=              0.1942    Y=             -0.1009    Z=              0.0009  Tot=              0.2188
 Quadrupole moment (field-independent basis, Debye-Ang):
   XX=            -55.8602   YY=            -61.6620   ZZ=            -75.4029
   XY=              0.3713   XZ=             -0.5820   YZ=             -1.9411

 Normal termination of Gaussian 16 at Thu Dec  7 21:49:38 2023.
