 Gaussian 16, Revision B.01,
 Gaussian 16:  ES64L-G16RevB.01 20-Dec-2017

 -------------------------
 #P B3LYP/6-311+g(d) force
 -------------------------

 -----
 DPGEN
 -----
 Symbolic Z-matrix:
 Charge =  0 Multiplicity = 2

                         Standard orientation:
 ---------------------------------------------------------------------
 Center     Atomic      Atomic             Coordinates (Angstroms)
 Number     Number       Type             X           Y           Z
 ---------------------------------------------------------------------
      1         11           0       -0.141943    0.237271    1.931474
      2         11           0        2.573877    2.008183    0.162185
      3         11           0       -1.717866    2.603745   -0.003860
      4         11           0        2.547648   -1.487641   -0.469844
      5         11           0       -2.819936   -0.738818   -0.410192
      6         11           0       -0.382313   -2.751612    0.562418
      7         11           0       -0.059466    0.128873   -1.772180
 ---------------------------------------------------------------------

 SCF Done:  E(UB3LYP) =  -1136.13757439     A.U. after   19 cycles

 The electronic state is 2-A.
 Alpha  occ. eigenvalues --  -38.44039 -38.43759 -38.43745 -38.43651 -38.43552
 Alpha  occ. eigenvalues --  -38.43437 -38.42992  -2.19825  -2.19631  -2.19585
 Alpha  occ. eigenvalues --   -2.19504  -2.19470  -2.19393  -2.18888  -1.13504
 Alpha  occ. eigenvalues --   -1.13481  -1.13468  -1.13352  -1.13291  -1.13278
 Alpha  occ. eigenvalues --   -1.13266  -1.13248  -1.13208  -1.13206  -1.13165
 Alpha  occ. eigenvalues --   -1.13143  -1.13132  -1.13099  -1.13086  -1.13059
 Alpha  occ. eigenvalues --   -1.13013  -1.13009  -1.12567  -1.12535  -1.12528
 Alpha  occ. eigenvalues --   -0.18717  -0.12962  -0.12399  -0.10991
 Alpha virt. eigenvalues --   -0.05663  -0.05097  -0.04490  -0.03252  -0.03046
 Alpha virt. eigenvalues --   -0.02688  -0.01415  -0.01212  -0.00286  -0.00216
 Alpha virt. eigenvalues --    0.00055   0.00371   0.00821   0.00883   0.00915

  Beta  occ. eigenvalues --  -38.44039 -38.43756 -38.43733 -38.43642 -38.43465
  Beta  occ. eigenvalues --  -38.43365 -38.42978  -2.19828  -2.19613  -2.19583
  Beta  occ. eigenvalues --   -2.19489  -2.19311  -2.19261  -2.18867  -1.13496
  Beta  occ. eigenvalues --   -1.13483  -1.13468  -1.13330  -1.13276  -1.13253
  Beta  occ. eigenvalues --   -1.13246  -1.13241  -1.13202  -1.13187  -1.13140
  Beta  occ. eigenvalues --   -1.13127  -1.13042  -1.12986  -1.12976  -1.12970
  Beta  occ. eigenvalues --   -1.12920  -1.12914  -1.12547  -1.12524  -1.12494
  Beta  occ. eigenvalues --   -0.17972  -0.12709  -0.12158
  Beta virt. eigenvalues --   -0.07068  -0.05670  -0.05007  -0.04464  -0.02484
  Beta virt. eigenvalues --   -0.02275  -0.01655  -0.01326  -0.01126  -0.00326
  Beta virt. eigenvalues --   -0.00186   0.00135   0.00396   0.00825   0.00924

 Mulliken charges and spin densities:
               1          2
     1  Na  -0.202338   0.668591
     2  Na  -0.114615  -0.107353
     3  Na  -0.058436  -0.122330
     4  Na   0.051459   0.001982
     5  Na   0.245826   0.036627
     6  Na   0.113232   0.066875
     7  Na  -0.035129   0.455609
 Sum of Mulliken charges =  -0.00000   1.00000

 Dipole moment (field-independent basis, Debye):
    X=              0.0499    Y=              0.4266    Z=              0.0074  Tot=              0.4295
 Quadrupole moment (field-independent basis, Debye-Ang):
   XX=            -58.6219   YY=            -61.8786   ZZ=            -73.2501
   XY=              0.1192   XZ=              0.2761   YZ=              0.1181

 Normal termination of Gaussian 16 at Fri Dec  8 06:23:29 2023.
