 Gaussian 16, Revision B.01,
 Gaussian 16:  ES64L-G16RevB.01 20-Dec-2017

 -------------------------
 #P B3LYP/6-311+g(d) force
 -------------------------

 -----
 DPGEN
 -----
 Symbolic Z-matrix:
 Charge =  0 Multiplicity = 2

                         Standard orientation:
 ---------------------------------------------------------------------
 Center     Atomic      Atomic             Coordinates (Angstroms)
 Number     Number       Type             X           Y           Z
 ---------------------------------------------------------------------
      1         11           0       -0.061612   -2.809733    0.045091
      2         11           0        1.461331    2.468835   -0.251144
      3         11           0        0.379755   -0.376950    1.900460
      4         11           0       -2.099329    2.204326    0.512495
      5         11           0        3.154583   -0.530020   -0.109161
      6         11           0       -0.109793    0.021246   -1.777296
      7         11           0       -2.724935   -0.977704   -0.320446
 ---------------------------------------------------------------------

 SCF Done:  E(UB3LYP) =  -1136.13750181     A.U. after   19 cycles

 The electronic state is 2-A.
 Alpha  occ. eigenvalues --  -38.44096 -38.43630 -38.43519 -38.43513 -38.43472
 Alpha  occ. eigenvalues --  -38.43362 -38.43246  -2.19922  -2.19533  -2.19448
 Alpha  occ. eigenvalues --   -2.19373  -2.19338  -2.19301  -2.19154  -1.13601
 Alpha  occ. eigenvalues --   -1.13582  -1.13562  -1.13264  -1.13190  -1.13184
 Alpha  occ. eigenvalues --   -1.13154  -1.13105  -1.13087  -1.13058  -1.13033
 Alpha  occ. eigenvalues --   -1.13004  -1.13000  -1.12964  -1.12961  -1.12949
 Alpha  occ. eigenvalues --   -1.12948  -1.12936  -1.12824  -1.12805  -1.12766
 Alpha  occ. eigenvalues --   -0.18887  -0.13115  -0.12509  -0.10902
 Alpha virt. eigenvalues --   -0.05579  -0.04973  -0.04667  -0.03285  -0.03042
 Alpha virt. eigenvalues --   -0.02548  -0.01492  -0.01013  -0.00233  -0.00170
 Alpha virt. eigenvalues --    0.00019   0.00368   0.00841   0.00899   0.00920

  Beta  occ. eigenvalues --  -38.44093 -38.43621 -38.43513 -38.43461 -38.43432
  Beta  occ. eigenvalues --  -38.43287 -38.43238  -2.19921  -2.19521  -2.19365
  Beta  occ. eigenvalues --   -2.19300  -2.19283  -2.19200  -2.19145  -1.13592
  Beta  occ. eigenvalues --   -1.13575  -1.13558  -1.13242  -1.13182  -1.13155
  Beta  occ. eigenvalues --   -1.13077  -1.13067  -1.13022  -1.12995  -1.12980
  Beta  occ. eigenvalues --   -1.12956  -1.12944  -1.12931  -1.12929  -1.12918
  Beta  occ. eigenvalues --   -1.12866  -1.12853  -1.12804  -1.12773  -1.12751
  Beta  occ. eigenvalues --   -0.18154  -0.12856  -0.12248
  Beta virt. eigenvalues --   -0.07013  -0.05551  -0.04948  -0.04597  -0.02501
  Beta virt. eigenvalues --   -0.02252  -0.01532  -0.01405  -0.00934  -0.00249
  Beta virt. eigenvalues --   -0.00213   0.00130   0.00390   0.00871   0.00914

 Mulliken charges and spin densities:
               1          2
     1  Na   0.243357  -0.128190
     2  Na   0.030118  -0.038226
     3  Na  -0.359824   0.759041
     4  Na  -0.093605   0.011936
     5  Na   0.060774  -0.139382
     6  Na  -0.142121   0.504179
     7  Na   0.261300   0.030641
 Sum of Mulliken charges =  -0.00000   1.00000

 Dipole moment (field-independent basis, Debye):
    X=              0.3333    Y=             -0.0159    Z=              0.0430  Tot=              0.3365
 Quadrupole moment (field-independent basis, Debye-Ang):
   XX=            -57.2205   YY=            -63.4058   ZZ=            -73.3770
   XY=             -0.4091   XZ=             -1.0174   YZ=              1.1452

 Normal termination of Gaussian 16 at Thu Dec  7 21:03:41 2023.
