 Gaussian 16, Revision B.01,
 Gaussian 16:  ES64L-G16RevB.01 20-Dec-2017

 -------------------------
 #P B3LYP/6-311+g(d) force
 -------------------------

 -----
 DPGEN
 -----
 Symbolic Z-matrix:
 Charge =  0 Multiplicity = 2

                         Standard orientation:
 ---------------------------------------------------------------------
 Center     Atomic      Atomic             Coordinates (Angstroms)
 Number     Number       Type             X           Y           Z
 ---------------------------------------------------------------------
      1         11           0       -0.317935   -0.038609   -1.370642
      2         11           0        0.104801    0.014699    1.947198
      3         11           0       -1.776730    2.521797   -0.419538
      4         11           0       -2.976904   -1.136944    0.288253
      5         11           0        3.050459   -0.766203   -0.201902
      6         11           0        0.186034   -2.880700   -0.330157
      7         11           0        1.730275    2.285960    0.086789
 ---------------------------------------------------------------------

 SCF Done:  E(UB3LYP) =  -1136.13696712     A.U. after   19 cycles

 The electronic state is 2-A.
 Alpha  occ. eigenvalues --  -38.44115 -38.43774 -38.43621 -38.43493 -38.43453
 Alpha  occ. eigenvalues --  -38.43316 -38.42772  -2.19938  -2.19614  -2.19471
 Alpha  occ. eigenvalues --   -2.19366  -2.19336  -2.19241  -2.18844  -1.13614
 Alpha  occ. eigenvalues --   -1.13601  -1.13570  -1.13292  -1.13275  -1.13265
 Alpha  occ. eigenvalues --   -1.13194  -1.13117  -1.13102  -1.13097  -1.13033
 Alpha  occ. eigenvalues --   -1.13021  -1.13008  -1.12972  -1.12955  -1.12924
 Alpha  occ. eigenvalues --   -1.12856  -1.12843  -1.12527  -1.12485  -1.12452
 Alpha  occ. eigenvalues --   -0.18864  -0.12971  -0.12704  -0.10473
 Alpha virt. eigenvalues --   -0.05610  -0.05166  -0.04805  -0.03018  -0.02767
 Alpha virt. eigenvalues --   -0.02207  -0.01586  -0.01260  -0.00372  -0.00340
 Alpha virt. eigenvalues --    0.00028   0.00339   0.00817   0.00867   0.00897

  Beta  occ. eigenvalues --  -38.44108 -38.43771 -38.43609 -38.43482 -38.43447
  Beta  occ. eigenvalues --  -38.43222 -38.42719  -2.19928  -2.19611  -2.19452
  Beta  occ. eigenvalues --   -2.19350  -2.19329  -2.19069  -2.18750  -1.13605
  Beta  occ. eigenvalues --   -1.13578  -1.13567  -1.13292  -1.13268  -1.13248
  Beta  occ. eigenvalues --   -1.13173  -1.13094  -1.13085  -1.13083  -1.13021
  Beta  occ. eigenvalues --   -1.12995  -1.12980  -1.12959  -1.12948  -1.12815
  Beta  occ. eigenvalues --   -1.12740  -1.12718  -1.12452  -1.12415  -1.12387
  Beta  occ. eigenvalues --   -0.18165  -0.12743  -0.12404
  Beta virt. eigenvalues --   -0.06599  -0.05570  -0.05120  -0.04772  -0.02256
  Beta virt. eigenvalues --   -0.02042  -0.01491  -0.01177  -0.01161  -0.00408
  Beta virt. eigenvalues --   -0.00377   0.00163   0.00379   0.00850   0.00885

 Mulliken charges and spin densities:
               1          2
     1  Na  -0.618519   0.266163
     2  Na  -0.378143   0.708400
     3  Na   0.238813  -0.000431
     4  Na   0.140770   0.024183
     5  Na   0.039388  -0.026430
     6  Na   0.266885   0.000258
     7  Na   0.310806   0.027857
 Sum of Mulliken charges =  -0.00000   1.00000

 Dipole moment (field-independent basis, Debye):
    X=             -0.1991    Y=             -0.0908    Z=              0.2336  Tot=              0.3201
 Quadrupole moment (field-independent basis, Debye-Ang):
   XX=            -55.1511   YY=            -60.6133   ZZ=            -75.9146
   XY=              0.1252   XZ=             -1.0619   YZ=             -0.1962

 Normal termination of Gaussian 16 at Thu Dec  7 20:55:16 2023.
