 Gaussian 16, Revision B.01,
 Gaussian 16:  ES64L-G16RevB.01 20-Dec-2017

 -------------------------
 #P B3LYP/6-311+g(d) force
 -------------------------

 -----
 DPGEN
 -----
 Symbolic Z-matrix:
 Charge =  0 Multiplicity = 2

                         Standard orientation:
 ---------------------------------------------------------------------
 Center     Atomic      Atomic             Coordinates (Angstroms)
 Number     Number       Type             X           Y           Z
 ---------------------------------------------------------------------
      1         11           0       -1.619046   -1.298108    0.672900
      2         11           0       -4.430702   -2.041108   -0.305068
      3         11           0       -3.487540    0.945077   -0.613828
      4         11           0       -0.392107    3.584252    0.393728
      5         11           0        2.325617    1.729281   -0.155581
      6         11           0        5.225184   -1.237070   -0.669369
      7         11           0        2.378593   -1.682323    0.677218
 ---------------------------------------------------------------------

 SCF Done:  E(UB3LYP) =  -1136.11565831     A.U. after   22 cycles

 The electronic state is 2-A.
 Alpha  occ. eigenvalues --  -38.45229 -38.45081 -38.44752 -38.44012 -38.43745
 Alpha  occ. eigenvalues --  -38.43671 -38.43018  -2.21079  -2.20947  -2.20527
 Alpha  occ. eigenvalues --   -2.19908  -2.19561  -2.19506  -2.18794  -1.14784
 Alpha  occ. eigenvalues --   -1.14747  -1.14728  -1.14629  -1.14588  -1.14544
 Alpha  occ. eigenvalues --   -1.14233  -1.14221  -1.14125  -1.13583  -1.13572
 Alpha  occ. eigenvalues --   -1.13516  -1.13262  -1.13211  -1.13198  -1.13186
 Alpha  occ. eigenvalues --   -1.13180  -1.13085  -1.12463  -1.12459  -1.12442
 Alpha  occ. eigenvalues --   -0.16744  -0.14623  -0.11990  -0.10399
 Alpha virt. eigenvalues --   -0.06796  -0.05334  -0.04685  -0.04029  -0.02628
 Alpha virt. eigenvalues --   -0.02261  -0.01963  -0.01891  -0.01449  -0.00465
 Alpha virt. eigenvalues --   -0.00008   0.00088   0.00207   0.00369   0.00587

  Beta  occ. eigenvalues --  -38.45198 -38.45072 -38.44754 -38.43949 -38.43695
  Beta  occ. eigenvalues --  -38.43650 -38.43021  -2.21023  -2.20934  -2.20532
  Beta  occ. eigenvalues --   -2.19794  -2.19474  -2.19465  -2.18798  -1.14749
  Beta  occ. eigenvalues --   -1.14710  -1.14685  -1.14610  -1.14582  -1.14520
  Beta  occ. eigenvalues --   -1.14236  -1.14217  -1.14132  -1.13504  -1.13497
  Beta  occ. eigenvalues --   -1.13414  -1.13203  -1.13175  -1.13168  -1.13139
  Beta  occ. eigenvalues --   -1.13124  -1.13017  -1.12466  -1.12461  -1.12445
  Beta  occ. eigenvalues --   -0.16207  -0.14342  -0.11821
  Beta virt. eigenvalues --   -0.06802  -0.06480  -0.04897  -0.04298  -0.03872
  Beta virt. eigenvalues --   -0.02563  -0.01909  -0.01754  -0.01436  -0.01198
  Beta virt. eigenvalues --   -0.00233   0.00212   0.00321   0.00359   0.00523

 Mulliken charges and spin densities:
               1          2
     1  Na  -2.172574   0.179451
     2  Na   1.963857   0.176961
     3  Na   0.302348   0.282777
     4  Na   0.117740   0.037613
     5  Na  -0.818489  -0.037939
     6  Na   1.025677   0.327513
     7  Na  -0.418560   0.033625
 Sum of Mulliken charges =  -0.00000   1.00000

 Dipole moment (field-independent basis, Debye):
    X=             -1.8166    Y=             -0.9399    Z=             -0.5109  Tot=              2.1082
 Quadrupole moment (field-independent basis, Debye-Ang):
   XX=            -53.4379   YY=            -67.2983   ZZ=            -72.2452
   XY=              5.4348   XZ=             -0.5955   YZ=              0.8277

 Normal termination of Gaussian 16 at Sun Dec  3 20:26:02 2023.
