 Gaussian 16, Revision B.01,
 Gaussian 16:  ES64L-G16RevB.01 20-Dec-2017

 -------------------------
 #P B3LYP/6-311+g(d) force
 -------------------------

 -----
 DPGEN
 -----
 Symbolic Z-matrix:
 Charge =  0 Multiplicity = 2

                         Standard orientation:
 ---------------------------------------------------------------------
 Center     Atomic      Atomic             Coordinates (Angstroms)
 Number     Number       Type             X           Y           Z
 ---------------------------------------------------------------------
      1         11           0        0.192115   -0.104030   -1.391861
      2         11           0       -0.649457    2.943231   -0.350921
      3         11           0        2.270766   -2.162054   -0.350577
      4         11           0        2.804925    1.217313    0.108706
      5         11           0       -2.969937    0.205726   -0.313364
      6         11           0        0.010102    0.332218    2.044374
      7         11           0       -1.658513   -2.432404    0.253642
 ---------------------------------------------------------------------

 SCF Done:  E(UB3LYP) =  -1136.13559401     A.U. after   19 cycles

 The electronic state is 2-A.
 Alpha  occ. eigenvalues --  -38.44140 -38.43845 -38.43728 -38.43480 -38.43467
 Alpha  occ. eigenvalues --  -38.43308 -38.42847  -2.19990  -2.19740  -2.19573
 Alpha  occ. eigenvalues --   -2.19367  -2.19359  -2.19151  -2.18903  -1.13677
 Alpha  occ. eigenvalues --   -1.13664  -1.13612  -1.13474  -1.13401  -1.13374
 Alpha  occ. eigenvalues --   -1.13289  -1.13218  -1.13198  -1.13047  -1.13026
 Alpha  occ. eigenvalues --   -1.13009  -1.12991  -1.12988  -1.12973  -1.12842
 Alpha  occ. eigenvalues --   -1.12808  -1.12782  -1.12589  -1.12538  -1.12528
 Alpha  occ. eigenvalues --   -0.18845  -0.13315  -0.12389  -0.10630
 Alpha virt. eigenvalues --   -0.05625  -0.05191  -0.04687  -0.03210  -0.02749
 Alpha virt. eigenvalues --   -0.02363  -0.01526  -0.01219  -0.00357  -0.00306
 Alpha virt. eigenvalues --    0.00013   0.00351   0.00806   0.00863   0.00907

  Beta  occ. eigenvalues --  -38.44134 -38.43837 -38.43721 -38.43474 -38.43369
  Beta  occ. eigenvalues --  -38.43300 -38.42796  -2.19983  -2.19730  -2.19563
  Beta  occ. eigenvalues --   -2.19352  -2.19185  -2.19138  -2.18812  -1.13673
  Beta  occ. eigenvalues --   -1.13637  -1.13608  -1.13471  -1.13377  -1.13361
  Beta  occ. eigenvalues --   -1.13274  -1.13201  -1.13193  -1.13025  -1.12992
  Beta  occ. eigenvalues --   -1.12975  -1.12922  -1.12866  -1.12848  -1.12823
  Beta  occ. eigenvalues --   -1.12792  -1.12765  -1.12516  -1.12471  -1.12462
  Beta  occ. eigenvalues --   -0.18136  -0.13067  -0.12137
  Beta virt. eigenvalues --   -0.06719  -0.05592  -0.05137  -0.04658  -0.02416
  Beta virt. eigenvalues --   -0.02028  -0.01439  -0.01309  -0.01141  -0.00379
  Beta virt. eigenvalues --   -0.00344   0.00156   0.00388   0.00844   0.00894

 Mulliken charges and spin densities:
               1          2
     1  Na  -0.525155   0.199400
     2  Na   0.143078  -0.015063
     3  Na   0.212374   0.016072
     4  Na   0.258363   0.006954
     5  Na   0.181539   0.002589
     6  Na  -0.472591   0.708350
     7  Na   0.202392   0.081698
 Sum of Mulliken charges =  -0.00000   1.00000

 Dipole moment (field-independent basis, Debye):
    X=              0.2872    Y=              0.0890    Z=              0.2246  Tot=              0.3753
 Quadrupole moment (field-independent basis, Debye-Ang):
   XX=            -56.4974   YY=            -61.1249   ZZ=            -75.2059
   XY=              0.1051   XZ=              0.5221   YZ=             -0.9611

 Normal termination of Gaussian 16 at Thu Dec  7 06:05:35 2023.
