 Gaussian 16, Revision B.01,
 Gaussian 16:  ES64L-G16RevB.01 20-Dec-2017

 -------------------------
 #P B3LYP/6-311+g(d) force
 -------------------------

 -----
 DPGEN
 -----
 Symbolic Z-matrix:
 Charge =  0 Multiplicity = 2

                         Standard orientation:
 ---------------------------------------------------------------------
 Center     Atomic      Atomic             Coordinates (Angstroms)
 Number     Number       Type             X           Y           Z
 ---------------------------------------------------------------------
      1         11           0       -3.424709    0.400459    0.058185
      2         11           0       -1.822671   -2.459142   -0.012398
      3         11           0        2.805313    0.996828   -0.334945
      4         11           0       -0.031084    3.193988   -0.084924
      5         11           0        2.509003   -2.338087   -0.075489
      6         11           0       -0.369862    0.014787   -1.637933
      7         11           0        0.334009    0.191166    2.087505
 ---------------------------------------------------------------------

 SCF Done:  E(UB3LYP) =  -1136.13333850     A.U. after   19 cycles

 The electronic state is 2-A.
 Alpha  occ. eigenvalues --  -38.44751 -38.43967 -38.43967 -38.43748 -38.43607
 Alpha  occ. eigenvalues --  -38.43458 -38.43307  -2.20550  -2.19819  -2.19798
 Alpha  occ. eigenvalues --   -2.19533  -2.19457  -2.19372  -2.19112  -1.14220
 Alpha  occ. eigenvalues --   -1.14212  -1.14193  -1.13502  -1.13497  -1.13494
 Alpha  occ. eigenvalues --   -1.13458  -1.13448  -1.13424  -1.13199  -1.13194
 Alpha  occ. eigenvalues --   -1.13177  -1.13123  -1.13087  -1.13069  -1.13060
 Alpha  occ. eigenvalues --   -1.13009  -1.12995  -1.12780  -1.12770  -1.12761
 Alpha  occ. eigenvalues --   -0.18049  -0.13308  -0.11976  -0.10408
 Alpha virt. eigenvalues --   -0.06034  -0.05311  -0.04925  -0.03316  -0.02606
 Alpha virt. eigenvalues --   -0.02457  -0.01827  -0.01277  -0.00698  -0.00596
 Alpha virt. eigenvalues --   -0.00041   0.00331   0.00711   0.00783   0.00827

  Beta  occ. eigenvalues --  -38.44750 -38.43963 -38.43958 -38.43748 -38.43509
  Beta  occ. eigenvalues --  -38.43400 -38.43305  -2.20552  -2.19806  -2.19793
  Beta  occ. eigenvalues --   -2.19536  -2.19276  -2.19265  -2.19112  -1.14215
  Beta  occ. eigenvalues --   -1.14207  -1.14193  -1.13494  -1.13486  -1.13461
  Beta  occ. eigenvalues --   -1.13444  -1.13441  -1.13422  -1.13200  -1.13186
  Beta  occ. eigenvalues --   -1.13180  -1.13008  -1.12978  -1.12960  -1.12941
  Beta  occ. eigenvalues --   -1.12933  -1.12917  -1.12772  -1.12764  -1.12756
  Beta  occ. eigenvalues --   -0.17341  -0.13121  -0.11795
  Beta virt. eigenvalues --   -0.06521  -0.05968  -0.05302  -0.04862  -0.02558
  Beta virt. eigenvalues --   -0.01924  -0.01732  -0.01412  -0.01199  -0.00742
  Beta virt. eigenvalues --   -0.00628   0.00128   0.00367   0.00756   0.00815

 Mulliken charges and spin densities:
               1          2
     1  Na   0.123195  -0.071142
     2  Na   0.048337  -0.062760
     3  Na   0.252632   0.025326
     4  Na   0.036031  -0.098965
     5  Na  -0.050898  -0.071067
     6  Na   0.024918   0.475536
     7  Na  -0.434215   0.803071
 Sum of Mulliken charges =  -0.00000   1.00000

 Dipole moment (field-independent basis, Debye):
    X=             -0.6114    Y=             -0.0428    Z=              0.0424  Tot=              0.6144
 Quadrupole moment (field-independent basis, Debye-Ang):
   XX=            -55.0843   YY=            -61.7919   ZZ=            -76.3829
   XY=             -1.0646   XZ=             -1.4203   YZ=             -0.3365

 Normal termination of Gaussian 16 at Thu Dec  7 10:49:29 2023.
