 Gaussian 16, Revision B.01,
 Gaussian 16:  ES64L-G16RevB.01 20-Dec-2017

 -------------------------
 #P B3LYP/6-311+g(d) force
 -------------------------

 -----
 DPGEN
 -----
 Symbolic Z-matrix:
 Charge =  0 Multiplicity = 2

                         Standard orientation:
 ---------------------------------------------------------------------
 Center     Atomic      Atomic             Coordinates (Angstroms)
 Number     Number       Type             X           Y           Z
 ---------------------------------------------------------------------
      1         11           0       -2.389773   -0.015626   -0.729743
      2         11           0       -1.215667    0.857366    1.576157
      3         11           0        3.970737   -0.074771    0.025557
      4         11           0        1.204029    0.212849    0.533957
      5         11           0       -0.019780   -1.087043   -1.483743
      6         11           0       -0.463460    1.831760   -0.830443
      7         11           0       -1.086085   -1.724535    0.908257
 ---------------------------------------------------------------------

 SCF Done:  E(UB3LYP) =  -1136.03173615     A.U. after   25 cycles

 The electronic state is 2-A.
 Alpha  occ. eigenvalues --  -38.45853 -38.45358 -38.44847 -38.44602 -38.43992
 Alpha  occ. eigenvalues --  -38.43796 -38.43669  -2.21683  -2.21653  -2.21168
 Alpha  occ. eigenvalues --   -2.20853  -2.20340  -2.20040  -2.19909  -1.15657
 Alpha  occ. eigenvalues --   -1.15479  -1.15417  -1.15367  -1.15285  -1.15274
 Alpha  occ. eigenvalues --   -1.15032  -1.14867  -1.14778  -1.14708  -1.14521
 Alpha  occ. eigenvalues --   -1.14418  -1.14112  -1.13946  -1.13844  -1.13670
 Alpha  occ. eigenvalues --   -1.13592  -1.13580  -1.13547  -1.13448  -1.13411
 Alpha  occ. eigenvalues --   -0.22025  -0.13835  -0.13017  -0.11845
 Alpha virt. eigenvalues --   -0.07219  -0.03798  -0.03642  -0.03288  -0.02780
 Alpha virt. eigenvalues --   -0.02582  -0.02153  -0.00536  -0.00260   0.00116
 Alpha virt. eigenvalues --    0.00406   0.00527   0.00552   0.00890   0.01202

  Beta  occ. eigenvalues --  -38.45866 -38.45315 -38.44765 -38.44532 -38.43960
  Beta  occ. eigenvalues --  -38.43754 -38.43629  -2.21678  -2.21615  -2.21025
  Beta  occ. eigenvalues --   -2.20732  -2.20288  -2.19973  -2.19844  -1.15620
  Beta  occ. eigenvalues --   -1.15431  -1.15353  -1.15320  -1.15299  -1.15291
  Beta  occ. eigenvalues --   -1.14947  -1.14741  -1.14710  -1.14613  -1.14435
  Beta  occ. eigenvalues --   -1.14306  -1.14069  -1.13884  -1.13778  -1.13633
  Beta  occ. eigenvalues --   -1.13537  -1.13507  -1.13485  -1.13368  -1.13349
  Beta  occ. eigenvalues --   -0.21048  -0.13712  -0.11664
  Beta virt. eigenvalues --   -0.08239  -0.07041  -0.03509  -0.03278  -0.02950
  Beta virt. eigenvalues --   -0.02149  -0.01980  -0.01572  -0.00270  -0.00184
  Beta virt. eigenvalues --    0.00178   0.00491   0.00537   0.00647   0.00925

 Mulliken charges and spin densities:
               1          2
     1  Na   0.061180   0.146995
     2  Na   0.198869   0.261100
     3  Na   0.377231  -0.073072
     4  Na  -0.063779   0.116817
     5  Na   0.336278   0.342176
     6  Na  -0.396385   0.180523
     7  Na  -0.513394   0.025461
 Sum of Mulliken charges =  -0.00000   1.00000

 Dipole moment (field-independent basis, Debye):
    X=              1.1295    Y=             -0.0883    Z=             -0.2005  Tot=              1.1506
 Quadrupole moment (field-independent basis, Debye-Ang):
   XX=            -49.9350   YY=            -77.6083   ZZ=            -66.0622
   XY=             -0.6149   XZ=             -0.6132   YZ=             -1.2613

 Normal termination of Gaussian 16 at Thu Dec  7 20:25:40 2023.
