 Gaussian 16, Revision B.01,
 Gaussian 16:  ES64L-G16RevB.01 20-Dec-2017

 -------------------------
 #P B3LYP/6-311+g(d) force
 -------------------------

 -----
 DPGEN
 -----
 Symbolic Z-matrix:
 Charge =  0 Multiplicity = 2

                         Standard orientation:
 ---------------------------------------------------------------------
 Center     Atomic      Atomic             Coordinates (Angstroms)
 Number     Number       Type             X           Y           Z
 ---------------------------------------------------------------------
      1         11           0       -0.885182    3.022322    0.013847
      2         11           0       -3.914748   -1.793588    0.603761
      3         11           0        2.320579   -1.578109   -0.887670
      4         11           0        4.523505   -0.760711    0.995035
      5         11           0        2.960610    2.688759   -0.252513
      6         11           0       -0.698387   -3.326412   -0.374807
      7         11           0       -4.306377    1.747739   -0.097652
 ---------------------------------------------------------------------

 SCF Done:  E(UB3LYP) =  -1136.10656565     A.U. after   22 cycles

 The electronic state is 2-A.
 Alpha  occ. eigenvalues --  -38.45543 -38.45231 -38.44816 -38.44482 -38.44399
 Alpha  occ. eigenvalues --  -38.44257 -38.43479  -2.21288  -2.20964  -2.20640
 Alpha  occ. eigenvalues --   -2.20242  -2.20214  -2.20032  -2.19267  -1.14971
 Alpha  occ. eigenvalues --   -1.14943  -1.14896  -1.14657  -1.14635  -1.14598
 Alpha  occ. eigenvalues --   -1.14377  -1.14303  -1.14275  -1.13910  -1.13902
 Alpha  occ. eigenvalues --   -1.13894  -1.13871  -1.13842  -1.13832  -1.13703
 Alpha  occ. eigenvalues --   -1.13683  -1.13660  -1.12927  -1.12925  -1.12893
 Alpha  occ. eigenvalues --   -0.15775  -0.13920  -0.12829  -0.10771
 Alpha virt. eigenvalues --   -0.07547  -0.05363  -0.04341  -0.03502  -0.03353
 Alpha virt. eigenvalues --   -0.02627  -0.02157  -0.01884  -0.01117  -0.00955
 Alpha virt. eigenvalues --   -0.00451  -0.00157   0.00007   0.00339   0.00521

  Beta  occ. eigenvalues --  -38.45495 -38.45240 -38.44795 -38.44482 -38.44330
  Beta  occ. eigenvalues --  -38.44225 -38.43430  -2.21203  -2.20983  -2.20609
  Beta  occ. eigenvalues --   -2.20216  -2.20114  -2.19972  -2.19177  -1.14916
  Beta  occ. eigenvalues --   -1.14887  -1.14816  -1.14673  -1.14651  -1.14592
  Beta  occ. eigenvalues --   -1.14333  -1.14281  -1.14237  -1.13914  -1.13905
  Beta  occ. eigenvalues --   -1.13816  -1.13807  -1.13783  -1.13759  -1.13661
  Beta  occ. eigenvalues --   -1.13645  -1.13620  -1.12866  -1.12861  -1.12835
  Beta  occ. eigenvalues --   -0.15122  -0.13517  -0.12113
  Beta virt. eigenvalues --   -0.07712  -0.07502  -0.04873  -0.03944  -0.03246
  Beta virt. eigenvalues --   -0.02987  -0.02381  -0.02027  -0.01666  -0.00791
  Beta virt. eigenvalues --   -0.00687  -0.00343   0.00102   0.00185   0.00329

 Mulliken charges and spin densities:
               1          2
     1  Na  -0.264709  -0.042217
     2  Na   0.028239   0.016902
     3  Na  -0.635858   0.131933
     4  Na   0.587601   0.313698
     5  Na   0.161013   0.143087
     6  Na   0.032036   0.150759
     7  Na   0.091677   0.285837
 Sum of Mulliken charges =  -0.00000   1.00000

 Dipole moment (field-independent basis, Debye):
    X=              0.7488    Y=              0.3779    Z=              0.3441  Tot=              0.9066
 Quadrupole moment (field-independent basis, Debye-Ang):
   XX=            -56.3595   YY=            -70.5514   ZZ=            -70.9559
   XY=              4.6035   XZ=              0.5318   YZ=             -1.6398

 Normal termination of Gaussian 16 at Sun Dec  3 21:11:31 2023.
