 Gaussian 16, Revision B.01,
 Gaussian 16:  ES64L-G16RevB.01 20-Dec-2017

 -------------------------
 #P B3LYP/6-311+g(d) force
 -------------------------

 -----
 DPGEN
 -----
 Symbolic Z-matrix:
 Charge =  0 Multiplicity = 2

                         Standard orientation:
 ---------------------------------------------------------------------
 Center     Atomic      Atomic             Coordinates (Angstroms)
 Number     Number       Type             X           Y           Z
 ---------------------------------------------------------------------
      1         11           0        1.922350   -1.972236   -0.530628
      2         11           0       -3.547284   -0.994757    0.925694
      3         11           0        0.948856    1.539616   -1.192608
      4         11           0       -1.072456   -0.949673   -1.892055
      5         11           0        0.205768   -0.080213    2.135713
      6         11           0       -2.183620    1.921642   -0.152753
      7         11           0        3.726387    0.535620    0.706637
 ---------------------------------------------------------------------

 SCF Done:  E(UB3LYP) =  -1136.12364172     A.U. after   26 cycles

 The electronic state is 2-A.
 Alpha  occ. eigenvalues --  -38.44774 -38.44471 -38.44341 -38.44264 -38.44110
 Alpha  occ. eigenvalues --  -38.42947 -38.42829  -2.20591  -2.20340  -2.20136
 Alpha  occ. eigenvalues --   -2.20110  -2.19906  -2.18834  -2.18752  -1.14270
 Alpha  occ. eigenvalues --   -1.14253  -1.14214  -1.14025  -1.13973  -1.13948
 Alpha  occ. eigenvalues --   -1.13833  -1.13822  -1.13813  -1.13788  -1.13749
 Alpha  occ. eigenvalues --   -1.13696  -1.13575  -1.13563  -1.13528  -1.12541
 Alpha  occ. eigenvalues --   -1.12494  -1.12466  -1.12440  -1.12386  -1.12365
 Alpha  occ. eigenvalues --   -0.18315  -0.13978  -0.11622  -0.10799
 Alpha virt. eigenvalues --   -0.06906  -0.05400  -0.04405  -0.03247  -0.02826
 Alpha virt. eigenvalues --   -0.02480  -0.02359  -0.01083  -0.00795  -0.00319
 Alpha virt. eigenvalues --    0.00137   0.00156   0.00302   0.00655   0.00716

  Beta  occ. eigenvalues --  -38.44761 -38.44412 -38.44345 -38.44224 -38.44091
  Beta  occ. eigenvalues --  -38.42916 -38.42791  -2.20568  -2.20232  -2.20120
  Beta  occ. eigenvalues --   -2.20065  -2.19871  -2.18779  -2.18685  -1.14246
  Beta  occ. eigenvalues --   -1.14236  -1.14200  -1.13948  -1.13907  -1.13861
  Beta  occ. eigenvalues --   -1.13826  -1.13808  -1.13766  -1.13746  -1.13708
  Beta  occ. eigenvalues --   -1.13695  -1.13543  -1.13540  -1.13506  -1.12507
  Beta  occ. eigenvalues --   -1.12441  -1.12421  -1.12392  -1.12326  -1.12314
  Beta  occ. eigenvalues --   -0.17617  -0.13757  -0.10624
  Beta virt. eigenvalues --   -0.07721  -0.06690  -0.04738  -0.04308  -0.02884
  Beta virt. eigenvalues --   -0.02535  -0.02015  -0.01881  -0.00709  -0.00563
  Beta virt. eigenvalues --   -0.00120   0.00175   0.00301   0.00327   0.00713

 Mulliken charges and spin densities:
               1          2
     1  Na   0.062091  -0.017918
     2  Na   0.142325  -0.023221
     3  Na  -0.406018   0.301268
     4  Na  -0.085938   0.528928
     5  Na  -0.613768   0.192441
     6  Na   0.274082  -0.006708
     7  Na   0.627227   0.025210
 Sum of Mulliken charges =  -0.00000   1.00000

 Dipole moment (field-independent basis, Debye):
    X=              0.6173    Y=              0.0186    Z=             -0.0080  Tot=              0.6177
 Quadrupole moment (field-independent basis, Debye-Ang):
   XX=            -51.2592   YY=            -65.1356   ZZ=            -79.4809
   XY=              0.8630   XZ=              1.3387   YZ=              2.1367

 Normal termination of Gaussian 16 at Thu Dec  7 13:00:46 2023.
