 Gaussian 16, Revision B.01,
 Gaussian 16:  ES64L-G16RevB.01 20-Dec-2017

 -------------------------
 #P B3LYP/6-311+g(d) force
 -------------------------

 -----
 DPGEN
 -----
 Symbolic Z-matrix:
 Charge =  0 Multiplicity = 2

                         Standard orientation:
 ---------------------------------------------------------------------
 Center     Atomic      Atomic             Coordinates (Angstroms)
 Number     Number       Type             X           Y           Z
 ---------------------------------------------------------------------
      1         11           0       -2.631970    1.737819    0.184585
      2         11           0       -2.657448   -2.317097    0.170133
      3         11           0        0.118370    0.013572    1.981962
      4         11           0        2.268242   -2.386683   -0.265192
      5         11           0       -0.203749   -0.838825   -1.616871
      6         11           0        2.870755    1.048752    0.410868
      7         11           0        0.235799    2.742462   -0.865485
 ---------------------------------------------------------------------

 SCF Done:  E(UB3LYP) =  -1136.13120128     A.U. after   20 cycles

 The electronic state is 2-A.
 Alpha  occ. eigenvalues --  -38.44335 -38.44250 -38.44246 -38.43924 -38.43789
 Alpha  occ. eigenvalues --  -38.43311 -38.43121  -2.20103  -2.20059  -2.20058
 Alpha  occ. eigenvalues --   -2.19769  -2.19660  -2.19217  -2.18987  -1.13784
 Alpha  occ. eigenvalues --   -1.13758  -1.13754  -1.13744  -1.13740  -1.13733
 Alpha  occ. eigenvalues --   -1.13710  -1.13691  -1.13688  -1.13468  -1.13434
 Alpha  occ. eigenvalues --   -1.13399  -1.13327  -1.13286  -1.13274  -1.12898
 Alpha  occ. eigenvalues --   -1.12858  -1.12847  -1.12651  -1.12645  -1.12627
 Alpha  occ. eigenvalues --   -0.18148  -0.12901  -0.12376  -0.10657
 Alpha virt. eigenvalues --   -0.06212  -0.05434  -0.04363  -0.03246  -0.03071
 Alpha virt. eigenvalues --   -0.02453  -0.01654  -0.01518  -0.00534  -0.00286
 Alpha virt. eigenvalues --    0.00003   0.00350   0.00603   0.00712   0.00806

  Beta  occ. eigenvalues --  -38.44337 -38.44248 -38.44238 -38.43914 -38.43702
  Beta  occ. eigenvalues --  -38.43256 -38.43098  -2.20108  -2.20058  -2.20047
  Beta  occ. eigenvalues --   -2.19754  -2.19500  -2.19117  -2.18946  -1.13780
  Beta  occ. eigenvalues --   -1.13763  -1.13744  -1.13742  -1.13736  -1.13713
  Beta  occ. eigenvalues --   -1.13698  -1.13689  -1.13680  -1.13445  -1.13407
  Beta  occ. eigenvalues --   -1.13390  -1.13222  -1.13178  -1.13156  -1.12830
  Beta  occ. eigenvalues --   -1.12782  -1.12773  -1.12623  -1.12619  -1.12586
  Beta  occ. eigenvalues --   -0.17445  -0.12680  -0.12143
  Beta virt. eigenvalues --   -0.06850  -0.06197  -0.05291  -0.04266  -0.02522
  Beta virt. eigenvalues --   -0.02394  -0.01597  -0.01508  -0.01379  -0.00552
  Beta virt. eigenvalues --   -0.00248   0.00127   0.00388   0.00672   0.00774

 Mulliken charges and spin densities:
               1          2
     1  Na  -0.001235   0.028369
     2  Na  -0.120265  -0.030598
     3  Na  -0.083415   0.509487
     4  Na   0.001087  -0.033966
     5  Na   0.172059   0.268368
     6  Na   0.129218   0.156112
     7  Na  -0.097450   0.102228
 Sum of Mulliken charges =  -0.00000   1.00000

 Dipole moment (field-independent basis, Debye):
    X=             -0.1526    Y=             -0.4752    Z=              0.2434  Tot=              0.5553
 Quadrupole moment (field-independent basis, Debye-Ang):
   XX=            -55.8298   YY=            -62.9416   ZZ=            -74.7149
   XY=             -0.0968   XZ=             -1.0801   YZ=             -1.3950

 Normal termination of Gaussian 16 at Thu Dec  7 18:06:01 2023.
