 Gaussian 16, Revision B.01,
 Gaussian 16:  ES64L-G16RevB.01 20-Dec-2017

 -------------------------
 #P B3LYP/6-311+g(d) force
 -------------------------

 -----
 DPGEN
 -----
 Symbolic Z-matrix:
 Charge =  0 Multiplicity = 2

                         Standard orientation:
 ---------------------------------------------------------------------
 Center     Atomic      Atomic             Coordinates (Angstroms)
 Number     Number       Type             X           Y           Z
 ---------------------------------------------------------------------
      1         11           0        9.305336   -0.991035    0.366020
      2         11           0       -6.720478    0.552098   -0.473738
      3         11           0       -9.384650   -0.390265    0.999343
      4         11           0       -3.074241   -0.475025   -0.822262
      5         11           0        6.397669    0.417851   -0.161772
      6         11           0       -0.033341   -0.571610   -0.274225
      7         11           0        3.509705    1.457985    0.366635
 ---------------------------------------------------------------------

 SCF Done:  E(UB3LYP) =  -1136.10462656     A.U. after   20 cycles

 The electronic state is 2-A.
 Alpha  occ. eigenvalues --  -38.45402 -38.44957 -38.44951 -38.44410 -38.44244
 Alpha  occ. eigenvalues --  -38.44212 -38.43975  -2.21208  -2.20777  -2.20728
 Alpha  occ. eigenvalues --   -2.20185  -2.20026  -2.20020  -2.19794  -1.14836
 Alpha  occ. eigenvalues --   -1.14835  -1.14834  -1.14436  -1.14411  -1.14396
 Alpha  occ. eigenvalues --   -1.14380  -1.14379  -1.14378  -1.13900  -1.13856
 Alpha  occ. eigenvalues --   -1.13852  -1.13694  -1.13692  -1.13677  -1.13672
 Alpha  occ. eigenvalues --   -1.13669  -1.13621  -1.13482  -1.13462  -1.13460
 Alpha  occ. eigenvalues --   -0.15187  -0.14371  -0.13060  -0.11888
 Alpha virt. eigenvalues --   -0.07348  -0.05250  -0.03916  -0.03374  -0.03088
 Alpha virt. eigenvalues --   -0.02876  -0.02669  -0.02120  -0.01837  -0.01448
 Alpha virt. eigenvalues --   -0.01130  -0.00529  -0.00334   0.00185   0.00446

  Beta  occ. eigenvalues --  -38.45295 -38.44926 -38.44871 -38.44428 -38.44252
  Beta  occ. eigenvalues --  -38.44176 -38.43979  -2.21009  -2.20681  -2.20617
  Beta  occ. eigenvalues --   -2.20221  -2.20041  -2.19955  -2.19814  -1.14702
  Beta  occ. eigenvalues --   -1.14700  -1.14700  -1.14349  -1.14347  -1.14347
  Beta  occ. eigenvalues --   -1.14334  -1.14302  -1.14289  -1.13902  -1.13883
  Beta  occ. eigenvalues --   -1.13873  -1.13707  -1.13705  -1.13669  -1.13627
  Beta  occ. eigenvalues --   -1.13626  -1.13592  -1.13485  -1.13484  -1.13421
  Beta  occ. eigenvalues --   -0.14463  -0.13837  -0.12499
  Beta virt. eigenvalues --   -0.08706  -0.06988  -0.04749  -0.03581  -0.03167
  Beta virt. eigenvalues --   -0.02935  -0.02694  -0.02462  -0.01876  -0.01543
  Beta virt. eigenvalues --   -0.01040  -0.00677  -0.00308  -0.00115   0.00270

 Mulliken charges and spin densities:
               1          2
     1  Na   0.518969   0.423994
     2  Na  -0.281298  -0.041324
     3  Na   0.277510   0.119562
     4  Na  -0.357414   0.163448
     5  Na  -0.479431   0.075605
     6  Na   0.515418  -0.058998
     7  Na  -0.193754   0.317713
 Sum of Mulliken charges =  -0.00000   1.00000

 Dipole moment (field-independent basis, Debye):
    X=              0.2813    Y=             -0.3467    Z=              0.5781  Tot=              0.7305
 Quadrupole moment (field-independent basis, Debye-Ang):
   XX=            -32.0057   YY=            -71.0681   ZZ=            -72.8080
   XY=             -2.3604   XZ=             -3.1882   YZ=             -1.2833

 Normal termination of Gaussian 16 at Sun Dec  3 18:19:15 2023.
