 Gaussian 16, Revision B.01,
 Gaussian 16:  ES64L-G16RevB.01 20-Dec-2017

 -------------------------
 #P B3LYP/6-311+g(d) force
 -------------------------

 -----
 DPGEN
 -----
 Symbolic Z-matrix:
 Charge =  0 Multiplicity = 2

                         Standard orientation:
 ---------------------------------------------------------------------
 Center     Atomic      Atomic             Coordinates (Angstroms)
 Number     Number       Type             X           Y           Z
 ---------------------------------------------------------------------
      1         11           0        2.517437    1.717261   -0.268417
      2         11           0       -0.639075    2.835011    0.261494
      3         11           0        0.459066   -0.552976    2.269035
      4         11           0       -3.282260    0.528755   -0.266013
      5         11           0       -1.605613   -2.696419   -0.102740
      6         11           0        2.560929   -1.894116   -0.488733
      7         11           0       -0.010484    0.062484   -1.404626
 ---------------------------------------------------------------------

 SCF Done:  E(UB3LYP) =  -1136.13576613     A.U. after   18 cycles

 The electronic state is 2-A.
 Alpha  occ. eigenvalues --  -38.44077 -38.44013 -38.43956 -38.43811 -38.43733
 Alpha  occ. eigenvalues --  -38.43250 -38.43035  -2.19880  -2.19829  -2.19752
 Alpha  occ. eigenvalues --   -2.19666  -2.19571  -2.19102  -2.19034  -1.13557
 Alpha  occ. eigenvalues --   -1.13541  -1.13519  -1.13512  -1.13487  -1.13463
 Alpha  occ. eigenvalues --   -1.13434  -1.13418  -1.13380  -1.13368  -1.13324
 Alpha  occ. eigenvalues --   -1.13292  -1.13221  -1.13197  -1.13186  -1.12816
 Alpha  occ. eigenvalues --   -1.12761  -1.12735  -1.12719  -1.12670  -1.12656
 Alpha  occ. eigenvalues --   -0.18261  -0.12946  -0.12394  -0.10624
 Alpha virt. eigenvalues --   -0.05814  -0.05334  -0.04720  -0.03025  -0.02950
 Alpha virt. eigenvalues --   -0.02510  -0.01601  -0.01285  -0.00658  -0.00393
 Alpha virt. eigenvalues --   -0.00038   0.00322   0.00744   0.00800   0.00863

  Beta  occ. eigenvalues --  -38.44075 -38.44001 -38.43954 -38.43804 -38.43625
  Beta  occ. eigenvalues --  -38.43246 -38.42992  -2.19878  -2.19811  -2.19751
  Beta  occ. eigenvalues --   -2.19657  -2.19370  -2.19096  -2.18957  -1.13547
  Beta  occ. eigenvalues --   -1.13538  -1.13521  -1.13492  -1.13469  -1.13446
  Beta  occ. eigenvalues --   -1.13428  -1.13408  -1.13380  -1.13360  -1.13300
  Beta  occ. eigenvalues --   -1.13286  -1.13086  -1.13060  -1.13043  -1.12804
  Beta  occ. eigenvalues --   -1.12742  -1.12731  -1.12663  -1.12618  -1.12598
  Beta  occ. eigenvalues --   -0.17589  -0.12721  -0.12200
  Beta virt. eigenvalues --   -0.06669  -0.05808  -0.05281  -0.04635  -0.02332
  Beta virt. eigenvalues --   -0.02178  -0.01529  -0.01455  -0.01222  -0.00690
  Beta virt. eigenvalues --   -0.00416   0.00148   0.00375   0.00783   0.00850

 Mulliken charges and spin densities:
               1          2
     1  Na   0.299487   0.073881
     2  Na   0.061458   0.089181
     3  Na  -0.616294   0.752445
     4  Na   0.119970   0.021981
     5  Na   0.102811  -0.030383
     6  Na   0.227920   0.001811
     7  Na  -0.195352   0.091084
 Sum of Mulliken charges =  -0.00000   1.00000

 Dipole moment (field-independent basis, Debye):
    X=             -0.0073    Y=             -0.2594    Z=              0.0904  Tot=              0.2748
 Quadrupole moment (field-independent basis, Debye-Ang):
   XX=            -55.9420   YY=            -61.8225   ZZ=            -75.2904
   XY=             -0.1492   XZ=             -0.8577   YZ=              1.3224

 Normal termination of Gaussian 16 at Thu Dec  7 17:08:06 2023.
