 Gaussian 16, Revision B.01,
 Gaussian 16:  ES64L-G16RevB.01 20-Dec-2017

 -------------------------
 #P B3LYP/6-311+g(d) force
 -------------------------

 -----
 DPGEN
 -----
 Symbolic Z-matrix:
 Charge =  0 Multiplicity = 2

                         Standard orientation:
 ---------------------------------------------------------------------
 Center     Atomic      Atomic             Coordinates (Angstroms)
 Number     Number       Type             X           Y           Z
 ---------------------------------------------------------------------
      1         11           0        0.447738   -1.332698    1.863002
      2         11           0        2.800988    0.045478   -0.000505
      3         11           0        5.673921    1.381438   -0.159303
      4         11           0       -1.641266    1.391410    0.176659
      5         11           0       -2.774419   -1.919750    0.118019
      6         11           0        0.148611   -1.746452   -1.792751
      7         11           0       -4.655574    2.180575   -0.205121
 ---------------------------------------------------------------------

 SCF Done:  E(UB3LYP) =  -1136.11199445     A.U. after   24 cycles

 The electronic state is 2-A.
 Alpha  occ. eigenvalues --  -38.45662 -38.44966 -38.44274 -38.44245 -38.44031
 Alpha  occ. eigenvalues --  -38.43849 -38.43081  -2.21463  -2.20792  -2.20124
 Alpha  occ. eigenvalues --   -2.20117  -2.19824  -2.19635  -2.18940  -1.15144
 Alpha  occ. eigenvalues --   -1.15133  -1.15075  -1.14468  -1.14430  -1.14405
 Alpha  occ. eigenvalues --   -1.13811  -1.13791  -1.13787  -1.13774  -1.13751
 Alpha  occ. eigenvalues --   -1.13719  -1.13480  -1.13468  -1.13466  -1.13301
 Alpha  occ. eigenvalues --   -1.13295  -1.13272  -1.12629  -1.12612  -1.12585
 Alpha  occ. eigenvalues --   -0.17720  -0.13612  -0.11895  -0.10736
 Alpha virt. eigenvalues --   -0.07688  -0.05911  -0.04072  -0.03240  -0.02819
 Alpha virt. eigenvalues --   -0.02488  -0.02315  -0.02031  -0.00985  -0.00919
 Alpha virt. eigenvalues --   -0.00657  -0.00142   0.00092   0.00405   0.00491

  Beta  occ. eigenvalues --  -38.45644 -38.44908 -38.44261 -38.44172 -38.43990
  Beta  occ. eigenvalues --  -38.43860 -38.43078  -2.21432  -2.20685  -2.20100
  Beta  occ. eigenvalues --   -2.19983  -2.19748  -2.19656  -2.18941  -1.15115
  Beta  occ. eigenvalues --   -1.15106  -1.15051  -1.14396  -1.14342  -1.14337
  Beta  occ. eigenvalues --   -1.13793  -1.13771  -1.13742  -1.13697  -1.13664
  Beta  occ. eigenvalues --   -1.13630  -1.13431  -1.13416  -1.13413  -1.13316
  Beta  occ. eigenvalues --   -1.13308  -1.13285  -1.12630  -1.12617  -1.12549
  Beta  occ. eigenvalues --   -0.17122  -0.13367  -0.11578
  Beta virt. eigenvalues --   -0.07535  -0.06945  -0.05719  -0.03757  -0.02799
  Beta virt. eigenvalues --   -0.02595  -0.02321  -0.01870  -0.01741  -0.00737
  Beta virt. eigenvalues --   -0.00681  -0.00357   0.00132   0.00165   0.00480

 Mulliken charges and spin densities:
               1          2
     1  Na   1.140673   0.345304
     2  Na  -0.485999  -0.086898
     3  Na  -1.214948   0.124110
     4  Na  -0.596545   0.066631
     5  Na  -0.211242   0.227844
     6  Na   0.805402   0.340590
     7  Na   0.562659  -0.017582
 Sum of Mulliken charges =  -0.00000   1.00000

 Dipole moment (field-independent basis, Debye):
    X=             -1.5337    Y=             -1.1344    Z=              0.2616  Tot=              1.9255
 Quadrupole moment (field-independent basis, Debye-Ang):
   XX=            -60.0149   YY=            -68.8747   ZZ=            -70.8052
   XY=              4.1928   XZ=             -1.6599   YZ=             -4.2878

 Normal termination of Gaussian 16 at Fri Dec  8 17:11:11 2023.
