 Gaussian 16, Revision B.01,
 Gaussian 16:  ES64L-G16RevB.01 20-Dec-2017

 -------------------------
 #P B3LYP/6-311+g(d) force
 -------------------------

 -----
 DPGEN
 -----
 Symbolic Z-matrix:
 Charge =  0 Multiplicity = 2

                         Standard orientation:
 ---------------------------------------------------------------------
 Center     Atomic      Atomic             Coordinates (Angstroms)
 Number     Number       Type             X           Y           Z
 ---------------------------------------------------------------------
      1         11           0       -0.028483   -2.531875    0.946239
      2         11           0        3.294318   -0.552623   -0.572941
      3         11           0       -0.373222    0.511598    1.842006
      4         11           0       -1.945500    2.588547   -0.466922
      5         11           0       -2.871443   -1.212590   -0.449426
      6         11           0        0.095716   -0.752918   -1.603252
      7         11           0        1.828614    1.949861    0.304296
 ---------------------------------------------------------------------

 SCF Done:  E(UB3LYP) =  -1136.13061588     A.U. after   19 cycles

 The electronic state is 2-A.
 Alpha  occ. eigenvalues --  -38.44188 -38.43899 -38.43636 -38.43591 -38.43505
 Alpha  occ. eigenvalues --  -38.43435 -38.43386  -2.20037  -2.19755  -2.19498
 Alpha  occ. eigenvalues --   -2.19468  -2.19426  -2.19356  -2.19348  -1.13739
 Alpha  occ. eigenvalues --   -1.13691  -1.13657  -1.13487  -1.13416  -1.13382
 Alpha  occ. eigenvalues --   -1.13267  -1.13211  -1.13148  -1.13113  -1.13107
 Alpha  occ. eigenvalues --   -1.13102  -1.13087  -1.13084  -1.13079  -1.13064
 Alpha  occ. eigenvalues --   -1.12992  -1.12971  -1.12965  -1.12943  -1.12923
 Alpha  occ. eigenvalues --   -0.18760  -0.13268  -0.12236  -0.11077
 Alpha virt. eigenvalues --   -0.05666  -0.05217  -0.04302  -0.03325  -0.03116
 Alpha virt. eigenvalues --   -0.02505  -0.01674  -0.01072  -0.00370   0.00013
 Alpha virt. eigenvalues --    0.00079   0.00342   0.00777   0.00871   0.00880

  Beta  occ. eigenvalues --  -38.44174 -38.43889 -38.43630 -38.43583 -38.43457
  Beta  occ. eigenvalues --  -38.43400 -38.43306  -2.20014  -2.19738  -2.19488
  Beta  occ. eigenvalues --   -2.19417  -2.19381  -2.19287  -2.19209  -1.13715
  Beta  occ. eigenvalues --   -1.13667  -1.13640  -1.13479  -1.13394  -1.13368
  Beta  occ. eigenvalues --   -1.13233  -1.13156  -1.13126  -1.13096  -1.13095
  Beta  occ. eigenvalues --   -1.13076  -1.13055  -1.13052  -1.13017  -1.13010
  Beta  occ. eigenvalues --   -1.12918  -1.12914  -1.12905  -1.12867  -1.12819
  Beta  occ. eigenvalues --   -0.18046  -0.12981  -0.12043
  Beta virt. eigenvalues --   -0.07169  -0.05578  -0.05053  -0.04226  -0.02649
  Beta virt. eigenvalues --   -0.02492  -0.01585  -0.01461  -0.01018  -0.00245
  Beta virt. eigenvalues --    0.00031   0.00143   0.00390   0.00826   0.00895

 Mulliken charges and spin densities:
               1          2
     1  Na   0.124407   0.097908
     2  Na   0.161829   0.002612
     3  Na   0.243267   0.332858
     4  Na  -0.308990   0.000061
     5  Na   0.151940   0.038812
     6  Na  -0.316660   0.576577
     7  Na  -0.055794  -0.048828
 Sum of Mulliken charges =  -0.00000   1.00000

 Dipole moment (field-independent basis, Debye):
    X=             -0.2489    Y=             -0.2278    Z=             -0.1631  Tot=              0.3748
 Quadrupole moment (field-independent basis, Debye-Ang):
   XX=            -56.1384   YY=            -65.5442   ZZ=            -72.3817
   XY=             -0.4495   XZ=              1.0158   YZ=             -2.2294

 Normal termination of Gaussian 16 at Wed Nov 29 02:08:37 2023.
