 Gaussian 16, Revision B.01,
 Gaussian 16:  ES64L-G16RevB.01 20-Dec-2017

 -------------------------
 #P B3LYP/6-311+g(d) force
 -------------------------

 -----
 DPGEN
 -----
 Symbolic Z-matrix:
 Charge =  0 Multiplicity = 2

                         Standard orientation:
 ---------------------------------------------------------------------
 Center     Atomic      Atomic             Coordinates (Angstroms)
 Number     Number       Type             X           Y           Z
 ---------------------------------------------------------------------
      1         11           0       -3.085899    3.171950    0.076411
      2         11           0        4.321562    1.850074   -0.550008
      3         11           0       -4.561822   -0.262331   -0.229918
      4         11           0        0.898497    2.279433    0.557835
      5         11           0        0.758212   -2.882548    0.591033
      6         11           0        3.894338   -1.391352   -0.061505
      7         11           0       -2.224888   -2.765225   -0.383849
 ---------------------------------------------------------------------

 SCF Done:  E(UB3LYP) =  -1136.10699038     A.U. after   25 cycles

 The electronic state is 2-A.
 Alpha  occ. eigenvalues --  -38.45939 -38.45810 -38.44609 -38.44425 -38.44242
 Alpha  occ. eigenvalues --  -38.44114 -38.43287  -2.21664  -2.21595  -2.20341
 Alpha  occ. eigenvalues --   -2.20210  -2.20048  -2.19936  -2.19114  -1.15358
 Alpha  occ. eigenvalues --   -1.15347  -1.15276  -1.15254  -1.15252  -1.15234
 Alpha  occ. eigenvalues --   -1.14025  -1.13999  -1.13982  -1.13879  -1.13877
 Alpha  occ. eigenvalues --   -1.13830  -1.13732  -1.13721  -1.13692  -1.13594
 Alpha  occ. eigenvalues --   -1.13585  -1.13564  -1.12773  -1.12766  -1.12758
 Alpha  occ. eigenvalues --   -0.15901  -0.14097  -0.12849  -0.10715
 Alpha virt. eigenvalues --   -0.07857  -0.05349  -0.04181  -0.03730  -0.03396
 Alpha virt. eigenvalues --   -0.02609  -0.02277  -0.01731  -0.01180  -0.00884
 Alpha virt. eigenvalues --   -0.00395  -0.00214   0.00074   0.00396   0.00558

  Beta  occ. eigenvalues --  -38.45899 -38.45782 -38.44606 -38.44378 -38.44242
  Beta  occ. eigenvalues --  -38.44065 -38.43257  -2.21592  -2.21549  -2.20336
  Beta  occ. eigenvalues --   -2.20124  -2.20053  -2.19846  -2.19057  -1.15310
  Beta  occ. eigenvalues --   -1.15298  -1.15251  -1.15226  -1.15187  -1.15160
  Beta  occ. eigenvalues --   -1.14023  -1.14000  -1.13967  -1.13821  -1.13816
  Beta  occ. eigenvalues --   -1.13770  -1.13737  -1.13727  -1.13669  -1.13526
  Beta  occ. eigenvalues --   -1.13523  -1.13508  -1.12742  -1.12726  -1.12718
  Beta  occ. eigenvalues --   -0.15334  -0.13554  -0.12413
  Beta virt. eigenvalues --   -0.07863  -0.07396  -0.04869  -0.03759  -0.03444
  Beta virt. eigenvalues --   -0.02974  -0.02425  -0.02142  -0.01597  -0.00989
  Beta virt. eigenvalues --   -0.00517  -0.00254   0.00083   0.00241   0.00454

 Mulliken charges and spin densities:
               1          2
     1  Na   0.250043  -0.096052
     2  Na   0.557470   0.251667
     3  Na  -0.087572   0.202490
     4  Na  -0.636464   0.324278
     5  Na  -0.347537   0.048130
     6  Na   0.181491   0.156951
     7  Na   0.082569   0.112536
 Sum of Mulliken charges =  -0.00000   1.00000

 Dipole moment (field-independent basis, Debye):
    X=              1.0462    Y=              0.5942    Z=             -0.1065  Tot=              1.2079
 Quadrupole moment (field-independent basis, Debye-Ang):
   XX=            -56.9682   YY=            -68.5090   ZZ=            -73.5139
   XY=             -4.0611   XZ=             -0.2436   YZ=              0.1318

 Normal termination of Gaussian 16 at Sun Dec  3 20:39:28 2023.
