 Gaussian 16, Revision B.01,
 Gaussian 16:  ES64L-G16RevB.01 20-Dec-2017

 -------------------------
 #P B3LYP/6-311+g(d) force
 -------------------------

 -----
 DPGEN
 -----
 Symbolic Z-matrix:
 Charge =  0 Multiplicity = 2

                         Standard orientation:
 ---------------------------------------------------------------------
 Center     Atomic      Atomic             Coordinates (Angstroms)
 Number     Number       Type             X           Y           Z
 ---------------------------------------------------------------------
      1         11           0       -0.465683   -0.156773    2.271437
      2         11           0        0.536751    3.006658    0.155776
      3         11           0        2.946281    0.354424    0.218348
      4         11           0        1.594934   -2.399794   -0.201065
      5         11           0        0.553276    0.066752   -1.859309
      6         11           0       -2.228974   -2.118438   -0.054009
      7         11           0       -2.936586    1.247172   -0.531178
 ---------------------------------------------------------------------

 SCF Done:  E(UB3LYP) =  -1136.13410080     A.U. after   20 cycles

 The electronic state is 2-A.
 Alpha  occ. eigenvalues --  -38.44227 -38.44195 -38.43907 -38.43816 -38.43671
 Alpha  occ. eigenvalues --  -38.43317 -38.43295  -2.20027  -2.20011  -2.19800
 Alpha  occ. eigenvalues --   -2.19745  -2.19484  -2.19207  -2.19097  -1.13688
 Alpha  occ. eigenvalues --   -1.13682  -1.13668  -1.13653  -1.13651  -1.13649
 Alpha  occ. eigenvalues --   -1.13553  -1.13470  -1.13434  -1.13416  -1.13374
 Alpha  occ. eigenvalues --   -1.13350  -1.13159  -1.13147  -1.13124  -1.12890
 Alpha  occ. eigenvalues --   -1.12868  -1.12822  -1.12770  -1.12764  -1.12738
 Alpha  occ. eigenvalues --   -0.18303  -0.13096  -0.12124  -0.11088
 Alpha virt. eigenvalues --   -0.05636  -0.05186  -0.04646  -0.03600  -0.02975
 Alpha virt. eigenvalues --   -0.02909  -0.01371  -0.01008  -0.00405  -0.00313
 Alpha virt. eigenvalues --   -0.00087   0.00384   0.00760   0.00836   0.00866

  Beta  occ. eigenvalues --  -38.44217 -38.44098 -38.43903 -38.43753 -38.43670
  Beta  occ. eigenvalues --  -38.43311 -38.43293  -2.19994  -2.19848  -2.19794
  Beta  occ. eigenvalues --   -2.19631  -2.19484  -2.19200  -2.19097  -1.13664
  Beta  occ. eigenvalues --   -1.13656  -1.13641  -1.13563  -1.13533  -1.13528
  Beta  occ. eigenvalues --   -1.13523  -1.13459  -1.13416  -1.13349  -1.13294
  Beta  occ. eigenvalues --   -1.13276  -1.13151  -1.13134  -1.13127  -1.12883
  Beta  occ. eigenvalues --   -1.12850  -1.12810  -1.12766  -1.12751  -1.12739
  Beta  occ. eigenvalues --   -0.17571  -0.12885  -0.11925
  Beta virt. eigenvalues --   -0.07205  -0.05555  -0.05122  -0.04538  -0.02828
  Beta virt. eigenvalues --   -0.02239  -0.01926  -0.01264  -0.00936  -0.00444
  Beta virt. eigenvalues --   -0.00356   0.00079   0.00420   0.00854   0.00892

 Mulliken charges and spin densities:
               1          2
     1  Na  -0.509165   0.671241
     2  Na  -0.030004  -0.052624
     3  Na   0.220219   0.059023
     4  Na   0.292729  -0.011103
     5  Na  -0.130521   0.409670
     6  Na   0.131081  -0.044902
     7  Na   0.025662  -0.031305
 Sum of Mulliken charges =  -0.00000   1.00000

 Dipole moment (field-independent basis, Debye):
    X=             -0.1992    Y=              0.0323    Z=              0.0944  Tot=              0.2228
 Quadrupole moment (field-independent basis, Debye-Ang):
   XX=            -59.4478   YY=            -64.9148   ZZ=            -71.4722
   XY=             -0.2946   XZ=              2.0556   YZ=              0.3804

 Normal termination of Gaussian 16 at Thu Dec  7 15:43:54 2023.
