 Gaussian 16, Revision B.01,
 Gaussian 16:  ES64L-G16RevB.01 20-Dec-2017

 -------------------------
 #P B3LYP/6-311+g(d) force
 -------------------------

 -----
 DPGEN
 -----
 Symbolic Z-matrix:
 Charge =  0 Multiplicity = 2

                         Standard orientation:
 ---------------------------------------------------------------------
 Center     Atomic      Atomic             Coordinates (Angstroms)
 Number     Number       Type             X           Y           Z
 ---------------------------------------------------------------------
      1         11           0       -1.197385    3.066120    0.263627
      2         11           0        3.642718    1.281783   -0.114461
      3         11           0        1.763621   -2.255464   -0.375038
      4         11           0       -3.402060    0.401800   -0.352830
      5         11           0        0.193440    0.041067   -1.821410
      6         11           0       -1.737481   -2.508591    0.494302
      7         11           0        0.737146   -0.026714    1.905810
 ---------------------------------------------------------------------

 SCF Done:  E(UB3LYP) =  -1136.12630386     A.U. after   22 cycles

 The electronic state is 2-A.
 Alpha  occ. eigenvalues --  -38.45196 -38.44361 -38.43924 -38.43864 -38.43824
 Alpha  occ. eigenvalues --  -38.43692 -38.43398  -2.20929  -2.20152  -2.19737
 Alpha  occ. eigenvalues --   -2.19700  -2.19689  -2.19552  -2.19212  -1.14605
 Alpha  occ. eigenvalues --   -1.14595  -1.14561  -1.13828  -1.13814  -1.13792
 Alpha  occ. eigenvalues --   -1.13511  -1.13419  -1.13365  -1.13364  -1.13349
 Alpha  occ. eigenvalues --   -1.13337  -1.13330  -1.13313  -1.13297  -1.13223
 Alpha  occ. eigenvalues --   -1.13191  -1.13157  -1.12884  -1.12873  -1.12853
 Alpha  occ. eigenvalues --   -0.17830  -0.13073  -0.11895  -0.10490
 Alpha virt. eigenvalues --   -0.06737  -0.05263  -0.04680  -0.03210  -0.02764
 Alpha virt. eigenvalues --   -0.02495  -0.02190  -0.01225  -0.00849  -0.00436
 Alpha virt. eigenvalues --   -0.00096   0.00270   0.00541   0.00685   0.00750

  Beta  occ. eigenvalues --  -38.45200 -38.44360 -38.43925 -38.43847 -38.43747
  Beta  occ. eigenvalues --  -38.43612 -38.43390  -2.20938  -2.20150  -2.19711
  Beta  occ. eigenvalues --   -2.19691  -2.19560  -2.19405  -2.19200  -1.14607
  Beta  occ. eigenvalues --   -1.14592  -1.14569  -1.13816  -1.13814  -1.13794
  Beta  occ. eigenvalues --   -1.13468  -1.13371  -1.13357  -1.13353  -1.13331
  Beta  occ. eigenvalues --   -1.13320  -1.13273  -1.13221  -1.13200  -1.13124
  Beta  occ. eigenvalues --   -1.13090  -1.13048  -1.12876  -1.12849  -1.12848
  Beta  occ. eigenvalues --   -0.17103  -0.12914  -0.11706
  Beta virt. eigenvalues --   -0.06712  -0.06610  -0.05143  -0.04599  -0.02583
  Beta virt. eigenvalues --   -0.02181  -0.02022  -0.01467  -0.01147  -0.00847
  Beta virt. eigenvalues --   -0.00440   0.00050   0.00298   0.00663   0.00716

 Mulliken charges and spin densities:
               1          2
     1  Na  -0.155067  -0.113523
     2  Na  -0.064405  -0.138492
     3  Na   0.283351   0.058515
     4  Na   0.049342   0.002612
     5  Na   0.103691   0.487978
     6  Na  -0.153985   0.005281
     7  Na  -0.062926   0.697628
 Sum of Mulliken charges =  -0.00000   1.00000

 Dipole moment (field-independent basis, Debye):
    X=              0.5835    Y=              0.2835    Z=             -0.0896  Tot=              0.6548
 Quadrupole moment (field-independent basis, Debye-Ang):
   XX=            -52.3415   YY=            -64.6757   ZZ=            -75.9656
   XY=              2.1728   XZ=             -0.7355   YZ=              0.0219

 Normal termination of Gaussian 16 at Fri Dec  8 05:20:31 2023.
