 Gaussian 16, Revision B.01,
 Gaussian 16:  ES64L-G16RevB.01 20-Dec-2017

 -------------------------
 #P B3LYP/6-311+g(d) force
 -------------------------

 -----
 DPGEN
 -----
 Symbolic Z-matrix:
 Charge =  0 Multiplicity = 2

                         Standard orientation:
 ---------------------------------------------------------------------
 Center     Atomic      Atomic             Coordinates (Angstroms)
 Number     Number       Type             X           Y           Z
 ---------------------------------------------------------------------
      1         11           0       -0.983925    0.004759   -1.476461
      2         11           0       -3.393770   -1.728176    0.169978
      3         11           0       -2.116443    2.419080   -0.031283
      4         11           0       -0.539558   -0.118556    2.108423
      5         11           0        4.113402   -0.204880    0.481934
      6         11           0        1.302332   -2.029359   -0.759766
      7         11           0        1.617963    1.657133   -0.492825
 ---------------------------------------------------------------------

 SCF Done:  E(UB3LYP) =  -1136.11909006     A.U. after   24 cycles

 The electronic state is 2-A.
 Alpha  occ. eigenvalues --  -38.45078 -38.44767 -38.44515 -38.43931 -38.43477
 Alpha  occ. eigenvalues --  -38.43375 -38.42886  -2.20875  -2.20592  -2.20277
 Alpha  occ. eigenvalues --   -2.19782  -2.19323  -2.19260  -2.18928  -1.14554
 Alpha  occ. eigenvalues --   -1.14528  -1.14503  -1.14270  -1.14224  -1.14203
 Alpha  occ. eigenvalues --   -1.13966  -1.13936  -1.13917  -1.13511  -1.13444
 Alpha  occ. eigenvalues --   -1.13369  -1.13065  -1.12992  -1.12971  -1.12942
 Alpha  occ. eigenvalues --   -1.12937  -1.12853  -1.12633  -1.12558  -1.12506
 Alpha  occ. eigenvalues --   -0.18402  -0.13733  -0.11263  -0.10829
 Alpha virt. eigenvalues --   -0.07222  -0.05420  -0.03862  -0.03203  -0.02861
 Alpha virt. eigenvalues --   -0.02447  -0.02279  -0.01527  -0.00737  -0.00236
 Alpha virt. eigenvalues --    0.00028   0.00110   0.00401   0.00631   0.00675

  Beta  occ. eigenvalues --  -38.45066 -38.44689 -38.44532 -38.43893 -38.43472
  Beta  occ. eigenvalues --  -38.43361 -38.42820  -2.20853  -2.20447  -2.20309
  Beta  occ. eigenvalues --   -2.19717  -2.19318  -2.19239  -2.18811  -1.14537
  Beta  occ. eigenvalues --   -1.14507  -1.14490  -1.14169  -1.14121  -1.14099
  Beta  occ. eigenvalues --   -1.13986  -1.13951  -1.13937  -1.13456  -1.13382
  Beta  occ. eigenvalues --   -1.13328  -1.13053  -1.12969  -1.12955  -1.12934
  Beta  occ. eigenvalues --   -1.12904  -1.12845  -1.12552  -1.12468  -1.12422
  Beta  occ. eigenvalues --   -0.17651  -0.13580  -0.11029
  Beta virt. eigenvalues --   -0.07113  -0.06787  -0.05397  -0.03607  -0.02879
  Beta virt. eigenvalues --   -0.02454  -0.01771  -0.01601  -0.01379  -0.00478
  Beta virt. eigenvalues --   -0.00151   0.00066   0.00110   0.00571   0.00691

 Mulliken charges and spin densities:
               1          2
     1  Na  -0.114524  -0.054957
     2  Na   0.096383  -0.033005
     3  Na   0.266864   0.067619
     4  Na  -0.456011   0.729793
     5  Na   0.202259   0.101699
     6  Na   0.074628   0.097675
     7  Na  -0.069599   0.091175
 Sum of Mulliken charges =  -0.00000   1.00000

 Dipole moment (field-independent basis, Debye):
    X=              0.4682    Y=             -0.1368    Z=              0.5595  Tot=              0.7423
 Quadrupole moment (field-independent basis, Debye-Ang):
   XX=            -46.8062   YY=            -72.4599   ZZ=            -73.0312
   XY=             -1.6321   XZ=              1.6688   YZ=              0.1955

 Normal termination of Gaussian 16 at Fri Dec  8 01:41:28 2023.
