 Gaussian 16, Revision B.01,
 Gaussian 16:  ES64L-G16RevB.01 20-Dec-2017

 -------------------------
 #P B3LYP/6-311+g(d) force
 -------------------------

 -----
 DPGEN
 -----
 Symbolic Z-matrix:
 Charge =  0 Multiplicity = 2

                         Standard orientation:
 ---------------------------------------------------------------------
 Center     Atomic      Atomic             Coordinates (Angstroms)
 Number     Number       Type             X           Y           Z
 ---------------------------------------------------------------------
      1         11           0        1.998568    2.795167   -0.484627
      2         11           0       -1.444508    3.006807    0.967992
      3         11           0        3.926038   -0.086986   -1.005244
      4         11           0        2.644229   -2.746312    1.117033
      5         11           0       -0.432372   -0.669312    0.514948
      6         11           0       -3.812112    0.590800   -0.413502
      7         11           0       -2.879843   -2.890164   -0.696600
 ---------------------------------------------------------------------

 SCF Done:  E(UB3LYP) =  -1136.11969251     A.U. after   22 cycles

 The electronic state is 2-A.
 Alpha  occ. eigenvalues --  -38.45499 -38.44748 -38.44561 -38.44025 -38.43981
 Alpha  occ. eigenvalues --  -38.43796 -38.43317  -2.21273  -2.20537  -2.20338
 Alpha  occ. eigenvalues --   -2.19807  -2.19781  -2.19585  -2.19115  -1.14967
 Alpha  occ. eigenvalues --   -1.14934  -1.14895  -1.14263  -1.14197  -1.14150
 Alpha  occ. eigenvalues --   -1.14021  -1.14001  -1.13965  -1.13488  -1.13474
 Alpha  occ. eigenvalues --   -1.13440  -1.13435  -1.13420  -1.13400  -1.13242
 Alpha  occ. eigenvalues --   -1.13230  -1.13209  -1.12790  -1.12767  -1.12754
 Alpha  occ. eigenvalues --   -0.16376  -0.13871  -0.12456  -0.10373
 Alpha virt. eigenvalues --   -0.07025  -0.05353  -0.04269  -0.03845  -0.03106
 Alpha virt. eigenvalues --   -0.02471  -0.01684  -0.01579  -0.01036  -0.00909
 Alpha virt. eigenvalues --   -0.00474  -0.00005   0.00145   0.00539   0.00606

  Beta  occ. eigenvalues --  -38.45491 -38.44741 -38.44536 -38.43987 -38.43936
  Beta  occ. eigenvalues --  -38.43739 -38.43295  -2.21263  -2.20525  -2.20296
  Beta  occ. eigenvalues --   -2.19739  -2.19697  -2.19479  -2.19076  -1.14964
  Beta  occ. eigenvalues --   -1.14930  -1.14858  -1.14251  -1.14192  -1.14137
  Beta  occ. eigenvalues --   -1.13996  -1.13971  -1.13910  -1.13443  -1.13432
  Beta  occ. eigenvalues --   -1.13382  -1.13377  -1.13357  -1.13343  -1.13169
  Beta  occ. eigenvalues --   -1.13156  -1.13142  -1.12763  -1.12741  -1.12728
  Beta  occ. eigenvalues --   -0.16014  -0.13159  -0.11965
  Beta virt. eigenvalues --   -0.07137  -0.06976  -0.05045  -0.03833  -0.03665
  Beta virt. eigenvalues --   -0.02604  -0.02313  -0.01474  -0.01370  -0.00866
  Beta virt. eigenvalues --   -0.00559  -0.00223   0.00189   0.00268   0.00573

 Mulliken charges and spin densities:
               1          2
     1  Na  -0.018526   0.214636
     2  Na   0.418509   0.072025
     3  Na   0.237093   0.088698
     4  Na   0.166127   0.112241
     5  Na  -2.324427   0.180938
     6  Na   1.274699   0.116378
     7  Na   0.246525   0.215083
 Sum of Mulliken charges =  -0.00000   1.00000

 Dipole moment (field-independent basis, Debye):
    X=             -1.0343    Y=             -0.2731    Z=             -0.3151  Tot=              1.1152
 Quadrupole moment (field-independent basis, Debye-Ang):
   XX=            -57.6015   YY=            -66.0842   ZZ=            -72.0246
   XY=             -5.4342   XZ=              0.3749   YZ=              0.7868

 Normal termination of Gaussian 16 at Tue Dec  5 13:42:43 2023.
