 Gaussian 16, Revision B.01,
 Gaussian 16:  ES64L-G16RevB.01 20-Dec-2017

 -------------------------
 #P B3LYP/6-311+g(d) force
 -------------------------

 -----
 DPGEN
 -----
 Symbolic Z-matrix:
 Charge =  0 Multiplicity = 2

                         Standard orientation:
 ---------------------------------------------------------------------
 Center     Atomic      Atomic             Coordinates (Angstroms)
 Number     Number       Type             X           Y           Z
 ---------------------------------------------------------------------
      1         11           0        0.040027   -0.891496    1.508052
      2         11           0        0.014966   -0.968880   -1.468558
      3         11           0        2.601982   -1.428024    0.100616
      4         11           0        3.040934    1.560067   -0.123729
      5         11           0        0.052562    1.590394    0.022034
      6         11           0       -3.103999    1.522811    0.058476
      7         11           0       -2.646472   -1.384872   -0.096891
 ---------------------------------------------------------------------

 SCF Done:  E(UB3LYP) =  -1136.09806473     A.U. after   23 cycles

 The electronic state is 2-A.
 Alpha  occ. eigenvalues --  -38.44752 -38.44751 -38.44733 -38.44564 -38.43532
 Alpha  occ. eigenvalues --  -38.43318 -38.43235  -2.20715  -2.20708  -2.20621
 Alpha  occ. eigenvalues --   -2.20448  -2.19597  -2.19408  -2.19334  -1.14499
 Alpha  occ. eigenvalues --   -1.14424  -1.14411  -1.14396  -1.14373  -1.14368
 Alpha  occ. eigenvalues --   -1.14289  -1.14246  -1.14189  -1.14156  -1.14071
 Alpha  occ. eigenvalues --   -1.14067  -1.13476  -1.13316  -1.13187  -1.13139
 Alpha  occ. eigenvalues --   -1.13027  -1.13002  -1.12946  -1.12942  -1.12863
 Alpha  occ. eigenvalues --   -0.20025  -0.14856  -0.11628  -0.10514
 Alpha virt. eigenvalues --   -0.07135  -0.05884  -0.03750  -0.03337  -0.02862
 Alpha virt. eigenvalues --   -0.01954  -0.01707  -0.01467  -0.00331  -0.00097
 Alpha virt. eigenvalues --    0.00124   0.00350   0.00595   0.00671   0.00887

  Beta  occ. eigenvalues --  -38.44758 -38.44738 -38.44718 -38.44567 -38.43502
  Beta  occ. eigenvalues --  -38.43256 -38.43162  -2.20696  -2.20686  -2.20633
  Beta  occ. eigenvalues --   -2.20455  -2.19549  -2.19295  -2.19202  -1.14502
  Beta  occ. eigenvalues --   -1.14413  -1.14401  -1.14390  -1.14320  -1.14312
  Beta  occ. eigenvalues --   -1.14296  -1.14235  -1.14192  -1.14160  -1.14074
  Beta  occ. eigenvalues --   -1.14054  -1.13436  -1.13216  -1.13161  -1.13072
  Beta  occ. eigenvalues --   -1.12943  -1.12916  -1.12857  -1.12847  -1.12764
  Beta  occ. eigenvalues --   -0.19275  -0.14602  -0.11423
  Beta virt. eigenvalues --   -0.07058  -0.06482  -0.05837  -0.03245  -0.02896
  Beta virt. eigenvalues --   -0.02768  -0.01522  -0.01307  -0.00731  -0.00377
  Beta virt. eigenvalues --    0.00154   0.00188   0.00346   0.00621   0.00693

 Mulliken charges and spin densities:
               1          2
     1  Na  -0.184102   0.329788
     2  Na  -0.315290   0.365699
     3  Na   0.682345   0.149067
     4  Na   0.311822  -0.032247
     5  Na  -1.206621   0.170316
     6  Na   0.015493  -0.134799
     7  Na   0.696353   0.152175
 Sum of Mulliken charges =  -0.00000   1.00000

 Dipole moment (field-independent basis, Debye):
    X=             -0.0970    Y=             -0.3202    Z=              0.0348  Tot=              0.3364
 Quadrupole moment (field-independent basis, Debye-Ang):
   XX=            -43.0296   YY=            -72.5814   ZZ=            -76.3695
   XY=             -0.4456   XZ=             -0.2673   YZ=             -0.2246

 Normal termination of Gaussian 16 at Fri Dec  8 19:18:27 2023.
