 Gaussian 16, Revision B.01,
 Gaussian 16:  ES64L-G16RevB.01 20-Dec-2017

 -------------------------
 #P B3LYP/6-311+g(d) force
 -------------------------

 -----
 DPGEN
 -----
 Symbolic Z-matrix:
 Charge =  0 Multiplicity = 2

                         Standard orientation:
 ---------------------------------------------------------------------
 Center     Atomic      Atomic             Coordinates (Angstroms)
 Number     Number       Type             X           Y           Z
 ---------------------------------------------------------------------
      1         11           0        0.281867    0.116452    1.994012
      2         11           0       -3.197155   -0.246533   -0.257334
      3         11           0        2.494834    1.604255   -0.167392
      4         11           0       -0.650024   -2.345017    0.430824
      5         11           0        2.223451   -1.631942   -0.349281
      6         11           0       -0.105368   -0.103179   -1.740467
      7         11           0       -1.047606    2.605964    0.089639
 ---------------------------------------------------------------------

 SCF Done:  E(UB3LYP) =  -1136.13444807     A.U. after   19 cycles

 The electronic state is 2-A.
 Alpha  occ. eigenvalues --  -38.44005 -38.43678 -38.43608 -38.43412 -38.43333
 Alpha  occ. eigenvalues --  -38.43316 -38.42889  -2.19839  -2.19648  -2.19480
 Alpha  occ. eigenvalues --   -2.19435  -2.19298  -2.19168  -2.18881  -1.13515
 Alpha  occ. eigenvalues --   -1.13500  -1.13480  -1.13350  -1.13289  -1.13264
 Alpha  occ. eigenvalues --   -1.13193  -1.13157  -1.13147  -1.13117  -1.13088
 Alpha  occ. eigenvalues --   -1.13051  -1.12976  -1.12930  -1.12917  -1.12849
 Alpha  occ. eigenvalues --   -1.12842  -1.12782  -1.12570  -1.12531  -1.12483
 Alpha  occ. eigenvalues --   -0.19405  -0.13168  -0.12483  -0.11304
 Alpha virt. eigenvalues --   -0.05574  -0.04830  -0.04229  -0.03300  -0.03068
 Alpha virt. eigenvalues --   -0.02823  -0.01506  -0.00858  -0.00105  -0.00001
 Alpha virt. eigenvalues --    0.00205   0.00359   0.00868   0.00937   0.00994

  Beta  occ. eigenvalues --  -38.44003 -38.43602 -38.43582 -38.43340 -38.43321
  Beta  occ. eigenvalues --  -38.43312 -38.42872  -2.19837  -2.19474  -2.19472
  Beta  occ. eigenvalues --   -2.19306  -2.19279  -2.19164  -2.18855  -1.13508
  Beta  occ. eigenvalues --   -1.13490  -1.13480  -1.13237  -1.13195  -1.13149
  Beta  occ. eigenvalues --   -1.13139  -1.13126  -1.13104  -1.13093  -1.13003
  Beta  occ. eigenvalues --   -1.12967  -1.12950  -1.12905  -1.12871  -1.12840
  Beta  occ. eigenvalues --   -1.12820  -1.12782  -1.12552  -1.12480  -1.12462
  Beta  occ. eigenvalues --   -0.18630  -0.12903  -0.12210
  Beta virt. eigenvalues --   -0.07290  -0.05542  -0.04827  -0.04224  -0.02517
  Beta virt. eigenvalues --   -0.02220  -0.01723  -0.01419  -0.00804  -0.00079
  Beta virt. eigenvalues --    0.00062   0.00177   0.00379   0.00925   0.00928

 Mulliken charges and spin densities:
               1          2
     1  Na  -0.488770   0.574735
     2  Na  -0.000206  -0.084004
     3  Na   0.098829  -0.078774
     4  Na   0.513285   0.123775
     5  Na   0.390454   0.036442
     6  Na  -0.532901   0.532453
     7  Na   0.019310  -0.104627
 Sum of Mulliken charges =  -0.00000   1.00000

 Dipole moment (field-independent basis, Debye):
    X=             -0.1790    Y=              0.3184    Z=              0.0272  Tot=              0.3663
 Quadrupole moment (field-independent basis, Debye-Ang):
   XX=            -56.4077   YY=            -66.2957   ZZ=            -71.6138
   XY=              0.1973   XZ=             -0.5403   YZ=             -0.1954

 Normal termination of Gaussian 16 at Thu Dec  7 13:11:31 2023.
