 Gaussian 16, Revision B.01,
 Gaussian 16:  ES64L-G16RevB.01 20-Dec-2017

 -------------------------
 #P B3LYP/6-311+g(d) force
 -------------------------

 -----
 DPGEN
 -----
 Symbolic Z-matrix:
 Charge =  0 Multiplicity = 2

                         Standard orientation:
 ---------------------------------------------------------------------
 Center     Atomic      Atomic             Coordinates (Angstroms)
 Number     Number       Type             X           Y           Z
 ---------------------------------------------------------------------
      1         11           0       -2.297401    1.176789    1.589363
      2         11           0        3.693281   -2.214295   -0.127727
      3         11           0       -1.036471    1.257112   -1.321917
      4         11           0       -3.645710   -1.416538   -0.672272
      5         11           0        1.526406    0.416765    0.967529
      6         11           0       -0.279883   -2.066131    0.123936
      7         11           0        2.039778    2.846299   -0.558913
 ---------------------------------------------------------------------

 SCF Done:  E(UB3LYP) =  -1136.11864853     A.U. after   22 cycles

 The electronic state is 2-A.
 Alpha  occ. eigenvalues --  -38.44668 -38.44338 -38.44259 -38.44245 -38.43925
 Alpha  occ. eigenvalues --  -38.43657 -38.43382  -2.20409  -2.20151  -2.20137
 Alpha  occ. eigenvalues --   -2.20077  -2.19790  -2.19510  -2.19343  -1.14088
 Alpha  occ. eigenvalues --   -1.14081  -1.14031  -1.13863  -1.13853  -1.13824
 Alpha  occ. eigenvalues --   -1.13812  -1.13809  -1.13776  -1.13766  -1.13707
 Alpha  occ. eigenvalues --   -1.13640  -1.13452  -1.13422  -1.13389  -1.13328
 Alpha  occ. eigenvalues --   -1.13144  -1.13120  -1.13057  -1.12974  -1.12892
 Alpha  occ. eigenvalues --   -0.18068  -0.13568  -0.12096  -0.10126
 Alpha virt. eigenvalues --   -0.06658  -0.06254  -0.04198  -0.03127  -0.02570
 Alpha virt. eigenvalues --   -0.02404  -0.02076  -0.01692  -0.00858  -0.00330
 Alpha virt. eigenvalues --   -0.00058   0.00091   0.00254   0.00517   0.00586

  Beta  occ. eigenvalues --  -38.44679 -38.44303 -38.44241 -38.44233 -38.43838
  Beta  occ. eigenvalues --  -38.43639 -38.43368  -2.20430  -2.20106  -2.20085
  Beta  occ. eigenvalues --   -2.20058  -2.19630  -2.19478  -2.19320  -1.14101
  Beta  occ. eigenvalues --   -1.14096  -1.14043  -1.13836  -1.13812  -1.13800
  Beta  occ. eigenvalues --   -1.13773  -1.13751  -1.13736  -1.13733  -1.13685
  Beta  occ. eigenvalues --   -1.13627  -1.13345  -1.13308  -1.13306  -1.13280
  Beta  occ. eigenvalues --   -1.13116  -1.13100  -1.13043  -1.12931  -1.12881
  Beta  occ. eigenvalues --   -0.17474  -0.13315  -0.11866
  Beta virt. eigenvalues --   -0.06522  -0.06437  -0.05989  -0.03905  -0.02802
  Beta virt. eigenvalues --   -0.02389  -0.02081  -0.01705  -0.01090  -0.00483
  Beta virt. eigenvalues --   -0.00219   0.00080   0.00185   0.00408   0.00564

 Mulliken charges and spin densities:
               1          2
     1  Na   0.034919   0.326815
     2  Na   0.004127  -0.106564
     3  Na  -0.616550   0.217326
     4  Na   0.864684   0.291892
     5  Na   0.547094   0.290898
     6  Na  -0.829137   0.009003
     7  Na  -0.005136  -0.029371
 Sum of Mulliken charges =  -0.00000   1.00000

 Dipole moment (field-independent basis, Debye):
    X=              0.0615    Y=             -0.2188    Z=             -0.2693  Tot=              0.3524
 Quadrupole moment (field-independent basis, Debye-Ang):
   XX=            -50.3902   YY=            -68.4385   ZZ=            -74.1397
   XY=             -0.2875   XZ=             -1.3377   YZ=              0.2218

 Normal termination of Gaussian 16 at Thu Dec  7 17:36:36 2023.
