 Gaussian 16, Revision B.01,
 Gaussian 16:  ES64L-G16RevB.01 20-Dec-2017

 -------------------------
 #P B3LYP/6-311+g(d) force
 -------------------------

 -----
 DPGEN
 -----
 Symbolic Z-matrix:
 Charge =  0 Multiplicity = 2

                         Standard orientation:
 ---------------------------------------------------------------------
 Center     Atomic      Atomic             Coordinates (Angstroms)
 Number     Number       Type             X           Y           Z
 ---------------------------------------------------------------------
      1         11           0       -0.522541   -0.070477    1.915142
      2         11           0       -1.358510    3.061453    0.216433
      3         11           0        4.887445   -0.049018    0.196565
      4         11           0       -3.363880   -1.283900    0.422091
      5         11           0       -1.600625    0.128723   -1.796561
      6         11           0        1.540063    0.887574   -0.644388
      7         11           0        0.418047   -2.674355   -0.309282
 ---------------------------------------------------------------------

 SCF Done:  E(UB3LYP) =  -1136.11641523     A.U. after   27 cycles

 The electronic state is 2-A.
 Alpha  occ. eigenvalues --  -38.45665 -38.45185 -38.44599 -38.43770 -38.43369
 Alpha  occ. eigenvalues --  -38.43244 -38.42990  -2.21373  -2.21001  -2.20377
 Alpha  occ. eigenvalues --   -2.19668  -2.19294  -2.19111  -2.18793  -1.15053
 Alpha  occ. eigenvalues --   -1.15050  -1.15010  -1.14701  -1.14658  -1.14609
 Alpha  occ. eigenvalues --   -1.14072  -1.14057  -1.13977  -1.13354  -1.13308
 Alpha  occ. eigenvalues --   -1.13266  -1.13000  -1.12946  -1.12875  -1.12828
 Alpha  occ. eigenvalues --   -1.12800  -1.12687  -1.12462  -1.12457  -1.12433
 Alpha  occ. eigenvalues --   -0.18168  -0.12739  -0.11664  -0.10722
 Alpha virt. eigenvalues --   -0.07837  -0.04877  -0.03950  -0.03088  -0.02924
 Alpha virt. eigenvalues --   -0.02641  -0.02484  -0.01321  -0.00961  -0.00605
 Alpha virt. eigenvalues --   -0.00199   0.00030   0.00259   0.00616   0.00787

  Beta  occ. eigenvalues --  -38.45698 -38.45163 -38.44585 -38.43684 -38.43292
  Beta  occ. eigenvalues --  -38.43224 -38.42990  -2.21433  -2.20964  -2.20354
  Beta  occ. eigenvalues --   -2.19511  -2.19153  -2.19076  -2.18795  -1.15094
  Beta  occ. eigenvalues --   -1.15091  -1.15049  -1.14668  -1.14609  -1.14589
  Beta  occ. eigenvalues --   -1.14058  -1.14018  -1.13965  -1.13241  -1.13199
  Beta  occ. eigenvalues --   -1.13152  -1.12892  -1.12857  -1.12803  -1.12774
  Beta  occ. eigenvalues --   -1.12749  -1.12669  -1.12462  -1.12443  -1.12434
  Beta  occ. eigenvalues --   -0.17287  -0.12774  -0.11436
  Beta virt. eigenvalues --   -0.07710  -0.06687  -0.04818  -0.03870  -0.02919
  Beta virt. eigenvalues --   -0.02459  -0.01878  -0.01479  -0.01308  -0.00805
  Beta virt. eigenvalues --   -0.00466  -0.00146   0.00032   0.00408   0.00647

 Mulliken charges and spin densities:
               1          2
     1  Na   0.025758   0.820661
     2  Na  -0.076460  -0.166688
     3  Na   0.189285  -0.151807
     4  Na   0.142430  -0.162051
     5  Na   0.303547   0.591532
     6  Na  -0.559016   0.068718
     7  Na  -0.025544  -0.000366
 Sum of Mulliken charges =  -0.00000   1.00000

 Dipole moment (field-independent basis, Debye):
    X=              0.3922    Y=             -0.6783    Z=              0.3386  Tot=              0.8536
 Quadrupole moment (field-independent basis, Debye-Ang):
   XX=            -45.6638   YY=            -68.4975   ZZ=            -74.9359
   XY=             -1.4607   XZ=              0.8856   YZ=              0.7053

 Normal termination of Gaussian 16 at Wed Nov 29 16:45:49 2023.
