 Gaussian 16, Revision B.01,
 Gaussian 16:  ES64L-G16RevB.01 20-Dec-2017

 -------------------------
 #P B3LYP/6-311+g(d) force
 -------------------------

 -----
 DPGEN
 -----
 Symbolic Z-matrix:
 Charge =  0 Multiplicity = 2

                         Standard orientation:
 ---------------------------------------------------------------------
 Center     Atomic      Atomic             Coordinates (Angstroms)
 Number     Number       Type             X           Y           Z
 ---------------------------------------------------------------------
      1         11           0       -2.480805   -2.137632    1.302217
      2         11           0       -1.229792    0.792737   -0.656590
      3         11           0        2.765316    1.106359    0.615101
      4         11           0        1.170811   -1.838778   -0.247273
      5         11           0        4.389367   -1.368942   -0.555790
      6         11           0       -0.126351    3.723527    0.320241
      7         11           0       -4.488546   -0.277271   -0.777906
 ---------------------------------------------------------------------

 SCF Done:  E(UB3LYP) =  -1136.12366322     A.U. after   21 cycles

 The electronic state is 2-A.
 Alpha  occ. eigenvalues --  -38.44760 -38.44717 -38.43822 -38.43773 -38.43704
 Alpha  occ. eigenvalues --  -38.43702 -38.43170  -2.20546  -2.20541  -2.19692
 Alpha  occ. eigenvalues --   -2.19637  -2.19568  -2.19542  -2.18960  -1.14248
 Alpha  occ. eigenvalues --   -1.14233  -1.14229  -1.14189  -1.14186  -1.14151
 Alpha  occ. eigenvalues --   -1.13392  -1.13375  -1.13339  -1.13294  -1.13284
 Alpha  occ. eigenvalues --   -1.13277  -1.13266  -1.13220  -1.13207  -1.13182
 Alpha  occ. eigenvalues --   -1.13167  -1.13135  -1.12633  -1.12625  -1.12591
 Alpha  occ. eigenvalues --   -0.17040  -0.14355  -0.12028  -0.10416
 Alpha virt. eigenvalues --   -0.06537  -0.05421  -0.04266  -0.03849  -0.03033
 Alpha virt. eigenvalues --   -0.02180  -0.01602  -0.01420  -0.00917  -0.00634
 Alpha virt. eigenvalues --   -0.00352  -0.00293   0.00445   0.00567   0.00668

  Beta  occ. eigenvalues --  -38.44753 -38.44704 -38.43778 -38.43737 -38.43688
  Beta  occ. eigenvalues --  -38.43622 -38.43174  -2.20533  -2.20524  -2.19613
  Beta  occ. eigenvalues --   -2.19571  -2.19547  -2.19389  -2.18968  -1.14231
  Beta  occ. eigenvalues --   -1.14228  -1.14221  -1.14186  -1.14143  -1.14120
  Beta  occ. eigenvalues --   -1.13337  -1.13324  -1.13285  -1.13269  -1.13240
  Beta  occ. eigenvalues --   -1.13231  -1.13216  -1.13173  -1.13159  -1.13083
  Beta  occ. eigenvalues --   -1.13073  -1.13051  -1.12639  -1.12631  -1.12595
  Beta  occ. eigenvalues --   -0.16443  -0.13816  -0.11895
  Beta virt. eigenvalues --   -0.06775  -0.06351  -0.05255  -0.03759  -0.03554
  Beta virt. eigenvalues --   -0.02710  -0.02051  -0.01426  -0.01029  -0.00615
  Beta virt. eigenvalues --   -0.00387  -0.00116   0.00040   0.00508   0.00673

 Mulliken charges and spin densities:
               1          2
     1  Na   0.599848  -0.028671
     2  Na  -1.288183   0.089357
     3  Na  -0.028939   0.188404
     4  Na  -0.637650   0.157709
     5  Na   0.483258   0.245476
     6  Na   0.751900  -0.022924
     7  Na   0.119766   0.370649
 Sum of Mulliken charges =  -0.00000   1.00000

 Dipole moment (field-independent basis, Debye):
    X=              0.5730    Y=             -0.7461    Z=              0.5772  Tot=              1.1037
 Quadrupole moment (field-independent basis, Debye-Ang):
   XX=            -64.7661   YY=            -65.7218   ZZ=            -66.8392
   XY=              0.7133   XZ=             -2.0517   YZ=              0.2899

 Normal termination of Gaussian 16 at Wed Nov 29 01:25:36 2023.
