 Gaussian 16, Revision B.01,
 Gaussian 16:  ES64L-G16RevB.01 20-Dec-2017

 -------------------------
 #P B3LYP/6-311+g(d) force
 -------------------------

 -----
 DPGEN
 -----
 Symbolic Z-matrix:
 Charge =  0 Multiplicity = 2

                         Standard orientation:
 ---------------------------------------------------------------------
 Center     Atomic      Atomic             Coordinates (Angstroms)
 Number     Number       Type             X           Y           Z
 ---------------------------------------------------------------------
      1         11           0       -1.201900   -2.108799   -0.189154
      2         11           0        2.415435    1.868902    1.230194
      3         11           0        2.617887   -2.437167   -0.733571
      4         11           0       -0.762812    3.165030   -0.727753
      5         11           0        4.728526   -0.231208    0.058493
      6         11           0       -4.448970   -1.798122    0.816473
      7         11           0       -3.348166    1.541364   -0.454682
 ---------------------------------------------------------------------

 SCF Done:  E(UB3LYP) =  -1136.11174332     A.U. after   23 cycles

 The electronic state is 2-A.
 Alpha  occ. eigenvalues --  -38.45328 -38.44986 -38.44897 -38.44723 -38.44142
 Alpha  occ. eigenvalues --  -38.43719 -38.43209  -2.21097  -2.20799  -2.20657
 Alpha  occ. eigenvalues --   -2.20550  -2.19957  -2.19532  -2.19023  -1.14774
 Alpha  occ. eigenvalues --   -1.14758  -1.14717  -1.14491  -1.14475  -1.14416
 Alpha  occ. eigenvalues --   -1.14357  -1.14344  -1.14264  -1.14230  -1.14209
 Alpha  occ. eigenvalues --   -1.14198  -1.13615  -1.13600  -1.13593  -1.13186
 Alpha  occ. eigenvalues --   -1.13183  -1.13151  -1.12710  -1.12675  -1.12658
 Alpha  occ. eigenvalues --   -0.16045  -0.14466  -0.12658  -0.10749
 Alpha virt. eigenvalues --   -0.07462  -0.04894  -0.04399  -0.03655  -0.03425
 Alpha virt. eigenvalues --   -0.02686  -0.02282  -0.01196  -0.01123  -0.00932
 Alpha virt. eigenvalues --   -0.00598  -0.00268   0.00184   0.00476   0.00591

  Beta  occ. eigenvalues --  -38.45288 -38.44960 -38.44880 -38.44716 -38.44094
  Beta  occ. eigenvalues --  -38.43667 -38.43193  -2.21026  -2.20756  -2.20628
  Beta  occ. eigenvalues --   -2.20539  -2.19866  -2.19434  -2.18998  -1.14726
  Beta  occ. eigenvalues --   -1.14713  -1.14658  -1.14452  -1.14450  -1.14369
  Beta  occ. eigenvalues --   -1.14343  -1.14327  -1.14224  -1.14208  -1.14204
  Beta  occ. eigenvalues --   -1.14170  -1.13554  -1.13540  -1.13526  -1.13118
  Beta  occ. eigenvalues --   -1.13116  -1.13089  -1.12682  -1.12660  -1.12642
  Beta  occ. eigenvalues --   -0.15544  -0.13990  -0.12022
  Beta virt. eigenvalues --   -0.07563  -0.07219  -0.04507  -0.04110  -0.03437
  Beta virt. eigenvalues --   -0.03008  -0.02485  -0.02029  -0.01025  -0.00896
  Beta virt. eigenvalues --   -0.00573  -0.00363  -0.00067   0.00380   0.00559

 Mulliken charges and spin densities:
               1          2
     1  Na  -1.071215   0.290847
     2  Na  -0.274162   0.184770
     3  Na  -0.358722  -0.227277
     4  Na  -0.288832  -0.031228
     5  Na   0.116184   0.110983
     6  Na   1.706892   0.490182
     7  Na   0.169855   0.181723
 Sum of Mulliken charges =  -0.00000   1.00000

 Dipole moment (field-independent basis, Debye):
    X=              0.4950    Y=             -0.0228    Z=              0.2730  Tot=              0.5658
 Quadrupole moment (field-independent basis, Debye-Ang):
   XX=            -53.7176   YY=            -73.8998   ZZ=            -71.3834
   XY=             -2.1111   XZ=             -1.7522   YZ=              0.1097

 Normal termination of Gaussian 16 at Sun Dec  3 21:49:30 2023.
