 Gaussian 16, Revision B.01,
 Gaussian 16:  ES64L-G16RevB.01 20-Dec-2017

 -------------------------
 #P B3LYP/6-311+g(d) force
 -------------------------

 -----
 DPGEN
 -----
 Symbolic Z-matrix:
 Charge =  0 Multiplicity = 2

                         Standard orientation:
 ---------------------------------------------------------------------
 Center     Atomic      Atomic             Coordinates (Angstroms)
 Number     Number       Type             X           Y           Z
 ---------------------------------------------------------------------
      1         11           0       -0.008086    0.024361   -1.623490
      2         11           0        2.873167    0.960741   -0.198308
      3         11           0       -2.056997   -2.162017    0.086952
      4         11           0       -0.077610   -0.317702    1.644706
      5         11           0        1.980747   -2.301402   -0.015509
      6         11           0       -2.704703    0.981719   -0.331540
      7         11           0       -0.006517    2.814300    0.437188
 ---------------------------------------------------------------------

 SCF Done:  E(UB3LYP) =  -1136.13693441     A.U. after   19 cycles

 The electronic state is 2-A.
 Alpha  occ. eigenvalues --  -38.43900 -38.43702 -38.43647 -38.43639 -38.43036
 Alpha  occ. eigenvalues --  -38.42984 -38.42893  -2.19762  -2.19565  -2.19558
 Alpha  occ. eigenvalues --   -2.19539  -2.19019  -2.18926  -2.18924  -1.13448
 Alpha  occ. eigenvalues --   -1.13424  -1.13405  -1.13302  -1.13257  -1.13242
 Alpha  occ. eigenvalues --   -1.13227  -1.13224  -1.13209  -1.13188  -1.13180
 Alpha  occ. eigenvalues --   -1.13129  -1.12742  -1.12646  -1.12643  -1.12623
 Alpha  occ. eigenvalues --   -1.12588  -1.12570  -1.12565  -1.12538  -1.12521
 Alpha  occ. eigenvalues --   -0.19281  -0.13375  -0.12583  -0.10560
 Alpha virt. eigenvalues --   -0.05462  -0.05293  -0.04570  -0.03159  -0.02771
 Alpha virt. eigenvalues --   -0.02114  -0.01490  -0.01186  -0.00249  -0.00176
 Alpha virt. eigenvalues --    0.00076   0.00363   0.00836   0.00887   0.00933

  Beta  occ. eigenvalues --  -38.43894 -38.43698 -38.43640 -38.43627 -38.43024
  Beta  occ. eigenvalues --  -38.42913 -38.42816  -2.19756  -2.19555  -2.19547
  Beta  occ. eigenvalues --   -2.19530  -2.18908  -2.18889  -2.18784  -1.13439
  Beta  occ. eigenvalues --   -1.13413  -1.13393  -1.13293  -1.13241  -1.13236
  Beta  occ. eigenvalues --   -1.13209  -1.13204  -1.13179  -1.13174  -1.13162
  Beta  occ. eigenvalues --   -1.13122  -1.12659  -1.12599  -1.12559  -1.12557
  Beta  occ. eigenvalues --   -1.12543  -1.12520  -1.12494  -1.12442  -1.12425
  Beta  occ. eigenvalues --   -0.18567  -0.13087  -0.12311
  Beta virt. eigenvalues --   -0.06645  -0.05451  -0.05268  -0.04550  -0.02340
  Beta virt. eigenvalues --   -0.02003  -0.01401  -0.01156  -0.01066  -0.00302
  Beta virt. eigenvalues --   -0.00181   0.00179   0.00393   0.00878   0.00887

 Mulliken charges and spin densities:
               1          2
     1  Na  -0.289917   0.521936
     2  Na   0.062104  -0.029237
     3  Na   0.173304  -0.101587
     4  Na  -0.321043   0.654397
     5  Na   0.022472  -0.128152
     6  Na   0.296244   0.076105
     7  Na   0.056836   0.006537
 Sum of Mulliken charges =  -0.00000   1.00000

 Dipole moment (field-independent basis, Debye):
    X=              0.1852    Y=             -0.2089    Z=             -0.0255  Tot=              0.2803
 Quadrupole moment (field-independent basis, Debye-Ang):
   XX=            -55.6901   YY=            -60.9205   ZZ=            -75.5680
   XY=              0.2251   XZ=              0.1406   YZ=              0.6685

 Normal termination of Gaussian 16 at Thu Dec  7 08:25:51 2023.
