 Gaussian 16, Revision B.01,
 Gaussian 16:  ES64L-G16RevB.01 20-Dec-2017

 -------------------------
 #P B3LYP/6-311+g(d) force
 -------------------------

 -----
 DPGEN
 -----
 Symbolic Z-matrix:
 Charge =  0 Multiplicity = 2

                         Standard orientation:
 ---------------------------------------------------------------------
 Center     Atomic      Atomic             Coordinates (Angstroms)
 Number     Number       Type             X           Y           Z
 ---------------------------------------------------------------------
      1         11           0       -4.230067   -1.859862   -0.619969
      2         11           0       -3.409647    1.373766   -0.291237
      3         11           0        4.506639   -0.032858   -0.994554
      4         11           0        1.742764    2.259717   -0.922344
      5         11           0       -0.684209    3.233439    1.433233
      6         11           0        2.768363   -2.371992    1.277350
      7         11           0       -0.693844   -2.602212    0.117522
 ---------------------------------------------------------------------

 SCF Done:  E(UB3LYP) =  -1136.11307325     A.U. after   21 cycles

 The electronic state is 2-A.
 Alpha  occ. eigenvalues --  -38.45340 -38.44993 -38.44936 -38.44508 -38.44197
 Alpha  occ. eigenvalues --  -38.43819 -38.43536  -2.21103  -2.20746  -2.20686
 Alpha  occ. eigenvalues --   -2.20271  -2.19987  -2.19626  -2.19325  -1.14797
 Alpha  occ. eigenvalues --   -1.14772  -1.14723  -1.14443  -1.14428  -1.14377
 Alpha  occ. eigenvalues --   -1.14369  -1.14360  -1.14284  -1.13948  -1.13926
 Alpha  occ. eigenvalues --   -1.13904  -1.13648  -1.13631  -1.13612  -1.13284
 Alpha  occ. eigenvalues --   -1.13282  -1.13259  -1.12986  -1.12977  -1.12960
 Alpha  occ. eigenvalues --   -0.15643  -0.13854  -0.12832  -0.10765
 Alpha virt. eigenvalues --   -0.07143  -0.05067  -0.04753  -0.03537  -0.03253
 Alpha virt. eigenvalues --   -0.02505  -0.02036  -0.01517  -0.01275  -0.00994
 Alpha virt. eigenvalues --   -0.00714  -0.00103   0.00022   0.00523   0.00627

  Beta  occ. eigenvalues --  -38.45324 -38.44980 -38.44902 -38.44484 -38.44139
  Beta  occ. eigenvalues --  -38.43789 -38.43504  -2.21076  -2.20726  -2.20626
  Beta  occ. eigenvalues --   -2.20229  -2.19882  -2.19570  -2.19266  -1.14782
  Beta  occ. eigenvalues --   -1.14759  -1.14677  -1.14434  -1.14419  -1.14339
  Beta  occ. eigenvalues --   -1.14331  -1.14315  -1.14222  -1.13922  -1.13899
  Beta  occ. eigenvalues --   -1.13857  -1.13576  -1.13554  -1.13543  -1.13246
  Beta  occ. eigenvalues --   -1.13236  -1.13228  -1.12945  -1.12938  -1.12921
  Beta  occ. eigenvalues --   -0.15151  -0.13217  -0.12251
  Beta virt. eigenvalues --   -0.07467  -0.07230  -0.04780  -0.04214  -0.03380
  Beta virt. eigenvalues --   -0.02811  -0.02325  -0.01826  -0.01345  -0.00992
  Beta virt. eigenvalues --   -0.00735  -0.00438   0.00080   0.00220   0.00545

 Mulliken charges and spin densities:
               1          2
     1  Na   0.552687   0.279548
     2  Na  -0.274592   0.102666
     3  Na   0.259065   0.210563
     4  Na  -0.348931   0.118581
     5  Na   0.295701   0.164219
     6  Na   0.148207  -0.129755
     7  Na  -0.632138   0.254178
 Sum of Mulliken charges =  -0.00000   1.00000

 Dipole moment (field-independent basis, Debye):
    X=             -0.2650    Y=             -0.1498    Z=             -0.0028  Tot=              0.3045
 Quadrupole moment (field-independent basis, Debye-Ang):
   XX=            -60.1043   YY=            -70.2402   ZZ=            -69.0481
   XY=             -2.3893   XZ=              1.8215   YZ=              0.2682

 Normal termination of Gaussian 16 at Sun Dec  3 23:12:56 2023.
