 Gaussian 16, Revision B.01,
 Gaussian 16:  ES64L-G16RevB.01 20-Dec-2017

 -------------------------
 #P B3LYP/6-311+g(d) force
 -------------------------

 -----
 DPGEN
 -----
 Symbolic Z-matrix:
 Charge =  0 Multiplicity = 2

                         Standard orientation:
 ---------------------------------------------------------------------
 Center     Atomic      Atomic             Coordinates (Angstroms)
 Number     Number       Type             X           Y           Z
 ---------------------------------------------------------------------
      1         11           0        0.776192   -2.681168   -0.124543
      2         11           0        3.573687   -0.317954   -0.029766
      3         11           0        1.243406    2.652707    0.112895
      4         11           0       -0.645977    0.009193    2.150581
      5         11           0       -2.610251   -2.174255   -0.173990
      6         11           0       -2.300157    2.499831   -0.409292
      7         11           0       -0.036900    0.011646   -1.525884
 ---------------------------------------------------------------------

 SCF Done:  E(UB3LYP) =  -1136.13340126     A.U. after   19 cycles

 The electronic state is 2-A.
 Alpha  occ. eigenvalues --  -38.44163 -38.44094 -38.44013 -38.43843 -38.43696
 Alpha  occ. eigenvalues --  -38.43607 -38.43324  -2.19963  -2.19884  -2.19831
 Alpha  occ. eigenvalues --   -2.19612  -2.19561  -2.19451  -2.19269  -1.13630
 Alpha  occ. eigenvalues --   -1.13621  -1.13614  -1.13557  -1.13540  -1.13538
 Alpha  occ. eigenvalues --   -1.13521  -1.13505  -1.13437  -1.13303  -1.13286
 Alpha  occ. eigenvalues --   -1.13274  -1.13254  -1.13226  -1.13156  -1.13113
 Alpha  occ. eigenvalues --   -1.13081  -1.13062  -1.12959  -1.12909  -1.12880
 Alpha  occ. eigenvalues --   -0.18036  -0.12864  -0.12342  -0.10410
 Alpha virt. eigenvalues --   -0.05738  -0.05586  -0.04948  -0.03059  -0.02780
 Alpha virt. eigenvalues --   -0.02375  -0.01680  -0.01607  -0.00617  -0.00521
 Alpha virt. eigenvalues --   -0.00051   0.00295   0.00715   0.00769   0.00835

  Beta  occ. eigenvalues --  -38.44162 -38.44086 -38.44008 -38.43846 -38.43688
  Beta  occ. eigenvalues --  -38.43505 -38.43271  -2.19964  -2.19871  -2.19826
  Beta  occ. eigenvalues --   -2.19620  -2.19550  -2.19262  -2.19173  -1.13625
  Beta  occ. eigenvalues --   -1.13618  -1.13606  -1.13539  -1.13534  -1.13523
  Beta  occ. eigenvalues --   -1.13514  -1.13483  -1.13436  -1.13292  -1.13285
  Beta  occ. eigenvalues --   -1.13276  -1.13258  -1.13197  -1.13154  -1.12986
  Beta  occ. eigenvalues --   -1.12949  -1.12928  -1.12887  -1.12838  -1.12811
  Beta  occ. eigenvalues --   -0.17342  -0.12649  -0.12181
  Beta virt. eigenvalues --   -0.06504  -0.05719  -0.05504  -0.04885  -0.02288
  Beta virt. eigenvalues --   -0.02116  -0.01608  -0.01545  -0.01366  -0.00641
  Beta virt. eigenvalues --   -0.00530   0.00129   0.00339   0.00749   0.00776

 Mulliken charges and spin densities:
               1          2
     1  Na   0.168847   0.054027
     2  Na  -0.093377  -0.026514
     3  Na   0.090723   0.029126
     4  Na  -0.455511   0.705465
     5  Na   0.211942  -0.067205
     6  Na   0.094059  -0.051721
     7  Na  -0.016682   0.356822
 Sum of Mulliken charges =  -0.00000   1.00000

 Dipole moment (field-independent basis, Debye):
    X=             -0.4101    Y=              0.0960    Z=              0.0328  Tot=              0.4224
 Quadrupole moment (field-independent basis, Debye-Ang):
   XX=            -55.5699   YY=            -60.3494   ZZ=            -76.5941
   XY=              0.5799   XZ=              1.5303   YZ=              0.0825

 Normal termination of Gaussian 16 at Fri Dec  8 05:08:45 2023.
