 Gaussian 16, Revision B.01,
 Gaussian 16:  ES64L-G16RevB.01 20-Dec-2017

 -------------------------
 #P B3LYP/6-311+g(d) force
 -------------------------

 -----
 DPGEN
 -----
 Symbolic Z-matrix:
 Charge =  0 Multiplicity = 2

                         Standard orientation:
 ---------------------------------------------------------------------
 Center     Atomic      Atomic             Coordinates (Angstroms)
 Number     Number       Type             X           Y           Z
 ---------------------------------------------------------------------
      1         11           0       -0.084179   -1.021546    1.869044
      2         11           0        3.358739   -0.518634    1.529853
      3         11           0       -1.451930    2.658981   -0.155003
      4         11           0       -3.596458   -0.053379    0.770010
      5         11           0        1.419495    2.359155   -0.800391
      6         11           0       -1.258410   -2.611771   -1.352046
      7         11           0        1.612743   -0.812806   -1.861467
 ---------------------------------------------------------------------

 SCF Done:  E(UB3LYP) =  -1136.12285715     A.U. after   20 cycles

 The electronic state is 2-A.
 Alpha  occ. eigenvalues --  -38.44796 -38.44687 -38.44403 -38.44302 -38.44293
 Alpha  occ. eigenvalues --  -38.43240 -38.43228  -2.20588  -2.20483  -2.20171
 Alpha  occ. eigenvalues --   -2.20139  -2.20087  -2.19104  -2.19051  -1.14256
 Alpha  occ. eigenvalues --   -1.14237  -1.14205  -1.14162  -1.14147  -1.14093
 Alpha  occ. eigenvalues --   -1.13849  -1.13826  -1.13826  -1.13803  -1.13802
 Alpha  occ. eigenvalues --   -1.13768  -1.13748  -1.13729  -1.13699  -1.12927
 Alpha  occ. eigenvalues --   -1.12774  -1.12733  -1.12707  -1.12687  -1.12619
 Alpha  occ. eigenvalues --   -0.17323  -0.12985  -0.12180  -0.11771
 Alpha virt. eigenvalues --   -0.06112  -0.05313  -0.04870  -0.03430  -0.02982
 Alpha virt. eigenvalues --   -0.02937  -0.01985  -0.00893  -0.00691  -0.00273
 Alpha virt. eigenvalues --   -0.00116   0.00182   0.00323   0.00479   0.00739

  Beta  occ. eigenvalues --  -38.44740 -38.44644 -38.44395 -38.44249 -38.44245
  Beta  occ. eigenvalues --  -38.43237 -38.43230  -2.20485  -2.20405  -2.20156
  Beta  occ. eigenvalues --   -2.20043  -2.20001  -2.19088  -2.19066  -1.14175
  Beta  occ. eigenvalues --   -1.14167  -1.14139  -1.14111  -1.14094  -1.14024
  Beta  occ. eigenvalues --   -1.13836  -1.13815  -1.13796  -1.13758  -1.13729
  Beta  occ. eigenvalues --   -1.13701  -1.13688  -1.13668  -1.13631  -1.12928
  Beta  occ. eigenvalues --   -1.12756  -1.12729  -1.12709  -1.12695  -1.12621
  Beta  occ. eigenvalues --   -0.16689  -0.12719  -0.11868
  Beta virt. eigenvalues --   -0.07982  -0.05939  -0.04764  -0.04705  -0.03192
  Beta virt. eigenvalues --   -0.02519  -0.02168  -0.01727  -0.00659  -0.00570
  Beta virt. eigenvalues --   -0.00167  -0.00063   0.00309   0.00377   0.00660

 Mulliken charges and spin densities:
               1          2
     1  Na  -0.503960   0.369212
     2  Na   0.283238   0.127008
     3  Na  -0.138696  -0.108202
     4  Na   0.286136   0.034700
     5  Na   0.032795   0.124894
     6  Na   0.041634   0.169338
     7  Na  -0.001147   0.283050
 Sum of Mulliken charges =  -0.00000   1.00000

 Dipole moment (field-independent basis, Debye):
    X=              0.1750    Y=             -0.8501    Z=              0.3051  Tot=              0.9200
 Quadrupole moment (field-independent basis, Debye-Ang):
   XX=            -54.7667   YY=            -73.5548   ZZ=            -68.8313
   XY=              1.6608   XZ=              0.9229   YZ=              1.8743

 Normal termination of Gaussian 16 at Sun Dec  3 20:06:50 2023.
