 Gaussian 16, Revision B.01,
 Gaussian 16:  ES64L-G16RevB.01 20-Dec-2017

 -------------------------
 #P B3LYP/6-311+g(d) force
 -------------------------

 -----
 DPGEN
 -----
 Symbolic Z-matrix:
 Charge =  0 Multiplicity = 2

                         Standard orientation:
 ---------------------------------------------------------------------
 Center     Atomic      Atomic             Coordinates (Angstroms)
 Number     Number       Type             X           Y           Z
 ---------------------------------------------------------------------
      1         11           0        0.163462    0.170748    2.085648
      2         11           0        3.009250   -1.691357   -0.142311
      3         11           0        2.435272    2.156169   -0.012037
      4         11           0       -0.701532   -2.680325   -0.091492
      5         11           0       -1.538724    2.602613   -0.289170
      6         11           0       -3.420408   -0.565694    0.089492
      7         11           0        0.052680    0.007847   -1.640130
 ---------------------------------------------------------------------

 SCF Done:  E(UB3LYP) =  -1136.13395482     A.U. after   19 cycles

 The electronic state is 2-A.
 Alpha  occ. eigenvalues --  -38.44467 -38.44385 -38.44215 -38.43631 -38.43610
 Alpha  occ. eigenvalues --  -38.43288 -38.43238  -2.20253  -2.20152  -2.19999
 Alpha  occ. eigenvalues --   -2.19483  -2.19424  -2.19226  -2.19093  -1.13923
 Alpha  occ. eigenvalues --   -1.13913  -1.13897  -1.13830  -1.13802  -1.13798
 Alpha  occ. eigenvalues --   -1.13679  -1.13661  -1.13632  -1.13155  -1.13126
 Alpha  occ. eigenvalues --   -1.13112  -1.13100  -1.13083  -1.13046  -1.12947
 Alpha  occ. eigenvalues --   -1.12886  -1.12834  -1.12764  -1.12758  -1.12703
 Alpha  occ. eigenvalues --   -0.18112  -0.12877  -0.12179  -0.10454
 Alpha virt. eigenvalues --   -0.06036  -0.05744  -0.04417  -0.03074  -0.02733
 Alpha virt. eigenvalues --   -0.02476  -0.01919  -0.01471  -0.00672  -0.00380
 Alpha virt. eigenvalues --   -0.00052   0.00302   0.00679   0.00772   0.00856

  Beta  occ. eigenvalues --  -38.44468 -38.44385 -38.44213 -38.43603 -38.43533
  Beta  occ. eigenvalues --  -38.43231 -38.43225  -2.20257  -2.20153  -2.19998
  Beta  occ. eigenvalues --   -2.19413  -2.19303  -2.19113  -2.19084  -1.13920
  Beta  occ. eigenvalues --   -1.13909  -1.13901  -1.13816  -1.13804  -1.13800
  Beta  occ. eigenvalues --   -1.13664  -1.13655  -1.13635  -1.13111  -1.13068
  Beta  occ. eigenvalues --   -1.13042  -1.13031  -1.12981  -1.12970  -1.12883
  Beta  occ. eigenvalues --   -1.12812  -1.12752  -1.12740  -1.12719  -1.12698
  Beta  occ. eigenvalues --   -0.17394  -0.12709  -0.11941
  Beta virt. eigenvalues --   -0.06561  -0.05957  -0.05760  -0.04382  -0.02363
  Beta virt. eigenvalues --   -0.01978  -0.01822  -0.01430  -0.01389  -0.00731
  Beta virt. eigenvalues --   -0.00411   0.00102   0.00329   0.00735   0.00769

 Mulliken charges and spin densities:
               1          2
     1  Na  -0.434648   0.828790
     2  Na   0.075325  -0.087420
     3  Na   0.092754  -0.115120
     4  Na   0.138263  -0.070940
     5  Na   0.123856  -0.084421
     6  Na   0.070650  -0.019236
     7  Na  -0.066199   0.548347
 Sum of Mulliken charges =  -0.00000   1.00000

 Dipole moment (field-independent basis, Debye):
    X=              0.1668    Y=              0.1023    Z=              0.1021  Tot=              0.2207
 Quadrupole moment (field-independent basis, Debye-Ang):
   XX=            -51.4773   YY=            -64.0807   ZZ=            -76.3063
   XY=             -0.0662   XZ=             -0.4863   YZ=             -0.3751

 Normal termination of Gaussian 16 at Thu Dec  7 04:22:17 2023.
