 Gaussian 16, Revision B.01,
 Gaussian 16:  ES64L-G16RevB.01 20-Dec-2017

 -------------------------
 #P B3LYP/6-311+g(d) force
 -------------------------

 -----
 DPGEN
 -----
 Symbolic Z-matrix:
 Charge =  0 Multiplicity = 2

                         Standard orientation:
 ---------------------------------------------------------------------
 Center     Atomic      Atomic             Coordinates (Angstroms)
 Number     Number       Type             X           Y           Z
 ---------------------------------------------------------------------
      1         11           0       -1.764364   -2.661146   -0.608288
      2         11           0       -0.493154   -0.135611    2.487914
      3         11           0       -2.834445    0.629146   -0.083734
      4         11           0        2.661214   -1.895326   -0.034562
      5         11           0        2.572150    1.410579    0.059422
      6         11           0       -0.496503    2.941550   -0.589507
      7         11           0        0.355102   -0.289192   -1.231245
 ---------------------------------------------------------------------

 SCF Done:  E(UB3LYP) =  -1136.13125693     A.U. after   19 cycles

 The electronic state is 2-A.
 Alpha  occ. eigenvalues --  -38.44232 -38.44108 -38.43851 -38.43828 -38.43763
 Alpha  occ. eigenvalues --  -38.43079 -38.42916  -2.20057  -2.19951  -2.19713
 Alpha  occ. eigenvalues --   -2.19708  -2.19582  -2.18975  -2.18932  -1.13695
 Alpha  occ. eigenvalues --   -1.13683  -1.13674  -1.13671  -1.13602  -1.13583
 Alpha  occ. eigenvalues --   -1.13432  -1.13395  -1.13384  -1.13362  -1.13354
 Alpha  occ. eigenvalues --   -1.13318  -1.13272  -1.13226  -1.13210  -1.12663
 Alpha  occ. eigenvalues --   -1.12649  -1.12615  -1.12585  -1.12578  -1.12567
 Alpha  occ. eigenvalues --   -0.18424  -0.13209  -0.12263  -0.10953
 Alpha virt. eigenvalues --   -0.05703  -0.05185  -0.04637  -0.03377  -0.02808
 Alpha virt. eigenvalues --   -0.02657  -0.01455  -0.01239  -0.00457  -0.00312
 Alpha virt. eigenvalues --   -0.00047   0.00335   0.00781   0.00821   0.00887

  Beta  occ. eigenvalues --  -38.44111 -38.44108 -38.43846 -38.43826 -38.43751
  Beta  occ. eigenvalues --  -38.43070 -38.42881  -2.19954  -2.19832  -2.19708
  Beta  occ. eigenvalues --   -2.19706  -2.19560  -2.18918  -2.18913  -1.13672
  Beta  occ. eigenvalues --   -1.13595  -1.13585  -1.13544  -1.13525  -1.13520
  Beta  occ. eigenvalues --   -1.13428  -1.13393  -1.13355  -1.13348  -1.13345
  Beta  occ. eigenvalues --   -1.13319  -1.13250  -1.13206  -1.13198  -1.12626
  Beta  occ. eigenvalues --   -1.12602  -1.12576  -1.12571  -1.12561  -1.12541
  Beta  occ. eigenvalues --   -0.17770  -0.13022  -0.12046
  Beta virt. eigenvalues --   -0.06902  -0.05664  -0.05099  -0.04578  -0.02567
  Beta virt. eigenvalues --   -0.02030  -0.01700  -0.01385  -0.01166  -0.00487
  Beta virt. eigenvalues --   -0.00306   0.00152   0.00389   0.00822   0.00873

 Mulliken charges and spin densities:
               1          2
     1  Na   0.109121   0.094349
     2  Na  -0.618421   0.683558
     3  Na   0.382963   0.137275
     4  Na   0.126233   0.077199
     5  Na   0.237488   0.133310
     6  Na   0.050390   0.068014
     7  Na  -0.287773  -0.193705
 Sum of Mulliken charges =  -0.00000   1.00000

 Dipole moment (field-independent basis, Debye):
    X=              0.2111    Y=             -0.3450    Z=              0.3148  Tot=              0.5126
 Quadrupole moment (field-independent basis, Debye-Ang):
   XX=            -58.1016   YY=            -61.9290   ZZ=            -74.0991
   XY=             -0.4873   XZ=              1.7116   YZ=             -0.2005

 Normal termination of Gaussian 16 at Fri Dec  8 00:07:16 2023.
