 Gaussian 16, Revision B.01,
 Gaussian 16:  ES64L-G16RevB.01 20-Dec-2017

 -------------------------
 #P B3LYP/6-311+g(d) force
 -------------------------

 -----
 DPGEN
 -----
 Symbolic Z-matrix:
 Charge =  0 Multiplicity = 2

                         Standard orientation:
 ---------------------------------------------------------------------
 Center     Atomic      Atomic             Coordinates (Angstroms)
 Number     Number       Type             X           Y           Z
 ---------------------------------------------------------------------
      1         11           0       -0.322057    1.631412   -0.861642
      2         11           0       -2.455139    3.797268    0.275414
      3         11           0       -3.307763   -0.167962   -0.108615
      4         11           0       -2.568564   -3.783422    0.040685
      5         11           0        0.074781   -1.614233    0.096438
      6         11           0        3.008394    0.416627    1.159269
      7         11           0        5.570347   -0.279691   -0.601549
 ---------------------------------------------------------------------

 SCF Done:  E(UB3LYP) =  -1136.12184906     A.U. after   20 cycles

 The electronic state is 2-A.
 Alpha  occ. eigenvalues --  -38.45113 -38.44275 -38.44128 -38.43911 -38.43873
 Alpha  occ. eigenvalues --  -38.43724 -38.43490  -2.20900  -2.20066  -2.19921
 Alpha  occ. eigenvalues --   -2.19779  -2.19688  -2.19589  -2.19296  -1.14610
 Alpha  occ. eigenvalues --   -1.14598  -1.14468  -1.13745  -1.13726  -1.13692
 Alpha  occ. eigenvalues --   -1.13590  -1.13585  -1.13545  -1.13483  -1.13452
 Alpha  occ. eigenvalues --   -1.13377  -1.13339  -1.13322  -1.13317  -1.13282
 Alpha  occ. eigenvalues --   -1.13273  -1.13166  -1.12979  -1.12966  -1.12936
 Alpha  occ. eigenvalues --   -0.16862  -0.13512  -0.12757  -0.10451
 Alpha virt. eigenvalues --   -0.06433  -0.05382  -0.04854  -0.03490  -0.02714
 Alpha virt. eigenvalues --   -0.02459  -0.01905  -0.01701  -0.00973  -0.00834
 Alpha virt. eigenvalues --   -0.00462   0.00068   0.00289   0.00415   0.00489

  Beta  occ. eigenvalues --  -38.45093 -38.44256 -38.44114 -38.43884 -38.43784
  Beta  occ. eigenvalues --  -38.43682 -38.43496  -2.20862  -2.20030  -2.19894
  Beta  occ. eigenvalues --   -2.19732  -2.19521  -2.19515  -2.19315  -1.14585
  Beta  occ. eigenvalues --   -1.14567  -1.14438  -1.13721  -1.13702  -1.13667
  Beta  occ. eigenvalues --   -1.13570  -1.13567  -1.13527  -1.13451  -1.13422
  Beta  occ. eigenvalues --   -1.13321  -1.13235  -1.13233  -1.13221  -1.13208
  Beta  occ. eigenvalues --   -1.13203  -1.13103  -1.12999  -1.12979  -1.12896
  Beta  occ. eigenvalues --   -0.16280  -0.12769  -0.12611
  Beta virt. eigenvalues --   -0.07102  -0.06224  -0.05003  -0.04486  -0.03183
  Beta virt. eigenvalues --   -0.02444  -0.02315  -0.01806  -0.01387  -0.00687
  Beta virt. eigenvalues --   -0.00515  -0.00167   0.00237   0.00433   0.00510

 Mulliken charges and spin densities:
               1          2
     1  Na  -0.899628  -0.108952
     2  Na   0.635431   0.175876
     3  Na   0.174145   0.317633
     4  Na   0.930031   0.216105
     5  Na  -1.244544  -0.046487
     6  Na   0.284089   0.029090
     7  Na   0.120476   0.416735
 Sum of Mulliken charges =  -0.00000   1.00000

 Dipole moment (field-independent basis, Debye):
    X=             -1.5316    Y=             -0.0432    Z=             -0.0254  Tot=              1.5324
 Quadrupole moment (field-independent basis, Debye-Ang):
   XX=            -72.0239   YY=            -58.2829   ZZ=            -68.8943
   XY=             -0.5455   XZ=             -3.5262   YZ=              2.3700

 Normal termination of Gaussian 16 at Wed Nov 29 00:45:22 2023.
