 Gaussian 16, Revision B.01,
 Gaussian 16:  ES64L-G16RevB.01 20-Dec-2017

 -------------------------
 #P B3LYP/6-311+g(d) force
 -------------------------

 -----
 DPGEN
 -----
 Symbolic Z-matrix:
 Charge =  0 Multiplicity = 2

                         Standard orientation:
 ---------------------------------------------------------------------
 Center     Atomic      Atomic             Coordinates (Angstroms)
 Number     Number       Type             X           Y           Z
 ---------------------------------------------------------------------
      1         11           0       -3.022313    0.548349   -0.254024
      2         11           0       -0.308042    0.222126    1.854408
      3         11           0       -1.769703   -2.368893   -0.041282
      4         11           0        3.008403    0.538171    0.225946
      5         11           0        0.524242    0.266587   -1.722324
      6         11           0        1.702100   -2.242191   -0.029852
      7         11           0       -0.134687    3.035851   -0.032872
 ---------------------------------------------------------------------

 SCF Done:  E(UB3LYP) =  -1136.13652487     A.U. after   19 cycles

 The electronic state is 2-A.
 Alpha  occ. eigenvalues --  -38.44169 -38.44169 -38.43453 -38.43370 -38.43346
 Alpha  occ. eigenvalues --  -38.43243 -38.43204  -2.20055  -2.20014  -2.19292
 Alpha  occ. eigenvalues --   -2.19279  -2.19211  -2.19182  -2.19176  -1.13764
 Alpha  occ. eigenvalues --   -1.13719  -1.13699  -1.13683  -1.13682  -1.13647
 Alpha  occ. eigenvalues --   -1.12997  -1.12988  -1.12972  -1.12940  -1.12929
 Alpha  occ. eigenvalues --   -1.12920  -1.12887  -1.12872  -1.12853  -1.12847
 Alpha  occ. eigenvalues --   -1.12833  -1.12804  -1.12800  -1.12790  -1.12784
 Alpha  occ. eigenvalues --   -0.18904  -0.13330  -0.12490  -0.10618
 Alpha virt. eigenvalues --   -0.05807  -0.04921  -0.04831  -0.03324  -0.02818
 Alpha virt. eigenvalues --   -0.02359  -0.01530  -0.01079  -0.00375  -0.00232
 Alpha virt. eigenvalues --    0.00008   0.00374   0.00842   0.00870   0.00938

  Beta  occ. eigenvalues --  -38.44165 -38.44162 -38.43448 -38.43363 -38.43343
  Beta  occ. eigenvalues --  -38.43160 -38.43134  -2.20046  -2.20008  -2.19287
  Beta  occ. eigenvalues --   -2.19271  -2.19208  -2.19051  -2.19026  -1.13760
  Beta  occ. eigenvalues --   -1.13698  -1.13697  -1.13665  -1.13657  -1.13644
  Beta  occ. eigenvalues --   -1.12983  -1.12976  -1.12941  -1.12936  -1.12919
  Beta  occ. eigenvalues --   -1.12896  -1.12881  -1.12851  -1.12840  -1.12771
  Beta  occ. eigenvalues --   -1.12740  -1.12712  -1.12697  -1.12691  -1.12686
  Beta  occ. eigenvalues --   -0.18172  -0.13098  -0.12244
  Beta virt. eigenvalues --   -0.06724  -0.05765  -0.04924  -0.04780  -0.02511
  Beta virt. eigenvalues --   -0.02051  -0.01436  -0.01330  -0.01017  -0.00425
  Beta virt. eigenvalues --   -0.00279   0.00149   0.00400   0.00856   0.00887

 Mulliken charges and spin densities:
               1          2
     1  Na   0.113930  -0.054984
     2  Na  -0.390636   0.691125
     3  Na   0.021440  -0.046072
     4  Na   0.374364  -0.045679
     5  Na  -0.352751   0.602696
     6  Na   0.135737   0.010408
     7  Na   0.097916  -0.157494
 Sum of Mulliken charges =  -0.00000   1.00000

 Dipole moment (field-independent basis, Debye):
    X=             -0.0127    Y=              0.2841    Z=              0.0544  Tot=              0.2895
 Quadrupole moment (field-independent basis, Debye-Ang):
   XX=            -56.5529   YY=            -62.2667   ZZ=            -74.8455
   XY=             -0.0345   XZ=              1.8306   YZ=              0.0835

 Normal termination of Gaussian 16 at Thu Dec  7 20:09:20 2023.
