 Gaussian 16, Revision B.01,
 Gaussian 16:  ES64L-G16RevB.01 20-Dec-2017

 -------------------------
 #P B3LYP/6-311+g(d) force
 -------------------------

 -----
 DPGEN
 -----
 Symbolic Z-matrix:
 Charge =  0 Multiplicity = 2

                         Standard orientation:
 ---------------------------------------------------------------------
 Center     Atomic      Atomic             Coordinates (Angstroms)
 Number     Number       Type             X           Y           Z
 ---------------------------------------------------------------------
      1         11           0       -1.833413   -2.396633   -0.368078
      2         11           0        1.991905   -2.206114    0.104756
      3         11           0        0.103117    0.448614   -1.562493
      4         11           0        3.058031    0.752598   -0.283547
      5         11           0        0.022568   -0.033168    2.029443
      6         11           0       -0.242988    2.905322    0.121348
      7         11           0       -3.099220    0.529381   -0.041429
 ---------------------------------------------------------------------

 SCF Done:  E(UB3LYP) =  -1136.13572252     A.U. after   19 cycles

 The electronic state is 2-A.
 Alpha  occ. eigenvalues --  -38.44211 -38.44195 -38.43543 -38.43496 -38.43428
 Alpha  occ. eigenvalues --  -38.43238 -38.43205  -2.20057  -2.20054  -2.19399
 Alpha  occ. eigenvalues --   -2.19393  -2.19264  -2.19206  -2.19112  -1.13753
 Alpha  occ. eigenvalues --   -1.13735  -1.13722  -1.13716  -1.13690  -1.13689
 Alpha  occ. eigenvalues --   -1.13091  -1.13063  -1.13059  -1.13043  -1.13015
 Alpha  occ. eigenvalues --   -1.13004  -1.12989  -1.12937  -1.12927  -1.12903
 Alpha  occ. eigenvalues --   -1.12863  -1.12824  -1.12762  -1.12726  -1.12718
 Alpha  occ. eigenvalues --   -0.18733  -0.13350  -0.12303  -0.10692
 Alpha virt. eigenvalues --   -0.05836  -0.05127  -0.04615  -0.03257  -0.02822
 Alpha virt. eigenvalues --   -0.02457  -0.01702  -0.01038  -0.00384  -0.00340
 Alpha virt. eigenvalues --   -0.00005   0.00352   0.00801   0.00864   0.00904

  Beta  occ. eigenvalues --  -38.44207 -38.44186 -38.43539 -38.43422 -38.43397
  Beta  occ. eigenvalues --  -38.43232 -38.43150  -2.20051  -2.20044  -2.19394
  Beta  occ. eigenvalues --   -2.19255  -2.19211  -2.19114  -2.19096  -1.13742
  Beta  occ. eigenvalues --   -1.13733  -1.13705  -1.13696  -1.13685  -1.13676
  Beta  occ. eigenvalues --   -1.13073  -1.13044  -1.13033  -1.12965  -1.12937
  Beta  occ. eigenvalues --   -1.12925  -1.12914  -1.12895  -1.12881  -1.12877
  Beta  occ. eigenvalues --   -1.12795  -1.12753  -1.12734  -1.12714  -1.12682
  Beta  occ. eigenvalues --   -0.18016  -0.13103  -0.12065
  Beta virt. eigenvalues --   -0.06786  -0.05788  -0.05112  -0.04572  -0.02480
  Beta virt. eigenvalues --   -0.02046  -0.01609  -0.01410  -0.00971  -0.00429
  Beta virt. eigenvalues --   -0.00377   0.00139   0.00387   0.00854   0.00867

 Mulliken charges and spin densities:
               1          2
     1  Na  -0.029723  -0.013781
     2  Na   0.087988   0.002025
     3  Na  -0.299205   0.406418
     4  Na   0.298512  -0.033823
     5  Na  -0.446909   0.729074
     6  Na   0.202435  -0.073431
     7  Na   0.186902  -0.016483
 Sum of Mulliken charges =  -0.00000   1.00000

 Dipole moment (field-independent basis, Debye):
    X=              0.0330    Y=              0.1274    Z=              0.1439  Tot=              0.1950
 Quadrupole moment (field-independent basis, Debye-Ang):
   XX=            -55.4619   YY=            -63.4096   ZZ=            -74.8056
   XY=             -0.3944   XZ=             -0.1351   YZ=              1.0596

 Normal termination of Gaussian 16 at Tue Dec  5 19:48:41 2023.
