 Gaussian 16, Revision B.01,
 Gaussian 16:  ES64L-G16RevB.01 20-Dec-2017

 -------------------------
 #P B3LYP/6-311+g(d) force
 -------------------------

 -----
 DPGEN
 -----
 Symbolic Z-matrix:
 Charge =  0 Multiplicity = 2

                         Standard orientation:
 ---------------------------------------------------------------------
 Center     Atomic      Atomic             Coordinates (Angstroms)
 Number     Number       Type             X           Y           Z
 ---------------------------------------------------------------------
      1         11           0        0.403206    0.006367   -1.784059
      2         11           0       -2.547797    1.516860    0.206573
      3         11           0        1.277941   -2.673749    0.184717
      4         11           0        3.227751    0.271246    0.065555
      5         11           0        0.465695    2.987235   -0.090326
      6         11           0       -0.192149   -0.221662    1.872994
      7         11           0       -2.634647   -1.886298   -0.455453
 ---------------------------------------------------------------------

 SCF Done:  E(UB3LYP) =  -1136.13871573     A.U. after   19 cycles

 The electronic state is 2-A.
 Alpha  occ. eigenvalues --  -38.44271 -38.43852 -38.43677 -38.43632 -38.43390
 Alpha  occ. eigenvalues --  -38.43349 -38.43322  -2.20085  -2.19653  -2.19524
 Alpha  occ. eigenvalues --   -2.19490  -2.19304  -2.19272  -2.19157  -1.13765
 Alpha  occ. eigenvalues --   -1.13744  -1.13722  -1.13323  -1.13316  -1.13295
 Alpha  occ. eigenvalues --   -1.13223  -1.13200  -1.13184  -1.13153  -1.13142
 Alpha  occ. eigenvalues --   -1.13124  -1.12982  -1.12949  -1.12931  -1.12918
 Alpha  occ. eigenvalues --   -1.12915  -1.12892  -1.12825  -1.12815  -1.12792
 Alpha  occ. eigenvalues --   -0.18466  -0.13045  -0.12380  -0.10586
 Alpha virt. eigenvalues --   -0.05748  -0.05162  -0.04854  -0.03199  -0.02873
 Alpha virt. eigenvalues --   -0.02405  -0.01613  -0.01169  -0.00487  -0.00406
 Alpha virt. eigenvalues --   -0.00008   0.00360   0.00793   0.00836   0.00881

  Beta  occ. eigenvalues --  -38.44269 -38.43842 -38.43668 -38.43626 -38.43320
  Beta  occ. eigenvalues --  -38.43308 -38.43278  -2.20084  -2.19636  -2.19513
  Beta  occ. eigenvalues --   -2.19483  -2.19158  -2.19153  -2.19142  -1.13755
  Beta  occ. eigenvalues --   -1.13738  -1.13719  -1.13311  -1.13291  -1.13286
  Beta  occ. eigenvalues --   -1.13211  -1.13171  -1.13167  -1.13137  -1.13137
  Beta  occ. eigenvalues --   -1.13118  -1.12891  -1.12862  -1.12843  -1.12824
  Beta  occ. eigenvalues --   -1.12816  -1.12805  -1.12803  -1.12796  -1.12774
  Beta  occ. eigenvalues --   -0.17750  -0.12813  -0.12138
  Beta virt. eigenvalues --   -0.06743  -0.05704  -0.05134  -0.04782  -0.02437
  Beta virt. eigenvalues --   -0.02128  -0.01512  -0.01400  -0.01081  -0.00540
  Beta virt. eigenvalues --   -0.00448   0.00126   0.00383   0.00820   0.00869

 Mulliken charges and spin densities:
               1          2
     1  Na  -0.197439   0.746217
     2  Na   0.146872  -0.020224
     3  Na   0.138112  -0.077906
     4  Na   0.095992  -0.123138
     5  Na  -0.013660  -0.135869
     6  Na  -0.136806   0.631526
     7  Na  -0.033071  -0.020605
 Sum of Mulliken charges =  -0.00000   1.00000

 Dipole moment (field-independent basis, Debye):
    X=              0.2911    Y=             -0.1512    Z=              0.0244  Tot=              0.3290
 Quadrupole moment (field-independent basis, Debye-Ang):
   XX=            -56.1334   YY=            -61.9213   ZZ=            -75.0156
   XY=              0.6321   XZ=              1.3277   YZ=              0.7817

 Normal termination of Gaussian 16 at Thu Dec  7 02:00:01 2023.
