 Gaussian 16, Revision B.01,
 Gaussian 16:  ES64L-G16RevB.01 20-Dec-2017

 -------------------------
 #P B3LYP/6-311+g(d) force
 -------------------------

 -----
 DPGEN
 -----
 Symbolic Z-matrix:
 Charge =  0 Multiplicity = 2

                         Standard orientation:
 ---------------------------------------------------------------------
 Center     Atomic      Atomic             Coordinates (Angstroms)
 Number     Number       Type             X           Y           Z
 ---------------------------------------------------------------------
      1         11           0        0.141673   -0.002866    1.470414
      2         11           0        2.259983   -1.429051   -0.010586
      3         11           0        2.257563    1.431149   -0.011786
      4         11           0        0.123373   -0.000566   -1.462986
      5         11           0       -1.014141    2.060996    0.019614
      6         11           0       -2.753437    0.000714   -0.021786
      7         11           0       -1.015013   -2.060374    0.017114
 ---------------------------------------------------------------------

 SCF Done:  E(UB3LYP) =  -1136.07656488     A.U. after   20 cycles

 The electronic state is 2-A.
 Alpha  occ. eigenvalues --  -38.44649 -38.43856 -38.43853 -38.43546 -38.43540
 Alpha  occ. eigenvalues --  -38.43536 -38.43522  -2.20756  -2.19957  -2.19906
 Alpha  occ. eigenvalues --   -2.19900  -2.19875  -2.19694  -2.19676  -1.14587
 Alpha  occ. eigenvalues --   -1.14571  -1.14328  -1.14020  -1.13870  -1.13866
 Alpha  occ. eigenvalues --   -1.13695  -1.13679  -1.13647  -1.13554  -1.13537
 Alpha  occ. eigenvalues --   -1.13506  -1.13404  -1.13393  -1.13376  -1.13265
 Alpha  occ. eigenvalues --   -1.13243  -1.13224  -1.13222  -1.13170  -1.13162
 Alpha  occ. eigenvalues --   -0.21491  -0.14536  -0.12751  -0.11355
 Alpha virt. eigenvalues --   -0.05784  -0.04782  -0.03850  -0.03638  -0.02524
 Alpha virt. eigenvalues --   -0.01926  -0.01591  -0.00729   0.00050   0.00308
 Alpha virt. eigenvalues --    0.00504   0.00556   0.00891   0.01054   0.01106

  Beta  occ. eigenvalues --  -38.44639 -38.43846 -38.43843 -38.43529 -38.43524
  Beta  occ. eigenvalues --  -38.43453 -38.43440  -2.20743  -2.19928  -2.19886
  Beta  occ. eigenvalues --   -2.19784  -2.19728  -2.19672  -2.19644  -1.14587
  Beta  occ. eigenvalues --   -1.14563  -1.14268  -1.13973  -1.13825  -1.13806
  Beta  occ. eigenvalues --   -1.13628  -1.13603  -1.13600  -1.13527  -1.13463
  Beta  occ. eigenvalues --   -1.13441  -1.13390  -1.13342  -1.13279  -1.13258
  Beta  occ. eigenvalues --   -1.13232  -1.13178  -1.13137  -1.13115  -1.13083
  Beta  occ. eigenvalues --   -0.20710  -0.14148  -0.12409
  Beta virt. eigenvalues --   -0.07189  -0.05804  -0.04762  -0.03836  -0.02644
  Beta virt. eigenvalues --   -0.01677  -0.01509  -0.00904  -0.00694   0.00187
  Beta virt. eigenvalues --    0.00344   0.00467   0.00540   0.00908   0.01059

 Mulliken charges and spin densities:
               1          2
     1  Na  -0.811595   0.385261
     2  Na   0.273441   0.016942
     3  Na   0.271772   0.017221
     4  Na  -0.828248   0.380118
     5  Na   0.550434   0.094305
     6  Na  -0.006611   0.011910
     7  Na   0.550807   0.094243
 Sum of Mulliken charges =  -0.00000   1.00000

 Dipole moment (field-independent basis, Debye):
    X=              0.2199    Y=              0.0010    Z=             -0.0013  Tot=              0.2199
 Quadrupole moment (field-independent basis, Debye-Ang):
   XX=            -53.6028   YY=            -67.5996   ZZ=            -73.6440
   XY=             -0.0031   XZ=             -0.0146   YZ=              0.0037

 Normal termination of Gaussian 16 at Fri Dec  8 19:13:21 2023.
