 Gaussian 16, Revision B.01,
 Gaussian 16:  ES64L-G16RevB.01 20-Dec-2017

 -------------------------
 #P B3LYP/6-311+g(d) force
 -------------------------

 -----
 DPGEN
 -----
 Symbolic Z-matrix:
 Charge =  0 Multiplicity = 2

                         Standard orientation:
 ---------------------------------------------------------------------
 Center     Atomic      Atomic             Coordinates (Angstroms)
 Number     Number       Type             X           Y           Z
 ---------------------------------------------------------------------
      1         11           0       -0.051172    0.521625   -2.030035
      2         11           0       -0.012211   -0.229871    2.039122
      3         11           0       -2.308459   -1.204501   -0.139784
      4         11           0        1.115951    1.829016    0.212145
      5         11           0       -1.760595    1.441867    0.267362
      6         11           0        0.353951   -1.741073   -0.329648
      7         11           0        2.662535   -0.617062   -0.019161
 ---------------------------------------------------------------------

 SCF Done:  E(UB3LYP) =  -1136.08143558     A.U. after   21 cycles

 The electronic state is 2-A.
 Alpha  occ. eigenvalues --  -38.44672 -38.44621 -38.44208 -38.43835 -38.43537
 Alpha  occ. eigenvalues --  -38.43444 -38.43008  -2.20806  -2.20745  -2.20264
 Alpha  occ. eigenvalues --   -2.19920  -2.19794  -2.19585  -2.19161  -1.14584
 Alpha  occ. eigenvalues --   -1.14512  -1.14465  -1.14413  -1.14410  -1.14349
 Alpha  occ. eigenvalues --   -1.14295  -1.13934  -1.13832  -1.13786  -1.13770
 Alpha  occ. eigenvalues --   -1.13497  -1.13384  -1.13350  -1.13320  -1.13207
 Alpha  occ. eigenvalues --   -1.13186  -1.13112  -1.12824  -1.12818  -1.12731
 Alpha  occ. eigenvalues --   -0.21607  -0.13880  -0.13007  -0.12284
 Alpha virt. eigenvalues --   -0.05229  -0.04136  -0.03949  -0.03913  -0.03265
 Alpha virt. eigenvalues --   -0.03180  -0.01106  -0.00360  -0.00271   0.00330
 Alpha virt. eigenvalues --    0.00775   0.00915   0.01051   0.01136   0.01145

  Beta  occ. eigenvalues --  -38.44572 -38.44527 -38.44204 -38.43827 -38.43509
  Beta  occ. eigenvalues --  -38.43427 -38.42990  -2.20626  -2.20576  -2.20259
  Beta  occ. eigenvalues --   -2.19908  -2.19755  -2.19562  -2.19136  -1.14480
  Beta  occ. eigenvalues --   -1.14403  -1.14345  -1.14320  -1.14285  -1.14251
  Beta  occ. eigenvalues --   -1.14205  -1.13934  -1.13794  -1.13779  -1.13766
  Beta  occ. eigenvalues --   -1.13446  -1.13334  -1.13307  -1.13285  -1.13173
  Beta  occ. eigenvalues --   -1.13135  -1.13105  -1.12815  -1.12739  -1.12723
  Beta  occ. eigenvalues --   -0.20676  -0.13526  -0.12007
  Beta virt. eigenvalues --   -0.08682  -0.05229  -0.04023  -0.03579  -0.03063
  Beta virt. eigenvalues --   -0.02543  -0.02251  -0.01030  -0.00274  -0.00102
  Beta virt. eigenvalues --    0.00354   0.00807   0.00917   0.01097   0.01163

 Mulliken charges and spin densities:
               1          2
     1  Na   0.138425   0.503139
     2  Na   0.143392   0.516681
     3  Na  -0.038875  -0.042569
     4  Na  -0.086633  -0.037671
     5  Na   0.034885   0.012883
     6  Na  -0.291744   0.080803
     7  Na   0.100550  -0.033266
 Sum of Mulliken charges =  -0.00000   1.00000

 Dipole moment (field-independent basis, Debye):
    X=              0.0563    Y=              0.1320    Z=              0.0202  Tot=              0.1449
 Quadrupole moment (field-independent basis, Debye-Ang):
   XX=            -60.2656   YY=            -74.6221   ZZ=            -63.5282
   XY=              0.3711   XZ=              0.1281   YZ=              1.2926

 Normal termination of Gaussian 16 at Thu Dec  7 13:48:30 2023.
