 Gaussian 16, Revision B.01,
 Gaussian 16:  ES64L-G16RevB.01 20-Dec-2017

 -------------------------
 #P B3LYP/6-311+g(d) force
 -------------------------

 -----
 DPGEN
 -----
 Symbolic Z-matrix:
 Charge =  0 Multiplicity = 2

                         Standard orientation:
 ---------------------------------------------------------------------
 Center     Atomic      Atomic             Coordinates (Angstroms)
 Number     Number       Type             X           Y           Z
 ---------------------------------------------------------------------
      1         11           0        2.244961   -1.203736   -1.396235
      2         11           0        1.237457    1.735012    0.099289
      3         11           0       -2.117122    2.487389   -0.711316
      4         11           0       -1.333261   -1.015543   -1.654464
      5         11           0        3.761290   -0.326804    0.762103
      6         11           0       -3.526812   -1.610253    0.856849
      7         11           0       -0.266514   -0.066066    2.043775
 ---------------------------------------------------------------------

 SCF Done:  E(UB3LYP) =  -1136.11486916     A.U. after   24 cycles

 The electronic state is 2-A.
 Alpha  occ. eigenvalues --  -38.45158 -38.44861 -38.44153 -38.44080 -38.44020
 Alpha  occ. eigenvalues --  -38.43655 -38.43013  -2.21046  -2.20702  -2.19992
 Alpha  occ. eigenvalues --   -2.19943  -2.19806  -2.19489  -2.18945  -1.14836
 Alpha  occ. eigenvalues --   -1.14686  -1.14655  -1.14409  -1.14338  -1.14308
 Alpha  occ. eigenvalues --   -1.13651  -1.13631  -1.13616  -1.13613  -1.13591
 Alpha  occ. eigenvalues --   -1.13563  -1.13469  -1.13464  -1.13451  -1.13178
 Alpha  occ. eigenvalues --   -1.13134  -1.13120  -1.12679  -1.12619  -1.12539
 Alpha  occ. eigenvalues --   -0.18207  -0.14043  -0.11431  -0.11162
 Alpha virt. eigenvalues --   -0.06900  -0.05174  -0.04906  -0.03223  -0.02833
 Alpha virt. eigenvalues --   -0.02431  -0.02341  -0.01369  -0.00923   0.00032
 Alpha virt. eigenvalues --    0.00116   0.00171   0.00263   0.00515   0.00715

  Beta  occ. eigenvalues --  -38.45161 -38.44797 -38.44117 -38.44049 -38.44004
  Beta  occ. eigenvalues --  -38.43620 -38.43009  -2.21051  -2.20584  -2.19937
  Beta  occ. eigenvalues --   -2.19877  -2.19778  -2.19428  -2.18943  -1.14840
  Beta  occ. eigenvalues --   -1.14691  -1.14649  -1.14328  -1.14259  -1.14216
  Beta  occ. eigenvalues --   -1.13605  -1.13594  -1.13579  -1.13556  -1.13549
  Beta  occ. eigenvalues --   -1.13525  -1.13449  -1.13445  -1.13427  -1.13138
  Beta  occ. eigenvalues --   -1.13089  -1.13062  -1.12677  -1.12596  -1.12533
  Beta  occ. eigenvalues --   -0.17552  -0.13895  -0.10928
  Beta virt. eigenvalues --   -0.07649  -0.06543  -0.05037  -0.04296  -0.02901
  Beta virt. eigenvalues --   -0.02547  -0.02046  -0.01772  -0.01146  -0.00585
  Beta virt. eigenvalues --    0.00040   0.00098   0.00290   0.00380   0.00631

 Mulliken charges and spin densities:
               1          2
     1  Na  -0.259975  -0.164715
     2  Na  -0.260790   0.459861
     3  Na   0.070661  -0.075052
     4  Na  -0.291019   0.398836
     5  Na   1.027927   0.074425
     6  Na   0.235026  -0.029898
     7  Na  -0.521830   0.336542
 Sum of Mulliken charges =  -0.00000   1.00000

 Dipole moment (field-independent basis, Debye):
    X=              0.4071    Y=              0.2934    Z=              0.6569  Tot=              0.8266
 Quadrupole moment (field-independent basis, Debye-Ang):
   XX=            -51.1295   YY=            -76.2167   ZZ=            -69.1900
   XY=             -2.8142   XZ=              2.8003   YZ=             -3.1487

 Normal termination of Gaussian 16 at Tue Dec  5 10:42:01 2023.
