 Gaussian 16, Revision B.01,
 Gaussian 16:  ES64L-G16RevB.01 20-Dec-2017

 -------------------------
 #P B3LYP/6-311+g(d) force
 -------------------------

 -----
 DPGEN
 -----
 Symbolic Z-matrix:
 Charge =  0 Multiplicity = 2

                         Standard orientation:
 ---------------------------------------------------------------------
 Center     Atomic      Atomic             Coordinates (Angstroms)
 Number     Number       Type             X           Y           Z
 ---------------------------------------------------------------------
      1         11           0       -0.117269   -0.499492   -1.603450
      2         11           0        0.175336    2.907804   -1.143438
      3         11           0       -1.838889    1.337603    1.011575
      4         11           0        2.103192    1.046821    1.202611
      5         11           0       -3.144797   -1.595575   -0.389590
      6         11           0        0.107754   -1.285467    1.682292
      7         11           0        2.714673   -1.911693   -0.760000
 ---------------------------------------------------------------------

 SCF Done:  E(UB3LYP) =  -1136.13474432     A.U. after   19 cycles

 The electronic state is 2-A.
 Alpha  occ. eigenvalues --  -38.43896 -38.43732 -38.43729 -38.43705 -38.43637
 Alpha  occ. eigenvalues --  -38.43429 -38.42933  -2.19776  -2.19675  -2.19561
 Alpha  occ. eigenvalues --   -2.19527  -2.19513  -2.19386  -2.18784  -1.13552
 Alpha  occ. eigenvalues --   -1.13429  -1.13377  -1.13372  -1.13319  -1.13269
 Alpha  occ. eigenvalues --   -1.13258  -1.13214  -1.13209  -1.13206  -1.13192
 Alpha  occ. eigenvalues --   -1.13182  -1.13177  -1.13156  -1.13109  -1.13067
 Alpha  occ. eigenvalues --   -1.13020  -1.12997  -1.12454  -1.12436  -1.12414
 Alpha  occ. eigenvalues --   -0.18684  -0.12882  -0.12038  -0.11550
 Alpha virt. eigenvalues --   -0.05401  -0.05180  -0.04138  -0.03358  -0.03098
 Alpha virt. eigenvalues --   -0.02851  -0.01502  -0.01139  -0.00481   0.00236
 Alpha virt. eigenvalues --    0.00324   0.00361   0.00658   0.00768   0.00839

  Beta  occ. eigenvalues --  -38.43866 -38.43714 -38.43705 -38.43671 -38.43620
  Beta  occ. eigenvalues --  -38.43364 -38.42913  -2.19724  -2.19567  -2.19536
  Beta  occ. eigenvalues --   -2.19514  -2.19498  -2.19269  -2.18748  -1.13492
  Beta  occ. eigenvalues --   -1.13378  -1.13348  -1.13310  -1.13239  -1.13218
  Beta  occ. eigenvalues --   -1.13206  -1.13194  -1.13185  -1.13182  -1.13176
  Beta  occ. eigenvalues --   -1.13162  -1.13153  -1.13142  -1.13099  -1.12988
  Beta  occ. eigenvalues --   -1.12931  -1.12914  -1.12420  -1.12412  -1.12391
  Beta  occ. eigenvalues --   -0.17888  -0.12685  -0.11851
  Beta virt. eigenvalues --   -0.07525  -0.05285  -0.04986  -0.03942  -0.02801
  Beta virt. eigenvalues --   -0.02584  -0.01884  -0.01413  -0.00993  -0.00198
  Beta virt. eigenvalues --    0.00208   0.00376   0.00408   0.00778   0.00788

 Mulliken charges and spin densities:
               1          2
     1  Na  -0.336413   0.738634
     2  Na   0.274039  -0.161486
     3  Na  -0.062842   0.103328
     4  Na   0.013208   0.147797
     5  Na   0.173050  -0.114787
     6  Na  -0.031272   0.406721
     7  Na  -0.029770  -0.120207
 Sum of Mulliken charges =  -0.00000   1.00000

 Dipole moment (field-independent basis, Debye):
    X=              0.0743    Y=             -0.3125    Z=              0.0805  Tot=              0.3311
 Quadrupole moment (field-independent basis, Debye-Ang):
   XX=            -58.2984   YY=            -66.8378   ZZ=            -68.2726
   XY=              0.4335   XZ=             -0.3948   YZ=              0.7945

 Normal termination of Gaussian 16 at Wed Nov 29 17:28:15 2023.
