 Gaussian 16, Revision B.01,
 Gaussian 16:  ES64L-G16RevB.01 20-Dec-2017

 -------------------------
 #P B3LYP/6-311+g(d) force
 -------------------------

 -----
 DPGEN
 -----
 Symbolic Z-matrix:
 Charge =  0 Multiplicity = 2

                         Standard orientation:
 ---------------------------------------------------------------------
 Center     Atomic      Atomic             Coordinates (Angstroms)
 Number     Number       Type             X           Y           Z
 ---------------------------------------------------------------------
      1         11           0       -5.059651   -0.270447    0.208650
      2         11           0       -2.268195   -0.692418   -0.194954
      3         11           0       -0.011099    2.662164   -0.779882
      4         11           0        3.247794    1.415608    0.516315
      5         11           0        3.104796   -2.216441   -0.045496
      6         11           0        0.218327   -0.117670    2.105922
      7         11           0        0.768029   -0.780797   -1.810555
 ---------------------------------------------------------------------

 SCF Done:  E(UB3LYP) =  -1136.10695150     A.U. after   31 cycles

 The electronic state is 2-A.
 Alpha  occ. eigenvalues --  -38.46447 -38.45522 -38.45393 -38.43736 -38.43698
 Alpha  occ. eigenvalues --  -38.42848 -38.42724  -2.22221  -2.21307  -2.21204
 Alpha  occ. eigenvalues --   -2.19638  -2.19595  -2.18647  -2.18542  -1.15916
 Alpha  occ. eigenvalues --   -1.15845  -1.15843  -1.14992  -1.14957  -1.14940
 Alpha  occ. eigenvalues --   -1.14919  -1.14834  -1.14830  -1.13365  -1.13309
 Alpha  occ. eigenvalues --   -1.13264  -1.13241  -1.13233  -1.13195  -1.12327
 Alpha  occ. eigenvalues --   -1.12302  -1.12288  -1.12220  -1.12206  -1.12186
 Alpha  occ. eigenvalues --   -0.17836  -0.13755  -0.11177  -0.11017
 Alpha virt. eigenvalues --   -0.08205  -0.04799  -0.03898  -0.03566  -0.03182
 Alpha virt. eigenvalues --   -0.02813  -0.02404  -0.01442  -0.01045  -0.00689
 Alpha virt. eigenvalues --   -0.00379   0.00121   0.00170   0.00639   0.00698

  Beta  occ. eigenvalues --  -38.46400 -38.45492 -38.45386 -38.43724 -38.43609
  Beta  occ. eigenvalues --  -38.42836 -38.42728  -2.22134  -2.21254  -2.21189
  Beta  occ. eigenvalues --   -2.19620  -2.19433  -2.18627  -2.18551  -1.15845
  Beta  occ. eigenvalues --   -1.15785  -1.15781  -1.14942  -1.14932  -1.14922
  Beta  occ. eigenvalues --   -1.14886  -1.14823  -1.14818  -1.13349  -1.13263
  Beta  occ. eigenvalues --   -1.13227  -1.13159  -1.13126  -1.13071  -1.12310
  Beta  occ. eigenvalues --   -1.12286  -1.12268  -1.12225  -1.12209  -1.12183
  Beta  occ. eigenvalues --   -0.17080  -0.13549  -0.10865
  Beta virt. eigenvalues --   -0.07949  -0.07351  -0.04546  -0.03641  -0.03135
  Beta virt. eigenvalues --   -0.03004  -0.02138  -0.01840  -0.01274  -0.00800
  Beta virt. eigenvalues --   -0.00542  -0.00356   0.00205   0.00326   0.00707

 Mulliken charges and spin densities:
               1          2
     1  Na   0.030977   0.036116
     2  Na  -0.749094   0.072405
     3  Na  -0.218347   0.021937
     4  Na  -0.090059   0.197840
     5  Na  -0.007384  -0.056122
     6  Na   0.247966   0.370043
     7  Na   0.785941   0.357782
 Sum of Mulliken charges =  -0.00000   1.00000

 Dipole moment (field-independent basis, Debye):
    X=             -0.5989    Y=              0.9004    Z=              0.7448  Tot=              1.3131
 Quadrupole moment (field-independent basis, Debye-Ang):
   XX=            -50.6513   YY=            -75.4898   ZZ=            -69.7814
   XY=              2.1495   XZ=              0.0973   YZ=             -2.6162

 Normal termination of Gaussian 16 at Mon Dec  4 03:15:48 2023.
