 Gaussian 16, Revision B.01,
 Gaussian 16:  ES64L-G16RevB.01 20-Dec-2017

 -------------------------
 #P B3LYP/6-311+g(d) force
 -------------------------

 -----
 DPGEN
 -----
 Symbolic Z-matrix:
 Charge =  0 Multiplicity = 2

                         Standard orientation:
 ---------------------------------------------------------------------
 Center     Atomic      Atomic             Coordinates (Angstroms)
 Number     Number       Type             X           Y           Z
 ---------------------------------------------------------------------
      1         11           0       -2.351758    3.336975    0.083786
      2         11           0        0.316675   -3.168592    0.287929
      3         11           0        2.000950    3.684326   -0.140709
      4         11           0        3.794076    1.043100    0.247054
      5         11           0        3.471981   -2.495590   -0.328357
      6         11           0       -4.374720    0.442734   -0.107008
      7         11           0       -2.857203   -2.842953   -0.042696
 ---------------------------------------------------------------------

 SCF Done:  E(UB3LYP) =  -1136.10831378     A.U. after   23 cycles

 The electronic state is 2-A.
 Alpha  occ. eigenvalues --  -38.45210 -38.45089 -38.44884 -38.44661 -38.44276
 Alpha  occ. eigenvalues --  -38.44060 -38.43997  -2.20959  -2.20842  -2.20668
 Alpha  occ. eigenvalues --   -2.20464  -2.20066  -2.19881  -2.19819  -1.14627
 Alpha  occ. eigenvalues --   -1.14616  -1.14586  -1.14526  -1.14508  -1.14475
 Alpha  occ. eigenvalues --   -1.14347  -1.14345  -1.14312  -1.14149  -1.14141
 Alpha  occ. eigenvalues --   -1.14128  -1.13720  -1.13719  -1.13698  -1.13537
 Alpha  occ. eigenvalues --   -1.13526  -1.13504  -1.13465  -1.13462  -1.13451
 Alpha  occ. eigenvalues --   -0.15547  -0.14032  -0.13554  -0.11136
 Alpha virt. eigenvalues --   -0.07701  -0.04721  -0.04393  -0.03611  -0.03535
 Alpha virt. eigenvalues --   -0.02525  -0.02251  -0.02071  -0.01586  -0.00515
 Alpha virt. eigenvalues --   -0.00344  -0.00166  -0.00065   0.00202   0.00411

  Beta  occ. eigenvalues --  -38.45162 -38.45086 -38.44868 -38.44653 -38.44231
  Beta  occ. eigenvalues --  -38.44002 -38.43938  -2.20873  -2.20840  -2.20645
  Beta  occ. eigenvalues --   -2.20457  -2.19986  -2.19774  -2.19708  -1.14570
  Beta  occ. eigenvalues --   -1.14561  -1.14528  -1.14523  -1.14505  -1.14443
  Beta  occ. eigenvalues --   -1.14336  -1.14331  -1.14262  -1.14143  -1.14136
  Beta  occ. eigenvalues --   -1.14085  -1.13667  -1.13665  -1.13637  -1.13463
  Beta  occ. eigenvalues --   -1.13454  -1.13437  -1.13393  -1.13386  -1.13378
  Beta  occ. eigenvalues --   -0.14965  -0.13294  -0.12664
  Beta virt. eigenvalues --   -0.08090  -0.07879  -0.04261  -0.03882  -0.03425
  Beta virt. eigenvalues --   -0.03199  -0.02333  -0.02014  -0.01899  -0.01406
  Beta virt. eigenvalues --   -0.00152   0.00047   0.00133   0.00158   0.00198

 Mulliken charges and spin densities:
               1          2
     1  Na  -0.056240   0.209313
     2  Na  -0.790118   0.100328
     3  Na   0.261430   0.164943
     4  Na  -0.376637   0.086990
     5  Na   0.176050   0.270817
     6  Na   0.109876   0.002383
     7  Na   0.675640   0.165227
 Sum of Mulliken charges =  -0.00000   1.00000

 Dipole moment (field-independent basis, Debye):
    X=             -0.3470    Y=              0.3484    Z=             -0.0423  Tot=              0.4935
 Quadrupole moment (field-independent basis, Debye-Ang):
   XX=            -59.7275   YY=            -65.3384   ZZ=            -74.2369
   XY=             -0.8400   XZ=              0.2851   YZ=              0.1098

 Normal termination of Gaussian 16 at Sun Dec  3 16:57:24 2023.
