 Gaussian 16, Revision B.01,
 Gaussian 16:  ES64L-G16RevB.01 20-Dec-2017

 -------------------------
 #P B3LYP/6-311+g(d) force
 -------------------------

 -----
 DPGEN
 -----
 Symbolic Z-matrix:
 Charge =  0 Multiplicity = 2

                         Standard orientation:
 ---------------------------------------------------------------------
 Center     Atomic      Atomic             Coordinates (Angstroms)
 Number     Number       Type             X           Y           Z
 ---------------------------------------------------------------------
      1         11           0       -2.111887    2.695530    0.009372
      2         11           0        0.924338    2.084764   -1.516286
      3         11           0        2.725702   -1.489881    1.205740
      4         11           0        3.985687    1.223630    0.585722
      5         11           0        0.691513   -2.862431   -1.185939
      6         11           0       -2.913701   -1.350808   -1.040007
      7         11           0       -3.301652   -0.300804    1.941397
 ---------------------------------------------------------------------

 SCF Done:  E(UB3LYP) =  -1136.11041745     A.U. after   21 cycles

 The electronic state is 2-A.
 Alpha  occ. eigenvalues --  -38.45096 -38.44559 -38.44491 -38.44489 -38.44348
 Alpha  occ. eigenvalues --  -38.43921 -38.43611  -2.20869  -2.20380  -2.20311
 Alpha  occ. eigenvalues --   -2.20256  -2.20171  -2.19695  -2.19393  -1.14575
 Alpha  occ. eigenvalues --   -1.14533  -1.14503  -1.14055  -1.14029  -1.14019
 Alpha  occ. eigenvalues --   -1.13998  -1.13959  -1.13943  -1.13931  -1.13928
 Alpha  occ. eigenvalues --   -1.13881  -1.13833  -1.13818  -1.13788  -1.13360
 Alpha  occ. eigenvalues --   -1.13357  -1.13320  -1.13053  -1.13048  -1.13023
 Alpha  occ. eigenvalues --   -0.16177  -0.14154  -0.12074  -0.10814
 Alpha virt. eigenvalues --   -0.06854  -0.05500  -0.04284  -0.03766  -0.03418
 Alpha virt. eigenvalues --   -0.02357  -0.01987  -0.01211  -0.00952  -0.00838
 Alpha virt. eigenvalues --   -0.00226  -0.00183   0.00023   0.00342   0.00479

  Beta  occ. eigenvalues --  -38.45095 -38.44495 -38.44477 -38.44450 -38.44337
  Beta  occ. eigenvalues --  -38.43885 -38.43565  -2.20872  -2.20260  -2.20238
  Beta  occ. eigenvalues --   -2.20238  -2.20154  -2.19630  -2.19309  -1.14567
  Beta  occ. eigenvalues --   -1.14537  -1.14487  -1.14003  -1.13949  -1.13938
  Beta  occ. eigenvalues --   -1.13933  -1.13921  -1.13911  -1.13910  -1.13882
  Beta  occ. eigenvalues --   -1.13848  -1.13825  -1.13805  -1.13749  -1.13317
  Beta  occ. eigenvalues --   -1.13313  -1.13269  -1.12997  -1.12992  -1.12966
  Beta  occ. eigenvalues --   -0.15650  -0.13565  -0.11522
  Beta virt. eigenvalues --   -0.07596  -0.06947  -0.04979  -0.03880  -0.03505
  Beta virt. eigenvalues --   -0.03096  -0.01875  -0.01775  -0.01027  -0.00863
  Beta virt. eigenvalues --   -0.00588  -0.00121   0.00037   0.00200   0.00482

 Mulliken charges and spin densities:
               1          2
     1  Na   0.081822  -0.046798
     2  Na  -0.335163   0.221872
     3  Na  -0.258582   0.105283
     4  Na   0.459723   0.155441
     5  Na  -0.002013   0.109365
     6  Na   0.005424   0.095802
     7  Na   0.048789   0.359036
 Sum of Mulliken charges =  -0.00000   1.00000

 Dipole moment (field-independent basis, Debye):
    X=             -0.4736    Y=              0.2919    Z=              0.5518  Tot=              0.7836
 Quadrupole moment (field-independent basis, Debye-Ang):
   XX=            -62.8163   YY=            -73.1783   ZZ=            -65.0699
   XY=              0.9663   XZ=              0.3439   YZ=              0.9015

 Normal termination of Gaussian 16 at Sun Dec  3 19:51:47 2023.
