 Gaussian 16, Revision B.01,
 Gaussian 16:  ES64L-G16RevB.01 20-Dec-2017

 -------------------------
 #P B3LYP/6-311+g(d) force
 -------------------------

 -----
 DPGEN
 -----
 Symbolic Z-matrix:
 Charge =  0 Multiplicity = 2

                         Standard orientation:
 ---------------------------------------------------------------------
 Center     Atomic      Atomic             Coordinates (Angstroms)
 Number     Number       Type             X           Y           Z
 ---------------------------------------------------------------------
      1         11           0        0.547739   -2.561221    0.116641
      2         11           0        0.567659   -0.458417   -1.752684
      3         11           0       -2.404818   -1.553064    0.111401
      4         11           0       -0.161848    0.681272    1.925349
      5         11           0        0.840077    2.586274   -0.435873
      6         11           0       -2.495416    1.461747   -0.315506
      7         11           0        3.106607   -0.156591    0.350673
 ---------------------------------------------------------------------

 SCF Done:  E(UB3LYP) =  -1136.13246062     A.U. after   18 cycles

 The electronic state is 2-A.
 Alpha  occ. eigenvalues --  -38.44155 -38.43723 -38.43509 -38.43480 -38.43464
 Alpha  occ. eigenvalues --  -38.43338 -38.43301  -2.20000  -2.19613  -2.19477
 Alpha  occ. eigenvalues --   -2.19444  -2.19393  -2.19252  -2.19230  -1.13678
 Alpha  occ. eigenvalues --   -1.13665  -1.13636  -1.13356  -1.13349  -1.13278
 Alpha  occ. eigenvalues --   -1.13258  -1.13139  -1.13120  -1.13108  -1.13085
 Alpha  occ. eigenvalues --   -1.13061  -1.13054  -1.13031  -1.13018  -1.12907
 Alpha  occ. eigenvalues --   -1.12888  -1.12875  -1.12856  -1.12839  -1.12831
 Alpha  occ. eigenvalues --   -0.19223  -0.13233  -0.12679  -0.10992
 Alpha virt. eigenvalues --   -0.05668  -0.04877  -0.04485  -0.03388  -0.03145
 Alpha virt. eigenvalues --   -0.02522  -0.01490  -0.00828  -0.00086  -0.00039
 Alpha virt. eigenvalues --    0.00043   0.00375   0.00872   0.00931   0.00965

  Beta  occ. eigenvalues --  -38.44148 -38.43716 -38.43476 -38.43432 -38.43395
  Beta  occ. eigenvalues --  -38.43324 -38.43293  -2.19990  -2.19604  -2.19389
  Beta  occ. eigenvalues --   -2.19353  -2.19303  -2.19239  -2.19209  -1.13669
  Beta  occ. eigenvalues --   -1.13640  -1.13629  -1.13352  -1.13283  -1.13266
  Beta  occ. eigenvalues --   -1.13231  -1.13100  -1.13060  -1.13033  -1.13028
  Beta  occ. eigenvalues --   -1.13007  -1.12984  -1.12971  -1.12952  -1.12880
  Beta  occ. eigenvalues --   -1.12855  -1.12843  -1.12829  -1.12827  -1.12803
  Beta  occ. eigenvalues --   -0.18472  -0.13010  -0.12431
  Beta virt. eigenvalues --   -0.07051  -0.05619  -0.04873  -0.04408  -0.02610
  Beta virt. eigenvalues --   -0.02348  -0.01479  -0.01397  -0.00760  -0.00117
  Beta virt. eigenvalues --   -0.00018   0.00124   0.00404   0.00916   0.00934

 Mulliken charges and spin densities:
               1          2
     1  Na   0.461014   0.091656
     2  Na  -0.471241   0.433120
     3  Na   0.042426  -0.053205
     4  Na  -0.664292   0.599892
     5  Na   0.230098  -0.054203
     6  Na   0.233056   0.027288
     7  Na   0.168939  -0.044548
 Sum of Mulliken charges =  -0.00000   1.00000

 Dipole moment (field-independent basis, Debye):
    X=              0.3178    Y=              0.2333    Z=              0.1610  Tot=              0.4258
 Quadrupole moment (field-independent basis, Debye-Ang):
   XX=            -57.0058   YY=            -65.6630   ZZ=            -72.2204
   XY=             -0.0392   XZ=              1.5797   YZ=             -2.1279

 Normal termination of Gaussian 16 at Tue Dec  5 20:57:36 2023.
