 Gaussian 16, Revision B.01,
 Gaussian 16:  ES64L-G16RevB.01 20-Dec-2017

 -------------------------
 #P B3LYP/6-311+g(d) force
 -------------------------

 -----
 DPGEN
 -----
 Symbolic Z-matrix:
 Charge =  0 Multiplicity = 2

                         Standard orientation:
 ---------------------------------------------------------------------
 Center     Atomic      Atomic             Coordinates (Angstroms)
 Number     Number       Type             X           Y           Z
 ---------------------------------------------------------------------
      1         11           0        3.666634   -0.177180   -0.828560
      2         11           0       -1.316750   -0.267385    2.053815
      3         11           0        0.165202   -0.250314   -1.711155
      4         11           0       -2.461621    1.534903   -0.664854
      5         11           0       -2.650223   -1.603119   -0.702734
      6         11           0        1.015706    2.366394    0.715331
      7         11           0        1.581053   -1.603301    1.138157
 ---------------------------------------------------------------------

 SCF Done:  E(UB3LYP) =  -1136.12655326     A.U. after   26 cycles

 The electronic state is 2-A.
 Alpha  occ. eigenvalues --  -38.44808 -38.44271 -38.44237 -38.43801 -38.43702
 Alpha  occ. eigenvalues --  -38.43520 -38.42573  -2.20625  -2.20194  -2.20149
 Alpha  occ. eigenvalues --   -2.19696  -2.19580  -2.19416  -2.18379  -1.14305
 Alpha  occ. eigenvalues --   -1.14277  -1.14252  -1.13892  -1.13839  -1.13838
 Alpha  occ. eigenvalues --   -1.13826  -1.13793  -1.13747  -1.13392  -1.13372
 Alpha  occ. eigenvalues --   -1.13310  -1.13266  -1.13233  -1.13205  -1.13085
 Alpha  occ. eigenvalues --   -1.13067  -1.13044  -1.12066  -1.12053  -1.12003
 Alpha  occ. eigenvalues --   -0.18746  -0.13978  -0.11915  -0.10879
 Alpha virt. eigenvalues --   -0.06384  -0.04913  -0.04633  -0.03363  -0.02834
 Alpha virt. eigenvalues --   -0.02615  -0.02143  -0.00791  -0.00673  -0.00072
 Alpha virt. eigenvalues --    0.00254   0.00296   0.00424   0.00703   0.00839

  Beta  occ. eigenvalues --  -38.44797 -38.44220 -38.44150 -38.43785 -38.43670
  Beta  occ. eigenvalues --  -38.43511 -38.42568  -2.20604  -2.20102  -2.19991
  Beta  occ. eigenvalues --   -2.19669  -2.19527  -2.19403  -2.18373  -1.14290
  Beta  occ. eigenvalues --   -1.14259  -1.14239  -1.13830  -1.13770  -1.13755
  Beta  occ. eigenvalues --   -1.13721  -1.13689  -1.13631  -1.13373  -1.13344
  Beta  occ. eigenvalues --   -1.13286  -1.13230  -1.13177  -1.13162  -1.13066
  Beta  occ. eigenvalues --   -1.13061  -1.13019  -1.12059  -1.12037  -1.12001
  Beta  occ. eigenvalues --   -0.17962  -0.13763  -0.10680
  Beta virt. eigenvalues --   -0.07864  -0.06181  -0.04837  -0.04090  -0.02926
  Beta virt. eigenvalues --   -0.02153  -0.02039  -0.01898  -0.00660  -0.00397
  Beta virt. eigenvalues --   -0.00009   0.00284   0.00399   0.00503   0.00792

 Mulliken charges and spin densities:
               1          2
     1  Na   0.494182   0.048040
     2  Na   0.167670   0.535197
     3  Na  -0.318958   0.415735
     4  Na   0.172123   0.040272
     5  Na   0.342584  -0.025537
     6  Na  -0.575604  -0.053219
     7  Na  -0.281997   0.039512
 Sum of Mulliken charges =  -0.00000   1.00000

 Dipole moment (field-independent basis, Debye):
    X=              0.4374    Y=             -0.0728    Z=             -0.3106  Tot=              0.5414
 Quadrupole moment (field-independent basis, Debye-Ang):
   XX=            -50.6064   YY=            -77.4246   ZZ=            -66.7079
   XY=              0.4345   XZ=             -1.3070   YZ=             -0.9080

 Normal termination of Gaussian 16 at Thu Dec  7 10:13:32 2023.
