 Gaussian 16, Revision B.01,
 Gaussian 16:  ES64L-G16RevB.01 20-Dec-2017

 -------------------------
 #P B3LYP/6-311+g(d) force
 -------------------------

 -----
 DPGEN
 -----
 Symbolic Z-matrix:
 Charge =  0 Multiplicity = 2

                         Standard orientation:
 ---------------------------------------------------------------------
 Center     Atomic      Atomic             Coordinates (Angstroms)
 Number     Number       Type             X           Y           Z
 ---------------------------------------------------------------------
      1         11           0        2.503515   -0.835733    1.700197
      2         11           0       -3.874835   -1.673235   -0.254414
      3         11           0        3.097171   -1.295064   -1.427010
      4         11           0       -3.514550    1.793357   -0.607374
      5         11           0       -0.872735   -1.101548    0.059852
      6         11           0        3.016519    1.799258   -0.805921
      7         11           0       -0.355085    1.312965    1.334670
 ---------------------------------------------------------------------

 SCF Done:  E(UB3LYP) =  -1136.10436805     A.U. after   28 cycles

 The electronic state is 2-A.
 Alpha  occ. eigenvalues --  -38.45314 -38.45243 -38.45032 -38.44321 -38.43672
 Alpha  occ. eigenvalues --  -38.43587 -38.42297  -2.21102  -2.21080  -2.20892
 Alpha  occ. eigenvalues --   -2.20281  -2.19516  -2.19429  -2.18203  -1.14778
 Alpha  occ. eigenvalues --   -1.14753  -1.14735  -1.14723  -1.14721  -1.14680
 Alpha  occ. eigenvalues --   -1.14576  -1.14550  -1.14496  -1.14049  -1.13951
 Alpha  occ. eigenvalues --   -1.13877  -1.13198  -1.13191  -1.13167  -1.13115
 Alpha  occ. eigenvalues --   -1.13073  -1.13047  -1.11969  -1.11846  -1.11783
 Alpha  occ. eigenvalues --   -0.17759  -0.14802  -0.11144  -0.10587
 Alpha virt. eigenvalues --   -0.07000  -0.06322  -0.04031  -0.03141  -0.02899
 Alpha virt. eigenvalues --   -0.02762  -0.02074  -0.01387  -0.01093  -0.00557
 Alpha virt. eigenvalues --    0.00020   0.00085   0.00107   0.00359   0.00460

  Beta  occ. eigenvalues --  -38.45266 -38.45168 -38.45006 -38.44274 -38.43695
  Beta  occ. eigenvalues --  -38.43563 -38.42300  -2.21010  -2.20941  -2.20843
  Beta  occ. eigenvalues --   -2.20199  -2.19564  -2.19386  -2.18212  -1.14716
  Beta  occ. eigenvalues --   -1.14671  -1.14657  -1.14657  -1.14633  -1.14585
  Beta  occ. eigenvalues --   -1.14542  -1.14507  -1.14471  -1.13984  -1.13897
  Beta  occ. eigenvalues --   -1.13800  -1.13231  -1.13224  -1.13176  -1.13077
  Beta  occ. eigenvalues --   -1.13045  -1.13016  -1.11971  -1.11848  -1.11772
  Beta  occ. eigenvalues --   -0.17221  -0.14412  -0.10461
  Beta virt. eigenvalues --   -0.07580  -0.06264  -0.06106  -0.03879  -0.02876
  Beta virt. eigenvalues --   -0.02560  -0.02152  -0.01785  -0.00957  -0.00775
  Beta virt. eigenvalues --   -0.00413   0.00074   0.00130   0.00303   0.00443

 Mulliken charges and spin densities:
               1          2
     1  Na   1.193150  -0.010622
     2  Na   0.012338   0.151899
     3  Na   0.497303  -0.255514
     4  Na   0.232762   0.152194
     5  Na  -1.896291   0.502101
     6  Na   0.023355   0.289454
     7  Na  -0.062616   0.170487
 Sum of Mulliken charges =  -0.00000   1.00000

 Dipole moment (field-independent basis, Debye):
    X=              0.1543    Y=              0.8619    Z=              0.2482  Tot=              0.9101
 Quadrupole moment (field-independent basis, Debye-Ang):
   XX=            -61.0237   YY=            -67.5024   ZZ=            -70.8313
   XY=             -3.1184   XZ=              6.2136   YZ=             -5.1473

 Normal termination of Gaussian 16 at Tue Dec  5 18:23:22 2023.
