 Gaussian 16, Revision B.01,
 Gaussian 16:  ES64L-G16RevB.01 20-Dec-2017

 -------------------------
 #P B3LYP/6-311+g(d) force
 -------------------------

 -----
 DPGEN
 -----
 Symbolic Z-matrix:
 Charge =  0 Multiplicity = 2

                         Standard orientation:
 ---------------------------------------------------------------------
 Center     Atomic      Atomic             Coordinates (Angstroms)
 Number     Number       Type             X           Y           Z
 ---------------------------------------------------------------------
      1         11           0        1.691491   -2.605416   -0.294550
      2         11           0        0.716661    2.858610    0.086927
      3         11           0       -0.086028    0.138190   -1.635520
      4         11           0       -0.030425   -0.308481    2.023716
      5         11           0       -3.279605    1.281138   -0.133392
      6         11           0       -2.283491   -1.984708   -0.013263
      7         11           0        3.271396    0.620668   -0.033918
 ---------------------------------------------------------------------

 SCF Done:  E(UB3LYP) =  -1136.13487577     A.U. after   21 cycles

 The electronic state is 2-A.
 Alpha  occ. eigenvalues --  -38.44573 -38.44523 -38.43935 -38.43473 -38.43377
 Alpha  occ. eigenvalues --  -38.43352 -38.43249  -2.20352  -2.20331  -2.19774
 Alpha  occ. eigenvalues --   -2.19345  -2.19303  -2.19166  -2.19082  -1.14022
 Alpha  occ. eigenvalues --   -1.14012  -1.14004  -1.13994  -1.13986  -1.13976
 Alpha  occ. eigenvalues --   -1.13455  -1.13452  -1.13396  -1.13028  -1.12991
 Alpha  occ. eigenvalues --   -1.12967  -1.12965  -1.12960  -1.12919  -1.12836
 Alpha  occ. eigenvalues --   -1.12826  -1.12805  -1.12759  -1.12743  -1.12712
 Alpha  occ. eigenvalues --   -0.18220  -0.13245  -0.12014  -0.10423
 Alpha virt. eigenvalues --   -0.06203  -0.05482  -0.04478  -0.03217  -0.02656
 Alpha virt. eigenvalues --   -0.02370  -0.01980  -0.01329  -0.00558  -0.00510
 Alpha virt. eigenvalues --   -0.00044   0.00311   0.00690   0.00808   0.00839

  Beta  occ. eigenvalues --  -38.44572 -38.44522 -38.43929 -38.43377 -38.43346
  Beta  occ. eigenvalues --  -38.43318 -38.43245  -2.20352  -2.20330  -2.19766
  Beta  occ. eigenvalues --   -2.19195  -2.19167  -2.19157  -2.19077  -1.14015
  Beta  occ. eigenvalues --   -1.14007  -1.13996  -1.13989  -1.13985  -1.13977
  Beta  occ. eigenvalues --   -1.13453  -1.13417  -1.13395  -1.12937  -1.12894
  Beta  occ. eigenvalues --   -1.12885  -1.12851  -1.12840  -1.12839  -1.12814
  Beta  occ. eigenvalues --   -1.12807  -1.12794  -1.12749  -1.12719  -1.12712
  Beta  occ. eigenvalues --   -0.17508  -0.13050  -0.11792
  Beta virt. eigenvalues --   -0.06545  -0.06137  -0.05477  -0.04437  -0.02470
  Beta virt. eigenvalues --   -0.01920  -0.01880  -0.01336  -0.01273  -0.00607
  Beta virt. eigenvalues --   -0.00536   0.00117   0.00344   0.00758   0.00807

 Mulliken charges and spin densities:
               1          2
     1  Na   0.060297  -0.067661
     2  Na  -0.001088  -0.105583
     3  Na  -0.133980   0.567502
     4  Na  -0.346748   0.758706
     5  Na   0.044649  -0.077683
     6  Na   0.245185  -0.046160
     7  Na   0.131685  -0.029122
 Sum of Mulliken charges =  -0.00000   1.00000

 Dipole moment (field-independent basis, Debye):
    X=             -0.1794    Y=              0.0928    Z=              0.0595  Tot=              0.2106
 Quadrupole moment (field-independent basis, Debye-Ang):
   XX=            -51.7562   YY=            -64.3420   ZZ=            -76.2676
   XY=             -0.8099   XZ=              0.0008   YZ=              0.9951

 Normal termination of Gaussian 16 at Thu Dec  7 23:18:15 2023.
