 Gaussian 16, Revision B.01,
 Gaussian 16:  ES64L-G16RevB.01 20-Dec-2017

 -------------------------
 #P B3LYP/6-311+g(d) force
 -------------------------

 -----
 DPGEN
 -----
 Symbolic Z-matrix:
 Charge =  0 Multiplicity = 2

                         Standard orientation:
 ---------------------------------------------------------------------
 Center     Atomic      Atomic             Coordinates (Angstroms)
 Number     Number       Type             X           Y           Z
 ---------------------------------------------------------------------
      1         11           0       -0.961616   -1.062856    1.964665
      2         11           0        0.338551   -2.325299   -0.679808
      3         11           0        0.377814    2.360564    0.398522
      4         11           0        2.537171   -0.848876    1.401663
      5         11           0       -2.673609   -1.198438   -1.731567
      6         11           0        3.477685    1.117000   -1.583178
      7         11           0       -3.095995    1.957906    0.229703
 ---------------------------------------------------------------------

 SCF Done:  E(UB3LYP) =  -1136.12602348     A.U. after   20 cycles

 The electronic state is 2-A.
 Alpha  occ. eigenvalues --  -38.44402 -38.44331 -38.44307 -38.44265 -38.43883
 Alpha  occ. eigenvalues --  -38.43703 -38.43457  -2.20254  -2.20114  -2.20106
 Alpha  occ. eigenvalues --   -2.20095  -2.19651  -2.19483  -2.19322  -1.13944
 Alpha  occ. eigenvalues --   -1.13907  -1.13866  -1.13785  -1.13783  -1.13769
 Alpha  occ. eigenvalues --   -1.13766  -1.13752  -1.13750  -1.13734  -1.13729
 Alpha  occ. eigenvalues --   -1.13698  -1.13350  -1.13341  -1.13266  -1.13158
 Alpha  occ. eigenvalues --   -1.13133  -1.13130  -1.13007  -1.12984  -1.12956
 Alpha  occ. eigenvalues --   -0.17413  -0.13295  -0.11968  -0.11192
 Alpha virt. eigenvalues --   -0.05821  -0.05509  -0.05081  -0.03529  -0.02980
 Alpha virt. eigenvalues --   -0.02626  -0.01712  -0.01039  -0.00830  -0.00289
 Alpha virt. eigenvalues --   -0.00004   0.00031   0.00291   0.00375   0.00523

  Beta  occ. eigenvalues --  -38.44350 -38.44277 -38.44251 -38.44245 -38.43883
  Beta  occ. eigenvalues --  -38.43703 -38.43448  -2.20161  -2.20072  -2.20003
  Beta  occ. eigenvalues --   -2.19998  -2.19652  -2.19484  -2.19310  -1.13886
  Beta  occ. eigenvalues --   -1.13835  -1.13796  -1.13770  -1.13747  -1.13703
  Beta  occ. eigenvalues --   -1.13697  -1.13686  -1.13676  -1.13674  -1.13653
  Beta  occ. eigenvalues --   -1.13648  -1.13350  -1.13335  -1.13262  -1.13157
  Beta  occ. eigenvalues --   -1.13133  -1.13125  -1.13003  -1.12966  -1.12929
  Beta  occ. eigenvalues --   -0.16801  -0.12869  -0.11690
  Beta virt. eigenvalues --   -0.07686  -0.05730  -0.05142  -0.04547  -0.03369
  Beta virt. eigenvalues --   -0.02473  -0.01956  -0.01638  -0.00865  -0.00430
  Beta virt. eigenvalues --   -0.00191   0.00032   0.00242   0.00360   0.00464

 Mulliken charges and spin densities:
               1          2
     1  Na  -0.077646   0.295943
     2  Na  -0.297908   0.204369
     3  Na  -0.619698   0.012272
     4  Na   0.472063   0.101427
     5  Na   0.110918   0.195662
     6  Na   0.192865   0.224842
     7  Na   0.219407  -0.034515
 Sum of Mulliken charges =  -0.00000   1.00000

 Dipole moment (field-independent basis, Debye):
    X=              0.0580    Y=             -0.3028    Z=              0.1065  Tot=              0.3261
 Quadrupole moment (field-independent basis, Debye-Ang):
   XX=            -58.1566   YY=            -74.3528   ZZ=            -65.2330
   XY=             -1.8008   XZ=             -0.4533   YZ=             -0.9407

 Normal termination of Gaussian 16 at Mon Dec  4 03:43:52 2023.
