 Gaussian 16, Revision B.01,
 Gaussian 16:  ES64L-G16RevB.01 20-Dec-2017

 -------------------------
 #P B3LYP/6-311+g(d) force
 -------------------------

 -----
 DPGEN
 -----
 Symbolic Z-matrix:
 Charge =  0 Multiplicity = 2

                         Standard orientation:
 ---------------------------------------------------------------------
 Center     Atomic      Atomic             Coordinates (Angstroms)
 Number     Number       Type             X           Y           Z
 ---------------------------------------------------------------------
      1         11           0        0.061323    0.431630   -1.426318
      2         11           0       -3.453754   -1.045869   -1.304830
      3         11           0       -2.631621    1.631636    0.279338
      4         11           0        2.153437   -1.779779    0.403872
      5         11           0       -0.899552   -1.301512    1.872414
      6         11           0        3.606292    0.374611   -1.258447
      7         11           0        1.163874    1.689284    1.433971
 ---------------------------------------------------------------------

 SCF Done:  E(UB3LYP) =  -1136.12481082     A.U. after   26 cycles

 The electronic state is 2-A.
 Alpha  occ. eigenvalues --  -38.44642 -38.44285 -38.44136 -38.43972 -38.43827
 Alpha  occ. eigenvalues --  -38.43563 -38.42699  -2.20498  -2.20170  -2.20043
 Alpha  occ. eigenvalues --   -2.19790  -2.19689  -2.19414  -2.18552  -1.14192
 Alpha  occ. eigenvalues --   -1.14164  -1.14110  -1.13898  -1.13861  -1.13766
 Alpha  occ. eigenvalues --   -1.13730  -1.13702  -1.13655  -1.13457  -1.13438
 Alpha  occ. eigenvalues --   -1.13419  -1.13384  -1.13322  -1.13296  -1.13094
 Alpha  occ. eigenvalues --   -1.13062  -1.13045  -1.12243  -1.12196  -1.12179
 Alpha  occ. eigenvalues --   -0.18408  -0.14171  -0.11495  -0.10810
 Alpha virt. eigenvalues --   -0.06367  -0.05529  -0.04686  -0.03168  -0.02753
 Alpha virt. eigenvalues --   -0.02428  -0.02158  -0.01151  -0.00819  -0.00289
 Alpha virt. eigenvalues --    0.00164   0.00272   0.00414   0.00477   0.00724

  Beta  occ. eigenvalues --  -38.44623 -38.44267 -38.44088 -38.43951 -38.43776
  Beta  occ. eigenvalues --  -38.43560 -38.42671  -2.20464  -2.20141  -2.19954
  Beta  occ. eigenvalues --   -2.19749  -2.19598  -2.19412  -2.18502  -1.14163
  Beta  occ. eigenvalues --   -1.14139  -1.14079  -1.13850  -1.13830  -1.13752
  Beta  occ. eigenvalues --   -1.13662  -1.13644  -1.13594  -1.13429  -1.13405
  Beta  occ. eigenvalues --   -1.13395  -1.13317  -1.13249  -1.13235  -1.13085
  Beta  occ. eigenvalues --   -1.13058  -1.13041  -1.12203  -1.12155  -1.12142
  Beta  occ. eigenvalues --   -0.17693  -0.13964  -0.10611
  Beta virt. eigenvalues --   -0.07636  -0.06199  -0.04937  -0.04465  -0.02779
  Beta virt. eigenvalues --   -0.02378  -0.02193  -0.01664  -0.00776  -0.00527
  Beta virt. eigenvalues --   -0.00145   0.00201   0.00386   0.00466   0.00596

 Mulliken charges and spin densities:
               1          2
     1  Na  -0.798754   0.412371
     2  Na   0.198624   0.025515
     3  Na   0.505185   0.010199
     4  Na  -0.143389  -0.011237
     5  Na  -0.247657   0.322429
     6  Na   0.644161   0.045989
     7  Na  -0.158170   0.194735
 Sum of Mulliken charges =  -0.00000   1.00000

 Dipole moment (field-independent basis, Debye):
    X=             -0.1618    Y=              0.3357    Z=              0.4225  Tot=              0.5633
 Quadrupole moment (field-independent basis, Debye-Ang):
   XX=            -55.7146   YY=            -64.5136   ZZ=            -76.8277
   XY=              1.2023   XZ=             -0.4618   YZ=              2.8311

 Normal termination of Gaussian 16 at Fri Dec  8 00:42:43 2023.
