 Gaussian 16, Revision B.01,
 Gaussian 16:  ES64L-G16RevB.01 20-Dec-2017

 -------------------------
 #P B3LYP/6-311+g(d) force
 -------------------------

 -----
 DPGEN
 -----
 Symbolic Z-matrix:
 Charge =  0 Multiplicity = 2

                         Standard orientation:
 ---------------------------------------------------------------------
 Center     Atomic      Atomic             Coordinates (Angstroms)
 Number     Number       Type             X           Y           Z
 ---------------------------------------------------------------------
      1         11           0        1.490379    1.331836   -1.202622
      2         11           0       -1.490377    2.370465   -0.713580
      3         11           0       -4.059334   -0.785116    0.983620
      4         11           0       -1.711516   -1.188797   -1.116157
      5         11           0        0.041816    0.126528    1.825709
      6         11           0        3.658910    0.101246    1.430861
      7         11           0        2.070122   -1.956161   -1.207830
 ---------------------------------------------------------------------

 SCF Done:  E(UB3LYP) =  -1136.12273401     A.U. after   24 cycles

 The electronic state is 2-A.
 Alpha  occ. eigenvalues --  -38.45406 -38.44625 -38.44302 -38.44096 -38.44023
 Alpha  occ. eigenvalues --  -38.43005 -38.42549  -2.21221  -2.20430  -2.20135
 Alpha  occ. eigenvalues --   -2.19888  -2.19883  -2.18920  -2.18402  -1.14920
 Alpha  occ. eigenvalues --   -1.14866  -1.14830  -1.14099  -1.14086  -1.14051
 Alpha  occ. eigenvalues --   -1.13813  -1.13791  -1.13737  -1.13622  -1.13582
 Alpha  occ. eigenvalues --   -1.13545  -1.13538  -1.13519  -1.13458  -1.12609
 Alpha  occ. eigenvalues --   -1.12596  -1.12547  -1.12073  -1.12057  -1.12040
 Alpha  occ. eigenvalues --   -0.18143  -0.13801  -0.11673  -0.10882
 Alpha virt. eigenvalues --   -0.06782  -0.05228  -0.04788  -0.03300  -0.02654
 Alpha virt. eigenvalues --   -0.02462  -0.02383  -0.01473  -0.00872  -0.00134
 Alpha virt. eigenvalues --    0.00076   0.00092   0.00320   0.00545   0.00614

  Beta  occ. eigenvalues --  -38.45355 -38.44593 -38.44237 -38.44102 -38.43997
  Beta  occ. eigenvalues --  -38.42989 -38.42549  -2.21128  -2.20371  -2.20017
  Beta  occ. eigenvalues --   -2.19894  -2.19840  -2.18893  -2.18403  -1.14853
  Beta  occ. eigenvalues --   -1.14802  -1.14754  -1.14058  -1.14031  -1.14018
  Beta  occ. eigenvalues --   -1.13726  -1.13710  -1.13649  -1.13611  -1.13558
  Beta  occ. eigenvalues --   -1.13548  -1.13533  -1.13494  -1.13427  -1.12592
  Beta  occ. eigenvalues --   -1.12546  -1.12538  -1.12067  -1.12058  -1.12039
  Beta  occ. eigenvalues --   -0.17396  -0.13686  -0.10757
  Beta virt. eigenvalues --   -0.07698  -0.06509  -0.04760  -0.04560  -0.02893
  Beta virt. eigenvalues --   -0.02441  -0.01930  -0.01845  -0.01093  -0.00725
  Beta virt. eigenvalues --   -0.00067   0.00107   0.00250   0.00414   0.00624

 Mulliken charges and spin densities:
               1          2
     1  Na  -0.029190   0.361291
     2  Na   0.066835  -0.115554
     3  Na   0.477527  -0.024545
     4  Na  -0.380609   0.120519
     5  Na  -0.591601   0.469618
     6  Na   0.472442   0.035824
     7  Na  -0.015405   0.152848
 Sum of Mulliken charges =  -0.00000   1.00000

 Dipole moment (field-independent basis, Debye):
    X=              0.4719    Y=              0.1247    Z=              0.6150  Tot=              0.7851
 Quadrupole moment (field-independent basis, Debye-Ang):
   XX=            -53.4262   YY=            -75.8288   ZZ=            -67.9687
   XY=             -2.3224   XZ=             -0.8234   YZ=              3.6074

 Normal termination of Gaussian 16 at Thu Dec  7 17:41:17 2023.
