 Gaussian 16, Revision B.01,
 Gaussian 16:  ES64L-G16RevB.01 20-Dec-2017

 -------------------------
 #P B3LYP/6-311+g(d) force
 -------------------------

 -----
 DPGEN
 -----
 Symbolic Z-matrix:
 Charge =  0 Multiplicity = 2

                         Standard orientation:
 ---------------------------------------------------------------------
 Center     Atomic      Atomic             Coordinates (Angstroms)
 Number     Number       Type             X           Y           Z
 ---------------------------------------------------------------------
      1         11           0       -2.182514   -2.571424   -0.092067
      2         11           0        3.721770   -1.581329    0.347707
      3         11           0       -1.841261    1.191859   -0.725275
      4         11           0        0.398832    3.627665   -0.710716
      5         11           0        3.097496    2.091930    0.698806
      6         11           0        0.966772   -3.303147   -0.528053
      7         11           0       -4.161095    0.544445    1.009598
 ---------------------------------------------------------------------

 SCF Done:  E(UB3LYP) =  -1136.11538154     A.U. after   21 cycles

 The electronic state is 2-A.
 Alpha  occ. eigenvalues --  -38.45106 -38.44844 -38.44645 -38.44314 -38.43988
 Alpha  occ. eigenvalues --  -38.43678 -38.43539  -2.20857  -2.20655  -2.20503
 Alpha  occ. eigenvalues --   -2.20169  -2.19780  -2.19491  -2.19367  -1.14548
 Alpha  occ. eigenvalues --   -1.14527  -1.14491  -1.14338  -1.14331  -1.14266
 Alpha  occ. eigenvalues --   -1.14258  -1.14165  -1.14144  -1.13815  -1.13796
 Alpha  occ. eigenvalues --   -1.13761  -1.13444  -1.13438  -1.13413  -1.13163
 Alpha  occ. eigenvalues --   -1.13158  -1.13134  -1.13032  -1.13013  -1.12997
 Alpha  occ. eigenvalues --   -0.16326  -0.13825  -0.13462  -0.10664
 Alpha virt. eigenvalues --   -0.07127  -0.05310  -0.04014  -0.03654  -0.03235
 Alpha virt. eigenvalues --   -0.02351  -0.01900  -0.01620  -0.01417  -0.00865
 Alpha virt. eigenvalues --   -0.00283  -0.00046   0.00202   0.00564   0.00705

  Beta  occ. eigenvalues --  -38.45104 -38.44802 -38.44633 -38.44248 -38.43946
  Beta  occ. eigenvalues --  -38.43664 -38.43499  -2.20857  -2.20582  -2.20487
  Beta  occ. eigenvalues --   -2.20047  -2.19701  -2.19471  -2.19291  -1.14551
  Beta  occ. eigenvalues --   -1.14530  -1.14464  -1.14288  -1.14285  -1.14218
  Beta  occ. eigenvalues --   -1.14186  -1.14158  -1.14125  -1.13734  -1.13713
  Beta  occ. eigenvalues --   -1.13685  -1.13392  -1.13389  -1.13356  -1.13150
  Beta  occ. eigenvalues --   -1.13145  -1.13096  -1.12976  -1.12961  -1.12953
  Beta  occ. eigenvalues --   -0.15820  -0.13229  -0.12856
  Beta virt. eigenvalues --   -0.07377  -0.07113  -0.04883  -0.03777  -0.03252
  Beta virt. eigenvalues --   -0.02849  -0.02055  -0.01640  -0.01515  -0.01225
  Beta virt. eigenvalues --   -0.00547  -0.00072   0.00209   0.00376   0.00592

 Mulliken charges and spin densities:
               1          2
     1  Na   0.326275   0.222944
     2  Na  -0.184711   0.241452
     3  Na  -1.291125   0.069895
     4  Na   0.098393   0.105661
     5  Na   0.083463   0.045582
     6  Na  -0.082414  -0.013088
     7  Na   1.050119   0.327553
 Sum of Mulliken charges =  -0.00000   1.00000

 Dipole moment (field-independent basis, Debye):
    X=             -0.9212    Y=              0.2775    Z=              0.4414  Tot=              1.0585
 Quadrupole moment (field-independent basis, Debye-Ang):
   XX=            -62.1887   YY=            -66.4741   ZZ=            -70.4566
   XY=              2.9758   XZ=             -1.1318   YZ=              0.7304

 Normal termination of Gaussian 16 at Sun Dec  3 17:28:13 2023.
