 Gaussian 16, Revision B.01,
 Gaussian 16:  ES64L-G16RevB.01 20-Dec-2017

 -------------------------
 #P B3LYP/6-311+g(d) force
 -------------------------

 -----
 DPGEN
 -----
 Symbolic Z-matrix:
 Charge =  0 Multiplicity = 2

                         Standard orientation:
 ---------------------------------------------------------------------
 Center     Atomic      Atomic             Coordinates (Angstroms)
 Number     Number       Type             X           Y           Z
 ---------------------------------------------------------------------
      1         11           0        1.789584   -1.818827   -1.217489
      2         11           0       -2.615018   -0.505557    2.131935
      3         11           0       -2.502306   -0.737238   -2.129307
      4         11           0       -0.591974   -0.031954    0.063196
      5         11           0        1.984771   -0.966301    1.781957
      6         11           0        2.198648    1.241774   -0.503546
      7         11           0       -0.263705    2.818102   -0.126744
 ---------------------------------------------------------------------

 SCF Done:  E(UB3LYP) =  -1136.10642461     A.U. after   21 cycles

 The electronic state is 2-A.
 Alpha  occ. eigenvalues --  -38.44968 -38.44896 -38.44496 -38.43924 -38.43029
 Alpha  occ. eigenvalues --  -38.42446 -38.42270  -2.20779  -2.20714  -2.20407
 Alpha  occ. eigenvalues --   -2.19839  -2.19055  -2.18521  -2.18368  -1.14482
 Alpha  occ. eigenvalues --   -1.14433  -1.14400  -1.14383  -1.14334  -1.14313
 Alpha  occ. eigenvalues --   -1.14104  -1.14051  -1.14032  -1.13540  -1.13490
 Alpha  occ. eigenvalues --   -1.13444  -1.12795  -1.12722  -1.12684  -1.12315
 Alpha  occ. eigenvalues --   -1.12261  -1.12170  -1.11992  -1.11975  -1.11936
 Alpha  occ. eigenvalues --   -0.18884  -0.13347  -0.11779  -0.11430
 Alpha virt. eigenvalues --   -0.05815  -0.05158  -0.04089  -0.03443  -0.02703
 Alpha virt. eigenvalues --   -0.02530  -0.01439  -0.01063  -0.00483   0.00222
 Alpha virt. eigenvalues --    0.00301   0.00421   0.00610   0.00641   0.00819

  Beta  occ. eigenvalues --  -38.44909 -38.44840 -38.44467 -38.43903 -38.43025
  Beta  occ. eigenvalues --  -38.42446 -38.42241  -2.20669  -2.20612  -2.20353
  Beta  occ. eigenvalues --   -2.19801  -2.19049  -2.18481  -2.18368  -1.14406
  Beta  occ. eigenvalues --   -1.14361  -1.14325  -1.14305  -1.14264  -1.14239
  Beta  occ. eigenvalues --   -1.14070  -1.14015  -1.13985  -1.13512  -1.13466
  Beta  occ. eigenvalues --   -1.13407  -1.12792  -1.12701  -1.12685  -1.12305
  Beta  occ. eigenvalues --   -1.12162  -1.12127  -1.11993  -1.11964  -1.11931
  Beta  occ. eigenvalues --   -0.18180  -0.13054  -0.11268
  Beta virt. eigenvalues --   -0.07945  -0.05015  -0.04926  -0.04045  -0.03103
  Beta virt. eigenvalues --   -0.02147  -0.02036  -0.01343  -0.00501  -0.00435
  Beta virt. eigenvalues --    0.00352   0.00470   0.00541   0.00639   0.00785

 Mulliken charges and spin densities:
               1          2
     1  Na  -0.005971   0.196290
     2  Na   0.149373   0.392247
     3  Na   0.393407   0.130749
     4  Na  -0.936818   0.537934
     5  Na  -0.157813  -0.077004
     6  Na   0.778911  -0.217578
     7  Na  -0.221089   0.037362
 Sum of Mulliken charges =  -0.00000   1.00000

 Dipole moment (field-independent basis, Debye):
    X=             -0.2989    Y=             -0.7428    Z=              0.1622  Tot=              0.8169
 Quadrupole moment (field-independent basis, Debye-Ang):
   XX=            -58.1946   YY=            -74.6058   ZZ=            -59.0649
   XY=             -1.5604   XZ=              0.6325   YZ=              1.6044

 Normal termination of Gaussian 16 at Thu Dec  7 15:36:59 2023.
