 Gaussian 16, Revision B.01,
 Gaussian 16:  ES64L-G16RevB.01 20-Dec-2017

 -------------------------
 #P B3LYP/6-311+g(d) force
 -------------------------

 -----
 DPGEN
 -----
 Symbolic Z-matrix:
 Charge =  0 Multiplicity = 2

                         Standard orientation:
 ---------------------------------------------------------------------
 Center     Atomic      Atomic             Coordinates (Angstroms)
 Number     Number       Type             X           Y           Z
 ---------------------------------------------------------------------
      1         11           0        1.184648    3.411338   -0.209602
      2         11           0        3.645899   -2.165841    0.206046
      3         11           0        0.363629   -2.808826    1.104807
      4         11           0       -2.071511   -2.242684   -1.139592
      5         11           0       -4.693421   -0.284265   -0.293589
      6         11           0       -2.558408    2.690480    0.899260
      7         11           0        4.129164    1.399798   -0.567330
 ---------------------------------------------------------------------

 SCF Done:  E(UB3LYP) =  -1136.10443936     A.U. after   26 cycles

 The electronic state is 2-A.
 Alpha  occ. eigenvalues --  -38.45481 -38.45298 -38.45013 -38.44814 -38.44376
 Alpha  occ. eigenvalues --  -38.43834 -38.43819  -2.21227  -2.21083  -2.20758
 Alpha  occ. eigenvalues --   -2.20539  -2.20168  -2.19627  -2.19619  -1.14914
 Alpha  occ. eigenvalues --   -1.14895  -1.14866  -1.14763  -1.14753  -1.14717
 Alpha  occ. eigenvalues --   -1.14432  -1.14412  -1.14373  -1.14235  -1.14224
 Alpha  occ. eigenvalues --   -1.14166  -1.13828  -1.13816  -1.13803  -1.13288
 Alpha  occ. eigenvalues --   -1.13283  -1.13277  -1.13267  -1.13260  -1.13246
 Alpha  occ. eigenvalues --   -0.15554  -0.13807  -0.13018  -0.10548
 Alpha virt. eigenvalues --   -0.07931  -0.04955  -0.04859  -0.03477  -0.03389
 Alpha virt. eigenvalues --   -0.02409  -0.02266  -0.01746  -0.01184  -0.00894
 Alpha virt. eigenvalues --   -0.00770  -0.00357   0.00013   0.00321   0.00544

  Beta  occ. eigenvalues --  -38.45480 -38.45279 -38.44960 -38.44823 -38.44332
  Beta  occ. eigenvalues --  -38.43783 -38.43776  -2.21231  -2.21053  -2.20661
  Beta  occ. eigenvalues --   -2.20559  -2.20087  -2.19548  -2.19523  -1.14921
  Beta  occ. eigenvalues --   -1.14901  -1.14838  -1.14745  -1.14735  -1.14665
  Beta  occ. eigenvalues --   -1.14367  -1.14348  -1.14297  -1.14252  -1.14241
  Beta  occ. eigenvalues --   -1.14156  -1.13773  -1.13757  -1.13745  -1.13234
  Beta  occ. eigenvalues --   -1.13223  -1.13217  -1.13207  -1.13205  -1.13185
  Beta  occ. eigenvalues --   -0.15035  -0.13177  -0.12405
  Beta virt. eigenvalues --   -0.08100  -0.07404  -0.04510  -0.04287  -0.03245
  Beta virt. eigenvalues --   -0.03101  -0.02219  -0.02119  -0.01499  -0.00978
  Beta virt. eigenvalues --   -0.00681  -0.00512  -0.00178   0.00199   0.00347

 Mulliken charges and spin densities:
               1          2
     1  Na   0.022696  -0.067359
     2  Na   0.164099   0.031150
     3  Na  -0.278973   0.172089
     4  Na  -0.038463   0.158268
     5  Na   0.209463   0.158209
     6  Na  -0.072819   0.267600
     7  Na  -0.006002   0.280042
 Sum of Mulliken charges =  -0.00000   1.00000

 Dipole moment (field-independent basis, Debye):
    X=             -0.3828    Y=             -0.6203    Z=             -0.0660  Tot=              0.7319
 Quadrupole moment (field-independent basis, Debye-Ang):
   XX=            -60.2746   YY=            -70.0924   ZZ=            -70.6214
   XY=             -5.0121   XZ=             -1.8740   YZ=              1.1139

 Normal termination of Gaussian 16 at Sun Dec  3 17:58:48 2023.
