 Gaussian 16, Revision B.01,
 Gaussian 16:  ES64L-G16RevB.01 20-Dec-2017

 -------------------------
 #P B3LYP/6-311+g(d) force
 -------------------------

 -----
 DPGEN
 -----
 Symbolic Z-matrix:
 Charge =  0 Multiplicity = 2

                         Standard orientation:
 ---------------------------------------------------------------------
 Center     Atomic      Atomic             Coordinates (Angstroms)
 Number     Number       Type             X           Y           Z
 ---------------------------------------------------------------------
      1         11           0       -2.611678   -1.388673    0.057158
      2         11           0       -2.307497    1.992392   -0.096172
      3         11           0        0.196290   -2.739734    0.072158
      4         11           0        0.262402   -0.403709   -1.793369
      5         11           0       -0.106025    0.572236    1.823304
      6         11           0        1.376934    2.537952   -0.429371
      7         11           0        3.189573   -0.570463    0.366292
 ---------------------------------------------------------------------

 SCF Done:  E(UB3LYP) =  -1136.13703753     A.U. after   19 cycles

 The electronic state is 2-A.
 Alpha  occ. eigenvalues --  -38.44141 -38.43674 -38.43672 -38.43589 -38.43334
 Alpha  occ. eigenvalues --  -38.43290 -38.43282  -2.19944  -2.19524  -2.19520
 Alpha  occ. eigenvalues --   -2.19476  -2.19269  -2.19257  -2.19198  -1.13615
 Alpha  occ. eigenvalues --   -1.13596  -1.13590  -1.13231  -1.13212  -1.13203
 Alpha  occ. eigenvalues --   -1.13196  -1.13190  -1.13165  -1.13135  -1.13132
 Alpha  occ. eigenvalues --   -1.13101  -1.13058  -1.12943  -1.12906  -1.12898
 Alpha  occ. eigenvalues --   -1.12880  -1.12858  -1.12838  -1.12803  -1.12792
 Alpha  occ. eigenvalues --   -0.18830  -0.12990  -0.12678  -0.10687
 Alpha virt. eigenvalues --   -0.05643  -0.05163  -0.04640  -0.03163  -0.03069
 Alpha virt. eigenvalues --   -0.02376  -0.01544  -0.01077  -0.00329  -0.00192
 Alpha virt. eigenvalues --   -0.00001   0.00365   0.00822   0.00872   0.00921

  Beta  occ. eigenvalues --  -38.44133 -38.43671 -38.43660 -38.43585 -38.43275
  Beta  occ. eigenvalues --  -38.43263 -38.43215  -2.19933  -2.19520  -2.19502
  Beta  occ. eigenvalues --   -2.19472  -2.19193  -2.19138  -2.19116  -1.13591
  Beta  occ. eigenvalues --   -1.13587  -1.13586  -1.13224  -1.13203  -1.13193
  Beta  occ. eigenvalues --   -1.13181  -1.13160  -1.13154  -1.13125  -1.13113
  Beta  occ. eigenvalues --   -1.13093  -1.13004  -1.12859  -1.12831  -1.12811
  Beta  occ. eigenvalues --   -1.12807  -1.12794  -1.12784  -1.12753  -1.12727
  Beta  occ. eigenvalues --   -0.18102  -0.12750  -0.12441
  Beta virt. eigenvalues --   -0.06806  -0.05597  -0.05146  -0.04577  -0.02398
  Beta virt. eigenvalues --   -0.02296  -0.01448  -0.01357  -0.00999  -0.00368
  Beta virt. eigenvalues --   -0.00233   0.00132   0.00387   0.00871   0.00872

 Mulliken charges and spin densities:
               1          2
     1  Na   0.086800  -0.067670
     2  Na   0.218572  -0.055160
     3  Na   0.288577   0.005827
     4  Na  -0.288604   0.562362
     5  Na  -0.429160   0.660665
     6  Na   0.087414  -0.073953
     7  Na   0.036402  -0.032070
 Sum of Mulliken charges =  -0.00000   1.00000

 Dipole moment (field-independent basis, Debye):
    X=              0.2314    Y=              0.2083    Z=              0.0563  Tot=              0.3164
 Quadrupole moment (field-independent basis, Debye-Ang):
   XX=            -56.2835   YY=            -63.0642   ZZ=            -74.1545
   XY=             -0.4020   XZ=              1.0404   YZ=             -2.1197

 Normal termination of Gaussian 16 at Thu Dec  7 07:03:23 2023.
