 Gaussian 16, Revision B.01,
 Gaussian 16:  ES64L-G16RevB.01 20-Dec-2017

 -------------------------
 #P B3LYP/6-311+g(d) force
 -------------------------

 -----
 DPGEN
 -----
 Symbolic Z-matrix:
 Charge =  0 Multiplicity = 2

                         Standard orientation:
 ---------------------------------------------------------------------
 Center     Atomic      Atomic             Coordinates (Angstroms)
 Number     Number       Type             X           Y           Z
 ---------------------------------------------------------------------
      1         11           0        3.905161    1.417099   -0.974035
      2         11           0       -3.132239    0.480640   -0.572470
      3         11           0       -1.523499    2.951311    1.227094
      4         11           0        0.487638    0.835754   -0.782096
      5         11           0        2.484046   -1.761378    1.224975
      6         11           0       -0.845365   -1.813855    1.977373
      7         11           0       -1.375742   -2.109572   -2.100840
 ---------------------------------------------------------------------

 SCF Done:  E(UB3LYP) =  -1136.12275272     A.U. after   21 cycles

 The electronic state is 2-A.
 Alpha  occ. eigenvalues --  -38.44443 -38.44295 -38.44256 -38.44231 -38.44084
 Alpha  occ. eigenvalues --  -38.43577 -38.43514  -2.20218  -2.20092  -2.20081
 Alpha  occ. eigenvalues --   -2.20040  -2.19853  -2.19378  -2.19368  -1.13908
 Alpha  occ. eigenvalues --   -1.13888  -1.13837  -1.13777  -1.13758  -1.13754
 Alpha  occ. eigenvalues --   -1.13727  -1.13718  -1.13713  -1.13703  -1.13666
 Alpha  occ. eigenvalues --   -1.13648  -1.13518  -1.13509  -1.13476  -1.13093
 Alpha  occ. eigenvalues --   -1.13048  -1.13035  -1.13025  -1.13012  -1.12972
 Alpha  occ. eigenvalues --   -0.17169  -0.13032  -0.11881  -0.11355
 Alpha virt. eigenvalues --   -0.05948  -0.05434  -0.04755  -0.03358  -0.03151
 Alpha virt. eigenvalues --   -0.02322  -0.01967  -0.01184  -0.00989  -0.00456
 Alpha virt. eigenvalues --   -0.00282   0.00104   0.00319   0.00576   0.00749

  Beta  occ. eigenvalues --  -38.44423 -38.44251 -38.44244 -38.44164 -38.44057
  Beta  occ. eigenvalues --  -38.43552 -38.43504  -2.20183  -2.20075  -2.19999
  Beta  occ. eigenvalues --   -2.19917  -2.19802  -2.19351  -2.19331  -1.13877
  Beta  occ. eigenvalues --   -1.13868  -1.13799  -1.13764  -1.13755  -1.13693
  Beta  occ. eigenvalues --   -1.13686  -1.13666  -1.13644  -1.13617  -1.13585
  Beta  occ. eigenvalues --   -1.13572  -1.13481  -1.13476  -1.13445  -1.13058
  Beta  occ. eigenvalues --   -1.13040  -1.13004  -1.12997  -1.12984  -1.12957
  Beta  occ. eigenvalues --   -0.16593  -0.12610  -0.11367
  Beta virt. eigenvalues --   -0.07929  -0.05718  -0.05195  -0.04407  -0.02890
  Beta virt. eigenvalues --   -0.02789  -0.01884  -0.01727  -0.01040  -0.00672
  Beta virt. eigenvalues --   -0.00306  -0.00092   0.00206   0.00386   0.00631

 Mulliken charges and spin densities:
               1          2
     1  Na   0.244474   0.017311
     2  Na   1.417524   0.117028
     3  Na  -0.075338   0.031099
     4  Na  -1.668647   0.323904
     5  Na  -0.137337  -0.036606
     6  Na   0.150473   0.349156
     7  Na   0.068849   0.198108
 Sum of Mulliken charges =  -0.00000   1.00000

 Dipole moment (field-independent basis, Debye):
    X=             -0.0824    Y=             -0.4611    Z=              0.2186  Tot=              0.5169
 Quadrupole moment (field-independent basis, Debye-Ang):
   XX=            -57.1222   YY=            -69.5287   ZZ=            -67.7594
   XY=              0.4853   XZ=             -0.9156   YZ=              2.4290

 Normal termination of Gaussian 16 at Tue Dec  5 10:08:25 2023.
