 Gaussian 16, Revision B.01,
 Gaussian 16:  ES64L-G16RevB.01 20-Dec-2017

 -------------------------
 #P B3LYP/6-311+g(d) force
 -------------------------

 -----
 DPGEN
 -----
 Symbolic Z-matrix:
 Charge =  0 Multiplicity = 2

                         Standard orientation:
 ---------------------------------------------------------------------
 Center     Atomic      Atomic             Coordinates (Angstroms)
 Number     Number       Type             X           Y           Z
 ---------------------------------------------------------------------
      1         11           0        0.288530   -0.567492    2.617047
      2         11           0       -2.558033    0.774204   -1.762006
      3         11           0        2.383163    2.037002   -0.978427
      4         11           0       -0.469766    2.898135    0.666242
      5         11           0       -2.309014   -1.057322    1.178089
      6         11           0       -0.422792   -2.513003   -1.542913
      7         11           0        3.087913   -1.571525   -0.178031
 ---------------------------------------------------------------------

 SCF Done:  E(UB3LYP) =  -1136.11874506     A.U. after   20 cycles

 The electronic state is 2-A.
 Alpha  occ. eigenvalues --  -38.45380 -38.44686 -38.44626 -38.44097 -38.44089
 Alpha  occ. eigenvalues --  -38.43690 -38.43460  -2.21221  -2.20471  -2.20394
 Alpha  occ. eigenvalues --   -2.19965  -2.19850  -2.19443  -2.19241  -1.14931
 Alpha  occ. eigenvalues --   -1.14834  -1.14811  -1.14143  -1.14121  -1.14092
 Alpha  occ. eigenvalues --   -1.14074  -1.14048  -1.14010  -1.13681  -1.13595
 Alpha  occ. eigenvalues --   -1.13592  -1.13530  -1.13515  -1.13482  -1.13122
 Alpha  occ. eigenvalues --   -1.13100  -1.13089  -1.12917  -1.12910  -1.12880
 Alpha  occ. eigenvalues --   -0.17233  -0.12513  -0.12211  -0.11900
 Alpha virt. eigenvalues --   -0.05840  -0.05485  -0.04636  -0.03681  -0.03525
 Alpha virt. eigenvalues --   -0.03391  -0.01090  -0.00741  -0.00694  -0.00540
 Alpha virt. eigenvalues --   -0.00265   0.00195   0.00396   0.00425   0.00709

  Beta  occ. eigenvalues --  -38.45272 -38.44644 -38.44589 -38.44084 -38.44072
  Beta  occ. eigenvalues --  -38.43691 -38.43462  -2.21025  -2.20392  -2.20324
  Beta  occ. eigenvalues --   -2.19927  -2.19841  -2.19445  -2.19245  -1.14791
  Beta  occ. eigenvalues --   -1.14700  -1.14672  -1.14089  -1.14071  -1.14033
  Beta  occ. eigenvalues --   -1.14022  -1.14006  -1.13957  -1.13634  -1.13574
  Beta  occ. eigenvalues --   -1.13540  -1.13522  -1.13510  -1.13478  -1.13118
  Beta  occ. eigenvalues --   -1.13102  -1.13091  -1.12917  -1.12904  -1.12886
  Beta  occ. eigenvalues --   -0.16413  -0.12323  -0.11760
  Beta virt. eigenvalues --   -0.08257  -0.05675  -0.05293  -0.04030  -0.03415
  Beta virt. eigenvalues --   -0.03005  -0.02667  -0.00980  -0.00712  -0.00508
  Beta virt. eigenvalues --   -0.00245  -0.00198   0.00301   0.00511   0.00566

 Mulliken charges and spin densities:
               1          2
     1  Na   0.161544   0.370711
     2  Na   0.114155   0.264267
     3  Na   0.211210  -0.033612
     4  Na  -0.523496   0.072763
     5  Na   0.437848   0.014179
     6  Na  -0.191651   0.238075
     7  Na  -0.209610   0.073616
 Sum of Mulliken charges =  -0.00000   1.00000

 Dipole moment (field-independent basis, Debye):
    X=             -0.4051    Y=             -0.2649    Z=             -0.2226  Tot=              0.5327
 Quadrupole moment (field-independent basis, Debye-Ang):
   XX=            -65.8088   YY=            -71.3872   ZZ=            -62.9648
   XY=             -0.5458   XZ=              1.4053   YZ=              0.2145

 Normal termination of Gaussian 16 at Mon Dec  4 02:33:08 2023.
