 Gaussian 16, Revision B.01,
 Gaussian 16:  ES64L-G16RevB.01 20-Dec-2017

 -------------------------
 #P B3LYP/6-311+g(d) force
 -------------------------

 -----
 DPGEN
 -----
 Symbolic Z-matrix:
 Charge =  0 Multiplicity = 2

                         Standard orientation:
 ---------------------------------------------------------------------
 Center     Atomic      Atomic             Coordinates (Angstroms)
 Number     Number       Type             X           Y           Z
 ---------------------------------------------------------------------
      1         11           0        2.969485   -0.033274   -0.341385
      2         11           0        1.026292   -2.860407    0.374638
      3         11           0       -2.702954   -1.677301   -0.242497
      4         11           0       -0.165019   -0.397429   -1.362985
      5         11           0       -2.298229    1.994973    0.110851
      6         11           0        0.096509    0.177151    1.601960
      7         11           0        1.073916    2.796287   -0.140582
 ---------------------------------------------------------------------

 SCF Done:  E(UB3LYP) =  -1136.13513389     A.U. after   21 cycles

 The electronic state is 2-A.
 Alpha  occ. eigenvalues --  -38.43929 -38.43817 -38.43754 -38.43566 -38.43520
 Alpha  occ. eigenvalues --  -38.42796 -38.42728  -2.19772  -2.19668  -2.19619
 Alpha  occ. eigenvalues --   -2.19449  -2.19394  -2.18830  -2.18805  -1.13492
 Alpha  occ. eigenvalues --   -1.13418  -1.13395  -1.13350  -1.13340  -1.13307
 Alpha  occ. eigenvalues --   -1.13294  -1.13285  -1.13246  -1.13144  -1.13116
 Alpha  occ. eigenvalues --   -1.13088  -1.13069  -1.13053  -1.13014  -1.12661
 Alpha  occ. eigenvalues --   -1.12448  -1.12435  -1.12422  -1.12419  -1.12407
 Alpha  occ. eigenvalues --   -0.19064  -0.13048  -0.12927  -0.10061
 Alpha virt. eigenvalues --   -0.05523  -0.05210  -0.05088  -0.02808  -0.02736
 Alpha virt. eigenvalues --   -0.01699  -0.01504  -0.01460  -0.00491  -0.00388
 Alpha virt. eigenvalues --    0.00069   0.00343   0.00825   0.00851   0.00864

  Beta  occ. eigenvalues --  -38.43919 -38.43811 -38.43741 -38.43553 -38.43514
  Beta  occ. eigenvalues --  -38.42720 -38.42674  -2.19757  -2.19661  -2.19597
  Beta  occ. eigenvalues --   -2.19429  -2.19386  -2.18716  -2.18685  -1.13475
  Beta  occ. eigenvalues --   -1.13396  -1.13386  -1.13344  -1.13320  -1.13296
  Beta  occ. eigenvalues --   -1.13285  -1.13243  -1.13235  -1.13133  -1.13096
  Beta  occ. eigenvalues --   -1.13063  -1.13053  -1.13039  -1.12998  -1.12575
  Beta  occ. eigenvalues --   -1.12364  -1.12356  -1.12340  -1.12332  -1.12312
  Beta  occ. eigenvalues --   -0.18391  -0.12765  -0.12636
  Beta virt. eigenvalues --   -0.06256  -0.05458  -0.05155  -0.05072  -0.02060
  Beta virt. eigenvalues --   -0.02017  -0.01411  -0.01361  -0.00776  -0.00512
  Beta virt. eigenvalues --   -0.00429   0.00200   0.00399   0.00841   0.00876

 Mulliken charges and spin densities:
               1          2
     1  Na   0.257031   0.067778
     2  Na   0.152867   0.029177
     3  Na   0.211038  -0.054641
     4  Na  -0.581677   0.442235
     5  Na   0.117359  -0.059095
     6  Na  -0.217533   0.582802
     7  Na   0.060916  -0.008255
 Sum of Mulliken charges =  -0.00000   1.00000

 Dipole moment (field-independent basis, Debye):
    X=             -0.1771    Y=             -0.0828    Z=              0.1124  Tot=              0.2255
 Quadrupole moment (field-independent basis, Debye-Ang):
   XX=            -56.1460   YY=            -56.5603   ZZ=            -77.6027
   XY=             -0.4014   XZ=             -0.6682   YZ=             -1.3011

 Normal termination of Gaussian 16 at Tue Nov 28 21:52:42 2023.
