 Gaussian 16, Revision B.01,
 Gaussian 16:  ES64L-G16RevB.01 20-Dec-2017

 -------------------------
 #P B3LYP/6-311+g(d) force
 -------------------------

 -----
 DPGEN
 -----
 Symbolic Z-matrix:
 Charge =  0 Multiplicity = 2

                         Standard orientation:
 ---------------------------------------------------------------------
 Center     Atomic      Atomic             Coordinates (Angstroms)
 Number     Number       Type             X           Y           Z
 ---------------------------------------------------------------------
      1         11           0       -4.386578   -1.150932   -0.495339
      2         11           0        0.131409   -0.901594   -1.687357
      3         11           0       -1.131261    2.465573   -0.487359
      4         11           0        1.247223   -0.946134    1.926613
      5         11           0        3.703778   -1.320250   -0.638117
      6         11           0        2.270031    1.785572   -0.001778
      7         11           0       -1.834602    0.067765    1.383338
 ---------------------------------------------------------------------

 SCF Done:  E(UB3LYP) =  -1136.11718415     A.U. after   30 cycles

 The electronic state is 2-A.
 Alpha  occ. eigenvalues --  -38.45609 -38.44533 -38.44220 -38.44218 -38.44171
 Alpha  occ. eigenvalues --  -38.43646 -38.42971  -2.21403  -2.20270  -2.20106
 Alpha  occ. eigenvalues --   -2.20068  -2.19982  -2.19563  -2.18822  -1.15101
 Alpha  occ. eigenvalues --   -1.15052  -1.15003  -1.13954  -1.13946  -1.13917
 Alpha  occ. eigenvalues --   -1.13788  -1.13778  -1.13744  -1.13725  -1.13705
 Alpha  occ. eigenvalues --   -1.13692  -1.13644  -1.13641  -1.13609  -1.13268
 Alpha  occ. eigenvalues --   -1.13239  -1.13164  -1.12511  -1.12480  -1.12439
 Alpha  occ. eigenvalues --   -0.18276  -0.13665  -0.11413  -0.11015
 Alpha virt. eigenvalues --   -0.07310  -0.05433  -0.04380  -0.03354  -0.02862
 Alpha virt. eigenvalues --   -0.02514  -0.02369  -0.01621  -0.00798  -0.00337
 Alpha virt. eigenvalues --   -0.00021   0.00181   0.00230   0.00475   0.00662

  Beta  occ. eigenvalues --  -38.45552 -38.44565 -38.44195 -38.44172 -38.44121
  Beta  occ. eigenvalues --  -38.43610 -38.42966  -2.21298  -2.20330  -2.20023
  Beta  occ. eigenvalues --   -2.19985  -2.19929  -2.19500  -2.18813  -1.15022
  Beta  occ. eigenvalues --   -1.14977  -1.14925  -1.13996  -1.13986  -1.13955
  Beta  occ. eigenvalues --   -1.13722  -1.13700  -1.13681  -1.13665  -1.13643
  Beta  occ. eigenvalues --   -1.13634  -1.13616  -1.13613  -1.13561  -1.13209
  Beta  occ. eigenvalues --   -1.13203  -1.13107  -1.12502  -1.12469  -1.12430
  Beta  occ. eigenvalues --   -0.17434  -0.13729  -0.10876
  Beta virt. eigenvalues --   -0.07351  -0.07007  -0.05369  -0.03901  -0.02920
  Beta virt. eigenvalues --   -0.02644  -0.01854  -0.01763  -0.01370  -0.00530
  Beta virt. eigenvalues --   -0.00379   0.00003   0.00260   0.00377   0.00570

 Mulliken charges and spin densities:
               1          2
     1  Na   0.144552  -0.196317
     2  Na  -0.532616   0.482782
     3  Na  -0.017655  -0.055294
     4  Na   0.013536   0.208209
     5  Na   0.576570   0.072530
     6  Na  -0.099521   0.254852
     7  Na  -0.084866   0.233239
 Sum of Mulliken charges =  -0.00000   1.00000

 Dipole moment (field-independent basis, Debye):
    X=              0.7228    Y=             -0.0215    Z=             -0.6211  Tot=              0.9532
 Quadrupole moment (field-independent basis, Debye-Ang):
   XX=            -52.9118   YY=            -74.0054   ZZ=            -70.2540
   XY=             -0.8147   XZ=              1.5484   YZ=              1.3468

 Normal termination of Gaussian 16 at Thu Dec  7 14:55:57 2023.
