 Gaussian 16, Revision B.01,
 Gaussian 16:  ES64L-G16RevB.01 20-Dec-2017

 -------------------------
 #P B3LYP/6-311+g(d) force
 -------------------------

 -----
 DPGEN
 -----
 Symbolic Z-matrix:
 Charge =  0 Multiplicity = 2

                         Standard orientation:
 ---------------------------------------------------------------------
 Center     Atomic      Atomic             Coordinates (Angstroms)
 Number     Number       Type             X           Y           Z
 ---------------------------------------------------------------------
      1         11           0       -0.150807    1.959299    0.214000
      2         11           0        1.451621   -1.921390   -0.186500
      3         11           0       -3.898742   -0.113028   -0.084400
      4         11           0       -1.117888   -0.726308    0.164000
      5         11           0        2.414802    0.763317   -0.136700
      6         11           0        0.772808   -0.128294    1.928900
      7         11           0        0.528206    0.166404   -1.899300
 ---------------------------------------------------------------------

 SCF Done:  E(UB3LYP) =  -1136.05170635     A.U. after   26 cycles

 The electronic state is 2-A.
 Alpha  occ. eigenvalues --  -38.45640 -38.45214 -38.45180 -38.44696 -38.43609
 Alpha  occ. eigenvalues --  -38.42866 -38.42811  -2.21467  -2.21438  -2.21434
 Alpha  occ. eigenvalues --   -2.20936  -2.19938  -2.19044  -2.18984  -1.15416
 Alpha  occ. eigenvalues --   -1.15290  -1.15225  -1.15181  -1.15157  -1.15078
 Alpha  occ. eigenvalues --   -1.15059  -1.15041  -1.14997  -1.14536  -1.14515
 Alpha  occ. eigenvalues --   -1.14492  -1.13660  -1.13596  -1.13527  -1.12747
 Alpha  occ. eigenvalues --   -1.12722  -1.12670  -1.12637  -1.12634  -1.12522
 Alpha  occ. eigenvalues --   -0.21694  -0.13785  -0.12721  -0.11913
 Alpha virt. eigenvalues --   -0.06974  -0.03878  -0.03623  -0.03329  -0.02808
 Alpha virt. eigenvalues --   -0.02566  -0.02152  -0.00392  -0.00347   0.00131
 Alpha virt. eigenvalues --    0.00431   0.00453   0.00618   0.00885   0.01147

  Beta  occ. eigenvalues --  -38.45658 -38.45109 -38.45069 -38.44667 -38.43580
  Beta  occ. eigenvalues --  -38.42847 -38.42793  -2.21472  -2.21279  -2.21235
  Beta  occ. eigenvalues --   -2.20891  -2.19895  -2.19018  -2.18959  -1.15317
  Beta  occ. eigenvalues --   -1.15213  -1.15145  -1.15098  -1.15084  -1.15079
  Beta  occ. eigenvalues --   -1.15035  -1.14900  -1.14847  -1.14488  -1.14488
  Beta  occ. eigenvalues --   -1.14388  -1.13649  -1.13511  -1.13477  -1.12741
  Beta  occ. eigenvalues --   -1.12715  -1.12623  -1.12585  -1.12552  -1.12508
  Beta  occ. eigenvalues --   -0.20763  -0.13605  -0.11518
  Beta virt. eigenvalues --   -0.08342  -0.06808  -0.03468  -0.03253  -0.02873
  Beta virt. eigenvalues --   -0.02130  -0.01929  -0.01822  -0.00350  -0.00121
  Beta virt. eigenvalues --    0.00174   0.00450   0.00608   0.00710   0.00928

 Mulliken charges and spin densities:
               1          2
     1  Na  -0.081977  -0.009017
     2  Na  -0.569624  -0.027524
     3  Na   0.614142  -0.137387
     4  Na   0.035762   0.246833
     5  Na   0.355214   0.087599
     6  Na  -0.206446   0.390266
     7  Na  -0.147070   0.449231
 Sum of Mulliken charges =  -0.00000   1.00000

 Dipole moment (field-independent basis, Debye):
    X=             -0.9522    Y=              0.2722    Z=             -0.0808  Tot=              0.9936
 Quadrupole moment (field-independent basis, Debye-Ang):
   XX=            -50.3021   YY=            -77.0401   ZZ=            -65.9887
   XY=             -1.1576   XZ=              0.6659   YZ=              0.9550

 Normal termination of Gaussian 16 at Fri Dec  8 17:59:07 2023.
