 Gaussian 16, Revision B.01,
 Gaussian 16:  ES64L-G16RevB.01 20-Dec-2017

 -------------------------
 #P B3LYP/6-311+g(d) force
 -------------------------

 -----
 DPGEN
 -----
 Symbolic Z-matrix:
 Charge =  0 Multiplicity = 2

                         Standard orientation:
 ---------------------------------------------------------------------
 Center     Atomic      Atomic             Coordinates (Angstroms)
 Number     Number       Type             X           Y           Z
 ---------------------------------------------------------------------
      1         11           0        3.215570   -2.387575   -0.378732
      2         11           0        4.690110    0.116213   -0.529010
      3         11           0        2.008208    1.770529    0.934443
      4         11           0       -0.698638    2.369567   -1.011720
      5         11           0        0.084959   -0.852030    0.755290
      6         11           0       -3.687959   -0.208578    1.216396
      7         11           0       -5.612250   -0.808126   -0.986667
 ---------------------------------------------------------------------

 SCF Done:  E(UB3LYP) =  -1136.11085512     A.U. after   21 cycles

 The electronic state is 2-A.
 Alpha  occ. eigenvalues --  -38.45046 -38.44382 -38.44126 -38.44093 -38.43900
 Alpha  occ. eigenvalues --  -38.43893 -38.43848  -2.20818  -2.20241  -2.19988
 Alpha  occ. eigenvalues --   -2.19938  -2.19759  -2.19719  -2.19662  -1.14497
 Alpha  occ. eigenvalues --   -1.14470  -1.14446  -1.13949  -1.13910  -1.13848
 Alpha  occ. eigenvalues --   -1.13735  -1.13671  -1.13639  -1.13592  -1.13586
 Alpha  occ. eigenvalues --   -1.13557  -1.13509  -1.13397  -1.13389  -1.13384
 Alpha  occ. eigenvalues --   -1.13364  -1.13347  -1.13299  -1.13297  -1.13230
 Alpha  occ. eigenvalues --   -0.17030  -0.13963  -0.11989  -0.10801
 Alpha virt. eigenvalues --   -0.06752  -0.05849  -0.04251  -0.03391  -0.03013
 Alpha virt. eigenvalues --   -0.02681  -0.02045  -0.01724  -0.00829  -0.00482
 Alpha virt. eigenvalues --   -0.00329  -0.00211   0.00253   0.00439   0.00532

  Beta  occ. eigenvalues --  -38.45039 -38.44353 -38.44080 -38.44046 -38.43905
  Beta  occ. eigenvalues --  -38.43859 -38.43822  -2.20805  -2.20190  -2.19917
  Beta  occ. eigenvalues --   -2.19840  -2.19729  -2.19696  -2.19614  -1.14488
  Beta  occ. eigenvalues --   -1.14455  -1.14438  -1.13895  -1.13875  -1.13806
  Beta  occ. eigenvalues --   -1.13711  -1.13580  -1.13573  -1.13555  -1.13531
  Beta  occ. eigenvalues --   -1.13496  -1.13459  -1.13390  -1.13367  -1.13353
  Beta  occ. eigenvalues --   -1.13341  -1.13309  -1.13267  -1.13264  -1.13208
  Beta  occ. eigenvalues --   -0.16357  -0.13723  -0.11785
  Beta virt. eigenvalues --   -0.07259  -0.06462  -0.05323  -0.03946  -0.03148
  Beta virt. eigenvalues --   -0.02630  -0.02444  -0.01687  -0.01427  -0.00711
  Beta virt. eigenvalues --   -0.00365  -0.00101   0.00043   0.00375   0.00500

 Mulliken charges and spin densities:
               1          2
     1  Na   1.578802  -0.143557
     2  Na  -0.751494   0.075520
     3  Na   0.842040   0.484643
     4  Na   0.254013  -0.040637
     5  Na  -1.679912   0.510677
     6  Na  -0.415992  -0.000545
     7  Na   0.172543   0.113899
 Sum of Mulliken charges =  -0.00000   1.00000

 Dipole moment (field-independent basis, Debye):
    X=              0.1196    Y=              0.7565    Z=             -0.7825  Tot=              1.0949
 Quadrupole moment (field-independent basis, Debye-Ang):
   XX=            -71.8168   YY=            -69.3265   ZZ=            -63.4261
   XY=             -1.5515   XZ=              4.7967   YZ=              0.2732

 Normal termination of Gaussian 16 at Wed Nov 29 01:46:52 2023.
