 Gaussian 16, Revision B.01,
 Gaussian 16:  ES64L-G16RevB.01 20-Dec-2017

 -------------------------
 #P B3LYP/6-311+g(d) force
 -------------------------

 -----
 DPGEN
 -----
 Symbolic Z-matrix:
 Charge =  0 Multiplicity = 2

                         Standard orientation:
 ---------------------------------------------------------------------
 Center     Atomic      Atomic             Coordinates (Angstroms)
 Number     Number       Type             X           Y           Z
 ---------------------------------------------------------------------
      1         11           0        3.253364    1.512588   -0.563021
      2         11           0        0.765026   -2.869624    1.281096
      3         11           0       -4.162070   -0.922925   -1.432309
      4         11           0       -2.678115    2.117908   -0.501986
      5         11           0       -1.770258   -1.128234    1.224505
      6         11           0        0.809868    2.614896    1.431571
      7         11           0        3.782186   -1.324610   -1.439855
 ---------------------------------------------------------------------

 SCF Done:  E(UB3LYP) =  -1136.11095897     A.U. after   21 cycles

 The electronic state is 2-A.
 Alpha  occ. eigenvalues --  -38.45197 -38.45077 -38.44730 -38.44044 -38.43853
 Alpha  occ. eigenvalues --  -38.43841 -38.43491  -2.20994  -2.20835  -2.20546
 Alpha  occ. eigenvalues --   -2.19874  -2.19686  -2.19640  -2.19290  -1.14649
 Alpha  occ. eigenvalues --   -1.14638  -1.14614  -1.14529  -1.14509  -1.14452
 Alpha  occ. eigenvalues --   -1.14253  -1.14185  -1.14151  -1.13550  -1.13533
 Alpha  occ. eigenvalues --   -1.13526  -1.13391  -1.13355  -1.13328  -1.13295
 Alpha  occ. eigenvalues --   -1.13289  -1.13269  -1.12958  -1.12940  -1.12910
 Alpha  occ. eigenvalues --   -0.16224  -0.14205  -0.11996  -0.11446
 Alpha virt. eigenvalues --   -0.06619  -0.05220  -0.04326  -0.03785  -0.03385
 Alpha virt. eigenvalues --   -0.02369  -0.01956  -0.01442  -0.01010  -0.00643
 Alpha virt. eigenvalues --   -0.00329  -0.00164   0.00040   0.00447   0.00630

  Beta  occ. eigenvalues --  -38.45136 -38.45078 -38.44667 -38.44036 -38.43813
  Beta  occ. eigenvalues --  -38.43809 -38.43463  -2.20880  -2.20840  -2.20431
  Beta  occ. eigenvalues --   -2.19865  -2.19639  -2.19557  -2.19243  -1.14571
  Beta  occ. eigenvalues --   -1.14560  -1.14545  -1.14535  -1.14513  -1.14428
  Beta  occ. eigenvalues --   -1.14170  -1.14109  -1.14074  -1.13535  -1.13534
  Beta  occ. eigenvalues --   -1.13496  -1.13354  -1.13316  -1.13283  -1.13240
  Beta  occ. eigenvalues --   -1.13235  -1.13214  -1.12917  -1.12910  -1.12874
  Beta  occ. eigenvalues --   -0.15645  -0.13468  -0.11468
  Beta virt. eigenvalues --   -0.08197  -0.06541  -0.04863  -0.03841  -0.03551
  Beta virt. eigenvalues --   -0.03114  -0.01902  -0.01679  -0.01062  -0.00945
  Beta virt. eigenvalues --   -0.00438  -0.00151  -0.00112   0.00206   0.00592

 Mulliken charges and spin densities:
               1          2
     1  Na  -0.221383   0.067710
     2  Na   0.057513   0.039335
     3  Na   0.470182   0.294121
     4  Na   0.150974   0.070006
     5  Na  -0.605762   0.073971
     6  Na  -0.092845   0.240393
     7  Na   0.241320   0.214465
 Sum of Mulliken charges =  -0.00000   1.00000

 Dipole moment (field-independent basis, Debye):
    X=             -1.1452    Y=             -0.1382    Z=             -1.1397  Tot=              1.6216
 Quadrupole moment (field-independent basis, Debye-Ang):
   XX=            -60.0652   YY=            -69.3098   ZZ=            -67.9179
   XY=             -1.9773   XZ=              2.6432   YZ=              3.8730

 Normal termination of Gaussian 16 at Mon Dec  4 02:06:46 2023.
