 Gaussian 16, Revision B.01,
 Gaussian 16:  ES64L-G16RevB.01 20-Dec-2017

 -------------------------
 #P B3LYP/6-311+g(d) force
 -------------------------

 -----
 DPGEN
 -----
 Symbolic Z-matrix:
 Charge =  0 Multiplicity = 2

                         Standard orientation:
 ---------------------------------------------------------------------
 Center     Atomic      Atomic             Coordinates (Angstroms)
 Number     Number       Type             X           Y           Z
 ---------------------------------------------------------------------
      1         11           0       -1.215559   -0.945336   -1.428092
      2         11           0        2.718998   -1.342133   -1.463042
      3         11           0       -0.298382   -1.179239    1.898821
      4         11           0        4.093109    0.461360    0.539749
      5         11           0        0.692094    1.574746    0.959140
      6         11           0       -1.943711    2.358250   -1.005449
      7         11           0       -4.046549   -0.927648    0.498874
 ---------------------------------------------------------------------

 SCF Done:  E(UB3LYP) =  -1136.10808087     A.U. after   28 cycles

 The electronic state is 2-A.
 Alpha  occ. eigenvalues --  -38.45623 -38.45557 -38.44783 -38.44381 -38.44031
 Alpha  occ. eigenvalues --  -38.43161 -38.42292  -2.21428  -2.21312  -2.20652
 Alpha  occ. eigenvalues --   -2.20232  -2.19852  -2.18997  -2.18185  -1.15124
 Alpha  occ. eigenvalues --   -1.15085  -1.15061  -1.14984  -1.14972  -1.14946
 Alpha  occ. eigenvalues --   -1.14342  -1.14288  -1.14235  -1.13929  -1.13875
 Alpha  occ. eigenvalues --   -1.13872  -1.13522  -1.13503  -1.13490  -1.12671
 Alpha  occ. eigenvalues --   -1.12638  -1.12626  -1.11914  -1.11843  -1.11794
 Alpha  occ. eigenvalues --   -0.17849  -0.14073  -0.11309  -0.10813
 Alpha virt. eigenvalues --   -0.07830  -0.05062  -0.04357  -0.03546  -0.03088
 Alpha virt. eigenvalues --   -0.02589  -0.02271  -0.01258  -0.01083  -0.00358
 Alpha virt. eigenvalues --   -0.00113   0.00041   0.00209   0.00640   0.00744

  Beta  occ. eigenvalues --  -38.45625 -38.45551 -38.44677 -38.44362 -38.44009
  Beta  occ. eigenvalues --  -38.43120 -38.42275  -2.21434  -2.21302  -2.20458
  Beta  occ. eigenvalues --   -2.20199  -2.19810  -2.18921  -2.18159  -1.15122
  Beta  occ. eigenvalues --   -1.15091  -1.15058  -1.14976  -1.14956  -1.14939
  Beta  occ. eigenvalues --   -1.14212  -1.14153  -1.14095  -1.13897  -1.13854
  Beta  occ. eigenvalues --   -1.13834  -1.13495  -1.13473  -1.13461  -1.12613
  Beta  occ. eigenvalues --   -1.12590  -1.12574  -1.11883  -1.11815  -1.11774
  Beta  occ. eigenvalues --   -0.17150  -0.13769  -0.10597
  Beta virt. eigenvalues --   -0.07717  -0.07495  -0.04778  -0.03988  -0.03117
  Beta virt. eigenvalues --   -0.02828  -0.02145  -0.01629  -0.01141  -0.00905
  Beta virt. eigenvalues --   -0.00214  -0.00034   0.00204   0.00247   0.00721

 Mulliken charges and spin densities:
               1          2
     1  Na  -0.129805   0.455685
     2  Na  -0.322399   0.055016
     3  Na   0.137742   0.315161
     4  Na   0.399673   0.018441
     5  Na  -0.601918   0.141021
     6  Na   0.256182   0.021848
     7  Na   0.260526  -0.007170
 Sum of Mulliken charges =  -0.00000   1.00000

 Dipole moment (field-independent basis, Debye):
    X=             -0.1229    Y=             -0.0839    Z=              0.6934  Tot=              0.7092
 Quadrupole moment (field-independent basis, Debye-Ang):
   XX=            -47.2955   YY=            -78.2380   ZZ=            -69.9654
   XY=              1.1524   XZ=              1.8174   YZ=             -1.0384

 Normal termination of Gaussian 16 at Sun Dec  3 17:01:50 2023.
