 Gaussian 16, Revision B.01,
 Gaussian 16:  ES64L-G16RevB.01 20-Dec-2017

 -------------------------
 #P B3LYP/6-311+g(d) force
 -------------------------

 -----
 DPGEN
 -----
 Symbolic Z-matrix:
 Charge =  0 Multiplicity = 2

                         Standard orientation:
 ---------------------------------------------------------------------
 Center     Atomic      Atomic             Coordinates (Angstroms)
 Number     Number       Type             X           Y           Z
 ---------------------------------------------------------------------
      1         11           0       -0.584903    3.208732   -0.675366
      2         11           0        3.074951   -1.620155   -0.832835
      3         11           0        2.178013    1.486902    0.934329
      4         11           0        0.428286   -2.036392    1.370333
      5         11           0       -3.160446   -2.011079   -0.595235
      6         11           0        0.053418    0.034295   -1.340106
      7         11           0       -1.989319    0.937696    1.138878
 ---------------------------------------------------------------------

 SCF Done:  E(UB3LYP) =  -1136.13218777     A.U. after   20 cycles

 The electronic state is 2-A.
 Alpha  occ. eigenvalues --  -38.44352 -38.44122 -38.43843 -38.43769 -38.43704
 Alpha  occ. eigenvalues --  -38.43391 -38.43016  -2.20170  -2.19885  -2.19666
 Alpha  occ. eigenvalues --   -2.19607  -2.19580  -2.19252  -2.18988  -1.13857
 Alpha  occ. eigenvalues --   -1.13840  -1.13781  -1.13557  -1.13551  -1.13514
 Alpha  occ. eigenvalues --   -1.13337  -1.13331  -1.13312  -1.13300  -1.13288
 Alpha  occ. eigenvalues --   -1.13265  -1.13249  -1.13200  -1.13192  -1.12930
 Alpha  occ. eigenvalues --   -1.12910  -1.12879  -1.12697  -1.12620  -1.12606
 Alpha  occ. eigenvalues --   -0.18158  -0.12999  -0.12371  -0.10080
 Alpha virt. eigenvalues --   -0.05957  -0.05458  -0.04825  -0.03179  -0.02843
 Alpha virt. eigenvalues --   -0.01937  -0.01712  -0.01478  -0.00702  -0.00308
 Alpha virt. eigenvalues --    0.00177   0.00331   0.00500   0.00698   0.00725

  Beta  occ. eigenvalues --  -38.44330 -38.44118 -38.43827 -38.43731 -38.43684
  Beta  occ. eigenvalues --  -38.43384 -38.42965  -2.20132  -2.19878  -2.19638
  Beta  occ. eigenvalues --   -2.19545  -2.19537  -2.19240  -2.18897  -1.13833
  Beta  occ. eigenvalues --   -1.13790  -1.13759  -1.13552  -1.13540  -1.13510
  Beta  occ. eigenvalues --   -1.13316  -1.13300  -1.13284  -1.13273  -1.13255
  Beta  occ. eigenvalues --   -1.13209  -1.13195  -1.13166  -1.13156  -1.12914
  Beta  occ. eigenvalues --   -1.12900  -1.12865  -1.12617  -1.12556  -1.12541
  Beta  occ. eigenvalues --   -0.17474  -0.12793  -0.12195
  Beta virt. eigenvalues --   -0.06393  -0.05816  -0.05298  -0.04679  -0.02606
  Beta virt. eigenvalues --   -0.02314  -0.01677  -0.01385  -0.01084  -0.00403
  Beta virt. eigenvalues --   -0.00275   0.00251   0.00381   0.00633   0.00716

 Mulliken charges and spin densities:
               1          2
     1  Na   0.553098  -0.079671
     2  Na   0.377357   0.010980
     3  Na  -0.134828   0.179841
     4  Na  -0.171993   0.242929
     5  Na   0.087585  -0.064585
     6  Na  -0.714862   0.436626
     7  Na   0.003643   0.273880
 Sum of Mulliken charges =  -0.00000   1.00000

 Dipole moment (field-independent basis, Debye):
    X=              0.2266    Y=             -0.0402    Z=              0.2061  Tot=              0.3090
 Quadrupole moment (field-independent basis, Debye-Ang):
   XX=            -56.6876   YY=            -60.2403   ZZ=            -73.8271
   XY=              0.2119   XZ=              0.5374   YZ=              0.9121

 Normal termination of Gaussian 16 at Tue Dec  5 23:14:00 2023.
