 Gaussian 16, Revision B.01,
 Gaussian 16:  ES64L-G16RevB.01 20-Dec-2017

 -------------------------
 #P B3LYP/6-311+g(d) force
 -------------------------

 -----
 DPGEN
 -----
 Symbolic Z-matrix:
 Charge =  0 Multiplicity = 2

                         Standard orientation:
 ---------------------------------------------------------------------
 Center     Atomic      Atomic             Coordinates (Angstroms)
 Number     Number       Type             X           Y           Z
 ---------------------------------------------------------------------
      1         11           0        0.241866   -1.851697   -0.904094
      2         11           0        3.407142   -3.131712    0.549004
      3         11           0        2.990025    0.245118    0.012201
      4         11           0        0.105864    1.581078    0.966823
      5         11           0       -2.931782   -0.320431   -0.695862
      6         11           0        2.095462    3.726400   -0.425513
      7         11           0       -5.908577   -0.248757    0.497441
 ---------------------------------------------------------------------

 SCF Done:  E(UB3LYP) =  -1136.12415097     A.U. after   18 cycles

 The electronic state is 2-A.
 Alpha  occ. eigenvalues --  -38.44823 -38.44362 -38.44254 -38.44043 -38.43999
 Alpha  occ. eigenvalues --  -38.43869 -38.42794  -2.20665  -2.20172  -2.20117
 Alpha  occ. eigenvalues --   -2.19875  -2.19795  -2.19688  -2.18621  -1.14373
 Alpha  occ. eigenvalues --   -1.14342  -1.14269  -1.13841  -1.13837  -1.13832
 Alpha  occ. eigenvalues --   -1.13822  -1.13797  -1.13683  -1.13568  -1.13549
 Alpha  occ. eigenvalues --   -1.13471  -1.13457  -1.13453  -1.13406  -1.13325
 Alpha  occ. eigenvalues --   -1.13315  -1.13315  -1.12304  -1.12301  -1.12278
 Alpha  occ. eigenvalues --   -0.17027  -0.13544  -0.12839  -0.10760
 Alpha virt. eigenvalues --   -0.06107  -0.05755  -0.04428  -0.03728  -0.02575
 Alpha virt. eigenvalues --   -0.02264  -0.02029  -0.01596  -0.01443  -0.00623
 Alpha virt. eigenvalues --   -0.00445   0.00006   0.00361   0.00491   0.00523

  Beta  occ. eigenvalues --  -38.44811 -38.44353 -38.44241 -38.44000 -38.43972
  Beta  occ. eigenvalues --  -38.43767 -38.42790  -2.20644  -2.20156  -2.20094
  Beta  occ. eigenvalues --   -2.19798  -2.19745  -2.19498  -2.18626  -1.14364
  Beta  occ. eigenvalues --   -1.14329  -1.14239  -1.13828  -1.13821  -1.13819
  Beta  occ. eigenvalues --   -1.13799  -1.13786  -1.13664  -1.13519  -1.13498
  Beta  occ. eigenvalues --   -1.13423  -1.13419  -1.13401  -1.13372  -1.13202
  Beta  occ. eigenvalues --   -1.13186  -1.13186  -1.12316  -1.12312  -1.12210
  Beta  occ. eigenvalues --   -0.16567  -0.12732  -0.12560
  Beta virt. eigenvalues --   -0.07361  -0.05864  -0.05563  -0.03903  -0.03528
  Beta virt. eigenvalues --   -0.02402  -0.02105  -0.01863  -0.01175  -0.00994
  Beta virt. eigenvalues --   -0.00309  -0.00252   0.00208   0.00521   0.00539

 Mulliken charges and spin densities:
               1          2
     1  Na  -0.086411  -0.035158
     2  Na   0.733180   0.130866
     3  Na  -0.648136   0.332778
     4  Na  -0.677534  -0.137712
     5  Na  -0.122053   0.147443
     6  Na   0.862913   0.071245
     7  Na  -0.061958   0.490537
 Sum of Mulliken charges =  -0.00000   1.00000

 Dipole moment (field-independent basis, Debye):
    X=              1.7630    Y=              0.6664    Z=              0.1602  Tot=              1.8915
 Quadrupole moment (field-independent basis, Debye-Ang):
   XX=            -71.4741   YY=            -59.0466   ZZ=            -68.1759
   XY=             -0.3161   XZ=             -2.7197   YZ=             -2.2392

 Normal termination of Gaussian 16 at Tue Nov 28 20:40:22 2023.
