 Gaussian 16, Revision B.01,
 Gaussian 16:  ES64L-G16RevB.01 20-Dec-2017

 -------------------------
 #P B3LYP/6-311+g(d) force
 -------------------------

 -----
 DPGEN
 -----
 Symbolic Z-matrix:
 Charge =  0 Multiplicity = 2

                         Standard orientation:
 ---------------------------------------------------------------------
 Center     Atomic      Atomic             Coordinates (Angstroms)
 Number     Number       Type             X           Y           Z
 ---------------------------------------------------------------------
      1         11           0       -2.134790    2.014689    0.318356
      2         11           0        0.804672   -2.655748    0.090441
      3         11           0        1.224535    2.484456   -0.472983
      4         11           0        2.800881   -0.241118    0.130789
      5         11           0       -0.091914    0.068092    2.049060
      6         11           0       -0.073400   -0.060558   -1.768531
      7         11           0       -2.529983   -1.609813   -0.347131
 ---------------------------------------------------------------------

 SCF Done:  E(UB3LYP) =  -1136.13855193     A.U. after   18 cycles

 The electronic state is 2-A.
 Alpha  occ. eigenvalues --  -38.43806 -38.43584 -38.43547 -38.43382 -38.43282
 Alpha  occ. eigenvalues --  -38.43271 -38.43270  -2.19731  -2.19434  -2.19403
 Alpha  occ. eigenvalues --   -2.19393  -2.19208  -2.19180  -2.19177  -1.13400
 Alpha  occ. eigenvalues --   -1.13373  -1.13353  -1.13169  -1.13107  -1.13090
 Alpha  occ. eigenvalues --   -1.13082  -1.13074  -1.13061  -1.13042  -1.13027
 Alpha  occ. eigenvalues --   -1.12999  -1.12950  -1.12911  -1.12861  -1.12842
 Alpha  occ. eigenvalues --   -1.12834  -1.12825  -1.12807  -1.12787  -1.12752
 Alpha  occ. eigenvalues --   -0.19208  -0.12885  -0.12749  -0.11324
 Alpha virt. eigenvalues --   -0.05136  -0.04910  -0.04592  -0.03304  -0.03171
 Alpha virt. eigenvalues --   -0.02908  -0.01153  -0.01046  -0.00129   0.00041
 Alpha virt. eigenvalues --    0.00107   0.00376   0.00906   0.00936   0.00982

  Beta  occ. eigenvalues --  -38.43713 -38.43577 -38.43539 -38.43307 -38.43276
  Beta  occ. eigenvalues --  -38.43264 -38.43258  -2.19561  -2.19424  -2.19392
  Beta  occ. eigenvalues --   -2.19258  -2.19201  -2.19172  -2.19160  -1.13291
  Beta  occ. eigenvalues --   -1.13247  -1.13237  -1.13136  -1.13076  -1.13073
  Beta  occ. eigenvalues --   -1.13057  -1.13041  -1.13024  -1.13016  -1.12984
  Beta  occ. eigenvalues --   -1.12935  -1.12924  -1.12888  -1.12828  -1.12820
  Beta  occ. eigenvalues --   -1.12808  -1.12796  -1.12786  -1.12774  -1.12746
  Beta  occ. eigenvalues --   -0.18449  -0.12614  -0.12469
  Beta virt. eigenvalues --   -0.07358  -0.05133  -0.04854  -0.04587  -0.02464
  Beta virt. eigenvalues --   -0.02372  -0.01831  -0.01069  -0.00966  -0.00095
  Beta virt. eigenvalues --    0.00030   0.00119   0.00390   0.00929   0.00946

 Mulliken charges and spin densities:
               1          2
     1  Na   0.108953  -0.023048
     2  Na   0.187561  -0.034271
     3  Na   0.309381   0.012842
     4  Na   0.184811   0.010216
     5  Na  -0.533556   0.632655
     6  Na  -0.391673   0.481415
     7  Na   0.134522  -0.079809
 Sum of Mulliken charges =  -0.00000   1.00000

 Dipole moment (field-independent basis, Debye):
    X=             -0.2811    Y=              0.0047    Z=              0.1825  Tot=              0.3351
 Quadrupole moment (field-independent basis, Debye-Ang):
   XX=            -60.8037   YY=            -62.7043   ZZ=            -71.4458
   XY=              0.0476   XZ=              0.1013   YZ=             -0.2747

 Normal termination of Gaussian 16 at Tue Dec  5 11:08:04 2023.
