 Gaussian 16, Revision B.01,
 Gaussian 16:  ES64L-G16RevB.01 20-Dec-2017

 -------------------------
 #P B3LYP/6-311+g(d) force
 -------------------------

 -----
 DPGEN
 -----
 Symbolic Z-matrix:
 Charge =  0 Multiplicity = 2

                         Standard orientation:
 ---------------------------------------------------------------------
 Center     Atomic      Atomic             Coordinates (Angstroms)
 Number     Number       Type             X           Y           Z
 ---------------------------------------------------------------------
      1         11           0        2.205875    0.520844   -0.477904
      2         11           0       -1.881688    1.520892    0.560607
      3         11           0       -4.270899   -0.037933   -0.197983
      4         11           0        1.058154   -0.755369    2.338814
      5         11           0        2.053361   -3.307806   -0.557029
      6         11           0        2.007973    3.633584   -0.635687
      7         11           0       -1.172776   -1.574213   -1.030819
 ---------------------------------------------------------------------

 SCF Done:  E(UB3LYP) =  -1136.12159738     A.U. after   20 cycles

 The electronic state is 2-A.
 Alpha  occ. eigenvalues --  -38.44705 -38.44673 -38.44662 -38.44136 -38.44102
 Alpha  occ. eigenvalues --  -38.43350 -38.43208  -2.20552  -2.20514  -2.20470
 Alpha  occ. eigenvalues --   -2.19939  -2.19913  -2.19225  -2.19012  -1.14362
 Alpha  occ. eigenvalues --   -1.14221  -1.14203  -1.14185  -1.14166  -1.14164
 Alpha  occ. eigenvalues --   -1.14156  -1.14049  -1.14043  -1.13605  -1.13588
 Alpha  occ. eigenvalues --   -1.13578  -1.13574  -1.13541  -1.13525  -1.12929
 Alpha  occ. eigenvalues --   -1.12911  -1.12877  -1.12659  -1.12658  -1.12628
 Alpha  occ. eigenvalues --   -0.17383  -0.13809  -0.12150  -0.10478
 Alpha virt. eigenvalues --   -0.06309  -0.05607  -0.05079  -0.03262  -0.02705
 Alpha virt. eigenvalues --   -0.02317  -0.02157  -0.01594  -0.01087  -0.00596
 Alpha virt. eigenvalues --   -0.00112   0.00115   0.00348   0.00659   0.00704

  Beta  occ. eigenvalues --  -38.44706 -38.44664 -38.44639 -38.44123 -38.43995
  Beta  occ. eigenvalues --  -38.43342 -38.43182  -2.20553  -2.20500  -2.20428
  Beta  occ. eigenvalues --   -2.19889  -2.19740  -2.19212  -2.18965  -1.14361
  Beta  occ. eigenvalues --   -1.14212  -1.14198  -1.14172  -1.14148  -1.14143
  Beta  occ. eigenvalues --   -1.14119  -1.14045  -1.14013  -1.13572  -1.13546
  Beta  occ. eigenvalues --   -1.13524  -1.13471  -1.13441  -1.13393  -1.12910
  Beta  occ. eigenvalues --   -1.12885  -1.12868  -1.12628  -1.12622  -1.12602
  Beta  occ. eigenvalues --   -0.16847  -0.13632  -0.11760
  Beta virt. eigenvalues --   -0.06851  -0.06176  -0.05317  -0.04749  -0.02903
  Beta virt. eigenvalues --   -0.02249  -0.02223  -0.01559  -0.01353  -0.00917
  Beta virt. eigenvalues --   -0.00373   0.00089   0.00190   0.00559   0.00714

 Mulliken charges and spin densities:
               1          2
     1  Na  -0.951267   0.315248
     2  Na  -0.508774   0.100259
     3  Na   0.696345   0.013812
     4  Na   0.034969   0.411828
     5  Na   0.723515   0.161893
     6  Na   0.543930  -0.118874
     7  Na  -0.538718   0.115833
 Sum of Mulliken charges =  -0.00000   1.00000

 Dipole moment (field-independent basis, Debye):
    X=             -1.6835    Y=             -0.8087    Z=              0.2793  Tot=              1.8884
 Quadrupole moment (field-independent basis, Debye-Ang):
   XX=            -55.7721   YY=            -64.1610   ZZ=            -74.6273
   XY=             -5.0089   XZ=              0.6923   YZ=              0.7895

 Normal termination of Gaussian 16 at Mon Dec  4 05:19:19 2023.
