 Gaussian 16, Revision B.01,
 Gaussian 16:  ES64L-G16RevB.01 20-Dec-2017

 -------------------------
 #P B3LYP/6-311+g(d) force
 -------------------------

 -----
 DPGEN
 -----
 Symbolic Z-matrix:
 Charge =  0 Multiplicity = 2

                         Standard orientation:
 ---------------------------------------------------------------------
 Center     Atomic      Atomic             Coordinates (Angstroms)
 Number     Number       Type             X           Y           Z
 ---------------------------------------------------------------------
      1         11           0        0.193934   -0.078976    2.104068
      2         11           0        1.040981   -1.487799   -0.872411
      3         11           0       -1.321807    1.632597   -0.703406
      4         11           0        1.695901    1.785972   -0.855126
      5         11           0       -2.007925   -1.834720   -0.799023
      6         11           0       -3.516655    0.393407    0.671718
      7         11           0        3.915572   -0.410482    0.454180
 ---------------------------------------------------------------------

 SCF Done:  E(UB3LYP) =  -1136.11158506     A.U. after   31 cycles

 The electronic state is 2-A.
 Alpha  occ. eigenvalues --  -38.45923 -38.45491 -38.45411 -38.43054 -38.43036
 Alpha  occ. eigenvalues --  -38.42997 -38.42748  -2.21727  -2.21390  -2.21233
 Alpha  occ. eigenvalues --   -2.18976  -2.18960  -2.18949  -2.18730  -1.15394
 Alpha  occ. eigenvalues --   -1.15384  -1.15355  -1.15117  -1.15037  -1.15002
 Alpha  occ. eigenvalues --   -1.14929  -1.14867  -1.14835  -1.12764  -1.12731
 Alpha  occ. eigenvalues --   -1.12654  -1.12625  -1.12621  -1.12595  -1.12587
 Alpha  occ. eigenvalues --   -1.12567  -1.12519  -1.12408  -1.12377  -1.12335
 Alpha  occ. eigenvalues --   -0.19016  -0.14614  -0.11102  -0.11034
 Alpha virt. eigenvalues --   -0.07772  -0.04839  -0.04521  -0.03249  -0.03231
 Alpha virt. eigenvalues --   -0.02249  -0.02191  -0.01006  -0.00973  -0.00054
 Alpha virt. eigenvalues --   -0.00011   0.00271   0.00291   0.00772   0.00787

  Beta  occ. eigenvalues --  -38.45912 -38.45479 -38.45341 -38.43033 -38.43008
  Beta  occ. eigenvalues --  -38.42965 -38.42729  -2.21707  -2.21368  -2.21102
  Beta  occ. eigenvalues --   -2.18940  -2.18912  -2.18896  -2.18700  -1.15376
  Beta  occ. eigenvalues --   -1.15371  -1.15338  -1.15107  -1.15024  -1.14975
  Beta  occ. eigenvalues --   -1.14838  -1.14781  -1.14735  -1.12727  -1.12690
  Beta  occ. eigenvalues --   -1.12625  -1.12601  -1.12577  -1.12560  -1.12544
  Beta  occ. eigenvalues --   -1.12513  -1.12484  -1.12367  -1.12360  -1.12298
  Beta  occ. eigenvalues --   -0.18306  -0.14449  -0.10775
  Beta virt. eigenvalues --   -0.07606  -0.07154  -0.04893  -0.03863  -0.02976
  Beta virt. eigenvalues --   -0.02939  -0.01652  -0.01390  -0.00956  -0.00617
  Beta virt. eigenvalues --   -0.00032   0.00038   0.00286   0.00463   0.00805

 Mulliken charges and spin densities:
               1          2
     1  Na  -0.746692   0.381423
     2  Na  -0.620728   0.262106
     3  Na  -1.214093   0.061443
     4  Na  -0.365812  -0.054257
     5  Na  -0.547780  -0.110232
     6  Na   1.932000   0.284638
     7  Na   1.563105   0.174879
 Sum of Mulliken charges =  -0.00000   1.00000

 Dipole moment (field-independent basis, Debye):
    X=              0.8556    Y=             -0.0875    Z=              0.9375  Tot=              1.2723
 Quadrupole moment (field-independent basis, Debye-Ang):
   XX=            -39.8686   YY=            -81.5236   ZZ=            -71.1119
   XY=             -0.2906   XZ=             -0.4694   YZ=             -0.0662

 Normal termination of Gaussian 16 at Thu Dec  7 06:55:45 2023.
