 Gaussian 16, Revision B.01,
 Gaussian 16:  ES64L-G16RevB.01 20-Dec-2017

 -------------------------
 #P B3LYP/6-311+g(d) force
 -------------------------

 -----
 DPGEN
 -----
 Symbolic Z-matrix:
 Charge =  0 Multiplicity = 2

                         Standard orientation:
 ---------------------------------------------------------------------
 Center     Atomic      Atomic             Coordinates (Angstroms)
 Number     Number       Type             X           Y           Z
 ---------------------------------------------------------------------
      1         11           0       -2.012130    1.812026   -0.290067
      2         11           0        1.146649    1.606713   -2.039704
      3         11           0        1.473072    2.297533    1.597841
      4         11           0        2.857090   -1.324055   -1.065784
      5         11           0        1.333015   -1.377567    2.247523
      6         11           0       -3.909943   -0.450753    0.313953
      7         11           0       -0.887753   -2.563897   -0.763762
 ---------------------------------------------------------------------

 SCF Done:  E(UB3LYP) =  -1136.12147607     A.U. after   19 cycles

 The electronic state is 2-A.
 Alpha  occ. eigenvalues --  -38.44573 -38.44563 -38.44490 -38.44347 -38.43949
 Alpha  occ. eigenvalues --  -38.43946 -38.43646  -2.20352  -2.20310  -2.20278
 Alpha  occ. eigenvalues --   -2.20127  -2.19759  -2.19758  -2.19471  -1.14018
 Alpha  occ. eigenvalues --   -1.14006  -1.14003  -1.13990  -1.13966  -1.13953
 Alpha  occ. eigenvalues --   -1.13933  -1.13920  -1.13900  -1.13799  -1.13779
 Alpha  occ. eigenvalues --   -1.13745  -1.13505  -1.13431  -1.13413  -1.13410
 Alpha  occ. eigenvalues --   -1.13383  -1.13375  -1.13154  -1.13135  -1.13077
 Alpha  occ. eigenvalues --   -0.16955  -0.13043  -0.11898  -0.11597
 Alpha virt. eigenvalues --   -0.06188  -0.05426  -0.04684  -0.03528  -0.03260
 Alpha virt. eigenvalues --   -0.03053  -0.01666  -0.01008  -0.00686  -0.00388
 Alpha virt. eigenvalues --   -0.00117   0.00009   0.00376   0.00464   0.00728

  Beta  occ. eigenvalues --  -38.44569 -38.44498 -38.44461 -38.44301 -38.43954
  Beta  occ. eigenvalues --  -38.43896 -38.43646  -2.20303  -2.20233  -2.20226
  Beta  occ. eigenvalues --   -2.20043  -2.19768  -2.19666  -2.19471  -1.13992
  Beta  occ. eigenvalues --   -1.13985  -1.13937  -1.13930  -1.13919  -1.13904
  Beta  occ. eigenvalues --   -1.13897  -1.13876  -1.13856  -1.13738  -1.13724
  Beta  occ. eigenvalues --   -1.13678  -1.13511  -1.13418  -1.13389  -1.13369
  Beta  occ. eigenvalues --   -1.13349  -1.13304  -1.13145  -1.13136  -1.13083
  Beta  occ. eigenvalues --   -0.16303  -0.12810  -0.11822
  Beta virt. eigenvalues --   -0.07669  -0.06079  -0.05203  -0.04043  -0.03324
  Beta virt. eigenvalues --   -0.02852  -0.02214  -0.01575  -0.00941  -0.00529
  Beta virt. eigenvalues --   -0.00187  -0.00017   0.00214   0.00443   0.00592

 Mulliken charges and spin densities:
               1          2
     1  Na  -0.427485   0.105261
     2  Na   0.211327   0.379913
     3  Na  -0.097007   0.072354
     4  Na   0.137639   0.089924
     5  Na   0.033626   0.514210
     6  Na   0.421888  -0.133997
     7  Na  -0.279988  -0.027665
 Sum of Mulliken charges =  -0.00000   1.00000

 Dipole moment (field-independent basis, Debye):
    X=              0.2828    Y=             -0.4109    Z=              0.1870  Tot=              0.5327
 Quadrupole moment (field-independent basis, Debye-Ang):
   XX=            -61.6204   YY=            -69.9791   ZZ=            -66.9046
   XY=              1.1583   XZ=             -1.4591   YZ=              1.2788

 Normal termination of Gaussian 16 at Sun Dec  3 19:16:52 2023.
