 Gaussian 16, Revision B.01,
 Gaussian 16:  ES64L-G16RevB.01 20-Dec-2017

 -------------------------
 #P B3LYP/6-311+g(d) force
 -------------------------

 -----
 DPGEN
 -----
 Symbolic Z-matrix:
 Charge =  0 Multiplicity = 2

                         Standard orientation:
 ---------------------------------------------------------------------
 Center     Atomic      Atomic             Coordinates (Angstroms)
 Number     Number       Type             X           Y           Z
 ---------------------------------------------------------------------
      1         11           0       -1.008868    2.220321   -0.927649
      2         11           0        5.178141    0.289601    0.096091
      3         11           0        1.847183    1.468309    0.368668
      4         11           0        3.103002   -2.023939   -0.256240
      5         11           0       -0.499951   -1.436432   -0.075932
      6         11           0       -3.162962    0.333364    1.299710
      7         11           0       -5.456545   -0.851223   -0.504649
 ---------------------------------------------------------------------

 SCF Done:  E(UB3LYP) =  -1136.12041446     A.U. after   20 cycles

 The electronic state is 2-A.
 Alpha  occ. eigenvalues --  -38.44557 -38.44174 -38.44118 -38.43970 -38.43820
 Alpha  occ. eigenvalues --  -38.43775 -38.43707  -2.20401  -2.20022  -2.19960
 Alpha  occ. eigenvalues --   -2.19824  -2.19614  -2.19606  -2.19550  -1.14090
 Alpha  occ. eigenvalues --   -1.14032  -1.14008  -1.13714  -1.13694  -1.13648
 Alpha  occ. eigenvalues --   -1.13634  -1.13627  -1.13618  -1.13529  -1.13502
 Alpha  occ. eigenvalues --   -1.13450  -1.13280  -1.13264  -1.13263  -1.13258
 Alpha  occ. eigenvalues --   -1.13242  -1.13231  -1.13198  -1.13194  -1.13177
 Alpha  occ. eigenvalues --   -0.17154  -0.14390  -0.11555  -0.11193
 Alpha virt. eigenvalues --   -0.06031  -0.05798  -0.04827  -0.03239  -0.03132
 Alpha virt. eigenvalues --   -0.02457  -0.01843  -0.01554  -0.00926  -0.00547
 Alpha virt. eigenvalues --   -0.00308   0.00035   0.00289   0.00500   0.00626

  Beta  occ. eigenvalues --  -38.44471 -38.44170 -38.44094 -38.43948 -38.43817
  Beta  occ. eigenvalues --  -38.43756 -38.43671  -2.20245  -2.20017  -2.19919
  Beta  occ. eigenvalues --   -2.19785  -2.19600  -2.19578  -2.19484  -1.13987
  Beta  occ. eigenvalues --   -1.13925  -1.13887  -1.13701  -1.13690  -1.13647
  Beta  occ. eigenvalues --   -1.13612  -1.13602  -1.13554  -1.13504  -1.13461
  Beta  occ. eigenvalues --   -1.13419  -1.13260  -1.13258  -1.13254  -1.13239
  Beta  occ. eigenvalues --   -1.13227  -1.13211  -1.13152  -1.13148  -1.13135
  Beta  occ. eigenvalues --   -0.16517  -0.14137  -0.11291
  Beta virt. eigenvalues --   -0.07415  -0.05794  -0.05498  -0.04399  -0.03077
  Beta virt. eigenvalues --   -0.02689  -0.02001  -0.01540  -0.01328  -0.00773
  Beta virt. eigenvalues --   -0.00265  -0.00169   0.00237   0.00430   0.00591

 Mulliken charges and spin densities:
               1          2
     1  Na   0.326601   0.044787
     2  Na   0.313693   0.228311
     3  Na  -0.674501   0.174514
     4  Na  -0.211792  -0.195746
     5  Na  -0.464052   0.614242
     6  Na   0.525373   0.138136
     7  Na   0.184678  -0.004243
 Sum of Mulliken charges =  -0.00000   1.00000

 Dipole moment (field-independent basis, Debye):
    X=              0.1734    Y=              0.2398    Z=             -0.4255  Tot=              0.5183
 Quadrupole moment (field-independent basis, Debye-Ang):
   XX=            -65.6098   YY=            -69.3948   ZZ=            -66.7849
   XY=             -0.8752   XZ=              4.2160   YZ=              1.7168

 Normal termination of Gaussian 16 at Wed Nov 29 03:08:28 2023.
