 Gaussian 16, Revision B.01,
 Gaussian 16:  ES64L-G16RevB.01 20-Dec-2017

 -------------------------
 #P B3LYP/6-311+g(d) force
 -------------------------

 -----
 DPGEN
 -----
 Symbolic Z-matrix:
 Charge =  0 Multiplicity = 2

                         Standard orientation:
 ---------------------------------------------------------------------
 Center     Atomic      Atomic             Coordinates (Angstroms)
 Number     Number       Type             X           Y           Z
 ---------------------------------------------------------------------
      1         11           0       -0.754676   -1.779500   -0.504556
      2         11           0       -1.568738    1.063038    0.256397
      3         11           0        1.371709    1.311916   -0.647508
      4         11           0        2.570820   -0.561001    1.648674
      5         11           0        2.628155   -2.499905   -0.827491
      6         11           0       -0.182946    4.265979   -0.219331
      7         11           0       -4.064325   -1.800528    0.293815
 ---------------------------------------------------------------------

 SCF Done:  E(UB3LYP) =  -1136.12132788     A.U. after   23 cycles

 The electronic state is 2-A.
 Alpha  occ. eigenvalues --  -38.44343 -38.44259 -38.44250 -38.44204 -38.43809
 Alpha  occ. eigenvalues --  -38.43459 -38.43167  -2.20165  -2.20146  -2.20128
 Alpha  occ. eigenvalues --   -2.20034  -2.19669  -2.19370  -2.19071  -1.14004
 Alpha  occ. eigenvalues --   -1.13857  -1.13841  -1.13825  -1.13814  -1.13802
 Alpha  occ. eigenvalues --   -1.13791  -1.13710  -1.13706  -1.13698  -1.13668
 Alpha  occ. eigenvalues --   -1.13644  -1.13346  -1.13325  -1.13303  -1.13107
 Alpha  occ. eigenvalues --   -1.13043  -1.12933  -1.12733  -1.12704  -1.12681
 Alpha  occ. eigenvalues --   -0.17936  -0.13542  -0.13071  -0.09610
 Alpha virt. eigenvalues --   -0.06831  -0.05525  -0.04618  -0.03243  -0.02487
 Alpha virt. eigenvalues --   -0.02351  -0.02152  -0.01289  -0.00949  -0.00447
 Alpha virt. eigenvalues --   -0.00225   0.00133   0.00453   0.00572   0.00616

  Beta  occ. eigenvalues --  -38.44337 -38.44257 -38.44239 -38.44191 -38.43770
  Beta  occ. eigenvalues --  -38.43431 -38.43091  -2.20161  -2.20134  -2.20110
  Beta  occ. eigenvalues --   -2.20013  -2.19600  -2.19323  -2.18929  -1.14001
  Beta  occ. eigenvalues --   -1.13854  -1.13824  -1.13818  -1.13794  -1.13785
  Beta  occ. eigenvalues --   -1.13758  -1.13704  -1.13693  -1.13683  -1.13664
  Beta  occ. eigenvalues --   -1.13632  -1.13298  -1.13263  -1.13247  -1.13077
  Beta  occ. eigenvalues --   -1.13006  -1.12882  -1.12631  -1.12608  -1.12585
  Beta  occ. eigenvalues --   -0.17476  -0.13200  -0.12835
  Beta virt. eigenvalues --   -0.06626  -0.05874  -0.05379  -0.04457  -0.02760
  Beta virt. eigenvalues --   -0.02278  -0.02146  -0.01949  -0.00876  -0.00773
  Beta virt. eigenvalues --   -0.00217   0.00085   0.00371   0.00604   0.00688

 Mulliken charges and spin densities:
               1          2
     1  Na  -1.372661   0.238646
     2  Na  -0.928258   0.036155
     3  Na  -0.843968   0.212810
     4  Na   0.259951   0.312970
     5  Na   1.032408   0.091906
     6  Na   0.935402  -0.043823
     7  Na   0.917126   0.151336
 Sum of Mulliken charges =  -0.00000   1.00000

 Dipole moment (field-independent basis, Debye):
    X=             -0.8140    Y=              0.7774    Z=              0.0841  Tot=              1.1287
 Quadrupole moment (field-independent basis, Debye-Ang):
   XX=            -59.4488   YY=            -57.5739   ZZ=            -74.5485
   XY=             -0.2062   XZ=             -4.0905   YZ=             -1.7931

 Normal termination of Gaussian 16 at Tue Nov 28 19:02:19 2023.
