 Gaussian 16, Revision B.01,
 Gaussian 16:  ES64L-G16RevB.01 20-Dec-2017

 -------------------------
 #P B3LYP/6-311+g(d) force
 -------------------------

 -----
 DPGEN
 -----
 Symbolic Z-matrix:
 Charge =  0 Multiplicity = 2

                         Standard orientation:
 ---------------------------------------------------------------------
 Center     Atomic      Atomic             Coordinates (Angstroms)
 Number     Number       Type             X           Y           Z
 ---------------------------------------------------------------------
      1         11           0        0.596239   -0.025566   -1.716303
      2         11           0       -3.454405   -0.763612   -0.033149
      3         11           0       -0.619442   -2.426498   -0.263729
      4         11           0       -2.125258    2.249484   -0.535809
      5         11           0       -0.661784    0.310328    2.223699
      6         11           0        3.475836   -1.409914    0.249127
      7         11           0        2.788815    2.065778    0.076163
 ---------------------------------------------------------------------

 SCF Done:  E(UB3LYP) =  -1136.11922646     A.U. after   24 cycles

 The electronic state is 2-A.
 Alpha  occ. eigenvalues --  -38.45404 -38.45167 -38.44401 -38.44313 -38.43865
 Alpha  occ. eigenvalues --  -38.43481 -38.42558  -2.21156  -2.20989  -2.20173
 Alpha  occ. eigenvalues --   -2.20132  -2.19763  -2.19294  -2.18437  -1.14835
 Alpha  occ. eigenvalues --   -1.14803  -1.14795  -1.14658  -1.14647  -1.14638
 Alpha  occ. eigenvalues --   -1.13853  -1.13834  -1.13815  -1.13794  -1.13760
 Alpha  occ. eigenvalues --   -1.13750  -1.13477  -1.13408  -1.13365  -1.12963
 Alpha  occ. eigenvalues --   -1.12948  -1.12947  -1.12154  -1.12088  -1.12057
 Alpha  occ. eigenvalues --   -0.17866  -0.13721  -0.11245  -0.10614
 Alpha virt. eigenvalues --   -0.06936  -0.06032  -0.03919  -0.03356  -0.02705
 Alpha virt. eigenvalues --   -0.02500  -0.02387  -0.01598  -0.00787  -0.00243
 Alpha virt. eigenvalues --   -0.00108   0.00210   0.00424   0.00543   0.00676

  Beta  occ. eigenvalues --  -38.45402 -38.45168 -38.44404 -38.44220 -38.43802
  Beta  occ. eigenvalues --  -38.43468 -38.42548  -2.21154  -2.20994  -2.20179
  Beta  occ. eigenvalues --   -2.19960  -2.19649  -2.19272  -2.18423  -1.14826
  Beta  occ. eigenvalues --   -1.14804  -1.14794  -1.14657  -1.14649  -1.14631
  Beta  occ. eigenvalues --   -1.13847  -1.13836  -1.13820  -1.13678  -1.13638
  Beta  occ. eigenvalues --   -1.13629  -1.13400  -1.13324  -1.13279  -1.12948
  Beta  occ. eigenvalues --   -1.12935  -1.12914  -1.12141  -1.12053  -1.12052
  Beta  occ. eigenvalues --   -0.17159  -0.13601  -0.11021
  Beta virt. eigenvalues --   -0.06878  -0.06590  -0.06058  -0.03629  -0.02976
  Beta virt. eigenvalues --   -0.02314  -0.01847  -0.01716  -0.01368  -0.00831
  Beta virt. eigenvalues --   -0.00130  -0.00008   0.00252   0.00619   0.00674

 Mulliken charges and spin densities:
               1          2
     1  Na   0.516157   0.394928
     2  Na   0.412957   0.085256
     3  Na  -0.248981  -0.019960
     4  Na  -0.173756  -0.037372
     5  Na  -0.359027   0.674399
     6  Na  -0.036872   0.005698
     7  Na  -0.110478  -0.102950
 Sum of Mulliken charges =  -0.00000   1.00000

 Dipole moment (field-independent basis, Debye):
    X=              0.5725    Y=             -0.1658    Z=              0.2946  Tot=              0.6649
 Quadrupole moment (field-independent basis, Debye-Ang):
   XX=            -47.0105   YY=            -71.4127   ZZ=            -74.7934
   XY=             -0.2270   XZ=              2.3153   YZ=             -1.2797

 Normal termination of Gaussian 16 at Thu Dec  7 07:20:18 2023.
