 Gaussian 16, Revision B.01,
 Gaussian 16:  ES64L-G16RevB.01 20-Dec-2017

 -------------------------
 #P B3LYP/6-311+g(d) force
 -------------------------

 -----
 DPGEN
 -----
 Symbolic Z-matrix:
 Charge =  0 Multiplicity = 2

                         Standard orientation:
 ---------------------------------------------------------------------
 Center     Atomic      Atomic             Coordinates (Angstroms)
 Number     Number       Type             X           Y           Z
 ---------------------------------------------------------------------
      1         11           0        3.530900   -0.427239   -0.133912
      2         11           0        0.724251   -2.927660   -0.351749
      3         11           0        1.450666    2.962592   -0.180556
      4         11           0       -2.491437    1.929551    0.134113
      5         11           0       -0.698743    0.338000   -1.531889
      6         11           0        0.064683   -0.175440    2.109264
      7         11           0       -2.580321   -1.699805   -0.045271
 ---------------------------------------------------------------------

 SCF Done:  E(UB3LYP) =  -1136.12912183     A.U. after   20 cycles

 The electronic state is 2-A.
 Alpha  occ. eigenvalues --  -38.44578 -38.44216 -38.44204 -38.43892 -38.43603
 Alpha  occ. eigenvalues --  -38.43569 -38.43398  -2.20317  -2.20073  -2.19961
 Alpha  occ. eigenvalues --   -2.19756  -2.19418  -2.19409  -2.19373  -1.13999
 Alpha  occ. eigenvalues --   -1.13967  -1.13962  -1.13844  -1.13716  -1.13682
 Alpha  occ. eigenvalues --   -1.13645  -1.13621  -1.13594  -1.13470  -1.13411
 Alpha  occ. eigenvalues --   -1.13384  -1.13093  -1.13089  -1.13074  -1.13046
 Alpha  occ. eigenvalues --   -1.13042  -1.13037  -1.13032  -1.13007  -1.12977
 Alpha  occ. eigenvalues --   -0.18112  -0.12783  -0.12427  -0.10386
 Alpha virt. eigenvalues --   -0.06076  -0.05518  -0.04919  -0.03079  -0.02796
 Alpha virt. eigenvalues --   -0.02347  -0.01586  -0.01387  -0.00926  -0.00674
 Alpha virt. eigenvalues --   -0.00020   0.00320   0.00738   0.00757   0.00842

  Beta  occ. eigenvalues --  -38.44579 -38.44209 -38.44203 -38.43885 -38.43597
  Beta  occ. eigenvalues --  -38.43466 -38.43349  -2.20321  -2.20066  -2.19961
  Beta  occ. eigenvalues --   -2.19746  -2.19400  -2.19284  -2.19226  -1.13993
  Beta  occ. eigenvalues --   -1.13971  -1.13966  -1.13833  -1.13687  -1.13682
  Beta  occ. eigenvalues --   -1.13634  -1.13620  -1.13596  -1.13459  -1.13383
  Beta  occ. eigenvalues --   -1.13375  -1.13078  -1.13059  -1.13037  -1.12989
  Beta  occ. eigenvalues --   -1.12956  -1.12938  -1.12910  -1.12906  -1.12896
  Beta  occ. eigenvalues --   -0.17401  -0.12617  -0.12217
  Beta virt. eigenvalues --   -0.06471  -0.06057  -0.05483  -0.04813  -0.02347
  Beta virt. eigenvalues --   -0.02094  -0.01535  -0.01363  -0.01279  -0.00951
  Beta virt. eigenvalues --   -0.00707   0.00147   0.00376   0.00750   0.00806

 Mulliken charges and spin densities:
               1          2
     1  Na  -0.102974  -0.058722
     2  Na  -0.131906  -0.052513
     3  Na  -0.120328  -0.110426
     4  Na   0.305847  -0.027196
     5  Na   0.061901   0.413594
     6  Na  -0.390259   0.770783
     7  Na   0.377718   0.064480
 Sum of Mulliken charges =  -0.00000   1.00000

 Dipole moment (field-independent basis, Debye):
    X=              0.0274    Y=              0.1984    Z=              0.1207  Tot=              0.2338
 Quadrupole moment (field-independent basis, Debye-Ang):
   XX=            -55.5298   YY=            -61.0698   ZZ=            -76.5845
   XY=              0.0638   XZ=             -1.4903   YZ=              1.0895

 Normal termination of Gaussian 16 at Thu Dec  7 20:04:51 2023.
