 Gaussian 16, Revision B.01,
 Gaussian 16:  ES64L-G16RevB.01 20-Dec-2017

 -------------------------
 #P B3LYP/6-311+g(d) force
 -------------------------

 -----
 DPGEN
 -----
 Symbolic Z-matrix:
 Charge =  0 Multiplicity = 2

                         Standard orientation:
 ---------------------------------------------------------------------
 Center     Atomic      Atomic             Coordinates (Angstroms)
 Number     Number       Type             X           Y           Z
 ---------------------------------------------------------------------
      1         11           0       -0.335903    0.409212   -1.512593
      2         11           0        0.228818   -2.071606   -0.650693
      3         11           0        2.281558   -0.814371    0.544207
      4         11           0       -0.278632   -0.516590    1.568257
      5         11           0       -2.422027   -0.681321   -0.124493
      6         11           0       -1.108154    1.943587    0.638807
      7         11           0        1.634339    1.731089   -0.463493
 ---------------------------------------------------------------------

 SCF Done:  E(UB3LYP) =  -1136.05838012     A.U. after   20 cycles

 The electronic state is 2-A.
 Alpha  occ. eigenvalues --  -38.44613 -38.44350 -38.44177 -38.43935 -38.43915
 Alpha  occ. eigenvalues --  -38.43870 -38.43702  -2.21043  -2.20717  -2.20312
 Alpha  occ. eigenvalues --   -2.20128  -2.20050  -2.20020  -2.19859  -1.14993
 Alpha  occ. eigenvalues --   -1.14876  -1.14768  -1.14631  -1.14510  -1.14387
 Alpha  occ. eigenvalues --   -1.14178  -1.14053  -1.13889  -1.13784  -1.13725
 Alpha  occ. eigenvalues --   -1.13706  -1.13695  -1.13635  -1.13622  -1.13599
 Alpha  occ. eigenvalues --   -1.13549  -1.13524  -1.13483  -1.13463  -1.13350
 Alpha  occ. eigenvalues --   -0.21968  -0.13870  -0.13204  -0.12393
 Alpha virt. eigenvalues --   -0.05060  -0.04286  -0.04133  -0.03678  -0.03284
 Alpha virt. eigenvalues --   -0.02850  -0.00915  -0.00515  -0.00084   0.00339
 Alpha virt. eigenvalues --    0.00882   0.00927   0.01088   0.01146   0.01200

  Beta  occ. eigenvalues --  -38.44527 -38.44266 -38.44160 -38.43920 -38.43887
  Beta  occ. eigenvalues --  -38.43856 -38.43679  -2.20890  -2.20568  -2.20286
  Beta  occ. eigenvalues --   -2.20086  -2.20028  -2.20001  -2.19822  -1.14881
  Beta  occ. eigenvalues --   -1.14794  -1.14663  -1.14535  -1.14415  -1.14287
  Beta  occ. eigenvalues --   -1.14147  -1.14032  -1.13831  -1.13745  -1.13698
  Beta  occ. eigenvalues --   -1.13682  -1.13627  -1.13602  -1.13586  -1.13538
  Beta  occ. eigenvalues --   -1.13526  -1.13503  -1.13461  -1.13388  -1.13332
  Beta  occ. eigenvalues --   -0.21181  -0.13512  -0.12887
  Beta virt. eigenvalues --   -0.08074  -0.05064  -0.04270  -0.04096  -0.02737
  Beta virt. eigenvalues --   -0.02440  -0.01635  -0.00861  -0.00471   0.00071
  Beta virt. eigenvalues --    0.00372   0.00871   0.00923   0.01105   0.01139

 Mulliken charges and spin densities:
               1          2
     1  Na  -0.729642   0.281200
     2  Na   0.388078   0.147920
     3  Na   0.249281   0.014096
     4  Na  -0.467921   0.434486
     5  Na   0.088463  -0.100921
     6  Na   0.253686   0.087367
     7  Na   0.218056   0.135852
 Sum of Mulliken charges =  -0.00000   1.00000

 Dipole moment (field-independent basis, Debye):
    X=              0.0508    Y=              0.0967    Z=              0.1716  Tot=              0.2034
 Quadrupole moment (field-independent basis, Debye-Ang):
   XX=            -61.4512   YY=            -67.8975   ZZ=            -68.8996
   XY=              0.4104   XZ=              0.1329   YZ=              1.3219

 Normal termination of Gaussian 16 at Thu Dec  7 04:09:00 2023.
