 Gaussian 16, Revision B.01,
 Gaussian 16:  ES64L-G16RevB.01 20-Dec-2017

 -------------------------
 #P B3LYP/6-311+g(d) force
 -------------------------

 -----
 DPGEN
 -----
 Symbolic Z-matrix:
 Charge =  0 Multiplicity = 2

                         Standard orientation:
 ---------------------------------------------------------------------
 Center     Atomic      Atomic             Coordinates (Angstroms)
 Number     Number       Type             X           Y           Z
 ---------------------------------------------------------------------
      1         11           0        1.144993   -2.716716    0.163611
      2         11           0        0.226145    3.134208    0.026387
      3         11           0        0.061684   -0.529210   -1.755943
      4         11           0       -0.132931    0.378967    1.892056
      5         11           0       -2.500455    1.109492   -0.533965
      6         11           0       -2.077132   -1.824826    0.345465
      7         11           0        3.277695    0.448085   -0.137612
 ---------------------------------------------------------------------

 SCF Done:  E(UB3LYP) =  -1136.13468762     A.U. after   19 cycles

 The electronic state is 2-A.
 Alpha  occ. eigenvalues --  -38.44180 -38.43847 -38.43728 -38.43443 -38.43359
 Alpha  occ. eigenvalues --  -38.43334 -38.43271  -2.19944  -2.19662  -2.19598
 Alpha  occ. eigenvalues --   -2.19374  -2.19335  -2.19264  -2.19222  -1.13628
 Alpha  occ. eigenvalues --   -1.13597  -1.13585  -1.13351  -1.13336  -1.13326
 Alpha  occ. eigenvalues --   -1.13297  -1.13259  -1.13219  -1.13098  -1.13040
 Alpha  occ. eigenvalues --   -1.13011  -1.13001  -1.12988  -1.12981  -1.12950
 Alpha  occ. eigenvalues --   -1.12899  -1.12887  -1.12867  -1.12848  -1.12810
 Alpha  occ. eigenvalues --   -0.18904  -0.12854  -0.12639  -0.10887
 Alpha virt. eigenvalues --   -0.05727  -0.05013  -0.04658  -0.03175  -0.03046
 Alpha virt. eigenvalues --   -0.02526  -0.01314  -0.01222  -0.00367  -0.00191
 Alpha virt. eigenvalues --    0.00019   0.00365   0.00823   0.00898   0.00948

  Beta  occ. eigenvalues --  -38.44181 -38.43846 -38.43722 -38.43361 -38.43315
  Beta  occ. eigenvalues --  -38.43288 -38.43257  -2.19948  -2.19662  -2.19591
  Beta  occ. eigenvalues --   -2.19235  -2.19225  -2.19206  -2.19201  -1.13619
  Beta  occ. eigenvalues --   -1.13600  -1.13588  -1.13343  -1.13323  -1.13315
  Beta  occ. eigenvalues --   -1.13300  -1.13231  -1.13217  -1.13051  -1.12956
  Beta  occ. eigenvalues --   -1.12944  -1.12919  -1.12899  -1.12894  -1.12873
  Beta  occ. eigenvalues --   -1.12853  -1.12836  -1.12820  -1.12803  -1.12785
  Beta  occ. eigenvalues --   -0.18140  -0.12619  -0.12411
  Beta virt. eigenvalues --   -0.06923  -0.05735  -0.04903  -0.04655  -0.02404
  Beta virt. eigenvalues --   -0.02290  -0.01520  -0.01217  -0.01141  -0.00385
  Beta virt. eigenvalues --   -0.00217   0.00136   0.00394   0.00830   0.00920

 Mulliken charges and spin densities:
               1          2
     1  Na   0.090575  -0.082951
     2  Na  -0.058408  -0.121655
     3  Na  -0.171355   0.533241
     4  Na  -0.313790   0.612883
     5  Na   0.212548   0.077623
     6  Na   0.408629   0.131796
     7  Na  -0.168200  -0.150937
 Sum of Mulliken charges =  -0.00000   1.00000

 Dipole moment (field-independent basis, Debye):
    X=              0.4645    Y=              0.1403    Z=              0.0644  Tot=              0.4895
 Quadrupole moment (field-independent basis, Debye-Ang):
   XX=            -60.1861   YY=            -60.1200   ZZ=            -73.5163
   XY=              0.3818   XZ=              0.3859   YZ=             -1.9947

 Normal termination of Gaussian 16 at Thu Dec  7 14:33:51 2023.
