 Gaussian 16, Revision B.01,
 Gaussian 16:  ES64L-G16RevB.01 20-Dec-2017

 -------------------------
 #P B3LYP/6-311+g(d) force
 -------------------------

 -----
 DPGEN
 -----
 Symbolic Z-matrix:
 Charge =  0 Multiplicity = 2

                         Standard orientation:
 ---------------------------------------------------------------------
 Center     Atomic      Atomic             Coordinates (Angstroms)
 Number     Number       Type             X           Y           Z
 ---------------------------------------------------------------------
      1         11           0        3.098259    0.800822   -0.416591
      2         11           0       -0.188276   -0.016817   -1.371256
      3         11           0        0.417836    3.056460    0.481400
      4         11           0       -2.178355   -1.656719    1.092988
      5         11           0        0.784246   -0.531904    2.117379
      6         11           0        1.496176   -2.561646   -1.010639
      7         11           0       -3.429886    0.909803   -0.893280
 ---------------------------------------------------------------------

 SCF Done:  E(UB3LYP) =  -1136.13093878     A.U. after   19 cycles

 The electronic state is 2-A.
 Alpha  occ. eigenvalues --  -38.44349 -38.44091 -38.43967 -38.43882 -38.43491
 Alpha  occ. eigenvalues --  -38.43418 -38.43249  -2.20165  -2.19964  -2.19766
 Alpha  occ. eigenvalues --   -2.19721  -2.19272  -2.19267  -2.19225  -1.13856
 Alpha  occ. eigenvalues --   -1.13830  -1.13779  -1.13654  -1.13592  -1.13573
 Alpha  occ. eigenvalues --   -1.13443  -1.13424  -1.13407  -1.13400  -1.13369
 Alpha  occ. eigenvalues --   -1.13329  -1.13052  -1.12948  -1.12946  -1.12919
 Alpha  occ. eigenvalues --   -1.12902  -1.12894  -1.12884  -1.12845  -1.12816
 Alpha  occ. eigenvalues --   -0.18118  -0.13044  -0.11823  -0.11316
 Alpha virt. eigenvalues --   -0.05846  -0.04979  -0.04625  -0.03335  -0.03029
 Alpha virt. eigenvalues --   -0.02660  -0.01726  -0.01045  -0.00686  -0.00071
 Alpha virt. eigenvalues --    0.00005   0.00316   0.00562   0.00720   0.00811

  Beta  occ. eigenvalues --  -38.44344 -38.44003 -38.43950 -38.43855 -38.43491
  Beta  occ. eigenvalues --  -38.43393 -38.43206  -2.20157  -2.19802  -2.19735
  Beta  occ. eigenvalues --   -2.19674  -2.19272  -2.19223  -2.19149  -1.13841
  Beta  occ. eigenvalues --   -1.13827  -1.13768  -1.13545  -1.13478  -1.13458
  Beta  occ. eigenvalues --   -1.13413  -1.13406  -1.13385  -1.13358  -1.13337
  Beta  occ. eigenvalues --   -1.13288  -1.13006  -1.12944  -1.12940  -1.12902
  Beta  occ. eigenvalues --   -1.12874  -1.12854  -1.12838  -1.12800  -1.12762
  Beta  occ. eigenvalues --   -0.17420  -0.12791  -0.11561
  Beta virt. eigenvalues --   -0.07416  -0.05769  -0.04709  -0.04509  -0.02824
  Beta virt. eigenvalues --   -0.02346  -0.01796  -0.01618  -0.00955  -0.00506
  Beta virt. eigenvalues --    0.00008   0.00067   0.00366   0.00683   0.00835

 Mulliken charges and spin densities:
               1          2
     1  Na   0.225706  -0.000570
     2  Na   0.023780   0.249041
     3  Na  -0.467952   0.018210
     4  Na  -0.344685   0.085282
     5  Na   0.257868   0.524384
     6  Na   0.091955   0.079218
     7  Na   0.213328   0.044435
 Sum of Mulliken charges =  -0.00000   1.00000

 Dipole moment (field-independent basis, Debye):
    X=              0.2320    Y=             -0.0304    Z=              0.2158  Tot=              0.3183
 Quadrupole moment (field-independent basis, Debye-Ang):
   XX=            -55.8269   YY=            -66.7412   ZZ=            -70.8949
   XY=             -1.0913   XZ=             -0.6051   YZ=              0.0514

 Normal termination of Gaussian 16 at Sun Dec  3 22:02:12 2023.
