 Gaussian 16, Revision B.01,
 Gaussian 16:  ES64L-G16RevB.01 20-Dec-2017

 -------------------------
 #P B3LYP/6-311+g(d) force
 -------------------------

 -----
 DPGEN
 -----
 Symbolic Z-matrix:
 Charge =  0 Multiplicity = 2

                         Standard orientation:
 ---------------------------------------------------------------------
 Center     Atomic      Atomic             Coordinates (Angstroms)
 Number     Number       Type             X           Y           Z
 ---------------------------------------------------------------------
      1         11           0       -2.349949    1.668532   -0.117054
      2         11           0        0.035930    0.075255   -1.593634
      3         11           0       -0.820513   -0.300173    2.286975
      4         11           0        1.035219    2.608645   -0.361180
      5         11           0        1.551284   -2.492341   -0.467288
      6         11           0       -2.418894   -1.757566   -0.373068
      7         11           0        2.966922    0.197648    0.625249
 ---------------------------------------------------------------------

 SCF Done:  E(UB3LYP) =  -1136.13253973     A.U. after   19 cycles

 The electronic state is 2-A.
 Alpha  occ. eigenvalues --  -38.44273 -38.43908 -38.43830 -38.43698 -38.43451
 Alpha  occ. eigenvalues --  -38.43223 -38.43063  -2.20123  -2.19768  -2.19687
 Alpha  occ. eigenvalues --   -2.19585  -2.19301  -2.19273  -2.18960  -1.13772
 Alpha  occ. eigenvalues --   -1.13757  -1.13745  -1.13439  -1.13436  -1.13420
 Alpha  occ. eigenvalues --   -1.13386  -1.13350  -1.13323  -1.13283  -1.13254
 Alpha  occ. eigenvalues --   -1.13196  -1.13047  -1.12995  -1.12954  -1.12930
 Alpha  occ. eigenvalues --   -1.12910  -1.12865  -1.12629  -1.12604  -1.12575
 Alpha  occ. eigenvalues --   -0.18782  -0.13304  -0.12245  -0.11227
 Alpha virt. eigenvalues --   -0.05445  -0.05287  -0.04263  -0.03629  -0.03047
 Alpha virt. eigenvalues --   -0.02833  -0.01320  -0.00974  -0.00226  -0.00064
 Alpha virt. eigenvalues --    0.00023   0.00372   0.00819   0.00883   0.00918

  Beta  occ. eigenvalues --  -38.44175 -38.43899 -38.43823 -38.43691 -38.43445
  Beta  occ. eigenvalues --  -38.43160 -38.43060  -2.19942  -2.19751  -2.19678
  Beta  occ. eigenvalues --   -2.19575  -2.19293  -2.19160  -2.18956  -1.13654
  Beta  occ. eigenvalues --   -1.13632  -1.13615  -1.13432  -1.13426  -1.13394
  Beta  occ. eigenvalues --   -1.13375  -1.13329  -1.13311  -1.13272  -1.13224
  Beta  occ. eigenvalues --   -1.13190  -1.13017  -1.12941  -1.12926  -1.12917
  Beta  occ. eigenvalues --   -1.12846  -1.12793  -1.12611  -1.12584  -1.12574
  Beta  occ. eigenvalues --   -0.18066  -0.13090  -0.11991
  Beta virt. eigenvalues --   -0.07296  -0.05377  -0.05160  -0.04220  -0.02888
  Beta virt. eigenvalues --   -0.02212  -0.01869  -0.01241  -0.00909  -0.00185
  Beta virt. eigenvalues --   -0.00060   0.00130   0.00414   0.00877   0.00916

 Mulliken charges and spin densities:
               1          2
     1  Na   0.279413   0.073819
     2  Na   0.044719   0.079123
     3  Na  -0.686530   0.651904
     4  Na   0.177147   0.079097
     5  Na   0.111197   0.016078
     6  Na   0.169740  -0.037754
     7  Na  -0.095686   0.137733
 Sum of Mulliken charges =  -0.00000   1.00000

 Dipole moment (field-independent basis, Debye):
    X=             -0.2807    Y=             -0.1953    Z=              0.4260  Tot=              0.5463
 Quadrupole moment (field-independent basis, Debye-Ang):
   XX=            -58.6671   YY=            -65.3838   ZZ=            -71.3049
   XY=              0.2407   XZ=              2.0532   YZ=              0.9807

 Normal termination of Gaussian 16 at Thu Dec  7 15:43:12 2023.
