 Gaussian 16, Revision B.01,
 Gaussian 16:  ES64L-G16RevB.01 20-Dec-2017

 -------------------------
 #P B3LYP/6-311+g(d) force
 -------------------------

 -----
 DPGEN
 -----
 Symbolic Z-matrix:
 Charge =  0 Multiplicity = 2

                         Standard orientation:
 ---------------------------------------------------------------------
 Center     Atomic      Atomic             Coordinates (Angstroms)
 Number     Number       Type             X           Y           Z
 ---------------------------------------------------------------------
      1         11           0        0.293945   -2.231789    0.782690
      2         11           0        1.876130    1.014750    1.640903
      3         11           0        3.123892   -1.086721   -1.027540
      4         11           0       -2.936795   -1.547051   -0.376606
      5         11           0       -1.461435    0.564841    1.603630
      6         11           0       -0.479438    3.213995   -0.743021
      7         11           0       -0.416299    0.071975   -1.880055
 ---------------------------------------------------------------------

 SCF Done:  E(UB3LYP) =  -1136.13489472     A.U. after   20 cycles

 The electronic state is 2-A.
 Alpha  occ. eigenvalues --  -38.44052 -38.43908 -38.43729 -38.43625 -38.43544
 Alpha  occ. eigenvalues --  -38.43527 -38.43242  -2.19884  -2.19815  -2.19556
 Alpha  occ. eigenvalues --   -2.19530  -2.19421  -2.19389  -2.19046  -1.13592
 Alpha  occ. eigenvalues --   -1.13531  -1.13490  -1.13489  -1.13461  -1.13446
 Alpha  occ. eigenvalues --   -1.13264  -1.13227  -1.13194  -1.13191  -1.13171
 Alpha  occ. eigenvalues --   -1.13166  -1.13116  -1.13102  -1.13054  -1.13038
 Alpha  occ. eigenvalues --   -1.13031  -1.12987  -1.12728  -1.12700  -1.12674
 Alpha  occ. eigenvalues --   -0.18440  -0.12713  -0.12036  -0.11717
 Alpha virt. eigenvalues --   -0.05365  -0.04916  -0.04606  -0.03325  -0.03221
 Alpha virt. eigenvalues --   -0.03081  -0.01393  -0.00946  -0.00683   0.00248
 Alpha virt. eigenvalues --    0.00290   0.00362   0.00625   0.00747   0.00843

  Beta  occ. eigenvalues --  -38.44011 -38.43834 -38.43714 -38.43575 -38.43529
  Beta  occ. eigenvalues --  -38.43524 -38.43232  -2.19813  -2.19680  -2.19502
  Beta  occ. eigenvalues --   -2.19468  -2.19399  -2.19386  -2.19030  -1.13528
  Beta  occ. eigenvalues --   -1.13477  -1.13446  -1.13401  -1.13364  -1.13344
  Beta  occ. eigenvalues --   -1.13206  -1.13172  -1.13164  -1.13160  -1.13151
  Beta  occ. eigenvalues --   -1.13117  -1.13092  -1.13059  -1.13038  -1.13032
  Beta  occ. eigenvalues --   -1.13014  -1.12980  -1.12704  -1.12692  -1.12663
  Beta  occ. eigenvalues --   -0.17641  -0.12538  -0.11810
  Beta virt. eigenvalues --   -0.07755  -0.05237  -0.04608  -0.04399  -0.02932
  Beta virt. eigenvalues --   -0.02624  -0.02139  -0.01328  -0.00864  -0.00303
  Beta virt. eigenvalues --    0.00242   0.00384   0.00392   0.00723   0.00819

 Mulliken charges and spin densities:
               1          2
     1  Na  -0.368873   0.117576
     2  Na  -0.055090   0.120249
     3  Na   0.139752  -0.070761
     4  Na   0.436583  -0.103806
     5  Na   0.187754   0.388722
     6  Na  -0.263169  -0.149536
     7  Na  -0.076957   0.697555
 Sum of Mulliken charges =  -0.00000   1.00000

 Dipole moment (field-independent basis, Debye):
    X=              0.0457    Y=             -0.1360    Z=             -0.0351  Tot=              0.1477
 Quadrupole moment (field-independent basis, Debye-Ang):
   XX=            -60.3596   YY=            -67.3810   ZZ=            -66.9574
   XY=              1.8012   XZ=             -0.3450   YZ=              0.4681

 Normal termination of Gaussian 16 at Wed Nov 29 17:23:35 2023.
