 Gaussian 16, Revision B.01,
 Gaussian 16:  ES64L-G16RevB.01 20-Dec-2017

 -------------------------
 #P B3LYP/6-311+g(d) force
 -------------------------

 -----
 DPGEN
 -----
 Symbolic Z-matrix:
 Charge =  0 Multiplicity = 2

                         Standard orientation:
 ---------------------------------------------------------------------
 Center     Atomic      Atomic             Coordinates (Angstroms)
 Number     Number       Type             X           Y           Z
 ---------------------------------------------------------------------
      1         11           0       -3.136515    1.280181   -0.074388
      2         11           0       -4.090880   -1.467005   -1.300559
      3         11           0       -1.278467   -1.904043    1.371698
      4         11           0        2.047598   -2.642282    0.413706
      5         11           0       -0.385558    3.413322    1.053241
      6         11           0        2.349050    1.689991   -1.089558
      7         11           0        4.494772   -0.370164   -0.374139
 ---------------------------------------------------------------------

 SCF Done:  E(UB3LYP) =  -1136.11527636     A.U. after   20 cycles

 The electronic state is 2-A.
 Alpha  occ. eigenvalues --  -38.44803 -38.44735 -38.44505 -38.44379 -38.44294
 Alpha  occ. eigenvalues --  -38.44244 -38.43266  -2.20589  -2.20508  -2.20318
 Alpha  occ. eigenvalues --   -2.20206  -2.20092  -2.20079  -2.19039  -1.14294
 Alpha  occ. eigenvalues --   -1.14256  -1.14234  -1.14187  -1.14183  -1.14115
 Alpha  occ. eigenvalues --   -1.14031  -1.13989  -1.13979  -1.13849  -1.13836
 Alpha  occ. eigenvalues --   -1.13801  -1.13762  -1.13754  -1.13749  -1.13743
 Alpha  occ. eigenvalues --   -1.13732  -1.13674  -1.12704  -1.12688  -1.12678
 Alpha  occ. eigenvalues --   -0.16106  -0.14406  -0.12339  -0.11041
 Alpha virt. eigenvalues --   -0.06528  -0.05393  -0.04596  -0.03376  -0.03235
 Alpha virt. eigenvalues --   -0.02517  -0.01996  -0.01468  -0.01177  -0.00866
 Alpha virt. eigenvalues --   -0.00392  -0.00103   0.00046   0.00449   0.00682

  Beta  occ. eigenvalues --  -38.44793 -38.44690 -38.44487 -38.44315 -38.44271
  Beta  occ. eigenvalues --  -38.44209 -38.43236  -2.20575  -2.20430  -2.20291
  Beta  occ. eigenvalues --   -2.20088  -2.20040  -2.20029  -2.18983  -1.14279
  Beta  occ. eigenvalues --   -1.14252  -1.14206  -1.14135  -1.14131  -1.14042
  Beta  occ. eigenvalues --   -1.13998  -1.13978  -1.13927  -1.13769  -1.13751
  Beta  occ. eigenvalues --   -1.13738  -1.13732  -1.13727  -1.13703  -1.13700
  Beta  occ. eigenvalues --   -1.13688  -1.13631  -1.12666  -1.12646  -1.12644
  Beta  occ. eigenvalues --   -0.15562  -0.13843  -0.11668
  Beta virt. eigenvalues --   -0.07715  -0.06563  -0.04945  -0.04348  -0.03098
  Beta virt. eigenvalues --   -0.02774  -0.02283  -0.01734  -0.01198  -0.00953
  Beta virt. eigenvalues --   -0.00664  -0.00092   0.00065   0.00239   0.00494

 Mulliken charges and spin densities:
               1          2
     1  Na  -0.374730   0.223948
     2  Na   0.521900   0.238101
     3  Na  -0.228786   0.164303
     4  Na  -0.034176   0.077416
     5  Na   0.106336   0.089130
     6  Na  -0.375027   0.068863
     7  Na   0.384483   0.138240
 Sum of Mulliken charges =  -0.00000   1.00000

 Dipole moment (field-independent basis, Debye):
    X=              0.1387    Y=             -0.8905    Z=             -0.3659  Tot=              0.9726
 Quadrupole moment (field-independent basis, Debye-Ang):
   XX=            -59.2559   YY=            -70.6310   ZZ=            -68.7135
   XY=             -0.0253   XZ=              0.9002   YZ=              1.7934

 Normal termination of Gaussian 16 at Sun Dec  3 16:11:20 2023.
