 Gaussian 16, Revision B.01,
 Gaussian 16:  ES64L-G16RevB.01 20-Dec-2017

 -------------------------
 #P B3LYP/6-311+g(d) force
 -------------------------

 -----
 DPGEN
 -----
 Symbolic Z-matrix:
 Charge =  0 Multiplicity = 2

                         Standard orientation:
 ---------------------------------------------------------------------
 Center     Atomic      Atomic             Coordinates (Angstroms)
 Number     Number       Type             X           Y           Z
 ---------------------------------------------------------------------
      1         11           0        1.550199   -2.524024    0.215129
      2         11           0        0.372858   -0.008625   -1.313237
      3         11           0       -2.489594   -1.917783   -0.727687
      4         11           0        3.449235    0.345357   -0.139931
      5         11           0       -0.820990   -0.253390    2.159710
      6         11           0        0.671165    2.835847    0.020603
      7         11           0       -2.732873    1.522616   -0.214587
 ---------------------------------------------------------------------

 SCF Done:  E(UB3LYP) =  -1136.13422475     A.U. after   19 cycles

 The electronic state is 2-A.
 Alpha  occ. eigenvalues --  -38.44484 -38.44110 -38.43845 -38.43624 -38.43518
 Alpha  occ. eigenvalues --  -38.43226 -38.43086  -2.20299  -2.19943  -2.19669
 Alpha  occ. eigenvalues --   -2.19462  -2.19380  -2.19099  -2.19061  -1.13978
 Alpha  occ. eigenvalues --   -1.13959  -1.13933  -1.13619  -1.13611  -1.13581
 Alpha  occ. eigenvalues --   -1.13343  -1.13316  -1.13304  -1.13180  -1.13124
 Alpha  occ. eigenvalues --   -1.13081  -1.13038  -1.13008  -1.12992  -1.12854
 Alpha  occ. eigenvalues --   -1.12782  -1.12722  -1.12720  -1.12687  -1.12672
 Alpha  occ. eigenvalues --   -0.18338  -0.13377  -0.12113  -0.10473
 Alpha virt. eigenvalues --   -0.05988  -0.05485  -0.04507  -0.03215  -0.02645
 Alpha virt. eigenvalues --   -0.02334  -0.01870  -0.01211  -0.00597  -0.00405
 Alpha virt. eigenvalues --   -0.00049   0.00305   0.00708   0.00822   0.00831

  Beta  occ. eigenvalues --  -38.44484 -38.44103 -38.43820 -38.43619 -38.43417
  Beta  occ. eigenvalues --  -38.43224 -38.43050  -2.20301  -2.19934  -2.19625
  Beta  occ. eigenvalues --   -2.19456  -2.19193  -2.19061  -2.19033  -1.13973
  Beta  occ. eigenvalues --   -1.13958  -1.13937  -1.13608  -1.13593  -1.13567
  Beta  occ. eigenvalues --   -1.13303  -1.13287  -1.13268  -1.13174  -1.13100
  Beta  occ. eigenvalues --   -1.13079  -1.12914  -1.12881  -1.12858  -1.12830
  Beta  occ. eigenvalues --   -1.12732  -1.12708  -1.12681  -1.12672  -1.12648
  Beta  occ. eigenvalues --   -0.17684  -0.13146  -0.11908
  Beta virt. eigenvalues --   -0.06572  -0.05891  -0.05443  -0.04433  -0.02556
  Beta virt. eigenvalues --   -0.01938  -0.01778  -0.01309  -0.01143  -0.00570
  Beta virt. eigenvalues --   -0.00442   0.00149   0.00369   0.00804   0.00826

 Mulliken charges and spin densities:
               1          2
     1  Na   0.051820  -0.015603
     2  Na   0.051856   0.198085
     3  Na   0.127566   0.113043
     4  Na   0.115154  -0.015518
     5  Na  -0.520131   0.701594
     6  Na  -0.085980  -0.055025
     7  Na   0.259715   0.073423
 Sum of Mulliken charges =  -0.00000   1.00000

 Dipole moment (field-independent basis, Debye):
    X=              0.2443    Y=             -0.0217    Z=              0.1579  Tot=              0.2917
 Quadrupole moment (field-independent basis, Debye-Ang):
   XX=            -52.5789   YY=            -64.2397   ZZ=            -75.5884
   XY=             -0.2096   XZ=              1.8611   YZ=              0.5643

 Normal termination of Gaussian 16 at Fri Dec  8 03:43:38 2023.
