 Gaussian 16, Revision B.01,
 Gaussian 16:  ES64L-G16RevB.01 20-Dec-2017

 -------------------------
 #P B3LYP/6-311+g(d) force
 -------------------------

 -----
 DPGEN
 -----
 Symbolic Z-matrix:
 Charge =  0 Multiplicity = 2

                         Standard orientation:
 ---------------------------------------------------------------------
 Center     Atomic      Atomic             Coordinates (Angstroms)
 Number     Number       Type             X           Y           Z
 ---------------------------------------------------------------------
      1         11           0       -2.597111   -1.131153   -0.093984
      2         11           0        3.138715    0.046386    0.063740
      3         11           0        0.628480   -2.576036   -0.196275
      4         11           0       -0.194852   -0.095356   -2.076325
      5         11           0       -0.295983   -0.490889    2.181901
      6         11           0        1.270869    2.065836    0.048521
      7         11           0       -1.950118    2.181211    0.072421
 ---------------------------------------------------------------------

 SCF Done:  E(UB3LYP) =  -1136.13122382     A.U. after   19 cycles

 The electronic state is 2-A.
 Alpha  occ. eigenvalues --  -38.44250 -38.44111 -38.44088 -38.43767 -38.43177
 Alpha  occ. eigenvalues --  -38.43093 -38.43082  -2.20153  -2.20035  -2.19991
 Alpha  occ. eigenvalues --   -2.19666  -2.19062  -2.19048  -2.18974  -1.13826
 Alpha  occ. eigenvalues --   -1.13818  -1.13783  -1.13775  -1.13712  -1.13674
 Alpha  occ. eigenvalues --   -1.13656  -1.13616  -1.13594  -1.13344  -1.13339
 Alpha  occ. eigenvalues --   -1.13285  -1.12785  -1.12720  -1.12707  -1.12696
 Alpha  occ. eigenvalues --   -1.12686  -1.12667  -1.12651  -1.12647  -1.12583
 Alpha  occ. eigenvalues --   -0.19182  -0.13150  -0.12352  -0.11695
 Alpha virt. eigenvalues --   -0.05539  -0.04753  -0.04120  -0.03573  -0.03405
 Alpha virt. eigenvalues --   -0.03167  -0.01302  -0.00796  -0.00171   0.00089
 Alpha virt. eigenvalues --    0.00269   0.00403   0.00839   0.00852   0.00964

  Beta  occ. eigenvalues --  -38.44159 -38.44112 -38.43998 -38.43759 -38.43175
  Beta  occ. eigenvalues --  -38.43086 -38.43073  -2.19997  -2.19984  -2.19872
  Beta  occ. eigenvalues --   -2.19657  -2.19054  -2.19047  -2.18963  -1.13831
  Beta  occ. eigenvalues --   -1.13712  -1.13662  -1.13653  -1.13611  -1.13602
  Beta  occ. eigenvalues --   -1.13600  -1.13554  -1.13537  -1.13335  -1.13296
  Beta  occ. eigenvalues --   -1.13285  -1.12787  -1.12718  -1.12698  -1.12680
  Beta  occ. eigenvalues --   -1.12658  -1.12653  -1.12646  -1.12612  -1.12581
  Beta  occ. eigenvalues --   -0.18371  -0.12926  -0.12099
  Beta virt. eigenvalues --   -0.07703  -0.05474  -0.04738  -0.04086  -0.02732
  Beta virt. eigenvalues --   -0.02452  -0.02222  -0.01231  -0.00752   0.00009
  Beta virt. eigenvalues --    0.00027   0.00236   0.00415   0.00899   0.00981

 Mulliken charges and spin densities:
               1          2
     1  Na   0.579414   0.000502
     2  Na   0.010328  -0.117139
     3  Na   0.408479  -0.029052
     4  Na  -0.554618   0.517710
     5  Na  -0.708691   0.571100
     6  Na   0.168913   0.083262
     7  Na   0.096174  -0.026383
 Sum of Mulliken charges =  -0.00000   1.00000

 Dipole moment (field-independent basis, Debye):
    X=             -0.1840    Y=             -0.3586    Z=              0.1099  Tot=              0.4177
 Quadrupole moment (field-independent basis, Debye-Ang):
   XX=            -59.6015   YY=            -68.9249   ZZ=            -68.2541
   XY=             -1.2565   XZ=              0.1220   YZ=              0.5666

 Normal termination of Gaussian 16 at Tue Dec  5 18:05:09 2023.
