 Gaussian 16, Revision B.01,
 Gaussian 16:  ES64L-G16RevB.01 20-Dec-2017

 -------------------------
 #P B3LYP/6-311+g(d) force
 -------------------------

 -----
 DPGEN
 -----
 Symbolic Z-matrix:
 Charge =  0 Multiplicity = 2

                         Standard orientation:
 ---------------------------------------------------------------------
 Center     Atomic      Atomic             Coordinates (Angstroms)
 Number     Number       Type             X           Y           Z
 ---------------------------------------------------------------------
      1         11           0       -1.586508   -1.669410   -0.451044
      2         11           0        1.609844    2.112835   -0.124464
      3         11           0        3.790291    0.027334    0.545673
      4         11           0       -1.225689    1.641483   -1.213632
      5         11           0       -0.015804   -0.277156    1.388040
      6         11           0        1.528304   -2.073386   -0.824676
      7         11           0       -4.100438    0.238300    0.680103
 ---------------------------------------------------------------------

 SCF Done:  E(UB3LYP) =  -1136.11635967     A.U. after   23 cycles

 The electronic state is 2-A.
 Alpha  occ. eigenvalues --  -38.45670 -38.44195 -38.44032 -38.43450 -38.43351
 Alpha  occ. eigenvalues --  -38.43300 -38.42918  -2.21652  -2.20031  -2.19910
 Alpha  occ. eigenvalues --   -2.19366  -2.19359  -2.19202  -2.18855  -1.15435
 Alpha  occ. eigenvalues --   -1.15310  -1.15240  -1.13685  -1.13674  -1.13639
 Alpha  occ. eigenvalues --   -1.13582  -1.13557  -1.13528  -1.13123  -1.13070
 Alpha  occ. eigenvalues --   -1.13043  -1.13014  -1.12998  -1.12945  -1.12863
 Alpha  occ. eigenvalues --   -1.12853  -1.12817  -1.12536  -1.12511  -1.12492
 Alpha  occ. eigenvalues --   -0.18953  -0.14464  -0.11983  -0.10614
 Alpha virt. eigenvalues --   -0.07102  -0.04911  -0.04319  -0.03524  -0.03102
 Alpha virt. eigenvalues --   -0.02339  -0.01489  -0.01320  -0.00854  -0.00140
 Alpha virt. eigenvalues --   -0.00047   0.00150   0.00414   0.00806   0.00834

  Beta  occ. eigenvalues --  -38.45672 -38.44112 -38.43973 -38.43412 -38.43335
  Beta  occ. eigenvalues --  -38.43289 -38.42907  -2.21658  -2.19874  -2.19799
  Beta  occ. eigenvalues --   -2.19337  -2.19300  -2.19186  -2.18842  -1.15427
  Beta  occ. eigenvalues --   -1.15308  -1.15254  -1.13579  -1.13564  -1.13539
  Beta  occ. eigenvalues --   -1.13512  -1.13481  -1.13455  -1.13109  -1.13013
  Beta  occ. eigenvalues --   -1.13006  -1.12957  -1.12949  -1.12925  -1.12855
  Beta  occ. eigenvalues --   -1.12839  -1.12778  -1.12534  -1.12494  -1.12450
  Beta  occ. eigenvalues --   -0.18449  -0.13780  -0.11650
  Beta virt. eigenvalues --   -0.07125  -0.06901  -0.04764  -0.03709  -0.03232
  Beta virt. eigenvalues --   -0.02755  -0.02098  -0.01078  -0.01001  -0.00432
  Beta virt. eigenvalues --    0.00050   0.00099   0.00208   0.00579   0.00878

 Mulliken charges and spin densities:
               1          2
     1  Na   0.150788   0.205237
     2  Na  -0.238231   0.058188
     3  Na   0.681723   0.403698
     4  Na  -0.127501   0.038333
     5  Na  -0.874511  -0.257510
     6  Na  -0.229259   0.057110
     7  Na   0.636991   0.494945
 Sum of Mulliken charges =  -0.00000   1.00000

 Dipole moment (field-independent basis, Debye):
    X=              0.0060    Y=             -0.1074    Z=             -0.2725  Tot=              0.2929
 Quadrupole moment (field-independent basis, Debye-Ang):
   XX=            -62.3606   YY=            -75.6036   ZZ=            -64.3963
   XY=             -2.2713   XZ=              0.1145   YZ=              1.3497

 Normal termination of Gaussian 16 at Tue Dec  5 21:31:41 2023.
