 Gaussian 16, Revision B.01,
 Gaussian 16:  ES64L-G16RevB.01 20-Dec-2017

 -------------------------
 #P B3LYP/6-311+g(d) force
 -------------------------

 -----
 DPGEN
 -----
 Symbolic Z-matrix:
 Charge =  0 Multiplicity = 2

                         Standard orientation:
 ---------------------------------------------------------------------
 Center     Atomic      Atomic             Coordinates (Angstroms)
 Number     Number       Type             X           Y           Z
 ---------------------------------------------------------------------
      1         11           0        1.510467    2.496979    0.284353
      2         11           0       -2.095299    1.639177   -1.177740
      3         11           0        0.544546   -0.228364   -1.792192
      4         11           0       -1.446143    0.687530    2.146141
      5         11           0        3.375924   -1.049234   -0.033634
      6         11           0        0.736301   -1.483475    0.833006
      7         11           0       -2.625796   -2.062612   -0.259935
 ---------------------------------------------------------------------

 SCF Done:  E(UB3LYP) =  -1136.12424238     A.U. after   21 cycles

 The electronic state is 2-A.
 Alpha  occ. eigenvalues --  -38.44232 -38.44211 -38.43989 -38.43932 -38.43750
 Alpha  occ. eigenvalues --  -38.43584 -38.43160  -2.20112  -2.20065  -2.19956
 Alpha  occ. eigenvalues --   -2.19769  -2.19539  -2.19368  -2.19180  -1.13907
 Alpha  occ. eigenvalues --   -1.13762  -1.13756  -1.13722  -1.13707  -1.13699
 Alpha  occ. eigenvalues --   -1.13657  -1.13600  -1.13549  -1.13448  -1.13417
 Alpha  occ. eigenvalues --   -1.13374  -1.13206  -1.13203  -1.13182  -1.13047
 Alpha  occ. eigenvalues --   -1.13037  -1.12997  -1.12876  -1.12817  -1.12770
 Alpha  occ. eigenvalues --   -0.18575  -0.13310  -0.11564  -0.11465
 Alpha virt. eigenvalues --   -0.05716  -0.05389  -0.04176  -0.03300  -0.02993
 Alpha virt. eigenvalues --   -0.02817  -0.01751  -0.01189  -0.00427   0.00036
 Alpha virt. eigenvalues --    0.00301   0.00338   0.00535   0.00690   0.00850

  Beta  occ. eigenvalues --  -38.44233 -38.44129 -38.43927 -38.43903 -38.43749
  Beta  occ. eigenvalues --  -38.43580 -38.43136  -2.20115  -2.19914  -2.19844
  Beta  occ. eigenvalues --   -2.19719  -2.19539  -2.19364  -2.19141  -1.13906
  Beta  occ. eigenvalues --   -1.13747  -1.13718  -1.13650  -1.13644  -1.13601
  Beta  occ. eigenvalues --   -1.13550  -1.13520  -1.13468  -1.13389  -1.13382
  Beta  occ. eigenvalues --   -1.13341  -1.13207  -1.13187  -1.13185  -1.13037
  Beta  occ. eigenvalues --   -1.13026  -1.12997  -1.12842  -1.12771  -1.12740
  Beta  occ. eigenvalues --   -0.17823  -0.13102  -0.11343
  Beta virt. eigenvalues --   -0.07478  -0.05618  -0.05301  -0.03637  -0.03124
  Beta virt. eigenvalues --   -0.02170  -0.01951  -0.01665  -0.01110  -0.00142
  Beta virt. eigenvalues --    0.00047   0.00313   0.00352   0.00706   0.00747

 Mulliken charges and spin densities:
               1          2
     1  Na  -0.380624  -0.020428
     2  Na   0.033503   0.020169
     3  Na  -0.044936   0.453580
     4  Na   0.107987   0.373077
     5  Na   0.675989  -0.055140
     6  Na  -0.458224   0.304901
     7  Na   0.066304  -0.076159
 Sum of Mulliken charges =  -0.00000   1.00000

 Dipole moment (field-independent basis, Debye):
    X=              0.0691    Y=              0.2450    Z=             -0.0458  Tot=              0.2587
 Quadrupole moment (field-independent basis, Debye-Ang):
   XX=            -53.2731   YY=            -71.4171   ZZ=            -68.7485
   XY=              0.5416   XZ=              0.9102   YZ=              1.4135

 Normal termination of Gaussian 16 at Fri Dec  8 00:29:54 2023.
