 Gaussian 16, Revision B.01,
 Gaussian 16:  ES64L-G16RevB.01 20-Dec-2017

 -------------------------
 #P B3LYP/6-311+g(d) force
 -------------------------

 -----
 DPGEN
 -----
 Symbolic Z-matrix:
 Charge =  0 Multiplicity = 2

                         Standard orientation:
 ---------------------------------------------------------------------
 Center     Atomic      Atomic             Coordinates (Angstroms)
 Number     Number       Type             X           Y           Z
 ---------------------------------------------------------------------
      1         11           0        3.866136   -0.088436    0.108434
      2         11           0        1.009966    1.438874   -0.978846
      3         11           0       -2.101147   -0.372544   -1.680407
      4         11           0        0.695935    0.523612    1.553737
      5         11           0       -2.225485   -1.801586    1.337864
      6         11           0        0.639048   -2.259716   -0.676636
      7         11           0       -1.884453    2.559796    0.335854
 ---------------------------------------------------------------------

 SCF Done:  E(UB3LYP) =  -1136.12951725     A.U. after   19 cycles

 The electronic state is 2-A.
 Alpha  occ. eigenvalues --  -38.44572 -38.43783 -38.43695 -38.43673 -38.43508
 Alpha  occ. eigenvalues --  -38.43463 -38.43086  -2.20371  -2.19770  -2.19554
 Alpha  occ. eigenvalues --   -2.19531  -2.19492  -2.19309  -2.18923  -1.14048
 Alpha  occ. eigenvalues --   -1.14031  -1.14002  -1.13760  -1.13393  -1.13333
 Alpha  occ. eigenvalues --   -1.13251  -1.13236  -1.13192  -1.13176  -1.13167
 Alpha  occ. eigenvalues --   -1.13136  -1.13132  -1.13098  -1.13039  -1.13007
 Alpha  occ. eigenvalues --   -1.12988  -1.12903  -1.12586  -1.12577  -1.12575
 Alpha  occ. eigenvalues --   -0.18586  -0.13316  -0.11927  -0.10877
 Alpha virt. eigenvalues --   -0.06166  -0.04790  -0.04235  -0.03508  -0.02766
 Alpha virt. eigenvalues --   -0.02416  -0.02098  -0.00964  -0.00544   0.00089
 Alpha virt. eigenvalues --    0.00241   0.00269   0.00528   0.00773   0.00877

  Beta  occ. eigenvalues --  -38.44574 -38.43729 -38.43659 -38.43624 -38.43486
  Beta  occ. eigenvalues --  -38.43447 -38.43083  -2.20375  -2.19674  -2.19465
  Beta  occ. eigenvalues --   -2.19464  -2.19452  -2.19284  -2.18921  -1.14046
  Beta  occ. eigenvalues --   -1.14032  -1.14005  -1.13700  -1.13325  -1.13262
  Beta  occ. eigenvalues --   -1.13194  -1.13170  -1.13137  -1.13120  -1.13115
  Beta  occ. eigenvalues --   -1.13099  -1.13079  -1.13040  -1.13011  -1.12993
  Beta  occ. eigenvalues --   -1.12940  -1.12891  -1.12579  -1.12578  -1.12561
  Beta  occ. eigenvalues --   -0.17861  -0.13141  -0.11727
  Beta virt. eigenvalues --   -0.06943  -0.06052  -0.04765  -0.03870  -0.03111
  Beta virt. eigenvalues --   -0.02153  -0.02025  -0.01459  -0.00885  -0.00174
  Beta virt. eigenvalues --    0.00089   0.00253   0.00303   0.00669   0.00800

 Mulliken charges and spin densities:
               1          2
     1  Na   0.384845  -0.035546
     2  Na  -0.016002   0.334915
     3  Na   0.101700   0.243870
     4  Na  -0.288334   0.444857
     5  Na  -0.058240   0.065866
     6  Na  -0.214156   0.075625
     7  Na   0.090188  -0.129587
 Sum of Mulliken charges =  -0.00000   1.00000

 Dipole moment (field-independent basis, Debye):
    X=              0.6384    Y=             -0.2030    Z=              0.0265  Tot=              0.6704
 Quadrupole moment (field-independent basis, Debye-Ang):
   XX=            -50.3514   YY=            -70.8541   ZZ=            -70.4604
   XY=             -2.0820   XZ=             -1.0173   YZ=             -0.3402

 Normal termination of Gaussian 16 at Thu Dec  7 18:29:04 2023.
