 Gaussian 16, Revision B.01,
 Gaussian 16:  ES64L-G16RevB.01 20-Dec-2017

 -------------------------
 #P B3LYP/6-311+g(d) force
 -------------------------

 -----
 DPGEN
 -----
 Symbolic Z-matrix:
 Charge =  0 Multiplicity = 2

                         Standard orientation:
 ---------------------------------------------------------------------
 Center     Atomic      Atomic             Coordinates (Angstroms)
 Number     Number       Type             X           Y           Z
 ---------------------------------------------------------------------
      1         11           0        1.561207   -2.292006   -0.022172
      2         11           0        0.254289    2.909300   -0.382740
      3         11           0       -3.004670    1.078882    0.181483
      4         11           0       -2.216741   -2.030224   -0.071172
      5         11           0       -0.455731   -0.253441   -1.551847
      6         11           0        3.634324    0.390562   -0.178307
      7         11           0        0.227322    0.196927    2.024756
 ---------------------------------------------------------------------

 SCF Done:  E(UB3LYP) =  -1136.12912918     A.U. after   20 cycles

 The electronic state is 2-A.
 Alpha  occ. eigenvalues --  -38.45152 -38.44413 -38.43568 -38.43519 -38.43322
 Alpha  occ. eigenvalues --  -38.43280 -38.43222  -2.20909  -2.20263  -2.19479
 Alpha  occ. eigenvalues --   -2.19396  -2.19296  -2.19191  -2.19030  -1.14582
 Alpha  occ. eigenvalues --   -1.14572  -1.14544  -1.13951  -1.13927  -1.13893
 Alpha  occ. eigenvalues --   -1.13303  -1.13118  -1.13100  -1.13075  -1.13025
 Alpha  occ. eigenvalues --   -1.13009  -1.12978  -1.12936  -1.12890  -1.12858
 Alpha  occ. eigenvalues --   -1.12847  -1.12803  -1.12713  -1.12695  -1.12654
 Alpha  occ. eigenvalues --   -0.18570  -0.13354  -0.12045  -0.10491
 Alpha virt. eigenvalues --   -0.06593  -0.05042  -0.04334  -0.03316  -0.02676
 Alpha virt. eigenvalues --   -0.02289  -0.02147  -0.01146  -0.00498  -0.00286
 Alpha virt. eigenvalues --   -0.00048   0.00290   0.00721   0.00757   0.00832

  Beta  occ. eigenvalues --  -38.45153 -38.44408 -38.43562 -38.43425 -38.43315
  Beta  occ. eigenvalues --  -38.43221 -38.43214  -2.20913  -2.20256  -2.19470
  Beta  occ. eigenvalues --   -2.19222  -2.19190  -2.19182  -2.19018  -1.14579
  Beta  occ. eigenvalues --   -1.14572  -1.14547  -1.13950  -1.13901  -1.13888
  Beta  occ. eigenvalues --   -1.13278  -1.13104  -1.13078  -1.12970  -1.12925
  Beta  occ. eigenvalues --   -1.12902  -1.12885  -1.12866  -1.12826  -1.12825
  Beta  occ. eigenvalues --   -1.12810  -1.12791  -1.12698  -1.12673  -1.12649
  Beta  occ. eigenvalues --   -0.17846  -0.13168  -0.11796
  Beta virt. eigenvalues --   -0.06598  -0.06516  -0.05043  -0.04294  -0.02565
  Beta virt. eigenvalues --   -0.02054  -0.01909  -0.01284  -0.01102  -0.00512
  Beta virt. eigenvalues --   -0.00317   0.00113   0.00326   0.00767   0.00843

 Mulliken charges and spin densities:
               1          2
     1  Na   0.218504  -0.033748
     2  Na  -0.111322  -0.102666
     3  Na   0.235644   0.024500
     4  Na   0.530378   0.055476
     5  Na  -0.296653   0.450125
     6  Na  -0.065501  -0.079542
     7  Na  -0.511049   0.685855
 Sum of Mulliken charges =  -0.00000   1.00000

 Dipole moment (field-independent basis, Debye):
    X=              0.3486    Y=              0.2109    Z=              0.1956  Tot=              0.4520
 Quadrupole moment (field-independent basis, Debye-Ang):
   XX=            -49.7332   YY=            -66.5469   ZZ=            -75.7994
   XY=              0.7505   XZ=             -1.6487   YZ=             -0.8290

 Normal termination of Gaussian 16 at Fri Dec  8 06:06:47 2023.
