 Gaussian 16, Revision B.01,
 Gaussian 16:  ES64L-G16RevB.01 20-Dec-2017

 -------------------------
 #P B3LYP/6-311+g(d) force
 -------------------------

 -----
 DPGEN
 -----
 Symbolic Z-matrix:
 Charge =  0 Multiplicity = 2

                         Standard orientation:
 ---------------------------------------------------------------------
 Center     Atomic      Atomic             Coordinates (Angstroms)
 Number     Number       Type             X           Y           Z
 ---------------------------------------------------------------------
      1         11           0       -2.922341   -1.230283   -0.716282
      2         11           0        1.895183   -1.059407    2.487763
      3         11           0        2.358264   -0.499628   -1.627832
      4         11           0       -0.330999   -2.703868   -0.367281
      5         11           0       -0.213460    0.758710    0.279011
      6         11           0       -3.271396    2.242177    0.502686
      7         11           0        2.484751    2.492299   -0.558065
 ---------------------------------------------------------------------

 SCF Done:  E(UB3LYP) =  -1136.12342932     A.U. after   20 cycles

 The electronic state is 2-A.
 Alpha  occ. eigenvalues --  -38.44729 -38.44492 -38.44205 -38.44155 -38.43708
 Alpha  occ. eigenvalues --  -38.43043 -38.42861  -2.20539  -2.20347  -2.20058
 Alpha  occ. eigenvalues --   -2.19985  -2.19491  -2.19000  -2.18740  -1.14191
 Alpha  occ. eigenvalues --   -1.14157  -1.14141  -1.14033  -1.14000  -1.13978
 Alpha  occ. eigenvalues --   -1.13769  -1.13722  -1.13670  -1.13650  -1.13636
 Alpha  occ. eigenvalues --   -1.13621  -1.13161  -1.13153  -1.13124  -1.12722
 Alpha  occ. eigenvalues --   -1.12672  -1.12621  -1.12433  -1.12390  -1.12374
 Alpha  occ. eigenvalues --   -0.17790  -0.13496  -0.11957  -0.11151
 Alpha virt. eigenvalues --   -0.06189  -0.05584  -0.04252  -0.03290  -0.02987
 Alpha virt. eigenvalues --   -0.02444  -0.01725  -0.01294  -0.00831  -0.00517
 Alpha virt. eigenvalues --   -0.00085   0.00253   0.00372   0.00610   0.00707

  Beta  occ. eigenvalues --  -38.44606 -38.44458 -38.44192 -38.44148 -38.43703
  Beta  occ. eigenvalues --  -38.43032 -38.42853  -2.20312  -2.20283  -2.20035
  Beta  occ. eigenvalues --   -2.19975  -2.19482  -2.18982  -2.18728  -1.14031
  Beta  occ. eigenvalues --   -1.14003  -1.13991  -1.13988  -1.13956  -1.13928
  Beta  occ. eigenvalues --   -1.13754  -1.13705  -1.13649  -1.13647  -1.13618
  Beta  occ. eigenvalues --   -1.13612  -1.13152  -1.13147  -1.13120  -1.12678
  Beta  occ. eigenvalues --   -1.12665  -1.12616  -1.12424  -1.12383  -1.12347
  Beta  occ. eigenvalues --   -0.17250  -0.13190  -0.11639
  Beta virt. eigenvalues --   -0.07329  -0.05969  -0.05230  -0.04182  -0.02807
  Beta virt. eigenvalues --   -0.02365  -0.01886  -0.01565  -0.01126  -0.00651
  Beta virt. eigenvalues --   -0.00210   0.00019   0.00316   0.00550   0.00678

 Mulliken charges and spin densities:
               1          2
     1  Na   0.009486  -0.110367
     2  Na   0.095613   0.378127
     3  Na   0.420132   0.171540
     4  Na   0.566334   0.219157
     5  Na  -1.906632   0.388951
     6  Na   0.457166  -0.091321
     7  Na   0.357900   0.043912
 Sum of Mulliken charges =  -0.00000   1.00000

 Dipole moment (field-independent basis, Debye):
    X=              0.6162    Y=              0.1636    Z=             -0.1584  Tot=              0.6569
 Quadrupole moment (field-independent basis, Debye-Ang):
   XX=            -57.0938   YY=            -65.6633   ZZ=            -70.5967
   XY=              0.6993   XZ=              0.3346   YZ=              1.4590

 Normal termination of Gaussian 16 at Tue Dec  5 14:39:31 2023.
