 Gaussian 16, Revision B.01,
 Gaussian 16:  ES64L-G16RevB.01 20-Dec-2017

 -------------------------
 #P B3LYP/6-311+g(d) force
 -------------------------

 -----
 DPGEN
 -----
 Symbolic Z-matrix:
 Charge =  0 Multiplicity = 2

                         Standard orientation:
 ---------------------------------------------------------------------
 Center     Atomic      Atomic             Coordinates (Angstroms)
 Number     Number       Type             X           Y           Z
 ---------------------------------------------------------------------
      1         11           0        0.057551    0.913295   -1.743118
      2         11           0        0.650018   -2.146094   -0.872132
      3         11           0        3.616370   -0.898627    0.123390
      4         11           0       -3.345551    1.615373   -0.131792
      5         11           0       -3.034031   -1.731359    0.330441
      6         11           0        2.016271    2.354718    0.350226
      7         11           0        0.039371   -0.107306    1.942984
 ---------------------------------------------------------------------

 SCF Done:  E(UB3LYP) =  -1136.11976822     A.U. after   24 cycles

 The electronic state is 2-A.
 Alpha  occ. eigenvalues --  -38.45604 -38.45071 -38.44553 -38.44403 -38.43441
 Alpha  occ. eigenvalues --  -38.43219 -38.42698  -2.21378  -2.20830  -2.20387
 Alpha  occ. eigenvalues --   -2.20189  -2.19340  -2.19060  -2.18579  -1.15051
 Alpha  occ. eigenvalues --   -1.15038  -1.15016  -1.14505  -1.14488  -1.14473
 Alpha  occ. eigenvalues --   -1.14078  -1.14025  -1.13998  -1.13861  -1.13842
 Alpha  occ. eigenvalues --   -1.13833  -1.13029  -1.13004  -1.12950  -1.12726
 Alpha  occ. eigenvalues --   -1.12724  -1.12694  -1.12280  -1.12231  -1.12195
 Alpha  occ. eigenvalues --   -0.18012  -0.13596  -0.11278  -0.10734
 Alpha virt. eigenvalues --   -0.07223  -0.05775  -0.03559  -0.03386  -0.02995
 Alpha virt. eigenvalues --   -0.02510  -0.02422  -0.01586  -0.00646  -0.00313
 Alpha virt. eigenvalues --    0.00019   0.00124   0.00414   0.00583   0.00635

  Beta  occ. eigenvalues --  -38.45606 -38.45069 -38.44484 -38.44399 -38.43365
  Beta  occ. eigenvalues --  -38.43214 -38.42666  -2.21384  -2.20829  -2.20261
  Beta  occ. eigenvalues --   -2.20182  -2.19200  -2.19053  -2.18523  -1.15049
  Beta  occ. eigenvalues --   -1.15037  -1.15019  -1.14502  -1.14482  -1.14472
  Beta  occ. eigenvalues --   -1.13991  -1.13938  -1.13903  -1.13845  -1.13838
  Beta  occ. eigenvalues --   -1.13829  -1.12938  -1.12908  -1.12848  -1.12718
  Beta  occ. eigenvalues --   -1.12706  -1.12679  -1.12241  -1.12174  -1.12155
  Beta  occ. eigenvalues --   -0.17278  -0.13433  -0.11068
  Beta virt. eigenvalues --   -0.07102  -0.06875  -0.05700  -0.03343  -0.02883
  Beta virt. eigenvalues --   -0.02690  -0.02000  -0.01496  -0.01453  -0.00687
  Beta virt. eigenvalues --   -0.00083   0.00021   0.00149   0.00554   0.00665

 Mulliken charges and spin densities:
               1          2
     1  Na   0.296575   0.269934
     2  Na  -0.328185   0.177946
     3  Na   0.115947  -0.028907
     4  Na  -0.009761  -0.010587
     5  Na   0.063222   0.060816
     6  Na  -0.130606   0.085789
     7  Na  -0.007191   0.445008
 Sum of Mulliken charges =  -0.00000   1.00000

 Dipole moment (field-independent basis, Debye):
    X=             -0.0337    Y=              0.0307    Z=              0.3860  Tot=              0.3886
 Quadrupole moment (field-independent basis, Debye-Ang):
   XX=            -45.5958   YY=            -72.2999   ZZ=            -74.4884
   XY=             -1.2520   XZ=              0.4873   YZ=              0.5708

 Normal termination of Gaussian 16 at Wed Nov 29 16:06:38 2023.
