 Gaussian 16, Revision B.01,
 Gaussian 16:  ES64L-G16RevB.01 20-Dec-2017

 -------------------------
 #P B3LYP/6-311+g(d) force
 -------------------------

 -----
 DPGEN
 -----
 Symbolic Z-matrix:
 Charge =  0 Multiplicity = 2

                         Standard orientation:
 ---------------------------------------------------------------------
 Center     Atomic      Atomic             Coordinates (Angstroms)
 Number     Number       Type             X           Y           Z
 ---------------------------------------------------------------------
      1         11           0        2.374851    1.773052    0.090598
      2         11           0        2.543854   -1.985321    0.005867
      3         11           0       -3.121811   -0.160860   -0.125711
      4         11           0        0.327150    0.144456   -1.641542
      5         11           0       -0.078970   -0.112575    1.706521
      6         11           0       -1.145309   -2.396090   -0.069710
      7         11           0       -0.899764    2.737337    0.033976
 ---------------------------------------------------------------------

 SCF Done:  E(UB3LYP) =  -1136.13555427     A.U. after   19 cycles

 The electronic state is 2-A.
 Alpha  occ. eigenvalues --  -38.43916 -38.43901 -38.43816 -38.43383 -38.43359
 Alpha  occ. eigenvalues --  -38.42979 -38.42936  -2.19794  -2.19780  -2.19634
 Alpha  occ. eigenvalues --   -2.19334  -2.19235  -2.18987  -2.18954  -1.13534
 Alpha  occ. eigenvalues --   -1.13491  -1.13446  -1.13440  -1.13428  -1.13397
 Alpha  occ. eigenvalues --   -1.13307  -1.13289  -1.13281  -1.13061  -1.12993
 Alpha  occ. eigenvalues --   -1.12939  -1.12928  -1.12907  -1.12861  -1.12694
 Alpha  occ. eigenvalues --   -1.12622  -1.12607  -1.12590  -1.12580  -1.12553
 Alpha  occ. eigenvalues --   -0.19187  -0.13258  -0.12639  -0.10456
 Alpha virt. eigenvalues --   -0.05499  -0.05391  -0.04614  -0.03110  -0.02726
 Alpha virt. eigenvalues --   -0.02112  -0.01574  -0.01254  -0.00293  -0.00151
 Alpha virt. eigenvalues --    0.00032   0.00350   0.00802   0.00882   0.00923

  Beta  occ. eigenvalues --  -38.43913 -38.43895 -38.43814 -38.43372 -38.43352
  Beta  occ. eigenvalues --  -38.42898 -38.42864  -2.19791  -2.19772  -2.19634
  Beta  occ. eigenvalues --   -2.19320  -2.19227  -2.18839  -2.18822  -1.13534
  Beta  occ. eigenvalues --   -1.13482  -1.13430  -1.13414  -1.13411  -1.13397
  Beta  occ. eigenvalues --   -1.13293  -1.13285  -1.13281  -1.13046  -1.12945
  Beta  occ. eigenvalues --   -1.12936  -1.12923  -1.12870  -1.12860  -1.12602
  Beta  occ. eigenvalues --   -1.12525  -1.12504  -1.12494  -1.12475  -1.12457
  Beta  occ. eigenvalues --   -0.18454  -0.12994  -0.12382
  Beta virt. eigenvalues --   -0.06533  -0.05468  -0.05390  -0.04613  -0.02279
  Beta virt. eigenvalues --   -0.01959  -0.01496  -0.01202  -0.01075  -0.00354
  Beta virt. eigenvalues --   -0.00193   0.00165   0.00381   0.00842   0.00886

 Mulliken charges and spin densities:
               1          2
     1  Na   0.179297  -0.125838
     2  Na   0.118426  -0.117167
     3  Na   0.064414  -0.036193
     4  Na  -0.449489   0.680607
     5  Na  -0.440486   0.709130
     6  Na   0.345052  -0.031364
     7  Na   0.182785  -0.079177
 Sum of Mulliken charges =  -0.00000   1.00000

 Dipole moment (field-independent basis, Debye):
    X=              0.2228    Y=              0.1141    Z=              0.0330  Tot=              0.2525
 Quadrupole moment (field-independent basis, Debye-Ang):
   XX=            -54.4637   YY=            -61.4188   ZZ=            -76.0800
   XY=             -1.0805   XZ=              0.9616   YZ=              0.5423

 Normal termination of Gaussian 16 at Thu Dec  7 07:46:36 2023.
