 Gaussian 16, Revision B.01,
 Gaussian 16:  ES64L-G16RevB.01 20-Dec-2017

 -------------------------
 #P B3LYP/6-311+g(d) force
 -------------------------

 -----
 DPGEN
 -----
 Symbolic Z-matrix:
 Charge =  0 Multiplicity = 2

                         Standard orientation:
 ---------------------------------------------------------------------
 Center     Atomic      Atomic             Coordinates (Angstroms)
 Number     Number       Type             X           Y           Z
 ---------------------------------------------------------------------
      1         11           0        0.040769   -2.408845   -1.275454
      2         11           0        3.193633    2.724759   -0.042218
      3         11           0        3.164001   -1.250250   -0.290371
      4         11           0       -3.294990   -1.198220   -0.005869
      5         11           0        0.070564    1.422321    0.233224
      6         11           0       -3.311578    2.549621   -0.255071
      7         11           0        0.137601   -1.839385    1.635760
 ---------------------------------------------------------------------

 SCF Done:  E(UB3LYP) =  -1136.11696306     A.U. after   23 cycles

 The electronic state is 2-A.
 Alpha  occ. eigenvalues --  -38.44999 -38.44393 -38.44387 -38.44250 -38.43929
 Alpha  occ. eigenvalues --  -38.43758 -38.43472  -2.20762  -2.20294  -2.20262
 Alpha  occ. eigenvalues --   -2.20023  -2.19753  -2.19582  -2.19265  -1.14466
 Alpha  occ. eigenvalues --   -1.14417  -1.14388  -1.14119  -1.13967  -1.13925
 Alpha  occ. eigenvalues --   -1.13902  -1.13862  -1.13835  -1.13690  -1.13684
 Alpha  occ. eigenvalues --   -1.13655  -1.13436  -1.13406  -1.13359  -1.13301
 Alpha  occ. eigenvalues --   -1.13269  -1.13176  -1.12921  -1.12916  -1.12883
 Alpha  occ. eigenvalues --   -0.17564  -0.13297  -0.12623  -0.09685
 Alpha virt. eigenvalues --   -0.07095  -0.06042  -0.04749  -0.02859  -0.02626
 Alpha virt. eigenvalues --   -0.02167  -0.02130  -0.01717  -0.01530  -0.00522
 Alpha virt. eigenvalues --   -0.00064   0.00084   0.00232   0.00290   0.00702

  Beta  occ. eigenvalues --  -38.44998 -38.44369 -38.44358 -38.44234 -38.43879
  Beta  occ. eigenvalues --  -38.43751 -38.43417  -2.20763  -2.20243  -2.20220
  Beta  occ. eigenvalues --   -2.19993  -2.19662  -2.19571  -2.19161  -1.14470
  Beta  occ. eigenvalues --   -1.14418  -1.14365  -1.14090  -1.13934  -1.13898
  Beta  occ. eigenvalues --   -1.13850  -1.13811  -1.13790  -1.13670  -1.13659
  Beta  occ. eigenvalues --   -1.13637  -1.13372  -1.13349  -1.13284  -1.13282
  Beta  occ. eigenvalues --   -1.13262  -1.13166  -1.12850  -1.12846  -1.12817
  Beta  occ. eigenvalues --   -0.17128  -0.12842  -0.12162
  Beta virt. eigenvalues --   -0.06952  -0.06290  -0.05865  -0.04507  -0.02455
  Beta virt. eigenvalues --   -0.02306  -0.02083  -0.01847  -0.01399  -0.01095
  Beta virt. eigenvalues --   -0.00403   0.00107   0.00240   0.00350   0.00485

 Mulliken charges and spin densities:
               1          2
     1  Na   0.339137   0.123321
     2  Na   0.718515   0.043066
     3  Na  -0.094262   0.287339
     4  Na  -0.054668   0.001415
     5  Na  -1.933000  -0.057345
     6  Na   0.436153   0.304563
     7  Na   0.588126   0.297641
 Sum of Mulliken charges =  -0.00000   1.00000

 Dipole moment (field-independent basis, Debye):
    X=              0.1538    Y=             -0.9157    Z=              0.2286  Tot=              0.9563
 Quadrupole moment (field-independent basis, Debye-Ang):
   XX=            -59.7931   YY=            -68.8782   ZZ=            -69.9587
   XY=              8.3977   XZ=              2.2417   YZ=             -0.7387

 Normal termination of Gaussian 16 at Tue Dec  5 15:29:36 2023.
