 Gaussian 16, Revision B.01,
 Gaussian 16:  ES64L-G16RevB.01 20-Dec-2017

 -------------------------
 #P B3LYP/6-311+g(d) force
 -------------------------

 -----
 DPGEN
 -----
 Symbolic Z-matrix:
 Charge =  0 Multiplicity = 2

                         Standard orientation:
 ---------------------------------------------------------------------
 Center     Atomic      Atomic             Coordinates (Angstroms)
 Number     Number       Type             X           Y           Z
 ---------------------------------------------------------------------
      1         11           0       -0.830335    1.653138   -0.722702
      2         11           0        1.931492    3.322008    0.647700
      3         11           0        3.016227    0.352802   -0.569726
      4         11           0        0.611337   -1.699721   -0.553398
      5         11           0       -3.093995   -0.999572   -0.756311
      6         11           0        4.062580   -2.370697    0.922206
      7         11           0       -5.697305   -0.257960    1.032231
 ---------------------------------------------------------------------

 SCF Done:  E(UB3LYP) =  -1136.12379992     A.U. after   20 cycles

 The electronic state is 2-A.
 Alpha  occ. eigenvalues --  -38.44525 -38.44427 -38.44261 -38.44204 -38.44004
 Alpha  occ. eigenvalues --  -38.43421 -38.43361  -2.20338  -2.20276  -2.20076
 Alpha  occ. eigenvalues --   -2.20001  -2.19897  -2.19253  -2.19175  -1.14010
 Alpha  occ. eigenvalues --   -1.13973  -1.13968  -1.13962  -1.13958  -1.13846
 Alpha  occ. eigenvalues --   -1.13774  -1.13758  -1.13688  -1.13678  -1.13663
 Alpha  occ. eigenvalues --   -1.13625  -1.13611  -1.13575  -1.13459  -1.12939
 Alpha  occ. eigenvalues --   -1.12931  -1.12904  -1.12841  -1.12832  -1.12797
 Alpha  occ. eigenvalues --   -0.16985  -0.14101  -0.12175  -0.11252
 Alpha virt. eigenvalues --   -0.05941  -0.05196  -0.04881  -0.03794  -0.02484
 Alpha virt. eigenvalues --   -0.02397  -0.02255  -0.01455  -0.00967  -0.00591
 Alpha virt. eigenvalues --   -0.00418  -0.00022   0.00031   0.00412   0.00679

  Beta  occ. eigenvalues --  -38.44423 -38.44380 -38.44250 -38.44189 -38.43991
  Beta  occ. eigenvalues --  -38.43420 -38.43338  -2.20192  -2.20147  -2.20057
  Beta  occ. eigenvalues --   -2.19973  -2.19875  -2.19261  -2.19132  -1.13961
  Beta  occ. eigenvalues --   -1.13904  -1.13846  -1.13837  -1.13834  -1.13771
  Beta  occ. eigenvalues --   -1.13763  -1.13733  -1.13664  -1.13662  -1.13644
  Beta  occ. eigenvalues --   -1.13609  -1.13581  -1.13562  -1.13443  -1.12955
  Beta  occ. eigenvalues --   -1.12945  -1.12839  -1.12808  -1.12804  -1.12774
  Beta  occ. eigenvalues --   -0.16424  -0.13372  -0.11925
  Beta virt. eigenvalues --   -0.07778  -0.05701  -0.04854  -0.04475  -0.03595
  Beta virt. eigenvalues --   -0.02323  -0.02143  -0.01631  -0.01250  -0.00817
  Beta virt. eigenvalues --   -0.00342  -0.00119   0.00133   0.00209   0.00528

 Mulliken charges and spin densities:
               1          2
     1  Na  -0.338597  -0.065813
     2  Na   0.418355   0.120949
     3  Na  -0.458392   0.117978
     4  Na  -0.261767   0.224126
     5  Na  -0.178104  -0.021754
     6  Na   0.602679   0.156827
     7  Na   0.215826   0.467687
 Sum of Mulliken charges =  -0.00000   1.00000

 Dipole moment (field-independent basis, Debye):
    X=              0.6556    Y=             -0.2577    Z=              0.6268  Tot=              0.9429
 Quadrupole moment (field-independent basis, Debye-Ang):
   XX=            -61.6787   YY=            -66.5243   ZZ=            -68.1056
   XY=             -4.2186   XZ=              1.1646   YZ=             -0.2345

 Normal termination of Gaussian 16 at Wed Nov 29 00:38:46 2023.
