 Gaussian 16, Revision B.01,
 Gaussian 16:  ES64L-G16RevB.01 20-Dec-2017

 -------------------------
 #P B3LYP/6-311+g(d) force
 -------------------------

 -----
 DPGEN
 -----
 Symbolic Z-matrix:
 Charge =  0 Multiplicity = 2

                         Standard orientation:
 ---------------------------------------------------------------------
 Center     Atomic      Atomic             Coordinates (Angstroms)
 Number     Number       Type             X           Y           Z
 ---------------------------------------------------------------------
      1         11           0       -1.910072   -2.556781   -0.424091
      2         11           0        2.113748   -2.196627    0.743383
      3         11           0        0.524748   -0.214315   -1.594338
      4         11           0       -2.872139    0.718632   -0.314939
      5         11           0        2.874753    0.874756   -0.433501
      6         11           0       -0.124041    3.042628    0.052111
      7         11           0       -0.606997    0.331705    1.971374
 ---------------------------------------------------------------------

 SCF Done:  E(UB3LYP) =  -1136.13355707     A.U. after   19 cycles

 The electronic state is 2-A.
 Alpha  occ. eigenvalues --  -38.43936 -38.43896 -38.43877 -38.43665 -38.43656
 Alpha  occ. eigenvalues --  -38.43403 -38.43360  -2.19798  -2.19793  -2.19701
 Alpha  occ. eigenvalues --   -2.19562  -2.19463  -2.19384  -2.19196  -1.13634
 Alpha  occ. eigenvalues --   -1.13505  -1.13469  -1.13439  -1.13420  -1.13402
 Alpha  occ. eigenvalues --   -1.13361  -1.13354  -1.13325  -1.13229  -1.13197
 Alpha  occ. eigenvalues --   -1.13177  -1.13139  -1.13115  -1.13107  -1.13042
 Alpha  occ. eigenvalues --   -1.13002  -1.12984  -1.12875  -1.12858  -1.12828
 Alpha  occ. eigenvalues --   -0.18487  -0.13242  -0.12332  -0.10729
 Alpha virt. eigenvalues --   -0.05407  -0.05195  -0.04948  -0.03450  -0.02900
 Alpha virt. eigenvalues --   -0.02438  -0.01354  -0.01229  -0.00450  -0.00286
 Alpha virt. eigenvalues --    0.00004   0.00359   0.00819   0.00848   0.00863

  Beta  occ. eigenvalues --  -38.43930 -38.43884 -38.43854 -38.43649 -38.43586
  Beta  occ. eigenvalues --  -38.43358 -38.43347  -2.19789  -2.19775  -2.19660
  Beta  occ. eigenvalues --   -2.19453  -2.19415  -2.19283  -2.19196  -1.13606
  Beta  occ. eigenvalues --   -1.13492  -1.13451  -1.13409  -1.13409  -1.13393
  Beta  occ. eigenvalues --   -1.13329  -1.13317  -1.13299  -1.13135  -1.13121
  Beta  occ. eigenvalues --   -1.13111  -1.13097  -1.13093  -1.13068  -1.12973
  Beta  occ. eigenvalues --   -1.12933  -1.12913  -1.12864  -1.12856  -1.12818
  Beta  occ. eigenvalues --   -0.17809  -0.12990  -0.12074
  Beta virt. eigenvalues --   -0.06939  -0.05354  -0.05098  -0.04814  -0.02731
  Beta virt. eigenvalues --   -0.02213  -0.01483  -0.01248  -0.01140  -0.00430
  Beta virt. eigenvalues --   -0.00300   0.00133   0.00402   0.00853   0.00873

 Mulliken charges and spin densities:
               1          2
     1  Na  -0.007479  -0.020685
     2  Na  -0.166996   0.133130
     3  Na  -0.061080   0.348205
     4  Na   0.103083  -0.040775
     5  Na   0.404204   0.011136
     6  Na   0.005169  -0.083949
     7  Na  -0.276902   0.652938
 Sum of Mulliken charges =  -0.00000   1.00000

 Dipole moment (field-independent basis, Debye):
    X=             -0.0463    Y=             -0.0519    Z=              0.1580  Tot=              0.1727
 Quadrupole moment (field-independent basis, Debye-Ang):
   XX=            -59.1246   YY=            -61.2145   ZZ=            -73.7759
   XY=             -0.1641   XZ=              2.0246   YZ=             -1.5451

 Normal termination of Gaussian 16 at Tue Dec  5 15:06:18 2023.
