 Gaussian 16, Revision B.01,
 Gaussian 16:  ES64L-G16RevB.01 20-Dec-2017

 -------------------------
 #P B3LYP/6-311+g(d) force
 -------------------------

 -----
 DPGEN
 -----
 Symbolic Z-matrix:
 Charge =  0 Multiplicity = 2

                         Standard orientation:
 ---------------------------------------------------------------------
 Center     Atomic      Atomic             Coordinates (Angstroms)
 Number     Number       Type             X           Y           Z
 ---------------------------------------------------------------------
      1         11           0       -1.930109    2.815204    0.144848
      2         11           0       -0.551874   -0.425436   -1.582673
      3         11           0       -1.185122   -1.936489    1.665356
      4         11           0        4.157091    0.883183   -0.231813
      5         11           0        0.962416    1.521983    0.870896
      6         11           0       -3.685251   -0.701257   -0.581319
      7         11           0        2.232849   -2.157187   -0.285294
 ---------------------------------------------------------------------

 SCF Done:  E(UB3LYP) =  -1136.11961396     A.U. after   24 cycles

 The electronic state is 2-A.
 Alpha  occ. eigenvalues --  -38.45110 -38.44715 -38.44339 -38.44253 -38.43971
 Alpha  occ. eigenvalues --  -38.43471 -38.42963  -2.20965  -2.20505  -2.20130
 Alpha  occ. eigenvalues --   -2.20082  -2.19784  -2.19271  -2.18840  -1.14661
 Alpha  occ. eigenvalues --   -1.14625  -1.14595  -1.14170  -1.14161  -1.14129
 Alpha  occ. eigenvalues --   -1.13836  -1.13793  -1.13750  -1.13748  -1.13722
 Alpha  occ. eigenvalues --   -1.13706  -1.13440  -1.13428  -1.13415  -1.12951
 Alpha  occ. eigenvalues --   -1.12941  -1.12906  -1.12545  -1.12497  -1.12451
 Alpha  occ. eigenvalues --   -0.17676  -0.13754  -0.11777  -0.10210
 Alpha virt. eigenvalues --   -0.07351  -0.05676  -0.03923  -0.03458  -0.03061
 Alpha virt. eigenvalues --   -0.02516  -0.01880  -0.01551  -0.00954  -0.00624
 Alpha virt. eigenvalues --   -0.00156   0.00050   0.00261   0.00549   0.00662

  Beta  occ. eigenvalues --  -38.45096 -38.44681 -38.44339 -38.44200 -38.43919
  Beta  occ. eigenvalues --  -38.43467 -38.42935  -2.20942  -2.20442  -2.20133
  Beta  occ. eigenvalues --   -2.19985  -2.19687  -2.19266  -2.18792  -1.14626
  Beta  occ. eigenvalues --   -1.14607  -1.14584  -1.14126  -1.14117  -1.14088
  Beta  occ. eigenvalues --   -1.13842  -1.13793  -1.13731  -1.13673  -1.13659
  Beta  occ. eigenvalues --   -1.13640  -1.13371  -1.13354  -1.13351  -1.12943
  Beta  occ. eigenvalues --   -1.12933  -1.12898  -1.12517  -1.12450  -1.12414
  Beta  occ. eigenvalues --   -0.17184  -0.13260  -0.11488
  Beta virt. eigenvalues --   -0.07161  -0.06712  -0.05648  -0.03486  -0.03082
  Beta virt. eigenvalues --   -0.02705  -0.02126  -0.01566  -0.01308  -0.00746
  Beta virt. eigenvalues --   -0.00250  -0.00012   0.00084   0.00418   0.00600

 Mulliken charges and spin densities:
               1          2
     1  Na  -0.009586  -0.047794
     2  Na  -0.238645   0.045634
     3  Na  -0.187746   0.246903
     4  Na   0.242425   0.258212
     5  Na  -0.388609   0.111427
     6  Na   0.299691   0.320994
     7  Na   0.282471   0.064624
 Sum of Mulliken charges =  -0.00000   1.00000

 Dipole moment (field-independent basis, Debye):
    X=              0.2234    Y=             -0.4199    Z=              0.1824  Tot=              0.5094
 Quadrupole moment (field-independent basis, Debye-Ang):
   XX=            -55.2018   YY=            -71.4273   ZZ=            -70.3363
   XY=             -1.0905   XZ=             -3.4340   YZ=             -1.3404

 Normal termination of Gaussian 16 at Sun Dec  3 20:38:43 2023.
