 Gaussian 16, Revision B.01,
 Gaussian 16:  ES64L-G16RevB.01 20-Dec-2017

 -------------------------
 #P B3LYP/6-311+g(d) force
 -------------------------

 -----
 DPGEN
 -----
 Symbolic Z-matrix:
 Charge =  0 Multiplicity = 2

                         Standard orientation:
 ---------------------------------------------------------------------
 Center     Atomic      Atomic             Coordinates (Angstroms)
 Number     Number       Type             X           Y           Z
 ---------------------------------------------------------------------
      1         11           0       -2.791502    1.235258   -0.302856
      2         11           0       -0.350055   -0.659520    1.926846
      3         11           0        0.009725    2.733767    0.363574
      4         11           0        3.113795    1.154940   -0.286803
      5         11           0       -3.375965   -1.759004   -0.175013
      6         11           0        0.388000   -0.683250   -1.800669
      7         11           0        3.006001   -2.022191    0.274921
 ---------------------------------------------------------------------

 SCF Done:  E(UB3LYP) =  -1136.12291383     A.U. after   23 cycles

 The electronic state is 2-A.
 Alpha  occ. eigenvalues --  -38.44926 -38.44917 -38.44311 -38.44279 -38.44255
 Alpha  occ. eigenvalues --  -38.43942 -38.42189  -2.20751  -2.20726  -2.20159
 Alpha  occ. eigenvalues --   -2.20123  -2.20068  -2.19775  -2.18035  -1.14431
 Alpha  occ. eigenvalues --   -1.14425  -1.14409  -1.14392  -1.14376  -1.14331
 Alpha  occ. eigenvalues --   -1.13938  -1.13824  -1.13819  -1.13768  -1.13760
 Alpha  occ. eigenvalues --   -1.13748  -1.13715  -1.13713  -1.13710  -1.13449
 Alpha  occ. eigenvalues --   -1.13404  -1.13386  -1.11716  -1.11697  -1.11684
 Alpha  occ. eigenvalues --   -0.17987  -0.14070  -0.11502  -0.10513
 Alpha virt. eigenvalues --   -0.06883  -0.06021  -0.03976  -0.03655  -0.02642
 Alpha virt. eigenvalues --   -0.02468  -0.02342  -0.01467  -0.00895  -0.00249
 Alpha virt. eigenvalues --   -0.00056   0.00206   0.00427   0.00535   0.00672

  Beta  occ. eigenvalues --  -38.44919 -38.44864 -38.44311 -38.44272 -38.44254
  Beta  occ. eigenvalues --  -38.43845 -38.42186  -2.20740  -2.20630  -2.20149
  Beta  occ. eigenvalues --   -2.20125  -2.20069  -2.19595  -2.18031  -1.14414
  Beta  occ. eigenvalues --   -1.14407  -1.14384  -1.14345  -1.14308  -1.14262
  Beta  occ. eigenvalues --   -1.13938  -1.13818  -1.13792  -1.13765  -1.13752
  Beta  occ. eigenvalues --   -1.13752  -1.13715  -1.13710  -1.13695  -1.13328
  Beta  occ. eigenvalues --   -1.13275  -1.13260  -1.11716  -1.11694  -1.11664
  Beta  occ. eigenvalues --   -0.17307  -0.13904  -0.11333
  Beta virt. eigenvalues --   -0.06739  -0.06641  -0.05970  -0.03822  -0.03079
  Beta virt. eigenvalues --   -0.02349  -0.01779  -0.01683  -0.01208  -0.00951
  Beta virt. eigenvalues --   -0.00125   0.00046   0.00256   0.00607   0.00685

 Mulliken charges and spin densities:
               1          2
     1  Na   0.042531   0.112689
     2  Na  -0.487904   0.580017
     3  Na  -0.050731  -0.063416
     4  Na   0.101299   0.079082
     5  Na   0.373452  -0.006842
     6  Na  -0.325129   0.302960
     7  Na   0.346483  -0.004490
 Sum of Mulliken charges =  -0.00000   1.00000

 Dipole moment (field-independent basis, Debye):
    X=              0.4591    Y=             -0.6355    Z=             -0.2244  Tot=              0.8154
 Quadrupole moment (field-independent basis, Debye-Ang):
   XX=            -51.2497   YY=            -69.5780   ZZ=            -74.9519
   XY=              0.8391   XZ=              1.0313   YZ=             -0.3280

 Normal termination of Gaussian 16 at Thu Dec  7 10:18:53 2023.
