 Gaussian 16, Revision B.01,
 Gaussian 16:  ES64L-G16RevB.01 20-Dec-2017

 -------------------------
 #P B3LYP/6-311+g(d) force
 -------------------------

 -----
 DPGEN
 -----
 Symbolic Z-matrix:
 Charge =  0 Multiplicity = 2

                         Standard orientation:
 ---------------------------------------------------------------------
 Center     Atomic      Atomic             Coordinates (Angstroms)
 Number     Number       Type             X           Y           Z
 ---------------------------------------------------------------------
      1         11           0       -0.327251    3.272831    0.574315
      2         11           0       -1.345083   -0.551407    2.032481
      3         11           0       -2.221123   -3.013934   -0.068803
      4         11           0       -3.336639    0.438546   -0.887965
      5         11           0       -0.114154    0.586465   -1.699398
      6         11           0        2.491447    0.542093    0.265702
      7         11           0        4.852802   -1.274593   -0.216332
 ---------------------------------------------------------------------

 SCF Done:  E(UB3LYP) =  -1136.11595864     A.U. after   22 cycles

 The electronic state is 2-A.
 Alpha  occ. eigenvalues --  -38.45020 -38.44678 -38.44343 -38.44273 -38.43925
 Alpha  occ. eigenvalues --  -38.43859 -38.43120  -2.20847  -2.20539  -2.20127
 Alpha  occ. eigenvalues --   -2.20108  -2.19707  -2.19654  -2.18993  -1.14533
 Alpha  occ. eigenvalues --   -1.14506  -1.14446  -1.14226  -1.14191  -1.14153
 Alpha  occ. eigenvalues --   -1.13820  -1.13796  -1.13779  -1.13770  -1.13745
 Alpha  occ. eigenvalues --   -1.13687  -1.13375  -1.13368  -1.13358  -1.13340
 Alpha  occ. eigenvalues --   -1.13301  -1.13298  -1.12700  -1.12655  -1.12599
 Alpha  occ. eigenvalues --   -0.17538  -0.13408  -0.11723  -0.10812
 Alpha virt. eigenvalues --   -0.06976  -0.05672  -0.04142  -0.03407  -0.02875
 Alpha virt. eigenvalues --   -0.02398  -0.02267  -0.01591  -0.01106  -0.00659
 Alpha virt. eigenvalues --   -0.00086   0.00014   0.00231   0.00544   0.00709

  Beta  occ. eigenvalues --  -38.44968 -38.44638 -38.44343 -38.44196 -38.43912
  Beta  occ. eigenvalues --  -38.43861 -38.43116  -2.20755  -2.20469  -2.20129
  Beta  occ. eigenvalues --   -2.19965  -2.19683  -2.19658  -2.18987  -1.14461
  Beta  occ. eigenvalues --   -1.14433  -1.14385  -1.14165  -1.14136  -1.14107
  Beta  occ. eigenvalues --   -1.13808  -1.13787  -1.13763  -1.13685  -1.13657
  Beta  occ. eigenvalues --   -1.13591  -1.13362  -1.13359  -1.13339  -1.13328
  Beta  occ. eigenvalues --   -1.13304  -1.13300  -1.12698  -1.12647  -1.12589
  Beta  occ. eigenvalues --   -0.16848  -0.13254  -0.11524
  Beta virt. eigenvalues --   -0.07039  -0.06741  -0.05451  -0.03932  -0.02967
  Beta virt. eigenvalues --   -0.02336  -0.02071  -0.01692  -0.01413  -0.01031
  Beta virt. eigenvalues --   -0.00428  -0.00005   0.00123   0.00332   0.00574

 Mulliken charges and spin densities:
               1          2
     1  Na   0.616914   0.077339
     2  Na  -0.373550   0.511741
     3  Na   0.102573  -0.034912
     4  Na   0.315588   0.244829
     5  Na  -0.041772   0.096141
     6  Na  -0.462610   0.113971
     7  Na  -0.157143  -0.009110
 Sum of Mulliken charges =  -0.00000   1.00000

 Dipole moment (field-independent basis, Debye):
    X=             -1.3798    Y=             -0.0824    Z=             -0.1575  Tot=              1.3912
 Quadrupole moment (field-independent basis, Debye-Ang):
   XX=            -61.8525   YY=            -61.6807   ZZ=            -73.0582
   XY=             -3.7710   XZ=             -0.2130   YZ=              4.3245

 Normal termination of Gaussian 16 at Fri Dec  8 19:10:19 2023.
