 Gaussian 16, Revision B.01,
 Gaussian 16:  ES64L-G16RevB.01 20-Dec-2017

 -------------------------
 #P B3LYP/6-311+g(d) force
 -------------------------

 -----
 DPGEN
 -----
 Symbolic Z-matrix:
 Charge =  0 Multiplicity = 2

                         Standard orientation:
 ---------------------------------------------------------------------
 Center     Atomic      Atomic             Coordinates (Angstroms)
 Number     Number       Type             X           Y           Z
 ---------------------------------------------------------------------
      1         11           0       -2.143369   -2.142394   -0.386618
      2         11           0        0.811696   -0.583844   -1.657071
      3         11           0        0.433112   -1.533273    1.637667
      4         11           0        1.098080    2.130383    0.569577
      5         11           0        3.489940   -0.336712   -0.303729
      6         11           0       -1.994525    1.464488   -1.599569
      7         11           0       -1.694934    1.001352    1.739742
 ---------------------------------------------------------------------

 SCF Done:  E(UB3LYP) =  -1136.13331857     A.U. after   21 cycles

 The electronic state is 2-A.
 Alpha  occ. eigenvalues --  -38.44030 -38.43952 -38.43737 -38.43715 -38.43683
 Alpha  occ. eigenvalues --  -38.43139 -38.43111  -2.19877  -2.19806  -2.19676
 Alpha  occ. eigenvalues --   -2.19645  -2.19585  -2.18983  -2.18975  -1.13585
 Alpha  occ. eigenvalues --   -1.13558  -1.13531  -1.13487  -1.13449  -1.13436
 Alpha  occ. eigenvalues --   -1.13375  -1.13351  -1.13307  -1.13283  -1.13275
 Alpha  occ. eigenvalues --   -1.13266  -1.13239  -1.13218  -1.13191  -1.12684
 Alpha  occ. eigenvalues --   -1.12656  -1.12644  -1.12634  -1.12621  -1.12587
 Alpha  occ. eigenvalues --   -0.18808  -0.13186  -0.12153  -0.11572
 Alpha virt. eigenvalues --   -0.05507  -0.04700  -0.04442  -0.03439  -0.03233
 Alpha virt. eigenvalues --   -0.03139  -0.01512  -0.00664  -0.00583   0.00202
 Alpha virt. eigenvalues --    0.00338   0.00470   0.00575   0.00813   0.00914

  Beta  occ. eigenvalues --  -38.43981 -38.43951 -38.43690 -38.43665 -38.43632
  Beta  occ. eigenvalues --  -38.43137 -38.43098  -2.19804  -2.19789  -2.19586
  Beta  occ. eigenvalues --   -2.19562  -2.19493  -2.18973  -2.18963  -1.13560
  Beta  occ. eigenvalues --   -1.13489  -1.13478  -1.13442  -1.13436  -1.13422
  Beta  occ. eigenvalues --   -1.13307  -1.13291  -1.13240  -1.13220  -1.13214
  Beta  occ. eigenvalues --   -1.13207  -1.13181  -1.13141  -1.13124  -1.12668
  Beta  occ. eigenvalues --   -1.12641  -1.12627  -1.12620  -1.12610  -1.12579
  Beta  occ. eigenvalues --   -0.17986  -0.12987  -0.11415
  Beta virt. eigenvalues --   -0.08030  -0.05363  -0.04609  -0.03838  -0.03197
  Beta virt. eigenvalues --   -0.02610  -0.02202  -0.01424  -0.00623  -0.00233
  Beta virt. eigenvalues --    0.00295   0.00375   0.00467   0.00701   0.00889

 Mulliken charges and spin densities:
               1          2
     1  Na   0.006998  -0.096772
     2  Na  -0.287422   0.380932
     3  Na  -0.169828   0.372724
     4  Na  -0.276073   0.062508
     5  Na   0.423544  -0.051606
     6  Na   0.051897   0.144584
     7  Na   0.250884   0.187631
 Sum of Mulliken charges =  -0.00000   1.00000

 Dipole moment (field-independent basis, Debye):
    X=              0.1719    Y=              0.0256    Z=             -0.0512  Tot=              0.1812
 Quadrupole moment (field-independent basis, Debye-Ang):
   XX=            -56.3164   YY=            -73.8912   ZZ=            -64.9358
   XY=             -0.3673   XZ=              2.0871   YZ=             -0.6204

 Normal termination of Gaussian 16 at Sun Dec  3 17:32:26 2023.
