 Gaussian 16, Revision B.01,
 Gaussian 16:  ES64L-G16RevB.01 20-Dec-2017

 -------------------------
 #P B3LYP/6-311+g(d) force
 -------------------------

 -----
 DPGEN
 -----
 Symbolic Z-matrix:
 Charge =  0 Multiplicity = 2

                         Standard orientation:
 ---------------------------------------------------------------------
 Center     Atomic      Atomic             Coordinates (Angstroms)
 Number     Number       Type             X           Y           Z
 ---------------------------------------------------------------------
      1         11           0        2.374337    1.849880    0.117002
      2         11           0        0.115406    0.027012   -1.779628
      3         11           0        2.447610   -1.662336   -0.064653
      4         11           0       -0.087592    0.090192    1.885447
      5         11           0       -3.065475   -0.324838   -0.030350
      6         11           0       -1.142396    2.600546   -0.151627
      7         11           0       -0.641888   -2.580457    0.023810
 ---------------------------------------------------------------------

 SCF Done:  E(UB3LYP) =  -1136.14083034     A.U. after   18 cycles

 The electronic state is 2-A.
 Alpha  occ. eigenvalues --  -38.43747 -38.43645 -38.43504 -38.43402 -38.43336
 Alpha  occ. eigenvalues --  -38.43208 -38.43048  -2.19603  -2.19495  -2.19387
 Alpha  occ. eigenvalues --   -2.19295  -2.19277  -2.19201  -2.18985  -1.13276
 Alpha  occ. eigenvalues --   -1.13267  -1.13254  -1.13175  -1.13169  -1.13136
 Alpha  occ. eigenvalues --   -1.13086  -1.13052  -1.13024  -1.13000  -1.12973
 Alpha  occ. eigenvalues --   -1.12965  -1.12911  -1.12897  -1.12892  -1.12880
 Alpha  occ. eigenvalues --   -1.12828  -1.12807  -1.12656  -1.12639  -1.12607
 Alpha  occ. eigenvalues --   -0.19174  -0.13009  -0.12710  -0.10894
 Alpha virt. eigenvalues --   -0.05383  -0.05100  -0.04581  -0.03124  -0.03010
 Alpha virt. eigenvalues --   -0.02559  -0.01403  -0.01057  -0.00182  -0.00059
 Alpha virt. eigenvalues --   -0.00002   0.00371   0.00843   0.00929   0.00951

  Beta  occ. eigenvalues --  -38.43744 -38.43641 -38.43500 -38.43395 -38.43250
  Beta  occ. eigenvalues --  -38.43130 -38.43039  -2.19602  -2.19490  -2.19383
  Beta  occ. eigenvalues --   -2.19268  -2.19137  -2.19057  -2.18974  -1.13278
  Beta  occ. eigenvalues --   -1.13258  -1.13239  -1.13173  -1.13139  -1.13137
  Beta  occ. eigenvalues --   -1.13080  -1.13031  -1.13014  -1.12976  -1.12925
  Beta  occ. eigenvalues --   -1.12891  -1.12874  -1.12811  -1.12790  -1.12789
  Beta  occ. eigenvalues --   -1.12735  -1.12706  -1.12641  -1.12607  -1.12588
  Beta  occ. eigenvalues --   -0.18416  -0.12762  -0.12434
  Beta virt. eigenvalues --   -0.06944  -0.05373  -0.05094  -0.04573  -0.02317
  Beta virt. eigenvalues --   -0.02168  -0.01486  -0.01325  -0.00992  -0.00245
  Beta virt. eigenvalues --   -0.00115   0.00122   0.00383   0.00887   0.00925

 Mulliken charges and spin densities:
               1          2
     1  Na   0.132703  -0.107158
     2  Na  -0.414454   0.667471
     3  Na   0.190349  -0.067735
     4  Na  -0.491944   0.749326
     5  Na   0.136824  -0.078225
     6  Na   0.162497  -0.121644
     7  Na   0.284026  -0.042035
 Sum of Mulliken charges =  -0.00000   1.00000

 Dipole moment (field-independent basis, Debye):
    X=              0.0186    Y=              0.2066    Z=              0.0562  Tot=              0.2149
 Quadrupole moment (field-independent basis, Debye-Ang):
   XX=            -56.8307   YY=            -63.0833   ZZ=            -73.6057
   XY=              0.0216   XZ=              0.4553   YZ=             -0.0843

 Normal termination of Gaussian 16 at Thu Dec  7 21:40:58 2023.
