 Gaussian 16, Revision B.01,
 Gaussian 16:  ES64L-G16RevB.01 20-Dec-2017

 -------------------------
 #P B3LYP/6-311+g(d) force
 -------------------------

 -----
 DPGEN
 -----
 Symbolic Z-matrix:
 Charge =  0 Multiplicity = 2

                         Standard orientation:
 ---------------------------------------------------------------------
 Center     Atomic      Atomic             Coordinates (Angstroms)
 Number     Number       Type             X           Y           Z
 ---------------------------------------------------------------------
      1         11           0        2.670477    0.526412    1.179169
      2         11           0        3.092026   -3.088411    0.601804
      3         11           0       -2.913985   -0.794045   -0.486004
      4         11           0        2.591963    3.762450   -0.239225
      5         11           0       -5.553727    0.626794    1.023809
      6         11           0        0.164127   -2.296746   -1.049899
      7         11           0       -0.050881    1.263547   -1.029653
 ---------------------------------------------------------------------

 SCF Done:  E(UB3LYP) =  -1136.12460834     A.U. after   19 cycles

 The electronic state is 2-A.
 Alpha  occ. eigenvalues --  -38.44678 -38.44583 -38.44534 -38.44267 -38.43972
 Alpha  occ. eigenvalues --  -38.43494 -38.43279  -2.20475  -2.20407  -2.20340
 Alpha  occ. eigenvalues --   -2.20043  -2.19806  -2.19292  -2.19109  -1.14184
 Alpha  occ. eigenvalues --   -1.14166  -1.14107  -1.14100  -1.14057  -1.13980
 Alpha  occ. eigenvalues --   -1.13970  -1.13969  -1.13959  -1.13713  -1.13712
 Alpha  occ. eigenvalues --   -1.13662  -1.13502  -1.13479  -1.13418  -1.12954
 Alpha  occ. eigenvalues --   -1.12946  -1.12925  -1.12797  -1.12793  -1.12757
 Alpha  occ. eigenvalues --   -0.16717  -0.13752  -0.12474  -0.11298
 Alpha virt. eigenvalues --   -0.06067  -0.05447  -0.04652  -0.03771  -0.02623
 Alpha virt. eigenvalues --   -0.02285  -0.02041  -0.01783  -0.01073  -0.01046
 Alpha virt. eigenvalues --   -0.00455   0.00035   0.00232   0.00416   0.00629

  Beta  occ. eigenvalues --  -38.44656 -38.44550 -38.44424 -38.44265 -38.43950
  Beta  occ. eigenvalues --  -38.43468 -38.43278  -2.20436  -2.20348  -2.20135
  Beta  occ. eigenvalues --   -2.20039  -2.19768  -2.19243  -2.19118  -1.14156
  Beta  occ. eigenvalues --   -1.14141  -1.14071  -1.14064  -1.14022  -1.13926
  Beta  occ. eigenvalues --   -1.13831  -1.13830  -1.13824  -1.13711  -1.13706
  Beta  occ. eigenvalues --   -1.13660  -1.13479  -1.13454  -1.13373  -1.12920
  Beta  occ. eigenvalues --   -1.12910  -1.12893  -1.12813  -1.12808  -1.12693
  Beta  occ. eigenvalues --   -0.16180  -0.12979  -0.12166
  Beta virt. eigenvalues --   -0.07838  -0.05971  -0.05105  -0.04154  -0.03570
  Beta virt. eigenvalues --   -0.02357  -0.02104  -0.01763  -0.01364  -0.00878
  Beta virt. eigenvalues --   -0.00678  -0.00145   0.00147   0.00386   0.00502

 Mulliken charges and spin densities:
               1          2
     1  Na  -0.314792   0.165363
     2  Na   0.552826   0.202806
     3  Na  -0.623367   0.175568
     4  Na   0.591351  -0.002318
     5  Na   0.330720   0.410409
     6  Na  -0.036732  -0.079239
     7  Na  -0.500006   0.127412
 Sum of Mulliken charges =  -0.00000   1.00000

 Dipole moment (field-independent basis, Debye):
    X=              0.7177    Y=              0.9933    Z=             -0.0141  Tot=              1.2255
 Quadrupole moment (field-independent basis, Debye-Ang):
   XX=            -66.1877   YY=            -60.0208   ZZ=            -69.4460
   XY=              1.6607   XZ=             -0.7145   YZ=              0.3664

 Normal termination of Gaussian 16 at Tue Nov 28 23:08:22 2023.
