 Gaussian 16, Revision B.01,
 Gaussian 16:  ES64L-G16RevB.01 20-Dec-2017

 -------------------------
 #P B3LYP/6-311+g(d) force
 -------------------------

 -----
 DPGEN
 -----
 Symbolic Z-matrix:
 Charge =  0 Multiplicity = 2

                         Standard orientation:
 ---------------------------------------------------------------------
 Center     Atomic      Atomic             Coordinates (Angstroms)
 Number     Number       Type             X           Y           Z
 ---------------------------------------------------------------------
      1         11           0       -1.520884   -0.242090    2.075721
      2         11           0        2.626812    0.766267    1.570425
      3         11           0       -3.421153   -1.829147   -0.079745
      4         11           0        0.155454   -1.037625   -0.732575
      5         11           0        0.974495    2.583555   -0.549136
      6         11           0       -2.394277    1.696173   -1.269885
      7         11           0        3.579554   -1.937133   -1.014804
 ---------------------------------------------------------------------

 SCF Done:  E(UB3LYP) =  -1136.12338538     A.U. after   23 cycles

 The electronic state is 2-A.
 Alpha  occ. eigenvalues --  -38.44695 -38.44623 -38.44526 -38.44050 -38.43805
 Alpha  occ. eigenvalues --  -38.43771 -38.43077  -2.20543  -2.20429  -2.20340
 Alpha  occ. eigenvalues --   -2.19912  -2.19617  -2.19552  -2.18901  -1.14234
 Alpha  occ. eigenvalues --   -1.14187  -1.14172  -1.14096  -1.14081  -1.14047
 Alpha  occ. eigenvalues --   -1.14025  -1.14001  -1.13952  -1.13643  -1.13576
 Alpha  occ. eigenvalues --   -1.13515  -1.13295  -1.13268  -1.13234  -1.13213
 Alpha  occ. eigenvalues --   -1.13208  -1.13172  -1.12577  -1.12572  -1.12543
 Alpha  occ. eigenvalues --   -0.17728  -0.13747  -0.11474  -0.10877
 Alpha virt. eigenvalues --   -0.06367  -0.05885  -0.04861  -0.03179  -0.02673
 Alpha virt. eigenvalues --   -0.02358  -0.02213  -0.01539  -0.00768  -0.00256
 Alpha virt. eigenvalues --   -0.00136   0.00116   0.00157   0.00408   0.00608

  Beta  occ. eigenvalues --  -38.44629 -38.44629 -38.44493 -38.44030 -38.43769
  Beta  occ. eigenvalues --  -38.43733 -38.43079  -2.20442  -2.20420  -2.20281
  Beta  occ. eigenvalues --   -2.19877  -2.19549  -2.19482  -2.18908  -1.14158
  Beta  occ. eigenvalues --   -1.14130  -1.14103  -1.14095  -1.14075  -1.14015
  Beta  occ. eigenvalues --   -1.13987  -1.13956  -1.13903  -1.13592  -1.13556
  Beta  occ. eigenvalues --   -1.13492  -1.13241  -1.13225  -1.13190  -1.13163
  Beta  occ. eigenvalues --   -1.13157  -1.13129  -1.12586  -1.12562  -1.12542
  Beta  occ. eigenvalues --   -0.17153  -0.13489  -0.11083
  Beta virt. eigenvalues --   -0.07403  -0.06133  -0.05568  -0.04356  -0.02960
  Beta virt. eigenvalues --   -0.02329  -0.02064  -0.01689  -0.01232  -0.00410
  Beta virt. eigenvalues --   -0.00227   0.00043   0.00186   0.00290   0.00514

 Mulliken charges and spin densities:
               1          2
     1  Na  -0.098621   0.273379
     2  Na   0.461357   0.186685
     3  Na   1.210105  -0.007079
     4  Na  -1.486233   0.336686
     5  Na  -0.301435  -0.020862
     6  Na   0.185566   0.095222
     7  Na   0.029261   0.135969
 Sum of Mulliken charges =  -0.00000   1.00000

 Dipole moment (field-independent basis, Debye):
    X=             -0.8584    Y=             -0.2079    Z=              0.4336  Tot=              0.9839
 Quadrupole moment (field-independent basis, Debye-Ang):
   XX=            -51.5539   YY=            -73.3758   ZZ=            -69.8042
   XY=              4.2484   XZ=              2.8105   YZ=              2.7924

 Normal termination of Gaussian 16 at Thu Dec  7 14:23:56 2023.
