 Gaussian 16, Revision B.01,
 Gaussian 16:  ES64L-G16RevB.01 20-Dec-2017

 -------------------------
 #P B3LYP/6-311+g(d) force
 -------------------------

 -----
 DPGEN
 -----
 Symbolic Z-matrix:
 Charge =  0 Multiplicity = 2

                         Standard orientation:
 ---------------------------------------------------------------------
 Center     Atomic      Atomic             Coordinates (Angstroms)
 Number     Number       Type             X           Y           Z
 ---------------------------------------------------------------------
      1         11           0        0.535755   -1.252583    0.274923
      2         11           0        0.814204    2.832724   -0.632194
      3         11           0        3.409888   -1.851697   -1.190213
      4         11           0       -2.458171    1.817931   -0.269372
      5         11           0       -2.543730   -1.104594    2.038850
      6         11           0        3.427418    0.745601    1.246513
      7         11           0       -3.185366   -1.187383   -1.468508
 ---------------------------------------------------------------------

 SCF Done:  E(UB3LYP) =  -1136.11714702     A.U. after   25 cycles

 The electronic state is 2-A.
 Alpha  occ. eigenvalues --  -38.45726 -38.44596 -38.44241 -38.44201 -38.43919
 Alpha  occ. eigenvalues --  -38.43859 -38.42872  -2.21495  -2.20415  -2.20076
 Alpha  occ. eigenvalues --   -2.20022  -2.19745  -2.19698  -2.18646  -1.15185
 Alpha  occ. eigenvalues --   -1.15144  -1.15118  -1.14081  -1.14079  -1.14033
 Alpha  occ. eigenvalues --   -1.13802  -1.13755  -1.13727  -1.13671  -1.13662
 Alpha  occ. eigenvalues --   -1.13618  -1.13436  -1.13415  -1.13371  -1.13350
 Alpha  occ. eigenvalues --   -1.13348  -1.13306  -1.12330  -1.12317  -1.12285
 Alpha  occ. eigenvalues --   -0.17113  -0.14434  -0.11410  -0.10229
 Alpha virt. eigenvalues --   -0.06897  -0.06147  -0.04906  -0.03276  -0.02642
 Alpha virt. eigenvalues --   -0.02325  -0.02058  -0.01546  -0.00930  -0.00687
 Alpha virt. eigenvalues --   -0.00330   0.00077   0.00125   0.00202   0.00508

  Beta  occ. eigenvalues --  -38.45719 -38.44554 -38.44220 -38.44161 -38.43909
  Beta  occ. eigenvalues --  -38.43789 -38.42883  -2.21482  -2.20339  -2.20044
  Beta  occ. eigenvalues --   -2.19947  -2.19729  -2.19568  -2.18665  -1.15173
  Beta  occ. eigenvalues --   -1.15136  -1.15104  -1.14029  -1.14023  -1.13975
  Beta  occ. eigenvalues --   -1.13750  -1.13731  -1.13700  -1.13620  -1.13611
  Beta  occ. eigenvalues --   -1.13575  -1.13418  -1.13393  -1.13365  -1.13264
  Beta  occ. eigenvalues --   -1.13250  -1.13221  -1.12343  -1.12331  -1.12295
  Beta  occ. eigenvalues --   -0.16633  -0.14067  -0.11268
  Beta virt. eigenvalues --   -0.06891  -0.06406  -0.05781  -0.04557  -0.03206
  Beta virt. eigenvalues --   -0.02484  -0.01961  -0.01415  -0.01275  -0.00689
  Beta virt. eigenvalues --   -0.00388  -0.00063   0.00187   0.00250   0.00323

 Mulliken charges and spin densities:
               1          2
     1  Na  -2.119558   0.735918
     2  Na  -0.001924  -0.177815
     3  Na   0.832139   0.122451
     4  Na  -0.071692   0.322680
     5  Na   0.779285  -0.141057
     6  Na   0.316266   0.018991
     7  Na   0.265483   0.118831
 Sum of Mulliken charges =  -0.00000   1.00000

 Dipole moment (field-independent basis, Debye):
    X=              0.9951    Y=             -0.5493    Z=              0.3100  Tot=              1.1782
 Quadrupole moment (field-independent basis, Debye-Ang):
   XX=            -51.3748   YY=            -76.3576   ZZ=            -68.5605
   XY=              2.9213   XZ=              0.7877   YZ=              5.0837

 Normal termination of Gaussian 16 at Tue Dec  5 22:29:12 2023.
