 Gaussian 16, Revision B.01,
 Gaussian 16:  ES64L-G16RevB.01 20-Dec-2017

 -------------------------
 #P B3LYP/6-311+g(d) force
 -------------------------

 -----
 DPGEN
 -----
 Symbolic Z-matrix:
 Charge =  0 Multiplicity = 2

                         Standard orientation:
 ---------------------------------------------------------------------
 Center     Atomic      Atomic             Coordinates (Angstroms)
 Number     Number       Type             X           Y           Z
 ---------------------------------------------------------------------
      1         11           0       -1.535293   -2.522512   -0.505669
      2         11           0        4.123202   -0.709192   -0.608578
      3         11           0        2.951411    2.498692    0.838364
      4         11           0       -0.161596    2.741941   -0.404124
      5         11           0        2.119046   -2.949647    0.383156
      6         11           0       -3.217688    2.257050   -0.328249
      7         11           0       -4.279081   -1.316331    0.625100
 ---------------------------------------------------------------------

 SCF Done:  E(UB3LYP) =  -1136.11001624     A.U. after   23 cycles

 The electronic state is 2-A.
 Alpha  occ. eigenvalues --  -38.45369 -38.44970 -38.44638 -38.44233 -38.43913
 Alpha  occ. eigenvalues --  -38.43911 -38.43783  -2.21149  -2.20744  -2.20442
 Alpha  occ. eigenvalues --   -2.20061  -2.19733  -2.19722  -2.19596  -1.14833
 Alpha  occ. eigenvalues --   -1.14821  -1.14787  -1.14428  -1.14412  -1.14396
 Alpha  occ. eigenvalues --   -1.14096  -1.14086  -1.14072  -1.13767  -1.13706
 Alpha  occ. eigenvalues --   -1.13671  -1.13407  -1.13399  -1.13386  -1.13379
 Alpha  occ. eigenvalues --   -1.13371  -1.13362  -1.13243  -1.13230  -1.13222
 Alpha  occ. eigenvalues --   -0.15863  -0.14140  -0.13283  -0.10621
 Alpha virt. eigenvalues --   -0.07512  -0.04905  -0.04155  -0.03700  -0.03154
 Alpha virt. eigenvalues --   -0.02731  -0.02367  -0.01938  -0.00896  -0.00741
 Alpha virt. eigenvalues --   -0.00207  -0.00170   0.00201   0.00328   0.00610

  Beta  occ. eigenvalues --  -38.45365 -38.44959 -38.44600 -38.44169 -38.43901
  Beta  occ. eigenvalues --  -38.43873 -38.43715  -2.21146  -2.20728  -2.20374
  Beta  occ. eigenvalues --   -2.19945  -2.19719  -2.19651  -2.19469  -1.14831
  Beta  occ. eigenvalues --   -1.14820  -1.14757  -1.14417  -1.14405  -1.14361
  Beta  occ. eigenvalues --   -1.14050  -1.14034  -1.14024  -1.13680  -1.13629
  Beta  occ. eigenvalues --   -1.13591  -1.13403  -1.13397  -1.13332  -1.13323
  Beta  occ. eigenvalues --   -1.13322  -1.13315  -1.13156  -1.13150  -1.13136
  Beta  occ. eigenvalues --   -0.15379  -0.13413  -0.12469
  Beta virt. eigenvalues --   -0.07650  -0.07482  -0.04650  -0.03635  -0.03446
  Beta virt. eigenvalues --   -0.02856  -0.02500  -0.02067  -0.01658  -0.00726
  Beta virt. eigenvalues --   -0.00398  -0.00028   0.00038   0.00223   0.00415

 Mulliken charges and spin densities:
               1          2
     1  Na  -0.528466   0.079667
     2  Na   0.171432   0.036130
     3  Na   0.551498   0.357026
     4  Na  -0.430807   0.060085
     5  Na  -0.159073   0.167052
     6  Na  -0.079828   0.173316
     7  Na   0.475243   0.126723
 Sum of Mulliken charges =  -0.00000   1.00000

 Dipole moment (field-independent basis, Debye):
    X=             -0.2895    Y=             -0.6022    Z=              0.0462  Tot=              0.6698
 Quadrupole moment (field-independent basis, Debye-Ang):
   XX=            -53.1592   YY=            -76.2196   ZZ=            -70.2465
   XY=             -1.2738   XZ=             -3.4832   YZ=              0.4177

 Normal termination of Gaussian 16 at Sun Dec  3 15:23:40 2023.
