 Gaussian 16, Revision B.01,
 Gaussian 16:  ES64L-G16RevB.01 20-Dec-2017

 -------------------------
 #P B3LYP/6-311+g(d) force
 -------------------------

 -----
 DPGEN
 -----
 Symbolic Z-matrix:
 Charge =  0 Multiplicity = 2

                         Standard orientation:
 ---------------------------------------------------------------------
 Center     Atomic      Atomic             Coordinates (Angstroms)
 Number     Number       Type             X           Y           Z
 ---------------------------------------------------------------------
      1         11           0        2.568050    2.190274    0.183983
      2         11           0       -1.882578    2.348679    0.002542
      3         11           0       -3.442941   -0.518577   -0.189786
      4         11           0        3.037527   -1.547512   -0.101965
      5         11           0        0.459064    0.575353   -1.445231
      6         11           0       -0.533889   -2.502007   -0.518069
      7         11           0       -0.205233   -0.546209    2.068527
 ---------------------------------------------------------------------

 SCF Done:  E(UB3LYP) =  -1136.12888442     A.U. after   20 cycles

 The electronic state is 2-A.
 Alpha  occ. eigenvalues --  -38.44789 -38.44718 -38.44228 -38.43790 -38.43417
 Alpha  occ. eigenvalues --  -38.43212 -38.42966  -2.20570  -2.20527  -2.20030
 Alpha  occ. eigenvalues --   -2.19620  -2.19287  -2.19173  -2.18845  -1.14248
 Alpha  occ. eigenvalues --   -1.14221  -1.14209  -1.14201  -1.14188  -1.14169
 Alpha  occ. eigenvalues --   -1.13736  -1.13682  -1.13659  -1.13317  -1.13276
 Alpha  occ. eigenvalues --   -1.13255  -1.12967  -1.12922  -1.12892  -1.12858
 Alpha  occ. eigenvalues --   -1.12830  -1.12795  -1.12537  -1.12512  -1.12455
 Alpha  occ. eigenvalues --   -0.18259  -0.13384  -0.11998  -0.10274
 Alpha virt. eigenvalues --   -0.06369  -0.05903  -0.04079  -0.03217  -0.02667
 Alpha virt. eigenvalues --   -0.02220  -0.02124  -0.01529  -0.00690  -0.00240
 Alpha virt. eigenvalues --   -0.00060   0.00264   0.00643   0.00736   0.00849

  Beta  occ. eigenvalues --  -38.44788 -38.44716 -38.44227 -38.43785 -38.43319
  Beta  occ. eigenvalues --  -38.43168 -38.42950  -2.20570  -2.20524  -2.20031
  Beta  occ. eigenvalues --   -2.19615  -2.19105  -2.19093  -2.18819  -1.14230
  Beta  occ. eigenvalues --   -1.14223  -1.14213  -1.14200  -1.14172  -1.14166
  Beta  occ. eigenvalues --   -1.13733  -1.13672  -1.13662  -1.13311  -1.13260
  Beta  occ. eigenvalues --   -1.13250  -1.12850  -1.12801  -1.12790  -1.12765
  Beta  occ. eigenvalues --   -1.12763  -1.12739  -1.12521  -1.12459  -1.12441
  Beta  occ. eigenvalues --   -0.17562  -0.13212  -0.11789
  Beta virt. eigenvalues --   -0.06387  -0.06276  -0.05899  -0.04026  -0.02528
  Beta virt. eigenvalues --   -0.02054  -0.01961  -0.01446  -0.01169  -0.00727
  Beta virt. eigenvalues --   -0.00251   0.00128   0.00315   0.00711   0.00751

 Mulliken charges and spin densities:
               1          2
     1  Na   0.042885  -0.073338
     2  Na   0.131732  -0.042952
     3  Na   0.141121   0.026872
     4  Na   0.132813  -0.037748
     5  Na   0.020231   0.312244
     6  Na   0.121486   0.044798
     7  Na  -0.590268   0.770125
 Sum of Mulliken charges =  -0.00000   1.00000

 Dipole moment (field-independent basis, Debye):
    X=              0.3049    Y=             -0.0196    Z=              0.1702  Tot=              0.3497
 Quadrupole moment (field-independent basis, Debye-Ang):
   XX=            -48.6400   YY=            -66.3014   ZZ=            -76.7510
   XY=             -0.2621   XZ=              1.4274   YZ=              2.2389

 Normal termination of Gaussian 16 at Thu Dec  7 03:25:09 2023.
