 Gaussian 16, Revision B.01,
 Gaussian 16:  ES64L-G16RevB.01 20-Dec-2017

 -------------------------
 #P B3LYP/6-311+g(d) force
 -------------------------

 -----
 DPGEN
 -----
 Symbolic Z-matrix:
 Charge =  0 Multiplicity = 2

                         Standard orientation:
 ---------------------------------------------------------------------
 Center     Atomic      Atomic             Coordinates (Angstroms)
 Number     Number       Type             X           Y           Z
 ---------------------------------------------------------------------
      1         11           0       -0.578126   -2.110873    0.161163
      2         11           0        2.524644   -2.462440   -0.086852
      3         11           0       -4.036325   -0.794392    0.185059
      4         11           0        1.192264    0.197047    1.825534
      5         11           0        0.829511    3.826889    0.265500
      6         11           0       -1.447753    1.233739   -0.750912
      7         11           0        1.515784    0.110029   -1.599492
 ---------------------------------------------------------------------

 SCF Done:  E(UB3LYP) =  -1136.12869171     A.U. after   19 cycles

 The electronic state is 2-A.
 Alpha  occ. eigenvalues --  -38.44248 -38.44191 -38.43885 -38.43795 -38.43736
 Alpha  occ. eigenvalues --  -38.43640 -38.43214  -2.20086  -2.20006  -2.19771
 Alpha  occ. eigenvalues --   -2.19653  -2.19583  -2.19574  -2.19104  -1.13778
 Alpha  occ. eigenvalues --   -1.13771  -1.13717  -1.13687  -1.13673  -1.13630
 Alpha  occ. eigenvalues --   -1.13479  -1.13432  -1.13371  -1.13350  -1.13326
 Alpha  occ. eigenvalues --   -1.13278  -1.13253  -1.13241  -1.13239  -1.13227
 Alpha  occ. eigenvalues --   -1.13197  -1.13166  -1.12832  -1.12786  -1.12674
 Alpha  occ. eigenvalues --   -0.18523  -0.13142  -0.12340  -0.10561
 Alpha virt. eigenvalues --   -0.06283  -0.05589  -0.04489  -0.03123  -0.02549
 Alpha virt. eigenvalues --   -0.02370  -0.01912  -0.01701  -0.00493  -0.00310
 Alpha virt. eigenvalues --   -0.00031   0.00267   0.00661   0.00720   0.00773

  Beta  occ. eigenvalues --  -38.44251 -38.44183 -38.43805 -38.43802 -38.43720
  Beta  occ. eigenvalues --  -38.43567 -38.43196  -2.20076  -2.20012  -2.19629
  Beta  occ. eigenvalues --   -2.19624  -2.19587  -2.19451  -2.19073  -1.13776
  Beta  occ. eigenvalues --   -1.13758  -1.13692  -1.13680  -1.13668  -1.13635
  Beta  occ. eigenvalues --   -1.13401  -1.13331  -1.13329  -1.13281  -1.13261
  Beta  occ. eigenvalues --   -1.13247  -1.13245  -1.13227  -1.13200  -1.13187
  Beta  occ. eigenvalues --   -1.13132  -1.13069  -1.12809  -1.12744  -1.12659
  Beta  occ. eigenvalues --   -0.17761  -0.12954  -0.12232
  Beta virt. eigenvalues --   -0.06598  -0.06096  -0.05455  -0.04391  -0.02443
  Beta virt. eigenvalues --   -0.02126  -0.01972  -0.01609  -0.01278  -0.00539
  Beta virt. eigenvalues --   -0.00068   0.00116   0.00367   0.00714   0.00778

 Mulliken charges and spin densities:
               1          2
     1  Na  -0.655592   0.178629
     2  Na   1.274733   0.224002
     3  Na   0.398863  -0.135328
     4  Na  -0.590310   0.385947
     5  Na  -0.026118  -0.079303
     6  Na  -0.254902   0.200124
     7  Na  -0.146673   0.225929
 Sum of Mulliken charges =  -0.00000   1.00000

 Dipole moment (field-independent basis, Debye):
    X=              0.4781    Y=              0.0074    Z=              0.2368  Tot=              0.5335
 Quadrupole moment (field-independent basis, Debye-Ang):
   XX=            -58.1982   YY=            -57.0660   ZZ=            -75.5776
   XY=             -1.8332   XZ=             -0.8721   YZ=              0.0079

 Normal termination of Gaussian 16 at Tue Dec  5 23:09:04 2023.
