 Gaussian 16, Revision B.01,
 Gaussian 16:  ES64L-G16RevB.01 20-Dec-2017

 -------------------------
 #P B3LYP/6-311+g(d) force
 -------------------------

 -----
 DPGEN
 -----
 Symbolic Z-matrix:
 Charge =  0 Multiplicity = 2

                         Standard orientation:
 ---------------------------------------------------------------------
 Center     Atomic      Atomic             Coordinates (Angstroms)
 Number     Number       Type             X           Y           Z
 ---------------------------------------------------------------------
      1         11           0        1.079966    2.773873    0.270678
      2         11           0       -2.895131   -1.499830   -0.766857
      3         11           0        3.529765    0.095234   -0.387992
      4         11           0        1.125044   -2.896288    0.282622
      5         11           0       -0.518357   -0.608689    2.040463
      6         11           0        0.000063    0.097610   -1.612574
      7         11           0       -2.321351    2.038090    0.173661
 ---------------------------------------------------------------------

 SCF Done:  E(UB3LYP) =  -1136.13483440     A.U. after   19 cycles

 The electronic state is 2-A.
 Alpha  occ. eigenvalues --  -38.44316 -38.44125 -38.43760 -38.43756 -38.43668
 Alpha  occ. eigenvalues --  -38.43566 -38.43405  -2.20084  -2.19936  -2.19593
 Alpha  occ. eigenvalues --   -2.19557  -2.19533  -2.19478  -2.19226  -1.13764
 Alpha  occ. eigenvalues --   -1.13732  -1.13724  -1.13614  -1.13581  -1.13569
 Alpha  occ. eigenvalues --   -1.13275  -1.13274  -1.13266  -1.13228  -1.13225
 Alpha  occ. eigenvalues --   -1.13189  -1.13187  -1.13168  -1.13159  -1.13136
 Alpha  occ. eigenvalues --   -1.13123  -1.13094  -1.12904  -1.12897  -1.12852
 Alpha  occ. eigenvalues --   -0.18010  -0.12827  -0.12344  -0.10674
 Alpha virt. eigenvalues --   -0.05921  -0.05335  -0.04789  -0.03044  -0.02997
 Alpha virt. eigenvalues --   -0.02457  -0.01804  -0.01253  -0.00739  -0.00393
 Alpha virt. eigenvalues --   -0.00072   0.00301   0.00698   0.00772   0.00844

  Beta  occ. eigenvalues --  -38.44311 -38.44096 -38.43754 -38.43749 -38.43583
  Beta  occ. eigenvalues --  -38.43515 -38.43402  -2.20075  -2.19884  -2.19585
  Beta  occ. eigenvalues --   -2.19547  -2.19387  -2.19375  -2.19223  -1.13751
  Beta  occ. eigenvalues --   -1.13726  -1.13720  -1.13565  -1.13548  -1.13530
  Beta  occ. eigenvalues --   -1.13269  -1.13247  -1.13243  -1.13213  -1.13204
  Beta  occ. eigenvalues --   -1.13182  -1.13112  -1.13081  -1.13066  -1.13055
  Beta  occ. eigenvalues --   -1.13027  -1.13022  -1.12899  -1.12890  -1.12842
  Beta  occ. eigenvalues --   -0.17349  -0.12570  -0.12080
  Beta virt. eigenvalues --   -0.06906  -0.05784  -0.05311  -0.04630  -0.02473
  Beta virt. eigenvalues --   -0.02274  -0.01679  -0.01481  -0.01172  -0.00712
  Beta virt. eigenvalues --   -0.00424   0.00089   0.00361   0.00781   0.00798

 Mulliken charges and spin densities:
               1          2
     1  Na  -0.170743   0.001735
     2  Na   0.169447   0.072730
     3  Na   0.005492  -0.018283
     4  Na  -0.007584  -0.069337
     5  Na  -0.164148   0.569633
     6  Na   0.017541   0.378760
     7  Na   0.149995   0.064762
 Sum of Mulliken charges =  -0.00000   1.00000

 Dipole moment (field-independent basis, Debye):
    X=             -0.0280    Y=             -0.1623    Z=              0.0559  Tot=              0.1739
 Quadrupole moment (field-independent basis, Debye-Ang):
   XX=            -55.3774   YY=            -63.7484   ZZ=            -74.3731
   XY=             -0.2650   XZ=              0.3598   YZ=              1.9340

 Normal termination of Gaussian 16 at Thu Dec  7 07:45:36 2023.
