 Gaussian 16, Revision B.01,
 Gaussian 16:  ES64L-G16RevB.01 20-Dec-2017

 -------------------------
 #P B3LYP/6-311+g(d) force
 -------------------------

 -----
 DPGEN
 -----
 Symbolic Z-matrix:
 Charge =  0 Multiplicity = 2

                         Standard orientation:
 ---------------------------------------------------------------------
 Center     Atomic      Atomic             Coordinates (Angstroms)
 Number     Number       Type             X           Y           Z
 ---------------------------------------------------------------------
      1         11           0       -0.033051   -0.143774   -1.857570
      2         11           0        0.034121   -0.207681    2.166789
      3         11           0       -2.211753   -1.821096   -0.056930
      4         11           0       -2.417379    1.374551   -0.009945
      5         11           0        0.322373    2.596821   -0.080924
      6         11           0        2.960588    0.544592   -0.026041
      7         11           0        1.345102   -2.343413   -0.135380
 ---------------------------------------------------------------------

 SCF Done:  E(UB3LYP) =  -1136.13676876     A.U. after   19 cycles

 The electronic state is 2-A.
 Alpha  occ. eigenvalues --  -38.44052 -38.43701 -38.43586 -38.43381 -38.43379
 Alpha  occ. eigenvalues --  -38.43252 -38.42923  -2.19957  -2.19595  -2.19565
 Alpha  occ. eigenvalues --   -2.19318  -2.19273  -2.19165  -2.18857  -1.13618
 Alpha  occ. eigenvalues --   -1.13588  -1.13575  -1.13294  -1.13262  -1.13250
 Alpha  occ. eigenvalues --   -1.13225  -1.13223  -1.13202  -1.13047  -1.13018
 Alpha  occ. eigenvalues --   -1.12961  -1.12934  -1.12919  -1.12880  -1.12848
 Alpha  occ. eigenvalues --   -1.12827  -1.12771  -1.12532  -1.12503  -1.12487
 Alpha  occ. eigenvalues --   -0.19374  -0.13123  -0.12558  -0.11495
 Alpha virt. eigenvalues --   -0.05269  -0.04866  -0.04327  -0.03428  -0.03159
 Alpha virt. eigenvalues --   -0.03119  -0.01239  -0.00817  -0.00094   0.00097
 Alpha virt. eigenvalues --    0.00179   0.00385   0.00872   0.00979   0.01004

  Beta  occ. eigenvalues --  -38.43953 -38.43699 -38.43507 -38.43376 -38.43374
  Beta  occ. eigenvalues --  -38.43244 -38.42917  -2.19775  -2.19565  -2.19452
  Beta  occ. eigenvalues --   -2.19312  -2.19267  -2.19154  -2.18850  -1.13501
  Beta  occ. eigenvalues --   -1.13458  -1.13444  -1.13245  -1.13229  -1.13203
  Beta  occ. eigenvalues --   -1.13195  -1.13162  -1.13118  -1.13048  -1.13011
  Beta  occ. eigenvalues --   -1.12925  -1.12920  -1.12895  -1.12880  -1.12835
  Beta  occ. eigenvalues --   -1.12789  -1.12770  -1.12528  -1.12490  -1.12466
  Beta  occ. eigenvalues --   -0.18580  -0.12873  -0.12291
  Beta virt. eigenvalues --   -0.07494  -0.05242  -0.04867  -0.04315  -0.02566
  Beta virt. eigenvalues --   -0.02291  -0.02035  -0.01165  -0.00759   0.00027
  Beta virt. eigenvalues --    0.00064   0.00125   0.00396   0.00946   0.00960

 Mulliken charges and spin densities:
               1          2
     1  Na  -0.573944   0.455775
     2  Na  -0.823361   0.658498
     3  Na   0.403964  -0.030627
     4  Na   0.202965   0.011396
     5  Na   0.227410   0.001563
     6  Na   0.137758  -0.049942
     7  Na   0.425207  -0.046662
 Sum of Mulliken charges =  -0.00000   1.00000

 Dipole moment (field-independent basis, Debye):
    X=              0.1464    Y=             -0.2092    Z=              0.2356  Tot=              0.3474
 Quadrupole moment (field-independent basis, Debye-Ang):
   XX=            -59.5375   YY=            -66.3115   ZZ=            -69.9979
   XY=              0.5949   XZ=             -0.0913   YZ=              0.0857

 Normal termination of Gaussian 16 at Tue Dec  5 15:01:25 2023.
