 Gaussian 16, Revision B.01,
 Gaussian 16:  ES64L-G16RevB.01 20-Dec-2017

 -------------------------
 #P B3LYP/6-311+g(d) force
 -------------------------

 -----
 DPGEN
 -----
 Symbolic Z-matrix:
 Charge =  0 Multiplicity = 2

                         Standard orientation:
 ---------------------------------------------------------------------
 Center     Atomic      Atomic             Coordinates (Angstroms)
 Number     Number       Type             X           Y           Z
 ---------------------------------------------------------------------
      1         11           0       -0.263639    0.228413    1.958603
      2         11           0       -3.897909   -0.135768    0.189755
      3         11           0       -0.845338    1.062789   -1.720468
      4         11           0       -0.866704   -2.281373   -0.683716
      5         11           0        0.899711    3.209985    0.607819
      6         11           0        2.751327    0.370641   -1.050513
      7         11           0        2.222551   -2.454686    0.698521
 ---------------------------------------------------------------------

 SCF Done:  E(UB3LYP) =  -1136.13183108     A.U. after   20 cycles

 The electronic state is 2-A.
 Alpha  occ. eigenvalues --  -38.44730 -38.44326 -38.43958 -38.43915 -38.43765
 Alpha  occ. eigenvalues --  -38.43427 -38.43225  -2.20478  -2.20133  -2.19787
 Alpha  occ. eigenvalues --   -2.19762  -2.19615  -2.19232  -2.19053  -1.14153
 Alpha  occ. eigenvalues --   -1.14148  -1.14105  -1.13813  -1.13796  -1.13753
 Alpha  occ. eigenvalues --   -1.13496  -1.13476  -1.13431  -1.13391  -1.13390
 Alpha  occ. eigenvalues --   -1.13385  -1.13311  -1.13273  -1.13208  -1.12902
 Alpha  occ. eigenvalues --   -1.12895  -1.12866  -1.12720  -1.12707  -1.12703
 Alpha  occ. eigenvalues --   -0.17800  -0.12698  -0.12243  -0.10867
 Alpha virt. eigenvalues --   -0.06308  -0.05010  -0.04615  -0.03256  -0.03124
 Alpha virt. eigenvalues --   -0.02714  -0.02039  -0.01108  -0.00600  -0.00252
 Alpha virt. eigenvalues --    0.00075   0.00305   0.00520   0.00741   0.00794

  Beta  occ. eigenvalues --  -38.44736 -38.44301 -38.43946 -38.43829 -38.43712
  Beta  occ. eigenvalues --  -38.43419 -38.43221  -2.20490  -2.20087  -2.19770
  Beta  occ. eigenvalues --   -2.19605  -2.19519  -2.19220  -2.19047  -1.14161
  Beta  occ. eigenvalues --   -1.14149  -1.14114  -1.13768  -1.13764  -1.13725
  Beta  occ. eigenvalues --   -1.13482  -1.13439  -1.13380  -1.13328  -1.13277
  Beta  occ. eigenvalues --   -1.13274  -1.13247  -1.13196  -1.13139  -1.12890
  Beta  occ. eigenvalues --   -1.12881  -1.12852  -1.12718  -1.12701  -1.12689
  Beta  occ. eigenvalues --   -0.17063  -0.12559  -0.12044
  Beta virt. eigenvalues --   -0.07019  -0.06204  -0.04834  -0.04496  -0.02683
  Beta virt. eigenvalues --   -0.02500  -0.02020  -0.01673  -0.01022  -0.00438
  Beta virt. eigenvalues --   -0.00206   0.00142   0.00338   0.00637   0.00754

 Mulliken charges and spin densities:
               1          2
     1  Na  -0.319500   0.694987
     2  Na   0.113386  -0.098780
     3  Na   0.159947   0.423756
     4  Na  -0.201362   0.012560
     5  Na   0.063289  -0.108035
     6  Na  -0.207552   0.085010
     7  Na   0.391792  -0.009498
 Sum of Mulliken charges =  -0.00000   1.00000

 Dipole moment (field-independent basis, Debye):
    X=             -0.6208    Y=              0.1315    Z=             -0.0103  Tot=              0.6347
 Quadrupole moment (field-independent basis, Debye-Ang):
   XX=            -55.3925   YY=            -66.0499   ZZ=            -72.0959
   XY=              0.1599   XZ=             -1.0669   YZ=              0.1164

 Normal termination of Gaussian 16 at Wed Nov 29 15:43:47 2023.
