 Gaussian 16, Revision B.01,
 Gaussian 16:  ES64L-G16RevB.01 20-Dec-2017

 -------------------------
 #P B3LYP/6-311+g(d) force
 -------------------------

 -----
 DPGEN
 -----
 Symbolic Z-matrix:
 Charge =  0 Multiplicity = 2

                         Standard orientation:
 ---------------------------------------------------------------------
 Center     Atomic      Atomic             Coordinates (Angstroms)
 Number     Number       Type             X           Y           Z
 ---------------------------------------------------------------------
      1         11           0       -1.595123   -0.107260    1.814558
      2         11           0        3.844506   -1.367456   -0.526532
      3         11           0        1.910876    0.301424    1.453860
      4         11           0        0.484574    2.907953   -0.205830
      5         11           0       -2.636073    1.009271   -0.949284
      6         11           0        0.322527   -0.239422   -1.492686
      7         11           0       -2.331287   -2.504510   -0.094086
 ---------------------------------------------------------------------

 SCF Done:  E(UB3LYP) =  -1136.12647248     A.U. after   22 cycles

 The electronic state is 2-A.
 Alpha  occ. eigenvalues --  -38.44428 -38.44013 -38.43890 -38.43877 -38.43770
 Alpha  occ. eigenvalues --  -38.43517 -38.43104  -2.20320  -2.19824  -2.19806
 Alpha  occ. eigenvalues --   -2.19799  -2.19603  -2.19423  -2.18937  -1.14032
 Alpha  occ. eigenvalues --   -1.14017  -1.13893  -1.13514  -1.13497  -1.13485
 Alpha  occ. eigenvalues --   -1.13485  -1.13461  -1.13451  -1.13444  -1.13441
 Alpha  occ. eigenvalues --   -1.13414  -1.13261  -1.13258  -1.13229  -1.13111
 Alpha  occ. eigenvalues --   -1.13079  -1.13035  -1.12617  -1.12600  -1.12570
 Alpha  occ. eigenvalues --   -0.18509  -0.13594  -0.11557  -0.11179
 Alpha virt. eigenvalues --   -0.06292  -0.05217  -0.04447  -0.03199  -0.02751
 Alpha virt. eigenvalues --   -0.02582  -0.01977  -0.01231  -0.00538  -0.00148
 Alpha virt. eigenvalues --    0.00224   0.00261   0.00329   0.00703   0.00771

  Beta  occ. eigenvalues --  -38.44401 -38.44009 -38.43824 -38.43820 -38.43769
  Beta  occ. eigenvalues --  -38.43481 -38.43105  -2.20274  -2.19796  -2.19707
  Beta  occ. eigenvalues --   -2.19695  -2.19603  -2.19359  -2.18941  -1.13997
  Beta  occ. eigenvalues --   -1.13965  -1.13864  -1.13480  -1.13455  -1.13443
  Beta  occ. eigenvalues --   -1.13436  -1.13419  -1.13396  -1.13379  -1.13360
  Beta  occ. eigenvalues --   -1.13341  -1.13258  -1.13235  -1.13217  -1.13070
  Beta  occ. eigenvalues --   -1.13035  -1.12970  -1.12623  -1.12581  -1.12575
  Beta  occ. eigenvalues --   -0.17759  -0.13440  -0.11349
  Beta virt. eigenvalues --   -0.07230  -0.06159  -0.05094  -0.03862  -0.03043
  Beta virt. eigenvalues --   -0.02141  -0.01905  -0.01615  -0.01149  -0.00203
  Beta virt. eigenvalues --   -0.00147   0.00281   0.00292   0.00450   0.00760

 Mulliken charges and spin densities:
               1          2
     1  Na  -0.112160   0.411776
     2  Na   0.160804   0.047702
     3  Na   0.110840   0.073006
     4  Na  -0.162897   0.006566
     5  Na   0.782961   0.108959
     6  Na  -0.681286   0.368775
     7  Na  -0.098262  -0.016785
 Sum of Mulliken charges =  -0.00000   1.00000

 Dipole moment (field-independent basis, Debye):
    X=             -0.3378    Y=             -0.0183    Z=             -0.3122  Tot=              0.4604
 Quadrupole moment (field-independent basis, Debye-Ang):
   XX=            -57.0115   YY=            -66.4805   ZZ=            -70.6621
   XY=             -0.4829   XZ=              0.5509   YZ=              1.7920

 Normal termination of Gaussian 16 at Wed Nov 29 16:08:53 2023.
