 Gaussian 16, Revision B.01,
 Gaussian 16:  ES64L-G16RevB.01 20-Dec-2017

 -------------------------
 #P B3LYP/6-311+g(d) force
 -------------------------

 -----
 DPGEN
 -----
 Symbolic Z-matrix:
 Charge =  0 Multiplicity = 2

                         Standard orientation:
 ---------------------------------------------------------------------
 Center     Atomic      Atomic             Coordinates (Angstroms)
 Number     Number       Type             X           Y           Z
 ---------------------------------------------------------------------
      1         11           0       -0.249327   -1.908772   -0.891483
      2         11           0       -3.514970   -2.568944    0.283024
      3         11           0       -2.707396    0.347117    1.168283
      4         11           0       -2.384562    3.244856   -0.661155
      5         11           0        0.354517    1.285961    0.164446
      6         11           0        3.255926   -0.409694   -1.322582
      7         11           0        5.245812    0.009476    1.259466
 ---------------------------------------------------------------------

 SCF Done:  E(UB3LYP) =  -1136.12375633     A.U. after   20 cycles

 The electronic state is 2-A.
 Alpha  occ. eigenvalues --  -38.44443 -38.44143 -38.44024 -38.43977 -38.43918
 Alpha  occ. eigenvalues --  -38.43892 -38.43313  -2.20253  -2.20007  -2.19871
 Alpha  occ. eigenvalues --   -2.19854  -2.19728  -2.19691  -2.19149  -1.13892
 Alpha  occ. eigenvalues --   -1.13886  -1.13874  -1.13738  -1.13702  -1.13605
 Alpha  occ. eigenvalues --   -1.13572  -1.13545  -1.13538  -1.13529  -1.13480
 Alpha  occ. eigenvalues --   -1.13438  -1.13412  -1.13397  -1.13370  -1.13358
 Alpha  occ. eigenvalues --   -1.13356  -1.13307  -1.12823  -1.12799  -1.12770
 Alpha  occ. eigenvalues --   -0.17092  -0.14079  -0.12094  -0.11040
 Alpha virt. eigenvalues --   -0.06047  -0.05327  -0.04745  -0.03641  -0.02750
 Alpha virt. eigenvalues --   -0.02218  -0.01967  -0.01942  -0.00678  -0.00456
 Alpha virt. eigenvalues --   -0.00278   0.00065   0.00162   0.00375   0.00635

  Beta  occ. eigenvalues --  -38.44341 -38.44121 -38.43980 -38.43953 -38.43920
  Beta  occ. eigenvalues --  -38.43889 -38.43291  -2.20062  -2.19970  -2.19828
  Beta  occ. eigenvalues --   -2.19776  -2.19740  -2.19685  -2.19109  -1.13763
  Beta  occ. eigenvalues --   -1.13755  -1.13749  -1.13716  -1.13668  -1.13570
  Beta  occ. eigenvalues --   -1.13541  -1.13512  -1.13489  -1.13484  -1.13445
  Beta  occ. eigenvalues --   -1.13428  -1.13409  -1.13370  -1.13353  -1.13348
  Beta  occ. eigenvalues --   -1.13320  -1.13303  -1.12787  -1.12772  -1.12748
  Beta  occ. eigenvalues --   -0.16566  -0.13265  -0.11993
  Beta virt. eigenvalues --   -0.07462  -0.05957  -0.04759  -0.04478  -0.03441
  Beta virt. eigenvalues --   -0.02474  -0.02005  -0.01681  -0.01444  -0.00426
  Beta virt. eigenvalues --   -0.00247  -0.00174   0.00287   0.00355   0.00493

 Mulliken charges and spin densities:
               1          2
     1  Na  -0.413500   0.089577
     2  Na   0.625185   0.245276
     3  Na  -0.292819   0.135415
     4  Na   0.777831   0.053654
     5  Na  -0.968402   0.047297
     6  Na   0.267628  -0.098537
     7  Na   0.004078   0.527317
 Sum of Mulliken charges =  -0.00000   1.00000

 Dipole moment (field-independent basis, Debye):
    X=             -0.4598    Y=              0.3108    Z=             -0.3928  Tot=              0.6799
 Quadrupole moment (field-independent basis, Debye-Ang):
   XX=            -66.6017   YY=            -67.7102   ZZ=            -64.9919
   XY=             -1.6163   XZ=              2.0833   YZ=             -0.3760

 Normal termination of Gaussian 16 at Tue Nov 28 22:07:31 2023.
