 Gaussian 16, Revision B.01,
 Gaussian 16:  ES64L-G16RevB.01 20-Dec-2017

 -------------------------
 #P B3LYP/6-311+g(d) force
 -------------------------

 -----
 DPGEN
 -----
 Symbolic Z-matrix:
 Charge =  0 Multiplicity = 2

                         Standard orientation:
 ---------------------------------------------------------------------
 Center     Atomic      Atomic             Coordinates (Angstroms)
 Number     Number       Type             X           Y           Z
 ---------------------------------------------------------------------
      1         11           0       -0.753593    0.291288    1.877707
      2         11           0       -0.654183   -1.999647   -0.569884
      3         11           0       -3.743995    0.005496   -0.031334
      4         11           0        2.158171   -1.425688    1.276232
      5         11           0        2.094479   -0.386823   -1.797889
      6         11           0        1.807337    2.213820    0.460557
      7         11           0       -0.908216    1.301554   -1.215389
 ---------------------------------------------------------------------

 SCF Done:  E(UB3LYP) =  -1136.13331979     A.U. after   22 cycles

 The electronic state is 2-A.
 Alpha  occ. eigenvalues --  -38.44665 -38.44049 -38.44048 -38.43553 -38.43118
 Alpha  occ. eigenvalues --  -38.42807 -38.42547  -2.20479  -2.19993  -2.19959
 Alpha  occ. eigenvalues --   -2.19443  -2.19082  -2.18723  -2.18421  -1.14157
 Alpha  occ. eigenvalues --   -1.14135  -1.14109  -1.13700  -1.13645  -1.13625
 Alpha  occ. eigenvalues --   -1.13621  -1.13602  -1.13558  -1.13120  -1.13097
 Alpha  occ. eigenvalues --   -1.13061  -1.12797  -1.12746  -1.12685  -1.12438
 Alpha  occ. eigenvalues --   -1.12405  -1.12305  -1.12091  -1.12078  -1.12068
 Alpha  occ. eigenvalues --   -0.19127  -0.13568  -0.11906  -0.11285
 Alpha virt. eigenvalues --   -0.06203  -0.04495  -0.04208  -0.03273  -0.02960
 Alpha virt. eigenvalues --   -0.02789  -0.02040  -0.00683  -0.00528   0.00179
 Alpha virt. eigenvalues --    0.00293   0.00425   0.00490   0.00918   0.00937

  Beta  occ. eigenvalues --  -38.44665 -38.43995 -38.43977 -38.43525 -38.43086
  Beta  occ. eigenvalues --  -38.42790 -38.42540  -2.20481  -2.19865  -2.19861
  Beta  occ. eigenvalues --   -2.19394  -2.19027  -2.18696  -2.18412  -1.14151
  Beta  occ. eigenvalues --   -1.14136  -1.14112  -1.13620  -1.13564  -1.13559
  Beta  occ. eigenvalues --   -1.13526  -1.13502  -1.13490  -1.13075  -1.13063
  Beta  occ. eigenvalues --   -1.13020  -1.12765  -1.12681  -1.12647  -1.12425
  Beta  occ. eigenvalues --   -1.12350  -1.12292  -1.12087  -1.12068  -1.12045
  Beta  occ. eigenvalues --   -0.18297  -0.13409  -0.11080
  Beta virt. eigenvalues --   -0.07776  -0.06076  -0.04210  -0.03844  -0.03037
  Beta virt. eigenvalues --   -0.02187  -0.02032  -0.01874  -0.00515  -0.00266
  Beta virt. eigenvalues --    0.00230   0.00333   0.00451   0.00595   0.00952

 Mulliken charges and spin densities:
               1          2
     1  Na  -0.176807   0.430344
     2  Na  -0.237574   0.113609
     3  Na   0.391622  -0.034735
     4  Na   0.097126   0.068006
     5  Na   0.202779   0.174256
     6  Na  -0.083135  -0.030679
     7  Na  -0.194011   0.279199
 Sum of Mulliken charges =  -0.00000   1.00000

 Dipole moment (field-independent basis, Debye):
    X=             -0.7843    Y=             -0.1444    Z=              0.0722  Tot=              0.8008
 Quadrupole moment (field-independent basis, Debye-Ang):
   XX=            -50.3565   YY=            -77.2218   ZZ=            -65.3829
   XY=              0.1071   XZ=              0.0943   YZ=              0.4190

 Normal termination of Gaussian 16 at Tue Dec  5 09:56:01 2023.
