 Gaussian 16, Revision B.01,
 Gaussian 16:  ES64L-G16RevB.01 20-Dec-2017

 -------------------------
 #P B3LYP/6-311+g(d) force
 -------------------------

 -----
 DPGEN
 -----
 Symbolic Z-matrix:
 Charge =  0 Multiplicity = 2

                         Standard orientation:
 ---------------------------------------------------------------------
 Center     Atomic      Atomic             Coordinates (Angstroms)
 Number     Number       Type             X           Y           Z
 ---------------------------------------------------------------------
      1         11           0        1.335953    2.244248   -0.175297
      2         11           0       -0.209688   -0.445415   -1.762766
      3         11           0       -2.350147    2.125602   -0.040969
      4         11           0        1.051565   -2.393667    0.063037
      5         11           0       -0.274542   -0.108634    1.914018
      6         11           0        3.325339    0.047962    0.037583
      7         11           0       -2.878481   -1.470098   -0.035606
 ---------------------------------------------------------------------

 SCF Done:  E(UB3LYP) =  -1136.13091967     A.U. after   21 cycles

 The electronic state is 2-A.
 Alpha  occ. eigenvalues --  -38.44527 -38.44501 -38.43781 -38.43488 -38.43432
 Alpha  occ. eigenvalues --  -38.43180 -38.43099  -2.20390  -2.20325  -2.19592
 Alpha  occ. eigenvalues --   -2.19421  -2.19408  -2.19107  -2.18994  -1.14111
 Alpha  occ. eigenvalues --   -1.14031  -1.14026  -1.14009  -1.13987  -1.13954
 Alpha  occ. eigenvalues --   -1.13266  -1.13252  -1.13236  -1.13177  -1.13107
 Alpha  occ. eigenvalues --   -1.13055  -1.13046  -1.13034  -1.13015  -1.12771
 Alpha  occ. eigenvalues --   -1.12762  -1.12699  -1.12675  -1.12651  -1.12633
 Alpha  occ. eigenvalues --   -0.18935  -0.13513  -0.12084  -0.10783
 Alpha virt. eigenvalues --   -0.06192  -0.05412  -0.03922  -0.03406  -0.02700
 Alpha virt. eigenvalues --   -0.02514  -0.01975  -0.01197  -0.00293  -0.00043
 Alpha virt. eigenvalues --   -0.00004   0.00315   0.00726   0.00849   0.00884

  Beta  occ. eigenvalues --  -38.44528 -38.44497 -38.43780 -38.43400 -38.43357
  Beta  occ. eigenvalues --  -38.43168 -38.43092  -2.20394  -2.20320  -2.19592
  Beta  occ. eigenvalues --   -2.19271  -2.19259  -2.19091  -2.18985  -1.14116
  Beta  occ. eigenvalues --   -1.14031  -1.14014  -1.13992  -1.13971  -1.13955
  Beta  occ. eigenvalues --   -1.13254  -1.13245  -1.13240  -1.13097  -1.13002
  Beta  occ. eigenvalues --   -1.12950  -1.12937  -1.12921  -1.12914  -1.12752
  Beta  occ. eigenvalues --   -1.12702  -1.12693  -1.12671  -1.12634  -1.12612
  Beta  occ. eigenvalues --   -0.18189  -0.13297  -0.11825
  Beta virt. eigenvalues --   -0.06845  -0.06131  -0.05423  -0.03912  -0.02608
  Beta virt. eigenvalues --   -0.01922  -0.01875  -0.01439  -0.01155  -0.00354
  Beta virt. eigenvalues --   -0.00038   0.00111   0.00342   0.00781   0.00855

 Mulliken charges and spin densities:
               1          2
     1  Na   0.210776  -0.053251
     2  Na  -0.541790   0.644578
     3  Na  -0.027486  -0.094474
     4  Na   0.681069  -0.062016
     5  Na  -0.585293   0.714519
     6  Na  -0.085473  -0.024242
     7  Na   0.348197  -0.125114
 Sum of Mulliken charges =  -0.00000   1.00000

 Dipole moment (field-independent basis, Debye):
    X=             -0.3754    Y=             -0.2005    Z=              0.0906  Tot=              0.4351
 Quadrupole moment (field-independent basis, Debye-Ang):
   XX=            -50.8502   YY=            -67.9703   ZZ=            -74.3584
   XY=             -0.1225   XZ=              0.2647   YZ=             -0.7082

 Normal termination of Gaussian 16 at Tue Dec  5 12:13:11 2023.
