 Gaussian 16, Revision B.01,
 Gaussian 16:  ES64L-G16RevB.01 20-Dec-2017

 -------------------------
 #P B3LYP/6-311+g(d) force
 -------------------------

 -----
 DPGEN
 -----
 Symbolic Z-matrix:
 Charge =  0 Multiplicity = 2

                         Standard orientation:
 ---------------------------------------------------------------------
 Center     Atomic      Atomic             Coordinates (Angstroms)
 Number     Number       Type             X           Y           Z
 ---------------------------------------------------------------------
      1         11           0        1.442175   -1.497875   -0.922589
      2         11           0        4.280256   -1.009276    0.959316
      3         11           0       -3.890181   -0.163381    1.177887
      4         11           0       -0.291464    0.208479    1.357893
      5         11           0       -2.577225   -1.485362   -1.322778
      6         11           0        2.375804    1.982213   -0.775348
      7         11           0       -1.339364    1.965202   -0.474381
 ---------------------------------------------------------------------

 SCF Done:  E(UB3LYP) =  -1136.11250031     A.U. after   26 cycles

 The electronic state is 2-A.
 Alpha  occ. eigenvalues --  -38.45541 -38.44781 -38.44059 -38.44043 -38.43689
 Alpha  occ. eigenvalues --  -38.43678 -38.43516  -2.21473  -2.20561  -2.19927
 Alpha  occ. eigenvalues --   -2.19893  -2.19530  -2.19489  -2.19430  -1.15265
 Alpha  occ. eigenvalues --   -1.15141  -1.15037  -1.14267  -1.14220  -1.14174
 Alpha  occ. eigenvalues --   -1.13664  -1.13585  -1.13562  -1.13546  -1.13525
 Alpha  occ. eigenvalues --   -1.13474  -1.13258  -1.13198  -1.13190  -1.13160
 Alpha  occ. eigenvalues --   -1.13147  -1.13137  -1.13082  -1.13071  -1.12986
 Alpha  occ. eigenvalues --   -0.18216  -0.14425  -0.11155  -0.10510
 Alpha virt. eigenvalues --   -0.07136  -0.05547  -0.04799  -0.03131  -0.03085
 Alpha virt. eigenvalues --   -0.02314  -0.01809  -0.01375  -0.01190  -0.00335
 Alpha virt. eigenvalues --   -0.00124   0.00243   0.00299   0.00326   0.00601

  Beta  occ. eigenvalues --  -38.45520 -38.44791 -38.44009 -38.44001 -38.43654
  Beta  occ. eigenvalues --  -38.43640 -38.43513  -2.21438  -2.20581  -2.19835
  Beta  occ. eigenvalues --   -2.19817  -2.19491  -2.19428  -2.19397  -1.15247
  Beta  occ. eigenvalues --   -1.15086  -1.15015  -1.14276  -1.14236  -1.14182
  Beta  occ. eigenvalues --   -1.13604  -1.13526  -1.13508  -1.13481  -1.13462
  Beta  occ. eigenvalues --   -1.13407  -1.13237  -1.13194  -1.13166  -1.13101
  Beta  occ. eigenvalues --   -1.13083  -1.13071  -1.13052  -1.13024  -1.12984
  Beta  occ. eigenvalues --   -0.17600  -0.14044  -0.10861
  Beta virt. eigenvalues --   -0.07002  -0.06928  -0.05339  -0.04231  -0.02970
  Beta virt. eigenvalues --   -0.02846  -0.01875  -0.01344  -0.01232  -0.00705
  Beta virt. eigenvalues --   -0.00239  -0.00004   0.00291   0.00422   0.00501

 Mulliken charges and spin densities:
               1          2
     1  Na  -0.377115   0.034901
     2  Na   0.414030   0.432650
     3  Na   1.254515   0.332599
     4  Na  -0.959463  -0.082620
     5  Na  -0.524282   0.137758
     6  Na   0.110418  -0.005907
     7  Na   0.081897   0.150620
 Sum of Mulliken charges =  -0.00000   1.00000

 Dipole moment (field-independent basis, Debye):
    X=             -0.2098    Y=              0.7793    Z=             -0.2162  Tot=              0.8354
 Quadrupole moment (field-independent basis, Debye-Ang):
   XX=            -59.7144   YY=            -75.6078   ZZ=            -65.7942
   XY=              3.7727   XZ=              0.1388   YZ=             -3.4091

 Normal termination of Gaussian 16 at Thu Dec  7 20:53:56 2023.
