 Gaussian 16, Revision B.01,
 Gaussian 16:  ES64L-G16RevB.01 20-Dec-2017

 -------------------------
 #P B3LYP/6-311+g(d) force
 -------------------------

 -----
 DPGEN
 -----
 Symbolic Z-matrix:
 Charge =  0 Multiplicity = 2

                         Standard orientation:
 ---------------------------------------------------------------------
 Center     Atomic      Atomic             Coordinates (Angstroms)
 Number     Number       Type             X           Y           Z
 ---------------------------------------------------------------------
      1         11           0        0.913105   -1.861833    0.612329
      2         11           0       -2.023752   -2.547471    0.416925
      3         11           0       -4.712405   -0.940758   -0.855225
      4         11           0       -3.287166    2.685000   -0.489982
      5         11           0       -0.939629    2.343752    1.169349
      6         11           0        4.561947   -1.486423   -0.459980
      7         11           0        5.487900    1.807732   -0.393416
 ---------------------------------------------------------------------

 SCF Done:  E(UB3LYP) =  -1136.10306204     A.U. after   20 cycles

 The electronic state is 2-A.
 Alpha  occ. eigenvalues --  -38.45262 -38.45175 -38.44836 -38.44561 -38.43906
 Alpha  occ. eigenvalues --  -38.43745 -38.43565  -2.21021  -2.20978  -2.20588
 Alpha  occ. eigenvalues --   -2.20386  -2.19732  -2.19567  -2.19389  -1.14678
 Alpha  occ. eigenvalues --   -1.14676  -1.14642  -1.14621  -1.14612  -1.14588
 Alpha  occ. eigenvalues --   -1.14268  -1.14255  -1.14227  -1.14109  -1.14021
 Alpha  occ. eigenvalues --   -1.14003  -1.13432  -1.13382  -1.13375  -1.13251
 Alpha  occ. eigenvalues --   -1.13216  -1.13198  -1.13052  -1.13047  -1.13043
 Alpha  occ. eigenvalues --   -0.15767  -0.13941  -0.12324  -0.11616
 Alpha virt. eigenvalues --   -0.07083  -0.05035  -0.04534  -0.03648  -0.03449
 Alpha virt. eigenvalues --   -0.02513  -0.02139  -0.01746  -0.01267  -0.00790
 Alpha virt. eigenvalues --   -0.00479  -0.00399   0.00032   0.00390   0.00523

  Beta  occ. eigenvalues --  -38.45218 -38.45065 -38.44850 -38.44514 -38.43860
  Beta  occ. eigenvalues --  -38.43753 -38.43575  -2.20938  -2.20775  -2.20616
  Beta  occ. eigenvalues --   -2.20298  -2.19645  -2.19587  -2.19414  -1.14621
  Beta  occ. eigenvalues --   -1.14618  -1.14589  -1.14483  -1.14477  -1.14451
  Beta  occ. eigenvalues --   -1.14290  -1.14275  -1.14231  -1.14056  -1.13961
  Beta  occ. eigenvalues --   -1.13941  -1.13390  -1.13321  -1.13313  -1.13251
  Beta  occ. eigenvalues --   -1.13233  -1.13201  -1.13074  -1.13066  -1.13014
  Beta  occ. eigenvalues --   -0.15085  -0.13490  -0.11925
  Beta virt. eigenvalues --   -0.08287  -0.06754  -0.04514  -0.04083  -0.03421
  Beta virt. eigenvalues --   -0.03120  -0.02349  -0.01935  -0.01423  -0.01145
  Beta virt. eigenvalues --   -0.00457  -0.00381  -0.00071   0.00222   0.00464

 Mulliken charges and spin densities:
               1          2
     1  Na   0.201427   0.067971
     2  Na  -0.488262   0.035532
     3  Na  -0.201484   0.569802
     4  Na   0.617462  -0.074433
     5  Na  -0.639734   0.251276
     6  Na   0.613197  -0.061919
     7  Na  -0.102606   0.211771
 Sum of Mulliken charges =  -0.00000   1.00000

 Dipole moment (field-independent basis, Debye):
    X=              0.7494    Y=              0.7412    Z=             -0.3036  Tot=              1.0969
 Quadrupole moment (field-independent basis, Debye-Ang):
   XX=            -56.8804   YY=            -68.3120   ZZ=            -71.8015
   XY=              3.6026   XZ=              3.4628   YZ=              0.2066

 Normal termination of Gaussian 16 at Sun Dec  3 11:55:30 2023.
