 Gaussian 16, Revision B.01,
 Gaussian 16:  ES64L-G16RevB.01 20-Dec-2017

 -------------------------
 #P B3LYP/6-311+g(d) force
 -------------------------

 -----
 DPGEN
 -----
 Symbolic Z-matrix:
 Charge =  0 Multiplicity = 2

                         Standard orientation:
 ---------------------------------------------------------------------
 Center     Atomic      Atomic             Coordinates (Angstroms)
 Number     Number       Type             X           Y           Z
 ---------------------------------------------------------------------
      1         11           0       -0.075085   -0.083762   -1.665266
      2         11           0        2.584921    1.764317   -0.495696
      3         11           0       -1.383055    2.450221    0.100385
      4         11           0       -3.555826   -0.336488   -0.044012
      5         11           0       -0.791324   -2.523877   -0.087952
      6         11           0        2.929383   -1.516885    0.163372
      7         11           0        0.290985    0.246475    2.029170
 ---------------------------------------------------------------------

 SCF Done:  E(UB3LYP) =  -1136.13206703     A.U. after   19 cycles

 The electronic state is 2-A.
 Alpha  occ. eigenvalues --  -38.45022 -38.44288 -38.43951 -38.43576 -38.43512
 Alpha  occ. eigenvalues --  -38.43089 -38.42947  -2.20805  -2.20101  -2.19783
 Alpha  occ. eigenvalues --   -2.19480  -2.19464  -2.18940  -2.18824  -1.14480
 Alpha  occ. eigenvalues --   -1.14458  -1.14446  -1.13772  -1.13770  -1.13740
 Alpha  occ. eigenvalues --   -1.13462  -1.13438  -1.13415  -1.13210  -1.13150
 Alpha  occ. eigenvalues --   -1.13127  -1.13090  -1.13083  -1.13077  -1.12625
 Alpha  occ. eigenvalues --   -1.12615  -1.12558  -1.12538  -1.12481  -1.12418
 Alpha  occ. eigenvalues --   -0.18517  -0.13397  -0.11854  -0.10687
 Alpha virt. eigenvalues --   -0.06496  -0.05298  -0.03939  -0.03342  -0.02655
 Alpha virt. eigenvalues --   -0.02513  -0.02207  -0.01253  -0.00382  -0.00152
 Alpha virt. eigenvalues --   -0.00067   0.00280   0.00688   0.00776   0.00844

  Beta  occ. eigenvalues --  -38.45024 -38.44285 -38.43937 -38.43482 -38.43448
  Beta  occ. eigenvalues --  -38.43083 -38.42940  -2.20811  -2.20097  -2.19759
  Beta  occ. eigenvalues --   -2.19365  -2.19291  -2.18933  -2.18815  -1.14477
  Beta  occ. eigenvalues --   -1.14460  -1.14450  -1.13772  -1.13746  -1.13740
  Beta  occ. eigenvalues --   -1.13436  -1.13413  -1.13399  -1.13127  -1.13065
  Beta  occ. eigenvalues --   -1.13018  -1.12994  -1.12968  -1.12958  -1.12623
  Beta  occ. eigenvalues --   -1.12581  -1.12557  -1.12526  -1.12455  -1.12412
  Beta  occ. eigenvalues --   -0.17793  -0.13200  -0.11593
  Beta virt. eigenvalues --   -0.06779  -0.06426  -0.05291  -0.03916  -0.02625
  Beta virt. eigenvalues --   -0.02126  -0.01869  -0.01449  -0.01186  -0.00408
  Beta virt. eigenvalues --   -0.00174   0.00077   0.00309   0.00758   0.00840

 Mulliken charges and spin densities:
               1          2
     1  Na  -0.245927   0.517395
     2  Na   0.165865  -0.005254
     3  Na   0.165542  -0.081123
     4  Na   0.023073  -0.066747
     5  Na   0.169702  -0.083144
     6  Na   0.151653  -0.009979
     7  Na  -0.429908   0.728852
 Sum of Mulliken charges =  -0.00000   1.00000

 Dipole moment (field-independent basis, Debye):
    X=             -0.1603    Y=             -0.0319    Z=              0.1334  Tot=              0.2110
 Quadrupole moment (field-independent basis, Debye-Ang):
   XX=            -48.6017   YY=            -68.6470   ZZ=            -74.7798
   XY=             -0.2774   XZ=             -0.5443   YZ=             -1.2462

 Normal termination of Gaussian 16 at Fri Dec  8 06:38:19 2023.
