 Gaussian 16, Revision B.01,
 Gaussian 16:  ES64L-G16RevB.01 20-Dec-2017

 -------------------------
 #P B3LYP/6-311+g(d) force
 -------------------------

 -----
 DPGEN
 -----
 Symbolic Z-matrix:
 Charge =  0 Multiplicity = 2

                         Standard orientation:
 ---------------------------------------------------------------------
 Center     Atomic      Atomic             Coordinates (Angstroms)
 Number     Number       Type             X           Y           Z
 ---------------------------------------------------------------------
      1         11           0       -0.644222   -2.876106   -0.405678
      2         11           0        3.204529   -1.899544    0.297909
      3         11           0        2.941364    1.685686   -0.303265
      4         11           0       -0.538232    3.068586    0.002298
      5         11           0       -2.574297   -0.068433   -1.556299
      6         11           0       -2.903256   -0.206401    1.562424
      7         11           0        0.514114    0.296211    0.402610
 ---------------------------------------------------------------------

 SCF Done:  E(UB3LYP) =  -1136.12064984     A.U. after   22 cycles

 The electronic state is 2-A.
 Alpha  occ. eigenvalues --  -38.44779 -38.44262 -38.44183 -38.44114 -38.44059
 Alpha  occ. eigenvalues --  -38.43404 -38.43128  -2.20624  -2.20047  -2.19978
 Alpha  occ. eigenvalues --   -2.19974  -2.19887  -2.19274  -2.19190  -1.14390
 Alpha  occ. eigenvalues --   -1.14281  -1.14206  -1.13722  -1.13701  -1.13687
 Alpha  occ. eigenvalues --   -1.13669  -1.13668  -1.13647  -1.13636  -1.13626
 Alpha  occ. eigenvalues --   -1.13605  -1.13575  -1.13539  -1.13489  -1.12941
 Alpha  occ. eigenvalues --   -1.12911  -1.12886  -1.12875  -1.12853  -1.12819
 Alpha  occ. eigenvalues --   -0.17922  -0.13864  -0.12408  -0.09569
 Alpha virt. eigenvalues --   -0.06459  -0.05909  -0.04890  -0.03272  -0.02198
 Alpha virt. eigenvalues --   -0.02184  -0.01496  -0.01439  -0.01153  -0.00857
 Alpha virt. eigenvalues --   -0.00213   0.00278   0.00516   0.00668   0.00710

  Beta  occ. eigenvalues --  -38.44780 -38.44257 -38.44165 -38.44074 -38.44054
  Beta  occ. eigenvalues --  -38.43322 -38.43118  -2.20627  -2.20040  -2.19945
  Beta  occ. eigenvalues --   -2.19903  -2.19878  -2.19174  -2.19121  -1.14393
  Beta  occ. eigenvalues --   -1.14281  -1.14204  -1.13715  -1.13696  -1.13682
  Beta  occ. eigenvalues --   -1.13648  -1.13630  -1.13609  -1.13600  -1.13586
  Beta  occ. eigenvalues --   -1.13569  -1.13531  -1.13521  -1.13481  -1.12869
  Beta  occ. eigenvalues --   -1.12832  -1.12824  -1.12814  -1.12792  -1.12778
  Beta  occ. eigenvalues --   -0.17450  -0.13543  -0.12231
  Beta virt. eigenvalues --   -0.06330  -0.05932  -0.05676  -0.04708  -0.02835
  Beta virt. eigenvalues --   -0.01973  -0.01726  -0.01412  -0.01057  -0.00829
  Beta virt. eigenvalues --   -0.00683   0.00169   0.00411   0.00672   0.00719

 Mulliken charges and spin densities:
               1          2
     1  Na   0.339104   0.153304
     2  Na   0.444062  -0.025795
     3  Na   0.492899  -0.196201
     4  Na   1.108072   0.073677
     5  Na   0.413112   0.262800
     6  Na   0.509770   0.309387
     7  Na  -3.307020   0.422829
 Sum of Mulliken charges =  -0.00000   1.00000

 Dipole moment (field-independent basis, Debye):
    X=              1.1557    Y=              0.2092    Z=             -0.6275  Tot=              1.3316
 Quadrupole moment (field-independent basis, Debye-Ang):
   XX=            -54.9143   YY=            -59.8796   ZZ=            -77.7349
   XY=             -0.9055   XZ=              1.7380   YZ=             -1.9683

 Normal termination of Gaussian 16 at Thu Dec  7 12:58:41 2023.
