 Gaussian 16, Revision B.01,
 Gaussian 16:  ES64L-G16RevB.01 20-Dec-2017

 -------------------------
 #P B3LYP/6-311+g(d) force
 -------------------------

 -----
 DPGEN
 -----
 Symbolic Z-matrix:
 Charge =  0 Multiplicity = 2

                         Standard orientation:
 ---------------------------------------------------------------------
 Center     Atomic      Atomic             Coordinates (Angstroms)
 Number     Number       Type             X           Y           Z
 ---------------------------------------------------------------------
      1         11           0       -1.460672   -1.802149   -0.554797
      2         11           0        0.690263   -0.264825    1.510986
      3         11           0        1.113577    3.454952   -0.294171
      4         11           0       -1.606022    1.869738   -0.345361
      5         11           0       -4.261094   -0.504142    0.223685
      6         11           0        3.718899   -0.246587   -0.079393
      7         11           0        1.805049   -2.506987   -0.460949
 ---------------------------------------------------------------------

 SCF Done:  E(UB3LYP) =  -1136.12159140     A.U. after   21 cycles

 The electronic state is 2-A.
 Alpha  occ. eigenvalues --  -38.45193 -38.44056 -38.43835 -38.43726 -38.43557
 Alpha  occ. eigenvalues --  -38.43372 -38.43358  -2.21086  -2.19989  -2.19629
 Alpha  occ. eigenvalues --   -2.19587  -2.19447  -2.19292  -2.19211  -1.14779
 Alpha  occ. eigenvalues --   -1.14753  -1.14704  -1.13707  -1.13645  -1.13640
 Alpha  occ. eigenvalues --   -1.13358  -1.13298  -1.13281  -1.13279  -1.13256
 Alpha  occ. eigenvalues --   -1.13155  -1.13097  -1.13075  -1.13052  -1.12999
 Alpha  occ. eigenvalues --   -1.12970  -1.12947  -1.12849  -1.12847  -1.12801
 Alpha  occ. eigenvalues --   -0.17968  -0.14128  -0.12708  -0.10066
 Alpha virt. eigenvalues --   -0.06739  -0.05367  -0.04797  -0.03149  -0.02888
 Alpha virt. eigenvalues --   -0.02377  -0.01705  -0.01151  -0.00881  -0.00741
 Alpha virt. eigenvalues --   -0.00152  -0.00035   0.00502   0.00524   0.00755

  Beta  occ. eigenvalues --  -38.45172 -38.44037 -38.43840 -38.43722 -38.43476
  Beta  occ. eigenvalues --  -38.43347 -38.43289  -2.21050  -2.19963  -2.19640
  Beta  occ. eigenvalues --   -2.19583  -2.19296  -2.19255  -2.19081  -1.14753
  Beta  occ. eigenvalues --   -1.14722  -1.14672  -1.13679  -1.13637  -1.13569
  Beta  occ. eigenvalues --   -1.13356  -1.13303  -1.13280  -1.13280  -1.13259
  Beta  occ. eigenvalues --   -1.13144  -1.12998  -1.12979  -1.12967  -1.12945
  Beta  occ. eigenvalues --   -1.12943  -1.12887  -1.12759  -1.12757  -1.12723
  Beta  occ. eigenvalues --   -0.17431  -0.13440  -0.12422
  Beta virt. eigenvalues --   -0.06585  -0.06510  -0.05237  -0.04551  -0.02712
  Beta virt. eigenvalues --   -0.02402  -0.02243  -0.01305  -0.00943  -0.00735
  Beta virt. eigenvalues --   -0.00559   0.00189   0.00217   0.00618   0.00724

 Mulliken charges and spin densities:
               1          2
     1  Na  -0.550629   0.001756
     2  Na   0.134264   0.068272
     3  Na   0.181565  -0.043098
     4  Na  -0.654050   0.023695
     5  Na   0.878090   0.387530
     6  Na  -0.085348   0.538692
     7  Na   0.096107   0.023154
 Sum of Mulliken charges =  -0.00000   1.00000

 Dipole moment (field-independent basis, Debye):
    X=              0.3724    Y=             -0.1554    Z=              0.2332  Tot=              0.4660
 Quadrupole moment (field-independent basis, Debye-Ang):
   XX=            -75.3134   YY=            -64.8478   ZZ=            -65.3776
   XY=              2.1826   XZ=             -1.5599   YZ=              0.8675

 Normal termination of Gaussian 16 at Tue Nov 28 20:55:35 2023.
