 Gaussian 16, Revision B.01,
 Gaussian 16:  ES64L-G16RevB.01 20-Dec-2017

 -------------------------
 #P B3LYP/6-311+g(d) force
 -------------------------

 -----
 DPGEN
 -----
 Symbolic Z-matrix:
 Charge =  0 Multiplicity = 2

                         Standard orientation:
 ---------------------------------------------------------------------
 Center     Atomic      Atomic             Coordinates (Angstroms)
 Number     Number       Type             X           Y           Z
 ---------------------------------------------------------------------
      1         11           0        1.791534    2.030218   -1.788424
      2         11           0       -3.528744    0.393278   -0.253139
      3         11           0       -0.062411   -1.476063    1.954867
      4         11           0       -1.116487    2.573070    0.379336
      5         11           0       -1.294046   -2.305162   -0.977826
      6         11           0        2.150723    0.560551    1.969945
      7         11           0        2.059431   -1.775891   -1.284759
 ---------------------------------------------------------------------

 SCF Done:  E(UB3LYP) =  -1136.12422611     A.U. after   20 cycles

 The electronic state is 2-A.
 Alpha  occ. eigenvalues --  -38.44554 -38.44500 -38.44476 -38.44402 -38.43655
 Alpha  occ. eigenvalues --  -38.43562 -38.43548  -2.20400  -2.20378  -2.20247
 Alpha  occ. eigenvalues --   -2.20208  -2.19446  -2.19401  -2.19333  -1.14232
 Alpha  occ. eigenvalues --   -1.14032  -1.14029  -1.13997  -1.13986  -1.13960
 Alpha  occ. eigenvalues --   -1.13917  -1.13895  -1.13886  -1.13877  -1.13844
 Alpha  occ. eigenvalues --   -1.13834  -1.13131  -1.13121  -1.13095  -1.13080
 Alpha  occ. eigenvalues --   -1.13071  -1.13015  -1.13011  -1.13003  -1.12954
 Alpha  occ. eigenvalues --   -0.17505  -0.12631  -0.12264  -0.12071
 Alpha virt. eigenvalues --   -0.05664  -0.05352  -0.04621  -0.03764  -0.03298
 Alpha virt. eigenvalues --   -0.03207  -0.01124  -0.00874  -0.00611  -0.00308
 Alpha virt. eigenvalues --   -0.00159   0.00264   0.00402   0.00494   0.00818

  Beta  occ. eigenvalues --  -38.44491 -38.44440 -38.44431 -38.44359 -38.43659
  Beta  occ. eigenvalues --  -38.43551 -38.43548  -2.20291  -2.20272  -2.20163
  Beta  occ. eigenvalues --   -2.20130  -2.19452  -2.19377  -2.19340  -1.14132
  Beta  occ. eigenvalues --   -1.13960  -1.13952  -1.13925  -1.13917  -1.13864
  Beta  occ. eigenvalues --   -1.13857  -1.13834  -1.13826  -1.13821  -1.13793
  Beta  occ. eigenvalues --   -1.13775  -1.13136  -1.13123  -1.13098  -1.13066
  Beta  occ. eigenvalues --   -1.13051  -1.13011  -1.13007  -1.12994  -1.12962
  Beta  occ. eigenvalues --   -0.16790  -0.12390  -0.12104
  Beta virt. eigenvalues --   -0.08066  -0.05510  -0.05196  -0.04053  -0.03540
  Beta virt. eigenvalues --   -0.02804  -0.02340  -0.01060  -0.00781  -0.00309
  Beta virt. eigenvalues --   -0.00152  -0.00097   0.00362   0.00515   0.00600

 Mulliken charges and spin densities:
               1          2
     1  Na   0.029126   0.158451
     2  Na   0.135357  -0.174996
     3  Na   0.024441   0.268692
     4  Na  -0.351758   0.146278
     5  Na   0.380813   0.174956
     6  Na   0.147659   0.090657
     7  Na  -0.365638   0.335963
 Sum of Mulliken charges =  -0.00000   1.00000

 Dipole moment (field-independent basis, Debye):
    X=              0.6106    Y=             -0.1995    Z=             -0.1415  Tot=              0.6577
 Quadrupole moment (field-independent basis, Debye-Ang):
   XX=            -63.2439   YY=            -70.1139   ZZ=            -65.5463
   XY=              1.2905   XZ=             -0.6891   YZ=              0.7762

 Normal termination of Gaussian 16 at Sun Dec  3 12:50:35 2023.
