 Gaussian 16, Revision B.01,
 Gaussian 16:  ES64L-G16RevB.01 20-Dec-2017

 -------------------------
 #P B3LYP/6-311+g(d) force
 -------------------------

 -----
 DPGEN
 -----
 Symbolic Z-matrix:
 Charge =  0 Multiplicity = 2

                         Standard orientation:
 ---------------------------------------------------------------------
 Center     Atomic      Atomic             Coordinates (Angstroms)
 Number     Number       Type             X           Y           Z
 ---------------------------------------------------------------------
      1         11           0       -3.144530   -1.374081   -0.308574
      2         11           0        2.071306    2.065793   -0.554106
      3         11           0       -0.308802    0.061443   -1.307142
      4         11           0        0.515043    0.237811    2.272624
      5         11           0        3.006967   -1.246345   -0.389950
      6         11           0       -1.931285    2.845850    0.095351
      7         11           0       -0.208699   -2.590471    0.191797
 ---------------------------------------------------------------------

 SCF Done:  E(UB3LYP) =  -1136.13081042     A.U. after   20 cycles

 The electronic state is 2-A.
 Alpha  occ. eigenvalues --  -38.44136 -38.44132 -38.43981 -38.43883 -38.43812
 Alpha  occ. eigenvalues --  -38.43151 -38.43081  -2.19956  -2.19891  -2.19826
 Alpha  occ. eigenvalues --   -2.19709  -2.19663  -2.19096  -2.19069  -1.13632
 Alpha  occ. eigenvalues --   -1.13620  -1.13591  -1.13568  -1.13551  -1.13539
 Alpha  occ. eigenvalues --   -1.13531  -1.13489  -1.13443  -1.13378  -1.13362
 Alpha  occ. eigenvalues --   -1.13348  -1.13322  -1.13290  -1.13266  -1.12907
 Alpha  occ. eigenvalues --   -1.12767  -1.12726  -1.12716  -1.12675  -1.12670
 Alpha  occ. eigenvalues --   -0.18364  -0.12987  -0.12232  -0.10699
 Alpha virt. eigenvalues --   -0.05879  -0.05510  -0.04455  -0.03007  -0.02773
 Alpha virt. eigenvalues --   -0.02584  -0.01724  -0.01488  -0.00511  -0.00272
 Alpha virt. eigenvalues --   -0.00053   0.00292   0.00703   0.00784   0.00867

  Beta  occ. eigenvalues --  -38.44139 -38.44130 -38.43963 -38.43874 -38.43699
  Beta  occ. eigenvalues --  -38.43142 -38.43045  -2.19952  -2.19897  -2.19798
  Beta  occ. eigenvalues --   -2.19697  -2.19456  -2.19059  -2.19027  -1.13629
  Beta  occ. eigenvalues --   -1.13612  -1.13589  -1.13563  -1.13555  -1.13537
  Beta  occ. eigenvalues --   -1.13514  -1.13459  -1.13420  -1.13368  -1.13342
  Beta  occ. eigenvalues --   -1.13333  -1.13182  -1.13149  -1.13119  -1.12880
  Beta  occ. eigenvalues --   -1.12717  -1.12699  -1.12675  -1.12653  -1.12635
  Beta  occ. eigenvalues --   -0.17664  -0.12735  -0.12076
  Beta virt. eigenvalues --   -0.06721  -0.05835  -0.05405  -0.04413  -0.02334
  Beta virt. eigenvalues --   -0.02081  -0.01686  -0.01456  -0.01402  -0.00521
  Beta virt. eigenvalues --   -0.00279   0.00128   0.00349   0.00741   0.00833

 Mulliken charges and spin densities:
               1          2
     1  Na   0.197837   0.015347
     2  Na   0.287626   0.070784
     3  Na  -0.261241   0.027668
     4  Na  -0.580843   0.698805
     5  Na   0.139000   0.069319
     6  Na  -0.076748  -0.014994
     7  Na   0.294369   0.133071
 Sum of Mulliken charges =  -0.00000   1.00000

 Dipole moment (field-independent basis, Debye):
    X=             -0.1680    Y=              0.2359    Z=              0.1941  Tot=              0.3487
 Quadrupole moment (field-independent basis, Debye-Ang):
   XX=            -54.4167   YY=            -63.0106   ZZ=            -74.9772
   XY=             -0.7814   XZ=             -1.2977   YZ=              0.1572

 Normal termination of Gaussian 16 at Thu Dec  7 07:46:57 2023.
