 Gaussian 16, Revision B.01,
 Gaussian 16:  ES64L-G16RevB.01 20-Dec-2017

 -------------------------
 #P B3LYP/6-311+g(d) force
 -------------------------

 -----
 DPGEN
 -----
 Symbolic Z-matrix:
 Charge =  0 Multiplicity = 2

                         Standard orientation:
 ---------------------------------------------------------------------
 Center     Atomic      Atomic             Coordinates (Angstroms)
 Number     Number       Type             X           Y           Z
 ---------------------------------------------------------------------
      1         11           0        2.598851    1.354349   -0.105182
      2         11           0       -1.389885    0.571663    1.265586
      3         11           0       -2.089840   -2.051224   -0.296160
      4         11           0        1.261698   -1.700801    0.051297
      5         11           0        4.482878   -0.913951   -0.110650
      6         11           0       -4.256236   -0.245434   -0.371580
      7         11           0       -0.607466    2.985397   -0.433312
 ---------------------------------------------------------------------

 SCF Done:  E(UB3LYP) =  -1136.11924913     A.U. after   20 cycles

 The electronic state is 2-A.
 Alpha  occ. eigenvalues --  -38.44187 -38.44183 -38.44153 -38.43939 -38.43688
 Alpha  occ. eigenvalues --  -38.43532 -38.43044  -2.20122  -2.20080  -2.20064
 Alpha  occ. eigenvalues --   -2.19828  -2.19646  -2.19437  -2.18876  -1.13875
 Alpha  occ. eigenvalues --   -1.13822  -1.13808  -1.13808  -1.13767  -1.13763
 Alpha  occ. eigenvalues --   -1.13751  -1.13674  -1.13654  -1.13461  -1.13454
 Alpha  occ. eigenvalues --   -1.13430  -1.13300  -1.13280  -1.13264  -1.13114
 Alpha  occ. eigenvalues --   -1.13111  -1.13038  -1.12564  -1.12529  -1.12502
 Alpha  occ. eigenvalues --   -0.17935  -0.14912  -0.12061  -0.10918
 Alpha virt. eigenvalues --   -0.06021  -0.05302  -0.04356  -0.03845  -0.02919
 Alpha virt. eigenvalues --   -0.02098  -0.01710  -0.01300  -0.00698  -0.00367
 Alpha virt. eigenvalues --   -0.00276   0.00043   0.00623   0.00637   0.00736

  Beta  occ. eigenvalues --  -38.44173 -38.44166 -38.44076 -38.43899 -38.43665
  Beta  occ. eigenvalues --  -38.43478 -38.43049  -2.20097  -2.20057  -2.19920
  Beta  occ. eigenvalues --   -2.19754  -2.19615  -2.19343  -2.18885  -1.13826
  Beta  occ. eigenvalues --   -1.13795  -1.13791  -1.13757  -1.13749  -1.13720
  Beta  occ. eigenvalues --   -1.13710  -1.13578  -1.13558  -1.13408  -1.13404
  Beta  occ. eigenvalues --   -1.13388  -1.13278  -1.13268  -1.13168  -1.13056
  Beta  occ. eigenvalues --   -1.13049  -1.12940  -1.12569  -1.12536  -1.12507
  Beta  occ. eigenvalues --   -0.17221  -0.14380  -0.11826
  Beta virt. eigenvalues --   -0.07168  -0.05858  -0.05127  -0.03892  -0.03445
  Beta virt. eigenvalues --   -0.02699  -0.01767  -0.01355  -0.00897  -0.00517
  Beta virt. eigenvalues --   -0.00222  -0.00042   0.00297   0.00721   0.00763

 Mulliken charges and spin densities:
               1          2
     1  Na  -0.674966   0.122368
     2  Na  -0.086008   0.225023
     3  Na  -0.404728  -0.286971
     4  Na  -0.664763   0.157542
     5  Na   1.735029   0.439196
     6  Na   0.178919   0.390554
     7  Na  -0.083482  -0.047711
 Sum of Mulliken charges =  -0.00000   1.00000

 Dipole moment (field-independent basis, Debye):
    X=              0.3493    Y=             -0.1661    Z=             -0.2076  Tot=              0.4390
 Quadrupole moment (field-independent basis, Debye-Ang):
   XX=            -61.5094   YY=            -69.8370   ZZ=            -67.9314
   XY=             -3.3139   XZ=              0.6565   YZ=             -0.9398

 Normal termination of Gaussian 16 at Tue Nov 28 21:29:28 2023.
