 Gaussian 16, Revision B.01,
 Gaussian 16:  ES64L-G16RevB.01 20-Dec-2017

 -------------------------
 #P B3LYP/6-311+g(d) force
 -------------------------

 -----
 DPGEN
 -----
 Symbolic Z-matrix:
 Charge =  0 Multiplicity = 2

                         Standard orientation:
 ---------------------------------------------------------------------
 Center     Atomic      Atomic             Coordinates (Angstroms)
 Number     Number       Type             X           Y           Z
 ---------------------------------------------------------------------
      1         11           0       -0.818970    2.368253   -0.426865
      2         11           0        3.127460   -1.192109    0.221114
      3         11           0        1.563248    0.936877   -1.968465
      4         11           0        0.837867    1.406065    2.055133
      5         11           0       -2.892652   -0.328422   -1.129888
      6         11           0       -1.544772   -0.948209    2.054290
      7         11           0       -0.272182   -2.242456   -0.805319
 ---------------------------------------------------------------------

 SCF Done:  E(UB3LYP) =  -1136.12808234     A.U. after   21 cycles

 The electronic state is 2-A.
 Alpha  occ. eigenvalues --  -38.44680 -38.44488 -38.44140 -38.44054 -38.43698
 Alpha  occ. eigenvalues --  -38.43072 -38.42824  -2.20536  -2.20336  -2.19989
 Alpha  occ. eigenvalues --   -2.19923  -2.19490  -2.18926  -2.18725  -1.14219
 Alpha  occ. eigenvalues --   -1.14172  -1.14156  -1.14022  -1.13975  -1.13959
 Alpha  occ. eigenvalues --   -1.13668  -1.13638  -1.13617  -1.13603  -1.13576
 Alpha  occ. eigenvalues --   -1.13535  -1.13160  -1.13147  -1.13134  -1.12626
 Alpha  occ. eigenvalues --   -1.12614  -1.12524  -1.12412  -1.12389  -1.12350
 Alpha  occ. eigenvalues --   -0.18311  -0.12788  -0.12428  -0.11760
 Alpha virt. eigenvalues --   -0.05647  -0.04883  -0.04228  -0.03704  -0.03554
 Alpha virt. eigenvalues --   -0.03405  -0.01307  -0.00707  -0.00443   0.00078
 Alpha virt. eigenvalues --    0.00309   0.00392   0.00477   0.00757   0.00851

  Beta  occ. eigenvalues --  -38.44620 -38.44442 -38.44117 -38.43999 -38.43698
  Beta  occ. eigenvalues --  -38.43065 -38.42806  -2.20428  -2.20253  -2.19947
  Beta  occ. eigenvalues --   -2.19823  -2.19492  -2.18914  -2.18695  -1.14141
  Beta  occ. eigenvalues --   -1.14101  -1.14068  -1.13961  -1.13920  -1.13897
  Beta  occ. eigenvalues --   -1.13633  -1.13613  -1.13583  -1.13540  -1.13495
  Beta  occ. eigenvalues --   -1.13461  -1.13152  -1.13150  -1.13136  -1.12610
  Beta  occ. eigenvalues --   -1.12598  -1.12521  -1.12391  -1.12345  -1.12333
  Beta  occ. eigenvalues --   -0.17490  -0.12654  -0.11593
  Beta virt. eigenvalues --   -0.08394  -0.05274  -0.04485  -0.03999  -0.03447
  Beta virt. eigenvalues --   -0.02931  -0.02611  -0.01221  -0.00441  -0.00315
  Beta virt. eigenvalues --    0.00201   0.00432   0.00462   0.00602   0.00844

 Mulliken charges and spin densities:
               1          2
     1  Na   0.158957   0.029254
     2  Na   0.115689   0.007109
     3  Na  -0.326303   0.123271
     4  Na   0.049609   0.427588
     5  Na   0.284099   0.228882
     6  Na  -0.304937   0.099032
     7  Na   0.022887   0.084865
 Sum of Mulliken charges =  -0.00000   1.00000

 Dipole moment (field-independent basis, Debye):
    X=             -0.1281    Y=             -0.1199    Z=              0.1522  Tot=              0.2323
 Quadrupole moment (field-independent basis, Debye-Ang):
   XX=            -61.5915   YY=            -74.7681   ZZ=            -61.4353
   XY=             -0.1359   XZ=              2.4454   YZ=             -3.2575

 Normal termination of Gaussian 16 at Sun Dec  3 22:45:35 2023.
