 Gaussian 16, Revision B.01,
 Gaussian 16:  ES64L-G16RevB.01 20-Dec-2017

 -------------------------
 #P B3LYP/6-311+g(d) force
 -------------------------

 -----
 DPGEN
 -----
 Symbolic Z-matrix:
 Charge =  0 Multiplicity = 2

                         Standard orientation:
 ---------------------------------------------------------------------
 Center     Atomic      Atomic             Coordinates (Angstroms)
 Number     Number       Type             X           Y           Z
 ---------------------------------------------------------------------
      1         11           0        4.704795    1.771287    0.227139
      2         11           0        0.629389   -2.541935   -0.185245
      3         11           0        0.985234    1.663603    0.506734
      4         11           0        3.993913   -1.679962   -0.584109
      5         11           0       -2.911329    3.191956   -0.150927
      6         11           0       -3.099978   -2.259818    1.034994
      7         11           0       -4.302025   -0.145130   -0.848585
 ---------------------------------------------------------------------

 SCF Done:  E(UB3LYP) =  -1136.10410117     A.U. after   26 cycles

 The electronic state is 2-A.
 Alpha  occ. eigenvalues --  -38.45891 -38.45759 -38.44683 -38.44235 -38.44151
 Alpha  occ. eigenvalues --  -38.44132 -38.43869  -2.21608  -2.21528  -2.20494
 Alpha  occ. eigenvalues --   -2.19972  -2.19955  -2.19936  -2.19646  -1.15309
 Alpha  occ. eigenvalues --   -1.15290  -1.15213  -1.15196  -1.15181  -1.15159
 Alpha  occ. eigenvalues --   -1.14199  -1.14155  -1.14114  -1.13653  -1.13629
 Alpha  occ. eigenvalues --   -1.13626  -1.13617  -1.13613  -1.13586  -1.13581
 Alpha  occ. eigenvalues --   -1.13579  -1.13552  -1.13325  -1.13321  -1.13259
 Alpha  occ. eigenvalues --   -0.15933  -0.14265  -0.12144  -0.10830
 Alpha virt. eigenvalues --   -0.07734  -0.05077  -0.04565  -0.03680  -0.03455
 Alpha virt. eigenvalues --   -0.02752  -0.02411  -0.01473  -0.00982  -0.00846
 Alpha virt. eigenvalues --   -0.00591  -0.00469   0.00113   0.00435   0.00476

  Beta  occ. eigenvalues --  -38.45857 -38.45731 -38.44656 -38.44234 -38.44134
  Beta  occ. eigenvalues --  -38.44054 -38.43834  -2.21546  -2.21482  -2.20447
  Beta  occ. eigenvalues --   -2.19970  -2.19928  -2.19791  -2.19583  -1.15270
  Beta  occ. eigenvalues --   -1.15242  -1.15187  -1.15149  -1.15141  -1.15091
  Beta  occ. eigenvalues --   -1.14159  -1.14126  -1.14080  -1.13652  -1.13632
  Beta  occ. eigenvalues --   -1.13608  -1.13602  -1.13595  -1.13559  -1.13487
  Beta  occ. eigenvalues --   -1.13478  -1.13461  -1.13284  -1.13278  -1.13211
  Beta  occ. eigenvalues --   -0.15336  -0.13692  -0.11576
  Beta virt. eigenvalues --   -0.07726  -0.07568  -0.04862  -0.04108  -0.03457
  Beta virt. eigenvalues --   -0.02954  -0.02530  -0.02118  -0.01400  -0.00711
  Beta virt. eigenvalues --   -0.00573  -0.00318  -0.00287   0.00187   0.00463

 Mulliken charges and spin densities:
               1          2
     1  Na   0.289331   0.413738
     2  Na  -0.276237   0.066410
     3  Na  -0.603683   0.269522
     4  Na   0.266247  -0.004047
     5  Na   0.312884  -0.075077
     6  Na  -0.010952   0.199332
     7  Na   0.022410   0.130122
 Sum of Mulliken charges =  -0.00000   1.00000

 Dipole moment (field-independent basis, Debye):
    X=              0.7954    Y=             -0.2324    Z=             -0.1275  Tot=              0.8385
 Quadrupole moment (field-independent basis, Debye-Ang):
   XX=            -57.8714   YY=            -71.5376   ZZ=            -70.3222
   XY=             -5.6616   XZ=             -0.3546   YZ=              0.3046

 Normal termination of Gaussian 16 at Sun Dec  3 21:35:53 2023.
