 Gaussian 16, Revision B.01,
 Gaussian 16:  ES64L-G16RevB.01 20-Dec-2017

 -------------------------
 #P B3LYP/6-311+g(d) force
 -------------------------

 -----
 DPGEN
 -----
 Symbolic Z-matrix:
 Charge =  0 Multiplicity = 2

                         Standard orientation:
 ---------------------------------------------------------------------
 Center     Atomic      Atomic             Coordinates (Angstroms)
 Number     Number       Type             X           Y           Z
 ---------------------------------------------------------------------
      1         11           0        3.046395   -0.911969   -0.475479
      2         11           0        0.315552   -2.496649    1.036710
      3         11           0       -0.049901   -0.634760   -1.740365
      4         11           0       -0.080469    0.887922    1.626277
      5         11           0       -2.452673    2.060808   -0.288459
      6         11           0       -2.892311   -1.267924   -0.158468
      7         11           0        2.113406    2.362571   -0.000215
 ---------------------------------------------------------------------

 SCF Done:  E(UB3LYP) =  -1136.13350861     A.U. after   19 cycles

 The electronic state is 2-A.
 Alpha  occ. eigenvalues --  -38.44144 -38.44111 -38.44063 -38.43822 -38.43590
 Alpha  occ. eigenvalues --  -38.43080 -38.43041  -2.19991  -2.19955  -2.19889
 Alpha  occ. eigenvalues --   -2.19652  -2.19511  -2.19029  -2.18924  -1.13683
 Alpha  occ. eigenvalues --   -1.13654  -1.13639  -1.13638  -1.13608  -1.13597
 Alpha  occ. eigenvalues --   -1.13571  -1.13546  -1.13512  -1.13367  -1.13303
 Alpha  occ. eigenvalues --   -1.13281  -1.13198  -1.13147  -1.13134  -1.12703
 Alpha  occ. eigenvalues --   -1.12674  -1.12663  -1.12589  -1.12563  -1.12553
 Alpha  occ. eigenvalues --   -0.18553  -0.13426  -0.12157  -0.10697
 Alpha virt. eigenvalues --   -0.05793  -0.05695  -0.04160  -0.03364  -0.03000
 Alpha virt. eigenvalues --   -0.02290  -0.01745  -0.01196  -0.00479  -0.00200
 Alpha virt. eigenvalues --    0.00052   0.00349   0.00708   0.00785   0.00890

  Beta  occ. eigenvalues --  -38.44138 -38.44098 -38.44059 -38.43821 -38.43533
  Beta  occ. eigenvalues --  -38.43016 -38.43002  -2.19984  -2.19933  -2.19883
  Beta  occ. eigenvalues --   -2.19652  -2.19407  -2.18913  -2.18854  -1.13672
  Beta  occ. eigenvalues --   -1.13652  -1.13615  -1.13613  -1.13586  -1.13582
  Beta  occ. eigenvalues --   -1.13561  -1.13539  -1.13503  -1.13358  -1.13298
  Beta  occ. eigenvalues --   -1.13277  -1.13125  -1.13076  -1.13055  -1.12628
  Beta  occ. eigenvalues --   -1.12587  -1.12584  -1.12535  -1.12511  -1.12492
  Beta  occ. eigenvalues --   -0.17864  -0.13142  -0.11956
  Beta virt. eigenvalues --   -0.06861  -0.05755  -0.05590  -0.04031  -0.02654
  Beta virt. eigenvalues --   -0.02341  -0.01617  -0.01336  -0.01150  -0.00481
  Beta virt. eigenvalues --   -0.00109   0.00145   0.00396   0.00762   0.00823

 Mulliken charges and spin densities:
               1          2
     1  Na   0.144584   0.097542
     2  Na  -0.174699   0.214952
     3  Na  -0.124896   0.435454
     4  Na   0.213001   0.270119
     5  Na  -0.165483  -0.023560
     6  Na   0.245732   0.049358
     7  Na  -0.138239  -0.043865
 Sum of Mulliken charges =  -0.00000   1.00000

 Dipole moment (field-independent basis, Debye):
    X=             -0.1617    Y=              0.0668    Z=             -0.2541  Tot=              0.3085
 Quadrupole moment (field-independent basis, Debye-Ang):
   XX=            -54.1287   YY=            -65.3196   ZZ=            -74.0366
   XY=             -0.1105   XZ=             -0.1956   YZ=             -2.7853

 Normal termination of Gaussian 16 at Fri Dec  8 02:32:04 2023.
