 Gaussian 16, Revision B.01,
 Gaussian 16:  ES64L-G16RevB.01 20-Dec-2017

 -------------------------
 #P B3LYP/6-311+g(d) force
 -------------------------

 -----
 DPGEN
 -----
 Symbolic Z-matrix:
 Charge =  0 Multiplicity = 2

                         Standard orientation:
 ---------------------------------------------------------------------
 Center     Atomic      Atomic             Coordinates (Angstroms)
 Number     Number       Type             X           Y           Z
 ---------------------------------------------------------------------
      1         11           0        0.447940    3.271807    0.344050
      2         11           0        2.781686   -1.951355    0.498511
      3         11           0        1.897225    0.691529   -1.312844
      4         11           0       -3.345868   -1.374001    0.187739
      5         11           0       -0.053513    0.175923    2.160834
      6         11           0       -0.017472   -1.966935   -0.896971
      7         11           0       -1.709998    1.153031   -0.981319
 ---------------------------------------------------------------------

 SCF Done:  E(UB3LYP) =  -1136.13645932     A.U. after   18 cycles

 The electronic state is 2-A.
 Alpha  occ. eigenvalues --  -38.44110 -38.43776 -38.43664 -38.43565 -38.43376
 Alpha  occ. eigenvalues --  -38.43361 -38.43269  -2.19956  -2.19632  -2.19483
 Alpha  occ. eigenvalues --   -2.19476  -2.19305  -2.19279  -2.19117  -1.13620
 Alpha  occ. eigenvalues --   -1.13580  -1.13577  -1.13332  -1.13303  -1.13270
 Alpha  occ. eigenvalues --   -1.13194  -1.13175  -1.13138  -1.13133  -1.13129
 Alpha  occ. eigenvalues --   -1.13077  -1.13012  -1.12976  -1.12966  -1.12954
 Alpha  occ. eigenvalues --   -1.12895  -1.12883  -1.12778  -1.12766  -1.12752
 Alpha  occ. eigenvalues --   -0.18527  -0.12990  -0.12530  -0.11036
 Alpha virt. eigenvalues --   -0.05549  -0.04912  -0.04662  -0.03396  -0.03045
 Alpha virt. eigenvalues --   -0.02826  -0.01502  -0.01230  -0.00362  -0.00092
 Alpha virt. eigenvalues --    0.00253   0.00370   0.00772   0.00826   0.00885

  Beta  occ. eigenvalues --  -38.44010 -38.43773 -38.43667 -38.43527 -38.43356
  Beta  occ. eigenvalues --  -38.43339 -38.43268  -2.19771  -2.19628  -2.19489
  Beta  occ. eigenvalues --   -2.19407  -2.19272  -2.19242  -2.19117  -1.13497
  Beta  occ. eigenvalues --   -1.13449  -1.13444  -1.13330  -1.13299  -1.13248
  Beta  occ. eigenvalues --   -1.13179  -1.13143  -1.13138  -1.13127  -1.13077
  Beta  occ. eigenvalues --   -1.13033  -1.12986  -1.12944  -1.12927  -1.12910
  Beta  occ. eigenvalues --   -1.12874  -1.12864  -1.12779  -1.12755  -1.12741
  Beta  occ. eigenvalues --   -0.17761  -0.12834  -0.12361
  Beta virt. eigenvalues --   -0.07047  -0.05384  -0.04831  -0.04642  -0.02695
  Beta virt. eigenvalues --   -0.02406  -0.01796  -0.01420  -0.01141  -0.00170
  Beta virt. eigenvalues --   -0.00066   0.00311   0.00427   0.00804   0.00859

 Mulliken charges and spin densities:
               1          2
     1  Na   0.429681  -0.091336
     2  Na   0.394422  -0.100632
     3  Na  -0.123260   0.158927
     4  Na   0.491512  -0.078796
     5  Na  -0.681373   0.758883
     6  Na  -0.256932   0.190635
     7  Na  -0.254050   0.162319
 Sum of Mulliken charges =  -0.00000   1.00000

 Dipole moment (field-independent basis, Debye):
    X=              0.1361    Y=             -0.1454    Z=              0.3322  Tot=              0.3873
 Quadrupole moment (field-independent basis, Debye-Ang):
   XX=            -59.1748   YY=            -63.4687   ZZ=            -71.3407
   XY=              0.3038   XZ=              0.1048   YZ=             -0.9987

 Normal termination of Gaussian 16 at Fri Dec  8 02:53:30 2023.
