 Gaussian 16, Revision B.01,
 Gaussian 16:  ES64L-G16RevB.01 20-Dec-2017

 -------------------------
 #P B3LYP/6-311+g(d) force
 -------------------------

 -----
 DPGEN
 -----
 Symbolic Z-matrix:
 Charge =  0 Multiplicity = 2

                         Standard orientation:
 ---------------------------------------------------------------------
 Center     Atomic      Atomic             Coordinates (Angstroms)
 Number     Number       Type             X           Y           Z
 ---------------------------------------------------------------------
      1         11           0        0.247725    0.020086   -1.470336
      2         11           0        3.030064   -0.855242   -0.059341
      3         11           0        0.033386   -0.126307    2.328316
      4         11           0       -2.666532   -1.004073    0.164414
      5         11           0       -2.012664    2.406731   -0.402949
      6         11           0        1.653161    2.389422   -0.034041
      7         11           0       -0.285141   -2.830616   -0.526062
 ---------------------------------------------------------------------

 SCF Done:  E(UB3LYP) =  -1136.13494095     A.U. after   18 cycles

 The electronic state is 2-A.
 Alpha  occ. eigenvalues --  -38.44123 -38.43859 -38.43736 -38.43510 -38.43481
 Alpha  occ. eigenvalues --  -38.43407 -38.43045  -2.19971  -2.19692  -2.19595
 Alpha  occ. eigenvalues --   -2.19402  -2.19308  -2.19298  -2.19099  -1.13621
 Alpha  occ. eigenvalues --   -1.13595  -1.13592  -1.13388  -1.13351  -1.13335
 Alpha  occ. eigenvalues --   -1.13315  -1.13255  -1.13198  -1.13158  -1.13063
 Alpha  occ. eigenvalues --   -1.13061  -1.13039  -1.12977  -1.12949  -1.12938
 Alpha  occ. eigenvalues --   -1.12932  -1.12898  -1.12767  -1.12731  -1.12702
 Alpha  occ. eigenvalues --   -0.18739  -0.12990  -0.12451  -0.11092
 Alpha virt. eigenvalues --   -0.05393  -0.05084  -0.04687  -0.03275  -0.02950
 Alpha virt. eigenvalues --   -0.02839  -0.01377  -0.01103  -0.00260  -0.00196
 Alpha virt. eigenvalues --   -0.00017   0.00354   0.00843   0.00871   0.00928

  Beta  occ. eigenvalues --  -38.44011 -38.43857 -38.43732 -38.43505 -38.43477
  Beta  occ. eigenvalues --  -38.43395 -38.42994  -2.19763  -2.19691  -2.19590
  Beta  occ. eigenvalues --   -2.19397  -2.19293  -2.19289  -2.19007  -1.13483
  Beta  occ. eigenvalues --   -1.13451  -1.13443  -1.13383  -1.13337  -1.13333
  Beta  occ. eigenvalues --   -1.13308  -1.13236  -1.13198  -1.13154  -1.13061
  Beta  occ. eigenvalues --   -1.13030  -1.13014  -1.12963  -1.12942  -1.12936
  Beta  occ. eigenvalues --   -1.12907  -1.12891  -1.12701  -1.12669  -1.12635
  Beta  occ. eigenvalues --   -0.18017  -0.12782  -0.12218
  Beta virt. eigenvalues --   -0.07068  -0.05402  -0.05014  -0.04642  -0.02447
  Beta virt. eigenvalues --   -0.02149  -0.01791  -0.01312  -0.01029  -0.00282
  Beta virt. eigenvalues --   -0.00228   0.00132   0.00386   0.00871   0.00919

 Mulliken charges and spin densities:
               1          2
     1  Na  -0.405280   0.040381
     2  Na   0.187192   0.023111
     3  Na  -0.638779   0.699425
     4  Na   0.257545   0.128509
     5  Na   0.079258   0.014233
     6  Na   0.187725   0.050738
     7  Na   0.332339   0.043603
 Sum of Mulliken charges =  -0.00000   1.00000

 Dipole moment (field-independent basis, Debye):
    X=              0.3021    Y=              0.0721    Z=              0.3476  Tot=              0.4662
 Quadrupole moment (field-independent basis, Debye-Ang):
   XX=            -58.8967   YY=            -62.2960   ZZ=            -73.0593
   XY=             -0.6354   XZ=              0.4652   YZ=              0.3114

 Normal termination of Gaussian 16 at Thu Dec  7 15:07:17 2023.
