 Gaussian 16, Revision B.01,
 Gaussian 16:  ES64L-G16RevB.01 20-Dec-2017

 -------------------------
 #P B3LYP/6-311+g(d) force
 -------------------------

 -----
 DPGEN
 -----
 Symbolic Z-matrix:
 Charge =  0 Multiplicity = 2

                         Standard orientation:
 ---------------------------------------------------------------------
 Center     Atomic      Atomic             Coordinates (Angstroms)
 Number     Number       Type             X           Y           Z
 ---------------------------------------------------------------------
      1         11           0       -1.453267    2.467900   -0.082713
      2         11           0        0.357398    0.451984    1.954508
      3         11           0       -3.096680   -0.573673    0.332813
      4         11           0       -0.507138   -0.370347   -1.733389
      5         11           0        2.821758   -1.283675    0.177834
      6         11           0        2.132121    2.056291   -0.559015
      7         11           0       -0.254192   -2.748480   -0.090038
 ---------------------------------------------------------------------

 SCF Done:  E(UB3LYP) =  -1136.13729703     A.U. after   19 cycles

 The electronic state is 2-A.
 Alpha  occ. eigenvalues --  -38.44074 -38.43802 -38.43684 -38.43517 -38.43403
 Alpha  occ. eigenvalues --  -38.43361 -38.43283  -2.19913  -2.19640  -2.19521
 Alpha  occ. eigenvalues --   -2.19420  -2.19345  -2.19268  -2.19183  -1.13592
 Alpha  occ. eigenvalues --   -1.13574  -1.13553  -1.13318  -1.13306  -1.13291
 Alpha  occ. eigenvalues --   -1.13191  -1.13189  -1.13171  -1.13156  -1.13094
 Alpha  occ. eigenvalues --   -1.13058  -1.13038  -1.13007  -1.12947  -1.12933
 Alpha  occ. eigenvalues --   -1.12927  -1.12890  -1.12822  -1.12808  -1.12778
 Alpha  occ. eigenvalues --   -0.18752  -0.13073  -0.12550  -0.10767
 Alpha virt. eigenvalues --   -0.05588  -0.05221  -0.04562  -0.03337  -0.03009
 Alpha virt. eigenvalues --   -0.02472  -0.01498  -0.01030  -0.00283  -0.00222
 Alpha virt. eigenvalues --   -0.00009   0.00371   0.00813   0.00897   0.00900

  Beta  occ. eigenvalues --  -38.44068 -38.43799 -38.43671 -38.43438 -38.43396
  Beta  occ. eigenvalues --  -38.43294 -38.43277  -2.19905  -2.19637  -2.19499
  Beta  occ. eigenvalues --   -2.19276  -2.19260  -2.19225  -2.19172  -1.13584
  Beta  occ. eigenvalues --   -1.13560  -1.13542  -1.13310  -1.13298  -1.13281
  Beta  occ. eigenvalues --   -1.13176  -1.13156  -1.13141  -1.13110  -1.13009
  Beta  occ. eigenvalues --   -1.12967  -1.12950  -1.12934  -1.12897  -1.12890
  Beta  occ. eigenvalues --   -1.12881  -1.12859  -1.12801  -1.12783  -1.12750
  Beta  occ. eigenvalues --   -0.18027  -0.12862  -0.12294
  Beta virt. eigenvalues --   -0.06897  -0.05514  -0.05213  -0.04483  -0.02588
  Beta virt. eigenvalues --   -0.02230  -0.01464  -0.01398  -0.00950  -0.00318
  Beta virt. eigenvalues --   -0.00257   0.00128   0.00399   0.00883   0.00892

 Mulliken charges and spin densities:
               1          2
     1  Na   0.160143  -0.036530
     2  Na  -0.436118   0.652984
     3  Na   0.091817  -0.034302
     4  Na  -0.205330   0.511002
     5  Na   0.095949  -0.038392
     6  Na   0.035707   0.007339
     7  Na   0.257831  -0.062101
 Sum of Mulliken charges =  -0.00000   1.00000

 Dipole moment (field-independent basis, Debye):
    X=             -0.0696    Y=              0.0853    Z=              0.1555  Tot=              0.1905
 Quadrupole moment (field-independent basis, Debye-Ang):
   XX=            -56.1531   YY=            -64.2463   ZZ=            -73.4676
   XY=              0.0431   XZ=             -1.8528   YZ=             -1.9293

 Normal termination of Gaussian 16 at Tue Dec  5 10:59:25 2023.
