 Gaussian 16, Revision B.01,
 Gaussian 16:  ES64L-G16RevB.01 20-Dec-2017

 -------------------------
 #P B3LYP/6-311+g(d) force
 -------------------------

 -----
 DPGEN
 -----
 Symbolic Z-matrix:
 Charge =  0 Multiplicity = 2

                         Standard orientation:
 ---------------------------------------------------------------------
 Center     Atomic      Atomic             Coordinates (Angstroms)
 Number     Number       Type             X           Y           Z
 ---------------------------------------------------------------------
      1         11           0        2.146304    1.916105   -0.159708
      2         11           0       -0.543616    0.506257    1.422390
      3         11           0       -1.771364   -2.440770    0.239049
      4         11           0        2.132429   -1.270668    0.900216
      5         11           0        4.664132   -0.755891   -1.237266
      6         11           0       -4.852416   -0.554166   -1.079879
      7         11           0       -1.775470    2.599133   -0.084801
 ---------------------------------------------------------------------

 SCF Done:  E(UB3LYP) =  -1136.11503551     A.U. after   21 cycles

 The electronic state is 2-A.
 Alpha  occ. eigenvalues --  -38.44737 -38.44679 -38.44472 -38.44109 -38.44053
 Alpha  occ. eigenvalues --  -38.43738 -38.43525  -2.20495  -2.20493  -2.20273
 Alpha  occ. eigenvalues --   -2.19943  -2.19930  -2.19512  -2.19506  -1.14217
 Alpha  occ. eigenvalues --   -1.14195  -1.14151  -1.14136  -1.14101  -1.14066
 Alpha  occ. eigenvalues --   -1.13933  -1.13928  -1.13892  -1.13760  -1.13644
 Alpha  occ. eigenvalues --   -1.13604  -1.13590  -1.13533  -1.13525  -1.13216
 Alpha  occ. eigenvalues --   -1.13196  -1.13190  -1.13159  -1.13126  -1.13073
 Alpha  occ. eigenvalues --   -0.17378  -0.13861  -0.11690  -0.11326
 Alpha virt. eigenvalues --   -0.06342  -0.05633  -0.04529  -0.03575  -0.02838
 Alpha virt. eigenvalues --   -0.02579  -0.02070  -0.01159  -0.00681  -0.00636
 Alpha virt. eigenvalues --   -0.00231  -0.00090   0.00152   0.00262   0.00609

  Beta  occ. eigenvalues --  -38.44676 -38.44657 -38.44428 -38.44096 -38.44027
  Beta  occ. eigenvalues --  -38.43742 -38.43491  -2.20489  -2.20343  -2.20191
  Beta  occ. eigenvalues --   -2.19919  -2.19889  -2.19517  -2.19454  -1.14209
  Beta  occ. eigenvalues --   -1.14192  -1.14057  -1.14048  -1.14031  -1.14005
  Beta  occ. eigenvalues --   -1.13878  -1.13871  -1.13837  -1.13740  -1.13612
  Beta  occ. eigenvalues --   -1.13582  -1.13573  -1.13503  -1.13467  -1.13219
  Beta  occ. eigenvalues --   -1.13207  -1.13138  -1.13130  -1.13107  -1.13026
  Beta  occ. eigenvalues --   -0.16805  -0.13326  -0.11424
  Beta virt. eigenvalues --   -0.07864  -0.05980  -0.05125  -0.04244  -0.03490
  Beta virt. eigenvalues --   -0.02454  -0.02053  -0.01738  -0.01060  -0.00560
  Beta virt. eigenvalues --   -0.00313  -0.00101   0.00077   0.00322   0.00388

 Mulliken charges and spin densities:
               1          2
     1  Na  -0.209116   0.118586
     2  Na   0.237608  -0.131693
     3  Na  -0.068294   0.063020
     4  Na  -0.292005   0.041186
     5  Na   0.342711   0.246909
     6  Na  -0.027168   0.442601
     7  Na   0.016264   0.219391
 Sum of Mulliken charges =  -0.00000   1.00000

 Dipole moment (field-independent basis, Debye):
    X=              0.9882    Y=              0.4194    Z=             -0.7268  Tot=              1.2964
 Quadrupole moment (field-independent basis, Debye-Ang):
   XX=            -57.7876   YY=            -69.4132   ZZ=            -68.8723
   XY=             -3.1268   XZ=             -1.0985   YZ=             -1.2744

 Normal termination of Gaussian 16 at Wed Nov 29 02:45:47 2023.
