 Gaussian 16, Revision B.01,
 Gaussian 16:  ES64L-G16RevB.01 20-Dec-2017

 -------------------------
 #P B3LYP/6-311+g(d) force
 -------------------------

 -----
 DPGEN
 -----
 Symbolic Z-matrix:
 Charge =  0 Multiplicity = 2

                         Standard orientation:
 ---------------------------------------------------------------------
 Center     Atomic      Atomic             Coordinates (Angstroms)
 Number     Number       Type             X           Y           Z
 ---------------------------------------------------------------------
      1         11           0        2.293776    2.992984   -0.391901
      2         11           0        3.420999    0.110536   -1.264555
      3         11           0        1.964314   -2.714883    0.123863
      4         11           0       -2.097565   -2.164607   -1.593461
      5         11           0       -3.923876    1.061569   -1.142395
      6         11           0       -1.356432    1.961915    1.476110
      7         11           0       -0.301215   -1.247515    2.792339
 ---------------------------------------------------------------------

 SCF Done:  E(UB3LYP) =  -1136.10625655     A.U. after   24 cycles

 The electronic state is 2-A.
 Alpha  occ. eigenvalues --  -38.45835 -38.45345 -38.44926 -38.44644 -38.43959
 Alpha  occ. eigenvalues --  -38.43776 -38.43758  -2.21561  -2.21121  -2.20671
 Alpha  occ. eigenvalues --   -2.20406  -2.19762  -2.19537  -2.19522  -1.15239
 Alpha  occ. eigenvalues --   -1.15208  -1.15172  -1.14778  -1.14766  -1.14726
 Alpha  occ. eigenvalues --   -1.14346  -1.14318  -1.14315  -1.14080  -1.14059
 Alpha  occ. eigenvalues --   -1.14035  -1.13435  -1.13429  -1.13413  -1.13210
 Alpha  occ. eigenvalues --   -1.13209  -1.13193  -1.13183  -1.13179  -1.13163
 Alpha  occ. eigenvalues --   -0.16012  -0.13204  -0.12093  -0.11703
 Alpha virt. eigenvalues --   -0.06860  -0.05709  -0.04924  -0.03485  -0.03409
 Alpha virt. eigenvalues --   -0.02725  -0.01647  -0.01347  -0.01015  -0.00670
 Alpha virt. eigenvalues --   -0.00495  -0.00290   0.00036   0.00207   0.00435

  Beta  occ. eigenvalues --  -38.45779 -38.45253 -38.44911 -38.44602 -38.43940
  Beta  occ. eigenvalues --  -38.43781 -38.43768  -2.21459  -2.20951  -2.20645
  Beta  occ. eigenvalues --   -2.20330  -2.19726  -2.19548  -2.19541  -1.15170
  Beta  occ. eigenvalues --   -1.15142  -1.15093  -1.14662  -1.14652  -1.14603
  Beta  occ. eigenvalues --   -1.14330  -1.14303  -1.14287  -1.14026  -1.13997
  Beta  occ. eigenvalues --   -1.13987  -1.13416  -1.13405  -1.13391  -1.13217
  Beta  occ. eigenvalues --   -1.13212  -1.13206  -1.13193  -1.13185  -1.13170
  Beta  occ. eigenvalues --   -0.15258  -0.12786  -0.11679
  Beta virt. eigenvalues --   -0.08386  -0.06645  -0.05112  -0.04483  -0.03204
  Beta virt. eigenvalues --   -0.02998  -0.02398  -0.01538  -0.01128  -0.00889
  Beta virt. eigenvalues --   -0.00481  -0.00306  -0.00192   0.00236   0.00411

 Mulliken charges and spin densities:
               1          2
     1  Na   0.098361  -0.092996
     2  Na   0.089724   0.079390
     3  Na  -0.333938   0.051119
     4  Na  -0.090774   0.357040
     5  Na   0.246076  -0.039220
     6  Na  -0.186597   0.302474
     7  Na   0.177147   0.342192
 Sum of Mulliken charges =  -0.00000   1.00000

 Dipole moment (field-independent basis, Debye):
    X=             -1.2426    Y=             -0.4386    Z=             -0.1146  Tot=              1.3227
 Quadrupole moment (field-independent basis, Debye-Ang):
   XX=            -65.9700   YY=            -67.6068   ZZ=            -66.8158
   XY=             -3.0384   XZ=              1.3669   YZ=              1.6423

 Normal termination of Gaussian 16 at Mon Dec  4 00:01:06 2023.
