 Gaussian 16, Revision B.01,
 Gaussian 16:  ES64L-G16RevB.01 20-Dec-2017

 -------------------------
 #P B3LYP/6-311+g(d) force
 -------------------------

 -----
 DPGEN
 -----
 Symbolic Z-matrix:
 Charge =  0 Multiplicity = 2

                         Standard orientation:
 ---------------------------------------------------------------------
 Center     Atomic      Atomic             Coordinates (Angstroms)
 Number     Number       Type             X           Y           Z
 ---------------------------------------------------------------------
      1         11           0        2.196685   -0.210648    1.984926
      2         11           0        2.696447    2.462877   -0.175079
      3         11           0       -3.594577    2.202583    0.165409
      4         11           0       -3.823762   -1.535922   -0.247034
      5         11           0        0.489183   -2.756231    0.315633
      6         11           0       -0.916496    0.595856   -0.424380
      7         11           0        2.952521   -0.758515   -1.619475
 ---------------------------------------------------------------------

 SCF Done:  E(UB3LYP) =  -1136.11557341     A.U. after   27 cycles

 The electronic state is 2-A.
 Alpha  occ. eigenvalues --  -38.46101 -38.44906 -38.44596 -38.43952 -38.43735
 Alpha  occ. eigenvalues --  -38.43634 -38.42924  -2.21835  -2.20691  -2.20438
 Alpha  occ. eigenvalues --   -2.19752  -2.19572  -2.19493  -2.18732  -1.15525
 Alpha  occ. eigenvalues --   -1.15492  -1.15458  -1.14401  -1.14357  -1.14317
 Alpha  occ. eigenvalues --   -1.14151  -1.14094  -1.14051  -1.13422  -1.13405
 Alpha  occ. eigenvalues --   -1.13404  -1.13241  -1.13202  -1.13189  -1.13158
 Alpha  occ. eigenvalues --   -1.13127  -1.13112  -1.12409  -1.12397  -1.12372
 Alpha  occ. eigenvalues --   -0.17201  -0.14334  -0.11363  -0.09996
 Alpha virt. eigenvalues --   -0.07141  -0.06384  -0.04243  -0.03301  -0.02778
 Alpha virt. eigenvalues --   -0.02388  -0.02206  -0.01603  -0.01449  -0.00531
 Alpha virt. eigenvalues --   -0.00337   0.00084   0.00181   0.00429   0.00469

  Beta  occ. eigenvalues --  -38.46107 -38.44921 -38.44596 -38.43932 -38.43648
  Beta  occ. eigenvalues --  -38.43556 -38.42910  -2.21846  -2.20719  -2.20438
  Beta  occ. eigenvalues --   -2.19718  -2.19412  -2.19349  -2.18710  -1.15531
  Beta  occ. eigenvalues --   -1.15501  -1.15468  -1.14420  -1.14375  -1.14335
  Beta  occ. eigenvalues --   -1.14133  -1.14106  -1.14055  -1.13400  -1.13387
  Beta  occ. eigenvalues --   -1.13353  -1.13130  -1.13098  -1.13068  -1.13056
  Beta  occ. eigenvalues --   -1.13030  -1.13003  -1.12397  -1.12361  -1.12356
  Beta  occ. eigenvalues --   -0.16682  -0.14054  -0.11160
  Beta virt. eigenvalues --   -0.07168  -0.06200  -0.05999  -0.04187  -0.03095
  Beta virt. eigenvalues --   -0.02623  -0.01938  -0.01698  -0.01312  -0.00995
  Beta virt. eigenvalues --   -0.00412   0.00084   0.00154   0.00252   0.00455

 Mulliken charges and spin densities:
               1          2
     1  Na   0.253825   0.335556
     2  Na   0.289694   0.265730
     3  Na   0.517419  -0.096656
     4  Na   0.690128  -0.074811
     5  Na   0.287060   0.094830
     6  Na  -2.415925  -0.002673
     7  Na   0.377799   0.478024
 Sum of Mulliken charges =  -0.00000   1.00000

 Dipole moment (field-independent basis, Debye):
    X=             -2.6900    Y=              0.2874    Z=              0.2782  Tot=              2.7196
 Quadrupole moment (field-independent basis, Debye-Ang):
   XX=            -50.1384   YY=            -65.3326   ZZ=            -77.2496
   XY=              2.1762   XZ=              1.4577   YZ=              0.3071

 Normal termination of Gaussian 16 at Fri Dec  8 18:29:30 2023.
