 Gaussian 16, Revision B.01,
 Gaussian 16:  ES64L-G16RevB.01 20-Dec-2017

 -------------------------
 #P B3LYP/6-311+g(d) force
 -------------------------

 -----
 DPGEN
 -----
 Symbolic Z-matrix:
 Charge =  0 Multiplicity = 2

                         Standard orientation:
 ---------------------------------------------------------------------
 Center     Atomic      Atomic             Coordinates (Angstroms)
 Number     Number       Type             X           Y           Z
 ---------------------------------------------------------------------
      1         11           0        3.563848    0.056959   -0.266908
      2         11           0       -2.739221   -1.951731   -0.000235
      3         11           0        1.451199   -2.606842    0.193090
      4         11           0       -3.040262    1.400792   -0.627318
      5         11           0        0.325506   -0.213444   -1.529112
      6         11           0       -0.435703    0.256948    2.052885
      7         11           0        0.874633    3.057319    0.177599
 ---------------------------------------------------------------------

 SCF Done:  E(UB3LYP) =  -1136.13018673     A.U. after   20 cycles

 The electronic state is 2-A.
 Alpha  occ. eigenvalues --  -38.44805 -38.44395 -38.44148 -38.43851 -38.43495
 Alpha  occ. eigenvalues --  -38.43444 -38.43293  -2.20597  -2.20188  -2.19939
 Alpha  occ. eigenvalues --   -2.19755  -2.19337  -2.19299  -2.19072  -1.14275
 Alpha  occ. eigenvalues --   -1.14250  -1.14230  -1.13860  -1.13843  -1.13821
 Alpha  occ. eigenvalues --   -1.13614  -1.13593  -1.13584  -1.13476  -1.13412
 Alpha  occ. eigenvalues --   -1.13370  -1.13027  -1.13000  -1.12967  -1.12953
 Alpha  occ. eigenvalues --   -1.12931  -1.12908  -1.12746  -1.12735  -1.12714
 Alpha  occ. eigenvalues --   -0.17868  -0.13320  -0.11821  -0.10355
 Alpha virt. eigenvalues --   -0.06290  -0.05541  -0.04641  -0.03226  -0.02635
 Alpha virt. eigenvalues --   -0.02315  -0.02137  -0.01337  -0.00790  -0.00561
 Alpha virt. eigenvalues --   -0.00080   0.00264   0.00639   0.00766   0.00795

  Beta  occ. eigenvalues --  -38.44798 -38.44370 -38.44146 -38.43816 -38.43490
  Beta  occ. eigenvalues --  -38.43346 -38.43292  -2.20586  -2.20143  -2.19939
  Beta  occ. eigenvalues --   -2.19690  -2.19330  -2.19119  -2.19071  -1.14257
  Beta  occ. eigenvalues --   -1.14243  -1.14223  -1.13821  -1.13815  -1.13787
  Beta  occ. eigenvalues --   -1.13607  -1.13596  -1.13568  -1.13422  -1.13369
  Beta  occ. eigenvalues --   -1.13321  -1.13021  -1.12987  -1.12938  -1.12847
  Beta  occ. eigenvalues --   -1.12808  -1.12779  -1.12736  -1.12726  -1.12714
  Beta  occ. eigenvalues --   -0.17219  -0.13037  -0.11634
  Beta virt. eigenvalues --   -0.06630  -0.06111  -0.05498  -0.04541  -0.02594
  Beta virt. eigenvalues --   -0.01998  -0.01952  -0.01404  -0.01260  -0.00746
  Beta virt. eigenvalues --   -0.00576   0.00090   0.00336   0.00734   0.00776

 Mulliken charges and spin densities:
               1          2
     1  Na   0.181558  -0.009151
     2  Na   0.121531   0.017103
     3  Na   0.016181   0.009949
     4  Na   0.034063   0.130476
     5  Na  -0.016008   0.234585
     6  Na  -0.232639   0.698932
     7  Na  -0.104687  -0.081893
 Sum of Mulliken charges =  -0.00000   1.00000

 Dipole moment (field-independent basis, Debye):
    X=              0.2127    Y=             -0.1369    Z=             -0.0020  Tot=              0.2530
 Quadrupole moment (field-independent basis, Debye-Ang):
   XX=            -52.7021   YY=            -64.6876   ZZ=            -75.6255
   XY=              0.6229   XZ=              0.9711   YZ=             -1.5222

 Normal termination of Gaussian 16 at Thu Dec  7 12:32:47 2023.
