 Gaussian 16, Revision B.01,
 Gaussian 16:  ES64L-G16RevB.01 20-Dec-2017

 -------------------------
 #P B3LYP/6-311+g(d) force
 -------------------------

 -----
 DPGEN
 -----
 Symbolic Z-matrix:
 Charge =  0 Multiplicity = 2

                         Standard orientation:
 ---------------------------------------------------------------------
 Center     Atomic      Atomic             Coordinates (Angstroms)
 Number     Number       Type             X           Y           Z
 ---------------------------------------------------------------------
      1         11           0        0.152827    0.241036   -1.420061
      2         11           0        1.304151   -2.666891   -0.556938
      3         11           0       -2.646402   -1.856856   -0.410556
      4         11           0        0.909056    3.128827   -0.345188
      5         11           0       -2.573259    1.682197    0.178803
      6         11           0        3.025098   -0.024694    0.334322
      7         11           0       -0.171470   -0.503620    2.219618
 ---------------------------------------------------------------------

 SCF Done:  E(UB3LYP) =  -1136.13608690     A.U. after   19 cycles

 The electronic state is 2-A.
 Alpha  occ. eigenvalues --  -38.44068 -38.43912 -38.43909 -38.43836 -38.43615
 Alpha  occ. eigenvalues --  -38.43489 -38.42950  -2.19875  -2.19760  -2.19704
 Alpha  occ. eigenvalues --   -2.19679  -2.19474  -2.19304  -2.18950  -1.13558
 Alpha  occ. eigenvalues --   -1.13549  -1.13500  -1.13449  -1.13425  -1.13399
 Alpha  occ. eigenvalues --   -1.13380  -1.13359  -1.13345  -1.13337  -1.13310
 Alpha  occ. eigenvalues --   -1.13288  -1.13173  -1.13119  -1.13099  -1.13015
 Alpha  occ. eigenvalues --   -1.12957  -1.12933  -1.12638  -1.12589  -1.12575
 Alpha  occ. eigenvalues --   -0.18293  -0.12924  -0.12351  -0.10697
 Alpha virt. eigenvalues --   -0.05492  -0.05385  -0.04885  -0.03221  -0.02815
 Alpha virt. eigenvalues --   -0.02534  -0.01447  -0.01295  -0.00553  -0.00469
 Alpha virt. eigenvalues --   -0.00023   0.00341   0.00808   0.00811   0.00852

  Beta  occ. eigenvalues --  -38.44065 -38.43905 -38.43903 -38.43733 -38.43602
  Beta  occ. eigenvalues --  -38.43487 -38.42903  -2.19872  -2.19750  -2.19696
  Beta  occ. eigenvalues --   -2.19490  -2.19452  -2.19302  -2.18866  -1.13553
  Beta  occ. eigenvalues --   -1.13535  -1.13501  -1.13444  -1.13403  -1.13387
  Beta  occ. eigenvalues --   -1.13363  -1.13353  -1.13336  -1.13212  -1.13181
  Beta  occ. eigenvalues --   -1.13152  -1.13149  -1.13092  -1.13082  -1.13005
  Beta  occ. eigenvalues --   -1.12950  -1.12933  -1.12575  -1.12527  -1.12514
  Beta  occ. eigenvalues --   -0.17596  -0.12743  -0.12126
  Beta virt. eigenvalues --   -0.06763  -0.05467  -0.05303  -0.04807  -0.02455
  Beta virt. eigenvalues --   -0.02147  -0.01510  -0.01366  -0.01199  -0.00541
  Beta virt. eigenvalues --   -0.00502   0.00142   0.00384   0.00821   0.00854

 Mulliken charges and spin densities:
               1          2
     1  Na  -0.070300   0.205564
     2  Na   0.182957  -0.000501
     3  Na   0.025743  -0.034876
     4  Na   0.098522  -0.005276
     5  Na   0.071069   0.016008
     6  Na   0.173528   0.127094
     7  Na  -0.481518   0.691987
 Sum of Mulliken charges =  -0.00000   1.00000

 Dipole moment (field-independent basis, Debye):
    X=             -0.1385    Y=             -0.0651    Z=              0.2347  Tot=              0.2802
 Quadrupole moment (field-independent basis, Debye-Ang):
   XX=            -57.6446   YY=            -60.5548   ZZ=            -74.8638
   XY=              0.1736   XZ=              0.7976   YZ=              1.8433

 Normal termination of Gaussian 16 at Thu Dec  7 06:46:47 2023.
