 Gaussian 16, Revision B.01,
 Gaussian 16:  ES64L-G16RevB.01 20-Dec-2017

 -------------------------
 #P B3LYP/6-311+g(d) force
 -------------------------

 -----
 DPGEN
 -----
 Symbolic Z-matrix:
 Charge =  0 Multiplicity = 2

                         Standard orientation:
 ---------------------------------------------------------------------
 Center     Atomic      Atomic             Coordinates (Angstroms)
 Number     Number       Type             X           Y           Z
 ---------------------------------------------------------------------
      1         11           0        0.874784    0.057385    1.577085
      2         11           0        2.329235   -1.705899   -0.352093
      3         11           0        1.971838    1.973696   -0.335020
      4         11           0        0.203364   -0.100627   -1.520123
      5         11           0       -1.242633   -1.644763    0.959547
      6         11           0       -2.585326   -0.204214   -1.055668
      7         11           0       -1.551262    1.624422    0.726272
 ---------------------------------------------------------------------

 SCF Done:  E(UB3LYP) =  -1136.09705228     A.U. after   21 cycles

 The electronic state is 2-A.
 Alpha  occ. eigenvalues --  -38.44583 -38.43733 -38.43705 -38.43649 -38.43514
 Alpha  occ. eigenvalues --  -38.43418 -38.43388  -2.20661  -2.19961  -2.19880
 Alpha  occ. eigenvalues --   -2.19646  -2.19594  -2.19472  -2.19338  -1.14475
 Alpha  occ. eigenvalues --   -1.14352  -1.14311  -1.13844  -1.13742  -1.13640
 Alpha  occ. eigenvalues --   -1.13596  -1.13516  -1.13499  -1.13287  -1.13262
 Alpha  occ. eigenvalues --   -1.13243  -1.13233  -1.13215  -1.13152  -1.13139
 Alpha  occ. eigenvalues --   -1.13116  -1.13024  -1.13007  -1.12998  -1.12905
 Alpha  occ. eigenvalues --   -0.20758  -0.14123  -0.12187  -0.11904
 Alpha virt. eigenvalues --   -0.05412  -0.04719  -0.04191  -0.03406  -0.02785
 Alpha virt. eigenvalues --   -0.02761  -0.01294  -0.00697  -0.00264   0.00338
 Alpha virt. eigenvalues --    0.00676   0.00727   0.00914   0.00941   0.01063

  Beta  occ. eigenvalues --  -38.44551 -38.43698 -38.43658 -38.43576 -38.43479
  Beta  occ. eigenvalues --  -38.43395 -38.43382  -2.20605  -2.19830  -2.19751
  Beta  occ. eigenvalues --   -2.19636  -2.19536  -2.19437  -2.19330  -1.14439
  Beta  occ. eigenvalues --   -1.14295  -1.14265  -1.13753  -1.13656  -1.13560
  Beta  occ. eigenvalues --   -1.13508  -1.13434  -1.13410  -1.13254  -1.13224
  Beta  occ. eigenvalues --   -1.13210  -1.13204  -1.13152  -1.13128  -1.13081
  Beta  occ. eigenvalues --   -1.13073  -1.12994  -1.12987  -1.12972  -1.12899
  Beta  occ. eigenvalues --   -0.19962  -0.13862  -0.11650
  Beta virt. eigenvalues --   -0.07904  -0.05364  -0.04695  -0.03427  -0.03135
  Beta virt. eigenvalues --   -0.02035  -0.01758  -0.01209  -0.00676  -0.00031
  Beta virt. eigenvalues --    0.00363   0.00662   0.00776   0.00926   0.01006

 Mulliken charges and spin densities:
               1          2
     1  Na  -0.032170   0.308697
     2  Na   0.104861  -0.021911
     3  Na   0.103917  -0.037636
     4  Na  -0.501946   0.464968
     5  Na  -0.459042   0.091841
     6  Na   1.293131   0.096861
     7  Na  -0.508751   0.097179
 Sum of Mulliken charges =  -0.00000   1.00000

 Dipole moment (field-independent basis, Debye):
    X=              0.1730    Y=             -0.0044    Z=             -0.1720  Tot=              0.2439
 Quadrupole moment (field-independent basis, Debye-Ang):
   XX=            -56.7336   YY=            -70.6023   ZZ=            -67.9409
   XY=             -0.2657   XZ=             -0.3539   YZ=              0.0465

 Normal termination of Gaussian 16 at Sat Dec  9 06:43:09 2023.
