 Gaussian 16, Revision B.01,
 Gaussian 16:  ES64L-G16RevB.01 20-Dec-2017

 -------------------------
 #P B3LYP/6-311+g(d) force
 -------------------------

 -----
 DPGEN
 -----
 Symbolic Z-matrix:
 Charge =  0 Multiplicity = 2

                         Standard orientation:
 ---------------------------------------------------------------------
 Center     Atomic      Atomic             Coordinates (Angstroms)
 Number     Number       Type             X           Y           Z
 ---------------------------------------------------------------------
      1         11           0        0.413356   -0.276528   -1.600387
      2         11           0        0.383520    2.715798    0.462411
      3         11           0       -0.769780   -0.481974    1.893343
      4         11           0        2.461783   -2.185439    0.483572
      5         11           0       -2.833954   -1.879029   -0.519855
      6         11           0        3.218386    0.789809   -0.457705
      7         11           0       -2.873311    1.317362   -0.261378
 ---------------------------------------------------------------------

 SCF Done:  E(UB3LYP) =  -1136.12956997     A.U. after   21 cycles

 The electronic state is 2-A.
 Alpha  occ. eigenvalues --  -38.44516 -38.44448 -38.44059 -38.43948 -38.43923
 Alpha  occ. eigenvalues --  -38.43588 -38.42483  -2.20367  -2.20315  -2.19960
 Alpha  occ. eigenvalues --   -2.19790  -2.19748  -2.19469  -2.18318  -1.14041
 Alpha  occ. eigenvalues --   -1.14038  -1.14012  -1.14006  -1.13981  -1.13942
 Alpha  occ. eigenvalues --   -1.13656  -1.13598  -1.13587  -1.13450  -1.13445
 Alpha  occ. eigenvalues --   -1.13435  -1.13416  -1.13399  -1.13390  -1.13142
 Alpha  occ. eigenvalues --   -1.13098  -1.13085  -1.11996  -1.11985  -1.11961
 Alpha  occ. eigenvalues --   -0.18311  -0.14057  -0.11591  -0.10566
 Alpha virt. eigenvalues --   -0.06296  -0.05795  -0.04331  -0.03441  -0.02602
 Alpha virt. eigenvalues --   -0.02285  -0.02132  -0.01274  -0.00666  -0.00203
 Alpha virt. eigenvalues --   -0.00033   0.00293   0.00574   0.00737   0.00747

  Beta  occ. eigenvalues --  -38.44508 -38.44438 -38.44015 -38.43934 -38.43914
  Beta  occ. eigenvalues --  -38.43503 -38.42478  -2.20354  -2.20299  -2.19879
  Beta  occ. eigenvalues --   -2.19766  -2.19734  -2.19313  -2.18312  -1.14036
  Beta  occ. eigenvalues --   -1.14019  -1.13994  -1.13984  -1.13962  -1.13936
  Beta  occ. eigenvalues --   -1.13592  -1.13542  -1.13529  -1.13438  -1.13421
  Beta  occ. eigenvalues --   -1.13409  -1.13407  -1.13389  -1.13363  -1.13038
  Beta  occ. eigenvalues --   -1.12990  -1.12967  -1.11993  -1.11977  -1.11943
  Beta  occ. eigenvalues --   -0.17653  -0.13815  -0.11372
  Beta virt. eigenvalues --   -0.06804  -0.06121  -0.05746  -0.04033  -0.02965
  Beta virt. eigenvalues --   -0.02027  -0.01880  -0.01414  -0.01145  -0.00673
  Beta virt. eigenvalues --   -0.00145   0.00111   0.00347   0.00700   0.00759

 Mulliken charges and spin densities:
               1          2
     1  Na   0.016824   0.160231
     2  Na  -0.553242  -0.019630
     3  Na  -0.010214   0.546120
     4  Na  -0.292067   0.043633
     5  Na   0.094886   0.101812
     6  Na   0.608326   0.069614
     7  Na   0.135488   0.098220
 Sum of Mulliken charges =  -0.00000   1.00000

 Dipole moment (field-independent basis, Debye):
    X=             -0.0170    Y=             -0.2354    Z=             -0.1043  Tot=              0.2580
 Quadrupole moment (field-independent basis, Debye-Ang):
   XX=            -51.9188   YY=            -68.3672   ZZ=            -74.1927
   XY=             -0.0929   XZ=              1.3711   YZ=             -0.1661

 Normal termination of Gaussian 16 at Tue Dec  5 15:19:11 2023.
