 Gaussian 16, Revision B.01,
 Gaussian 16:  ES64L-G16RevB.01 20-Dec-2017

 -------------------------
 #P B3LYP/6-311+g(d) force
 -------------------------

 -----
 DPGEN
 -----
 Symbolic Z-matrix:
 Charge =  0 Multiplicity = 2

                         Standard orientation:
 ---------------------------------------------------------------------
 Center     Atomic      Atomic             Coordinates (Angstroms)
 Number     Number       Type             X           Y           Z
 ---------------------------------------------------------------------
      1         11           0        2.719100   -1.522025   -0.116324
      2         11           0       -0.592447   -2.649733   -0.123005
      3         11           0       -0.729126    2.512491   -0.022587
      4         11           0       -0.261182   -0.253901    2.417923
      5         11           0        0.207763   -0.077910   -1.870990
      6         11           0       -3.806254    0.088032   -0.310917
      7         11           0        2.462147    1.903047    0.025899
 ---------------------------------------------------------------------

 SCF Done:  E(UB3LYP) =  -1136.13000589     A.U. after   21 cycles

 The electronic state is 2-A.
 Alpha  occ. eigenvalues --  -38.44942 -38.44418 -38.43933 -38.43879 -38.43440
 Alpha  occ. eigenvalues --  -38.43305 -38.43165  -2.20664  -2.20242  -2.19861
 Alpha  occ. eigenvalues --   -2.19718  -2.19291  -2.19156  -2.19022  -1.14342
 Alpha  occ. eigenvalues --   -1.14328  -1.14295  -1.13888  -1.13871  -1.13859
 Alpha  occ. eigenvalues --   -1.13553  -1.13518  -1.13488  -1.13384  -1.13380
 Alpha  occ. eigenvalues --   -1.13356  -1.12969  -1.12948  -1.12945  -1.12856
 Alpha  occ. eigenvalues --   -1.12829  -1.12761  -1.12719  -1.12694  -1.12627
 Alpha  occ. eigenvalues --   -0.18211  -0.12588  -0.12238  -0.11209
 Alpha virt. eigenvalues --   -0.06397  -0.04783  -0.04350  -0.03356  -0.03088
 Alpha virt. eigenvalues --   -0.02987  -0.02065  -0.01002  -0.00276  -0.00173
 Alpha virt. eigenvalues --   -0.00099   0.00270   0.00612   0.00719   0.00852

  Beta  occ. eigenvalues --  -38.44944 -38.44307 -38.43877 -38.43870 -38.43438
  Beta  occ. eigenvalues --  -38.43298 -38.43159  -2.20669  -2.20037  -2.19746
  Beta  occ. eigenvalues --   -2.19716  -2.19291  -2.19148  -2.19014  -1.14338
  Beta  occ. eigenvalues --   -1.14332  -1.14299  -1.13753  -1.13724  -1.13716
  Beta  occ. eigenvalues --   -1.13483  -1.13436  -1.13417  -1.13374  -1.13356
  Beta  occ. eigenvalues --   -1.13348  -1.12971  -1.12948  -1.12929  -1.12848
  Beta  occ. eigenvalues --   -1.12796  -1.12761  -1.12713  -1.12665  -1.12627
  Beta  occ. eigenvalues --   -0.17463  -0.12427  -0.12020
  Beta virt. eigenvalues --   -0.07236  -0.06319  -0.04788  -0.04211  -0.02578
  Beta virt. eigenvalues --   -0.02269  -0.02074  -0.01957  -0.00963  -0.00317
  Beta virt. eigenvalues --   -0.00135   0.00004   0.00306   0.00787   0.00801

 Mulliken charges and spin densities:
               1          2
     1  Na   0.293792   0.023038
     2  Na   0.136519  -0.049966
     3  Na   0.030385   0.012154
     4  Na  -0.540460   0.636348
     5  Na  -0.077049   0.457864
     6  Na   0.043905  -0.088257
     7  Na   0.112907   0.008818
 Sum of Mulliken charges =  -0.00000   1.00000

 Dipole moment (field-independent basis, Debye):
    X=             -0.2865    Y=             -0.1975    Z=              0.1409  Tot=              0.3754
 Quadrupole moment (field-independent basis, Debye-Ang):
   XX=            -54.2211   YY=            -69.1437   ZZ=            -71.3650
   XY=              0.1180   XZ=              1.0286   YZ=              0.2543

 Normal termination of Gaussian 16 at Tue Dec  5 21:07:14 2023.
