 Gaussian 16, Revision B.01,
 Gaussian 16:  ES64L-G16RevB.01 20-Dec-2017

 -------------------------
 #P B3LYP/6-311+g(d) force
 -------------------------

 -----
 DPGEN
 -----
 Symbolic Z-matrix:
 Charge =  0 Multiplicity = 2

                         Standard orientation:
 ---------------------------------------------------------------------
 Center     Atomic      Atomic             Coordinates (Angstroms)
 Number     Number       Type             X           Y           Z
 ---------------------------------------------------------------------
      1         11           0        1.607552    2.478758   -0.012836
      2         11           0        2.868857   -0.672299    0.107768
      3         11           0        0.366886   -0.333120   -1.544627
      4         11           0       -3.054006   -0.804474   -0.146594
      5         11           0       -1.702779    2.413668   -0.065646
      6         11           0       -0.183904   -0.069339    1.575475
      7         11           0        0.097393   -3.013194    0.086460
 ---------------------------------------------------------------------

 SCF Done:  E(UB3LYP) =  -1136.13589740     A.U. after   19 cycles

 The electronic state is 2-A.
 Alpha  occ. eigenvalues --  -38.43992 -38.43810 -38.43797 -38.43602 -38.43453
 Alpha  occ. eigenvalues --  -38.42799 -38.42651  -2.19816  -2.19705  -2.19684
 Alpha  occ. eigenvalues --   -2.19469  -2.19338  -2.18851  -2.18687  -1.13490
 Alpha  occ. eigenvalues --   -1.13481  -1.13456  -1.13441  -1.13387  -1.13363
 Alpha  occ. eigenvalues --   -1.13354  -1.13327  -1.13290  -1.13163  -1.13133
 Alpha  occ. eigenvalues --   -1.13114  -1.13006  -1.12996  -1.12971  -1.12581
 Alpha  occ. eigenvalues --   -1.12472  -1.12460  -1.12367  -1.12306  -1.12295
 Alpha  occ. eigenvalues --   -0.19170  -0.13091  -0.12937  -0.10133
 Alpha virt. eigenvalues --   -0.05619  -0.05118  -0.05081  -0.02862  -0.02756
 Alpha virt. eigenvalues --   -0.01799  -0.01477  -0.01350  -0.00443  -0.00360
 Alpha virt. eigenvalues --    0.00066   0.00359   0.00848   0.00858   0.00917

  Beta  occ. eigenvalues --  -38.43989 -38.43802 -38.43787 -38.43598 -38.43448
  Beta  occ. eigenvalues --  -38.42730 -38.42577  -2.19812  -2.19693  -2.19674
  Beta  occ. eigenvalues --   -2.19464  -2.19332  -2.18726  -2.18552  -1.13484
  Beta  occ. eigenvalues --   -1.13463  -1.13456  -1.13430  -1.13380  -1.13329
  Beta  occ. eigenvalues --   -1.13319  -1.13314  -1.13286  -1.13160  -1.13119
  Beta  occ. eigenvalues --   -1.13102  -1.13004  -1.12973  -1.12960  -1.12491
  Beta  occ. eigenvalues --   -1.12382  -1.12369  -1.12272  -1.12207  -1.12196
  Beta  occ. eigenvalues --   -0.18458  -0.12833  -0.12673
  Beta virt. eigenvalues --   -0.06238  -0.05610  -0.05087  -0.05076  -0.02076
  Beta virt. eigenvalues --   -0.01977  -0.01406  -0.01282  -0.00830  -0.00498
  Beta virt. eigenvalues --   -0.00413   0.00201   0.00402   0.00855   0.00877

 Mulliken charges and spin densities:
               1          2
     1  Na   0.159943  -0.035472
     2  Na   0.487459  -0.021902
     3  Na  -0.558251   0.687106
     4  Na   0.042425  -0.092154
     5  Na   0.061436  -0.055874
     6  Na  -0.418118   0.638842
     7  Na   0.225105  -0.120546
 Sum of Mulliken charges =  -0.00000   1.00000

 Dipole moment (field-independent basis, Debye):
    X=             -0.1602    Y=             -0.2031    Z=              0.0344  Tot=              0.2610
 Quadrupole moment (field-independent basis, Debye-Ang):
   XX=            -55.8624   YY=            -57.3675   ZZ=            -77.6349
   XY=              0.4145   XZ=              1.3129   YZ=             -0.5886

 Normal termination of Gaussian 16 at Tue Nov 28 19:18:40 2023.
