 Gaussian 16, Revision B.01,
 Gaussian 16:  ES64L-G16RevB.01 20-Dec-2017

 -------------------------
 #P B3LYP/6-311+g(d) force
 -------------------------

 -----
 DPGEN
 -----
 Symbolic Z-matrix:
 Charge =  0 Multiplicity = 2

                         Standard orientation:
 ---------------------------------------------------------------------
 Center     Atomic      Atomic             Coordinates (Angstroms)
 Number     Number       Type             X           Y           Z
 ---------------------------------------------------------------------
      1         11           0        1.899800    3.105275    0.426669
      2         11           0       -3.812735   -0.093694    0.328165
      3         11           0        1.978331   -3.052276    0.429821
      4         11           0       -1.156962    1.595906   -0.853418
      5         11           0       -1.179463   -1.448407   -1.023813
      6         11           0        2.161866   -0.033370   -1.305709
      7         11           0        0.109163   -0.073434    1.998285
 ---------------------------------------------------------------------

 SCF Done:  E(UB3LYP) =  -1136.13283151     A.U. after   19 cycles

 The electronic state is 2-A.
 Alpha  occ. eigenvalues --  -38.44394 -38.43952 -38.43642 -38.43576 -38.43561
 Alpha  occ. eigenvalues --  -38.43545 -38.43497  -2.20217  -2.19799  -2.19514
 Alpha  occ. eigenvalues --   -2.19498  -2.19472  -2.19351  -2.19285  -1.13896
 Alpha  occ. eigenvalues --   -1.13871  -1.13859  -1.13492  -1.13420  -1.13411
 Alpha  occ. eigenvalues --   -1.13342  -1.13197  -1.13180  -1.13168  -1.13150
 Alpha  occ. eigenvalues --   -1.13140  -1.13106  -1.13090  -1.13028  -1.13020
 Alpha  occ. eigenvalues --   -1.13011  -1.12979  -1.12959  -1.12946  -1.12914
 Alpha  occ. eigenvalues --   -0.18285  -0.13138  -0.12084  -0.10646
 Alpha virt. eigenvalues --   -0.06098  -0.04902  -0.04785  -0.03191  -0.02810
 Alpha virt. eigenvalues --   -0.02519  -0.01936  -0.01389  -0.00527  -0.00244
 Alpha virt. eigenvalues --    0.00182   0.00319   0.00712   0.00766   0.00798

  Beta  occ. eigenvalues --  -38.44395 -38.43862 -38.43607 -38.43561 -38.43546
  Beta  occ. eigenvalues --  -38.43521 -38.43498  -2.20220  -2.19633  -2.19463
  Beta  occ. eigenvalues --   -2.19436  -2.19432  -2.19353  -2.19287  -1.13899
  Beta  occ. eigenvalues --   -1.13870  -1.13853  -1.13383  -1.13305  -1.13301
  Beta  occ. eigenvalues --   -1.13290  -1.13149  -1.13127  -1.13118  -1.13112
  Beta  occ. eigenvalues --   -1.13079  -1.13068  -1.13059  -1.13025  -1.13001
  Beta  occ. eigenvalues --   -1.12998  -1.12979  -1.12961  -1.12935  -1.12917
  Beta  occ. eigenvalues --   -0.17511  -0.12988  -0.11939
  Beta virt. eigenvalues --   -0.06716  -0.05927  -0.04877  -0.04640  -0.02636
  Beta virt. eigenvalues --   -0.02221  -0.01831  -0.01532  -0.01286  -0.00334
  Beta virt. eigenvalues --   -0.00168   0.00223   0.00391   0.00770   0.00776

 Mulliken charges and spin densities:
               1          2
     1  Na   0.198596  -0.111800
     2  Na   0.496853  -0.053603
     3  Na   0.140623  -0.134636
     4  Na  -0.099065   0.174758
     5  Na  -0.085685   0.180216
     6  Na  -0.082797   0.144886
     7  Na  -0.568525   0.800178
 Sum of Mulliken charges =  -0.00000   1.00000

 Dipole moment (field-independent basis, Debye):
    X=             -0.5922    Y=             -0.0699    Z=              0.2629  Tot=              0.6517
 Quadrupole moment (field-independent basis, Debye-Ang):
   XX=            -54.3858   YY=            -63.7554   ZZ=            -73.2763
   XY=              0.1604   XZ=             -1.4687   YZ=              0.0460

 Normal termination of Gaussian 16 at Wed Nov 29 16:58:08 2023.
