 Gaussian 16, Revision B.01,
 Gaussian 16:  ES64L-G16RevB.01 20-Dec-2017

 -------------------------
 #P B3LYP/6-311+g(d) force
 -------------------------

 -----
 DPGEN
 -----
 Symbolic Z-matrix:
 Charge =  0 Multiplicity = 2

                         Standard orientation:
 ---------------------------------------------------------------------
 Center     Atomic      Atomic             Coordinates (Angstroms)
 Number     Number       Type             X           Y           Z
 ---------------------------------------------------------------------
      1         11           0        0.120475    0.224422    2.129697
      2         11           0       -0.465006   -2.560927    0.209175
      3         11           0       -0.948231    2.818760    0.220575
      4         11           0        2.520330    1.777267   -0.411150
      5         11           0       -0.581009    0.387245   -1.566048
      6         11           0       -3.225922   -0.693786   -0.289051
      7         11           0        2.579364   -1.952981   -0.293197
 ---------------------------------------------------------------------

 SCF Done:  E(UB3LYP) =  -1136.13358319     A.U. after   19 cycles

 The electronic state is 2-A.
 Alpha  occ. eigenvalues --  -38.44094 -38.43929 -38.43868 -38.43755 -38.43667
 Alpha  occ. eigenvalues --  -38.43325 -38.43169  -2.19898  -2.19771  -2.19736
 Alpha  occ. eigenvalues --   -2.19639  -2.19485  -2.19312  -2.19078  -1.13580
 Alpha  occ. eigenvalues --   -1.13560  -1.13528  -1.13479  -1.13471  -1.13422
 Alpha  occ. eigenvalues --   -1.13414  -1.13405  -1.13339  -1.13300  -1.13258
 Alpha  occ. eigenvalues --   -1.13255  -1.13188  -1.13143  -1.13122  -1.12983
 Alpha  occ. eigenvalues --   -1.12960  -1.12920  -1.12757  -1.12744  -1.12698
 Alpha  occ. eigenvalues --   -0.18574  -0.12824  -0.12701  -0.10847
 Alpha virt. eigenvalues --   -0.05728  -0.05169  -0.04669  -0.03172  -0.03019
 Alpha virt. eigenvalues --   -0.02587  -0.01574  -0.01187  -0.00427  -0.00185
 Alpha virt. eigenvalues --   -0.00030   0.00327   0.00780   0.00883   0.00923

  Beta  occ. eigenvalues --  -38.44084 -38.43924 -38.43859 -38.43666 -38.43651
  Beta  occ. eigenvalues --  -38.43274 -38.43161  -2.19880  -2.19764  -2.19723
  Beta  occ. eigenvalues --   -2.19485  -2.19449  -2.19220  -2.19068  -1.13556
  Beta  occ. eigenvalues --   -1.13546  -1.13517  -1.13467  -1.13458  -1.13415
  Beta  occ. eigenvalues --   -1.13396  -1.13370  -1.13335  -1.13191  -1.13174
  Beta  occ. eigenvalues --   -1.13133  -1.13126  -1.13122  -1.13118  -1.12919
  Beta  occ. eigenvalues --   -1.12898  -1.12851  -1.12751  -1.12715  -1.12689
  Beta  occ. eigenvalues --   -0.17865  -0.12587  -0.12474
  Beta virt. eigenvalues --   -0.06940  -0.05693  -0.05059  -0.04624  -0.02368
  Beta virt. eigenvalues --   -0.02327  -0.01586  -0.01450  -0.01132  -0.00461
  Beta virt. eigenvalues --   -0.00183   0.00121   0.00376   0.00801   0.00913

 Mulliken charges and spin densities:
               1          2
     1  Na  -0.335300   0.593778
     2  Na   0.156627   0.077414
     3  Na   0.228795  -0.051107
     4  Na   0.034166   0.017800
     5  Na  -0.268566   0.430043
     6  Na   0.368703  -0.029667
     7  Na  -0.184424  -0.038261
 Sum of Mulliken charges =  -0.00000   1.00000

 Dipole moment (field-independent basis, Debye):
    X=             -0.0639    Y=              0.4304    Z=              0.1292  Tot=              0.4539
 Quadrupole moment (field-independent basis, Debye-Ang):
   XX=            -57.2409   YY=            -62.9749   ZZ=            -73.9137
   XY=              0.3160   XZ=             -1.4302   YZ=              0.2922

 Normal termination of Gaussian 16 at Tue Dec  5 18:41:43 2023.
