 Gaussian 16, Revision B.01,
 Gaussian 16:  ES64L-G16RevB.01 20-Dec-2017

 -------------------------
 #P B3LYP/6-311+g(d) force
 -------------------------

 -----
 DPGEN
 -----
 Symbolic Z-matrix:
 Charge =  0 Multiplicity = 2

                         Standard orientation:
 ---------------------------------------------------------------------
 Center     Atomic      Atomic             Coordinates (Angstroms)
 Number     Number       Type             X           Y           Z
 ---------------------------------------------------------------------
      1         11           0       -1.247138   -1.379504    2.392312
      2         11           0       -1.650858    2.483962    0.934435
      3         11           0        4.891102   -0.187468    0.092015
      4         11           0        1.291120    0.638189    0.883670
      5         11           0       -0.171447    1.400321   -2.150095
      6         11           0        0.121023   -2.040117   -1.309657
      7         11           0       -3.233800   -0.915383   -0.842680
 ---------------------------------------------------------------------

 SCF Done:  E(UB3LYP) =  -1136.11289987     A.U. after   28 cycles

 The electronic state is 2-A.
 Alpha  occ. eigenvalues --  -38.45004 -38.44983 -38.44933 -38.44440 -38.44252
 Alpha  occ. eigenvalues --  -38.43201 -38.43049  -2.20750  -2.20733  -2.20702
 Alpha  occ. eigenvalues --   -2.20275  -2.20066  -2.19072  -2.18862  -1.14427
 Alpha  occ. eigenvalues --   -1.14404  -1.14401  -1.14388  -1.14386  -1.14384
 Alpha  occ. eigenvalues --   -1.14370  -1.14340  -1.14334  -1.13960  -1.13916
 Alpha  occ. eigenvalues --   -1.13884  -1.13755  -1.13726  -1.13669  -1.12783
 Alpha  occ. eigenvalues --   -1.12757  -1.12671  -1.12532  -1.12519  -1.12492
 Alpha  occ. eigenvalues --   -0.17880  -0.12295  -0.12014  -0.11233
 Alpha virt. eigenvalues --   -0.07352  -0.04834  -0.04255  -0.03347  -0.03150
 Alpha virt. eigenvalues --   -0.03002  -0.02596  -0.01100  -0.00725  -0.00450
 Alpha virt. eigenvalues --   -0.00187  -0.00035   0.00182   0.00669   0.00695

  Beta  occ. eigenvalues --  -38.45039 -38.44972 -38.44848 -38.44385 -38.44212
  Beta  occ. eigenvalues --  -38.43174 -38.43033  -2.20767  -2.20733  -2.20578
  Beta  occ. eigenvalues --   -2.20175  -2.19996  -2.19026  -2.18833  -1.14430
  Beta  occ. eigenvalues --   -1.14429  -1.14397  -1.14392  -1.14382  -1.14377
  Beta  occ. eigenvalues --   -1.14290  -1.14260  -1.14230  -1.13890  -1.13841
  Beta  occ. eigenvalues --   -1.13811  -1.13706  -1.13656  -1.13623  -1.12746
  Beta  occ. eigenvalues --   -1.12706  -1.12643  -1.12506  -1.12498  -1.12469
  Beta  occ. eigenvalues --   -0.16852  -0.12155  -0.11070
  Beta virt. eigenvalues --   -0.08169  -0.07229  -0.04097  -0.03951  -0.03099
  Beta virt. eigenvalues --   -0.02598  -0.02531  -0.02184  -0.01015  -0.00602
  Beta virt. eigenvalues --   -0.00240  -0.00109  -0.00049   0.00206   0.00762

 Mulliken charges and spin densities:
               1          2
     1  Na   0.044309   0.288712
     2  Na   0.299190   0.027086
     3  Na   0.019275  -0.192828
     4  Na  -0.592224   0.295524
     5  Na   0.154371   0.282707
     6  Na   0.142118   0.214830
     7  Na  -0.067038   0.083970
 Sum of Mulliken charges =  -0.00000   1.00000

 Dipole moment (field-independent basis, Debye):
    X=             -0.5391    Y=             -0.3624    Z=             -0.3841  Tot=              0.7547
 Quadrupole moment (field-independent basis, Debye-Ang):
   XX=            -54.6062   YY=            -77.0493   ZZ=            -62.7997
   XY=             -1.9359   XZ=             -1.9515   YZ=             -0.8090

 Normal termination of Gaussian 16 at Sat Dec  9 06:40:02 2023.
