 Gaussian 16, Revision B.01,
 Gaussian 16:  ES64L-G16RevB.01 20-Dec-2017

 -------------------------
 #P B3LYP/6-311+g(d) force
 -------------------------

 -----
 DPGEN
 -----
 Symbolic Z-matrix:
 Charge =  0 Multiplicity = 2

                         Standard orientation:
 ---------------------------------------------------------------------
 Center     Atomic      Atomic             Coordinates (Angstroms)
 Number     Number       Type             X           Y           Z
 ---------------------------------------------------------------------
      1         11           0        2.018486    1.359716    0.712262
      2         11           0        2.021043   -1.196228   -1.006933
      3         11           0        0.853745   -1.196118    1.816718
      4         11           0        0.374489    1.175303   -1.721962
      5         11           0       -0.919876    1.229086    0.846404
      6         11           0       -0.997687   -1.364904   -0.720965
      7         11           0       -3.350200   -0.006854    0.074475
 ---------------------------------------------------------------------

 SCF Done:  E(UB3LYP) =  -1136.09418170     A.U. after   24 cycles

 The electronic state is 2-A.
 Alpha  occ. eigenvalues --  -38.44902 -38.43887 -38.43649 -38.43557 -38.43513
 Alpha  occ. eigenvalues --  -38.43431 -38.43238  -2.20835  -2.19959  -2.19745
 Alpha  occ. eigenvalues --   -2.19673  -2.19629  -2.19552  -2.19395  -1.14609
 Alpha  occ. eigenvalues --   -1.14538  -1.14413  -1.13779  -1.13673  -1.13624
 Alpha  occ. eigenvalues --   -1.13606  -1.13510  -1.13452  -1.13363  -1.13333
 Alpha  occ. eigenvalues --   -1.13302  -1.13219  -1.13195  -1.13187  -1.13157
 Alpha  occ. eigenvalues --   -1.13139  -1.13114  -1.13050  -1.13014  -1.12957
 Alpha  occ. eigenvalues --   -0.21024  -0.14106  -0.12923  -0.11493
 Alpha virt. eigenvalues --   -0.06096  -0.04314  -0.03741  -0.03599  -0.03005
 Alpha virt. eigenvalues --   -0.02719  -0.01635  -0.00572  -0.00226   0.00256
 Alpha virt. eigenvalues --    0.00574   0.00626   0.00890   0.00981   0.01064

  Beta  occ. eigenvalues --  -38.44904 -38.43846 -38.43617 -38.43501 -38.43457
  Beta  occ. eigenvalues --  -38.43390 -38.43203  -2.20841  -2.19888  -2.19691
  Beta  occ. eigenvalues --   -2.19582  -2.19553  -2.19452  -2.19336  -1.14611
  Beta  occ. eigenvalues --   -1.14536  -1.14413  -1.13731  -1.13600  -1.13578
  Beta  occ. eigenvalues --   -1.13552  -1.13433  -1.13392  -1.13323  -1.13274
  Beta  occ. eigenvalues --   -1.13214  -1.13158  -1.13139  -1.13134  -1.13083
  Beta  occ. eigenvalues --   -1.13071  -1.13034  -1.13000  -1.12958  -1.12898
  Beta  occ. eigenvalues --   -0.20108  -0.13912  -0.11357
  Beta virt. eigenvalues --   -0.08358  -0.05961  -0.03928  -0.03329  -0.03182
  Beta virt. eigenvalues --   -0.02382  -0.01847  -0.01558  -0.00312  -0.00144
  Beta virt. eigenvalues --    0.00297   0.00616   0.00724   0.00966   0.01008

 Mulliken charges and spin densities:
               1          2
     1  Na   0.222016  -0.030639
     2  Na   0.229873   0.057743
     3  Na   0.012037   0.308187
     4  Na   0.273505   0.400398
     5  Na  -0.391681   0.212120
     6  Na  -0.387967   0.127381
     7  Na   0.042217  -0.075189
 Sum of Mulliken charges =  -0.00000   1.00000

 Dipole moment (field-independent basis, Debye):
    X=             -0.3624    Y=             -0.1199    Z=              0.0719  Tot=              0.3884
 Quadrupole moment (field-independent basis, Debye-Ang):
   XX=            -53.8948   YY=            -77.6203   ZZ=            -64.0118
   XY=             -0.0977   XZ=             -0.1674   YZ=              2.5693

 Normal termination of Gaussian 16 at Sat Dec  9 06:47:54 2023.
