 Gaussian 16, Revision B.01,
 Gaussian 16:  ES64L-G16RevB.01 20-Dec-2017

 -------------------------
 #P B3LYP/6-311+g(d) force
 -------------------------

 -----
 DPGEN
 -----
 Symbolic Z-matrix:
 Charge =  0 Multiplicity = 2

                         Standard orientation:
 ---------------------------------------------------------------------
 Center     Atomic      Atomic             Coordinates (Angstroms)
 Number     Number       Type             X           Y           Z
 ---------------------------------------------------------------------
      1         11           0       -1.481580   -2.524535   -0.060920
      2         11           0        1.985842    1.685441   -0.925338
      3         11           0        3.379438   -1.303023    0.542505
      4         11           0        0.190189   -0.384795   -1.759781
      5         11           0       -1.007035    2.839659    0.657368
      6         11           0       -2.946909   -0.074806   -0.387728
      7         11           0       -0.119944   -0.237942    1.933895
 ---------------------------------------------------------------------

 SCF Done:  E(UB3LYP) =  -1136.12473814     A.U. after   21 cycles

 The electronic state is 2-A.
 Alpha  occ. eigenvalues --  -38.44463 -38.44372 -38.43987 -38.43897 -38.43836
 Alpha  occ. eigenvalues --  -38.43532 -38.42764  -2.20282  -2.20224  -2.19886
 Alpha  occ. eigenvalues --   -2.19875  -2.19725  -2.19470  -2.18592  -1.14031
 Alpha  occ. eigenvalues --   -1.13945  -1.13901  -1.13897  -1.13885  -1.13855
 Alpha  occ. eigenvalues --   -1.13742  -1.13575  -1.13534  -1.13526  -1.13492
 Alpha  occ. eigenvalues --   -1.13467  -1.13358  -1.13339  -1.13297  -1.13132
 Alpha  occ. eigenvalues --   -1.13107  -1.13099  -1.12271  -1.12248  -1.12236
 Alpha  occ. eigenvalues --   -0.18709  -0.13395  -0.11930  -0.11289
 Alpha virt. eigenvalues --   -0.06043  -0.04945  -0.04331  -0.03550  -0.02935
 Alpha virt. eigenvalues --   -0.02852  -0.01812  -0.00998  -0.00239  -0.00115
 Alpha virt. eigenvalues --    0.00141   0.00324   0.00694   0.00773   0.00835

  Beta  occ. eigenvalues --  -38.44454 -38.44364 -38.43905 -38.43825 -38.43810
  Beta  occ. eigenvalues --  -38.43526 -38.42760  -2.20271  -2.20209  -2.19748
  Beta  occ. eigenvalues --   -2.19734  -2.19679  -2.19464  -2.18586  -1.14028
  Beta  occ. eigenvalues --   -1.13926  -1.13886  -1.13879  -1.13865  -1.13847
  Beta  occ. eigenvalues --   -1.13661  -1.13479  -1.13437  -1.13426  -1.13381
  Beta  occ. eigenvalues --   -1.13376  -1.13311  -1.13286  -1.13268  -1.13129
  Beta  occ. eigenvalues --   -1.13101  -1.13064  -1.12258  -1.12246  -1.12225
  Beta  occ. eigenvalues --   -0.17974  -0.13130  -0.11692
  Beta virt. eigenvalues --   -0.07411  -0.05889  -0.04829  -0.04244  -0.02903
  Beta virt. eigenvalues --   -0.02266  -0.01882  -0.01627  -0.00897  -0.00176
  Beta virt. eigenvalues --   -0.00078   0.00188   0.00352   0.00835   0.00848

 Mulliken charges and spin densities:
               1          2
     1  Na   0.313897  -0.028019
     2  Na   0.113603   0.035569
     3  Na  -0.216651  -0.009159
     4  Na   0.084134   0.253772
     5  Na  -0.150685  -0.045779
     6  Na   0.103536   0.106395
     7  Na  -0.247834   0.687221
 Sum of Mulliken charges =  -0.00000   1.00000

 Dipole moment (field-independent basis, Debye):
    X=              0.1366    Y=             -0.4081    Z=              0.1538  Tot=              0.4570
 Quadrupole moment (field-independent basis, Debye-Ang):
   XX=            -56.6194   YY=            -66.3844   ZZ=            -72.0169
   XY=             -0.6162   XZ=              1.5064   YZ=             -1.3059

 Normal termination of Gaussian 16 at Fri Dec  8 18:05:48 2023.
