 Gaussian 16, Revision B.01,
 Gaussian 16:  ES64L-G16RevB.01 20-Dec-2017

 -------------------------
 #P B3LYP/6-311+g(d) force
 -------------------------

 -----
 DPGEN
 -----
 Symbolic Z-matrix:
 Charge =  0 Multiplicity = 2

                         Standard orientation:
 ---------------------------------------------------------------------
 Center     Atomic      Atomic             Coordinates (Angstroms)
 Number     Number       Type             X           Y           Z
 ---------------------------------------------------------------------
      1         11           0       -2.568162    0.783171    1.695061
      2         11           0        2.645244    0.771424   -1.535930
      3         11           0        3.417592   -1.986994    0.803848
      4         11           0        1.015507    0.403048    2.100949
      5         11           0       -0.074275    2.960665   -0.872965
      6         11           0       -0.606352   -1.443776   -1.526402
      7         11           0       -3.829554   -1.487539   -0.664561
 ---------------------------------------------------------------------

 SCF Done:  E(UB3LYP) =  -1136.12028792     A.U. after   23 cycles

 The electronic state is 2-A.
 Alpha  occ. eigenvalues --  -38.44827 -38.44709 -38.44649 -38.44488 -38.43975
 Alpha  occ. eigenvalues --  -38.43674 -38.43558  -2.20599  -2.20514  -2.20454
 Alpha  occ. eigenvalues --   -2.20276  -2.19756  -2.19474  -2.19327  -1.14280
 Alpha  occ. eigenvalues --   -1.14265  -1.14214  -1.14206  -1.14162  -1.14140
 Alpha  occ. eigenvalues --   -1.14117  -1.14110  -1.14064  -1.13962  -1.13926
 Alpha  occ. eigenvalues --   -1.13893  -1.13423  -1.13417  -1.13384  -1.13140
 Alpha  occ. eigenvalues --   -1.13135  -1.13121  -1.13007  -1.12991  -1.12961
 Alpha  occ. eigenvalues --   -0.17063  -0.13435  -0.11755  -0.11399
 Alpha virt. eigenvalues --   -0.06320  -0.05499  -0.05009  -0.03341  -0.03085
 Alpha virt. eigenvalues --   -0.02688  -0.02097  -0.01311  -0.01001  -0.00271
 Alpha virt. eigenvalues --   -0.00163   0.00128   0.00216   0.00258   0.00594

  Beta  occ. eigenvalues --  -38.44791 -38.44643 -38.44611 -38.44453 -38.43954
  Beta  occ. eigenvalues --  -38.43677 -38.43547  -2.20532  -2.20395  -2.20385
  Beta  occ. eigenvalues --   -2.20213  -2.19717  -2.19481  -2.19310  -1.14229
  Beta  occ. eigenvalues --   -1.14221  -1.14167  -1.14127  -1.14086  -1.14082
  Beta  occ. eigenvalues --   -1.14066  -1.14023  -1.14006  -1.13911  -1.13886
  Beta  occ. eigenvalues --   -1.13852  -1.13396  -1.13382  -1.13363  -1.13143
  Beta  occ. eigenvalues --   -1.13134  -1.13128  -1.12996  -1.12974  -1.12941
  Beta  occ. eigenvalues --   -0.16354  -0.13227  -0.11083
  Beta virt. eigenvalues --   -0.08071  -0.06037  -0.04932  -0.04836  -0.02951
  Beta virt. eigenvalues --   -0.02661  -0.02145  -0.01993  -0.01090  -0.00687
  Beta virt. eigenvalues --   -0.00180   0.00033   0.00234   0.00295   0.00337

 Mulliken charges and spin densities:
               1          2
     1  Na  -0.021166   0.195305
     2  Na   0.282024   0.246085
     3  Na   0.364950   0.021570
     4  Na  -0.329404   0.393890
     5  Na  -0.026964  -0.033640
     6  Na  -0.584841   0.304575
     7  Na   0.315402  -0.127784
 Sum of Mulliken charges =  -0.00000   1.00000

 Dipole moment (field-independent basis, Debye):
    X=              0.0573    Y=              0.0050    Z=             -0.0131  Tot=              0.0590
 Quadrupole moment (field-independent basis, Debye-Ang):
   XX=            -57.0526   YY=            -72.7952   ZZ=            -68.1364
   XY=             -2.2904   XZ=             -2.5825   YZ=             -1.8803

 Normal termination of Gaussian 16 at Sun Dec  3 20:40:30 2023.
