 Gaussian 16, Revision B.01,
 Gaussian 16:  ES64L-G16RevB.01 20-Dec-2017

 -------------------------
 #P B3LYP/6-311+g(d) force
 -------------------------

 -----
 DPGEN
 -----
 Symbolic Z-matrix:
 Charge =  0 Multiplicity = 2

                         Standard orientation:
 ---------------------------------------------------------------------
 Center     Atomic      Atomic             Coordinates (Angstroms)
 Number     Number       Type             X           Y           Z
 ---------------------------------------------------------------------
      1         11           0        0.429254   -0.162260   -1.812122
      2         11           0       -1.891290   -2.353212   -0.344897
      3         11           0        0.057476    3.045363    0.235266
      4         11           0        0.043311   -0.358491    1.915260
      5         11           0        3.154792    1.032741   -0.218673
      6         11           0        1.401226   -2.533836    0.312948
      7         11           0       -3.194770    1.329695   -0.087782
 ---------------------------------------------------------------------

 SCF Done:  E(UB3LYP) =  -1136.13417547     A.U. after   19 cycles

 The electronic state is 2-A.
 Alpha  occ. eigenvalues --  -38.43964 -38.43915 -38.43914 -38.43806 -38.43669
 Alpha  occ. eigenvalues --  -38.43667 -38.43523  -2.19719  -2.19717  -2.19703
 Alpha  occ. eigenvalues --   -2.19646  -2.19590  -2.19573  -2.19437  -1.13413
 Alpha  occ. eigenvalues --   -1.13402  -1.13399  -1.13389  -1.13385  -1.13375
 Alpha  occ. eigenvalues --   -1.13371  -1.13364  -1.13356  -1.13330  -1.13317
 Alpha  occ. eigenvalues --   -1.13315  -1.13288  -1.13251  -1.13217  -1.13194
 Alpha  occ. eigenvalues --   -1.13169  -1.13151  -1.13105  -1.13066  -1.13049
 Alpha  occ. eigenvalues --   -0.18314  -0.12812  -0.12420  -0.10711
 Alpha virt. eigenvalues --   -0.05550  -0.05380  -0.05049  -0.03152  -0.02869
 Alpha virt. eigenvalues --   -0.02551  -0.01511  -0.01269  -0.00600  -0.00525
 Alpha virt. eigenvalues --   -0.00022   0.00340   0.00799   0.00831   0.00840

  Beta  occ. eigenvalues --  -38.43968 -38.43911 -38.43911 -38.43795 -38.43651
  Beta  occ. eigenvalues --  -38.43582 -38.43451  -2.19728  -2.19713  -2.19698
  Beta  occ. eigenvalues --   -2.19630  -2.19556  -2.19425  -2.19304  -1.13400
  Beta  occ. eigenvalues --   -1.13389  -1.13384  -1.13378  -1.13374  -1.13368
  Beta  occ. eigenvalues --   -1.13364  -1.13358  -1.13355  -1.13317  -1.13306
  Beta  occ. eigenvalues --   -1.13284  -1.13275  -1.13203  -1.13166  -1.13121
  Beta  occ. eigenvalues --   -1.13079  -1.13057  -1.13020  -1.12974  -1.12949
  Beta  occ. eigenvalues --   -0.17577  -0.12580  -0.12224
  Beta virt. eigenvalues --   -0.06806  -0.05531  -0.05347  -0.04924  -0.02379
  Beta virt. eigenvalues --   -0.02206  -0.01547  -0.01421  -0.01182  -0.00612
  Beta virt. eigenvalues --   -0.00563   0.00119   0.00380   0.00829   0.00841

 Mulliken charges and spin densities:
               1          2
     1  Na  -0.054055   0.711598
     2  Na  -0.028481  -0.041421
     3  Na  -0.152235  -0.106220
     4  Na  -0.145760   0.652379
     5  Na   0.060513  -0.115802
     6  Na   0.514806   0.004496
     7  Na  -0.194788  -0.105029
 Sum of Mulliken charges =  -0.00000   1.00000

 Dipole moment (field-independent basis, Debye):
    X=              0.1225    Y=             -0.0068    Z=             -0.0179  Tot=              0.1240
 Quadrupole moment (field-independent basis, Debye-Ang):
   XX=            -58.0752   YY=            -61.0222   ZZ=            -74.8441
   XY=              0.9504   XZ=              0.9181   YZ=              0.6649

 Normal termination of Gaussian 16 at Fri Dec  8 01:35:09 2023.
