 Gaussian 16, Revision B.01,
 Gaussian 16:  ES64L-G16RevB.01 20-Dec-2017

 -------------------------
 #P B3LYP/6-311+g(d) force
 -------------------------

 -----
 DPGEN
 -----
 Symbolic Z-matrix:
 Charge =  0 Multiplicity = 2

                         Standard orientation:
 ---------------------------------------------------------------------
 Center     Atomic      Atomic             Coordinates (Angstroms)
 Number     Number       Type             X           Y           Z
 ---------------------------------------------------------------------
      1         11           0       -1.110100    2.864711   -0.184999
      2         11           0        2.864046    1.141156   -0.749573
      3         11           0        0.197938   -0.074954   -1.486605
      4         11           0       -1.733455   -2.487196   -0.326828
      5         11           0        2.724180   -1.905835    0.453617
      6         11           0       -3.358206   -0.162957    0.137822
      7         11           0        0.415596    0.625074    2.156566
 ---------------------------------------------------------------------

 SCF Done:  E(UB3LYP) =  -1136.12533368     A.U. after   20 cycles

 The electronic state is 2-A.
 Alpha  occ. eigenvalues --  -38.44690 -38.44485 -38.44219 -38.43920 -38.43494
 Alpha  occ. eigenvalues --  -38.43380 -38.43107  -2.20536  -2.20361  -2.20032
 Alpha  occ. eigenvalues --   -2.19758  -2.19465  -2.19254  -2.18917  -1.14279
 Alpha  occ. eigenvalues --   -1.14190  -1.14148  -1.14093  -1.14003  -1.13977
 Alpha  occ. eigenvalues --   -1.13690  -1.13686  -1.13679  -1.13424  -1.13400
 Alpha  occ. eigenvalues --   -1.13362  -1.13150  -1.13140  -1.13077  -1.12936
 Alpha  occ. eigenvalues --   -1.12904  -1.12873  -1.12595  -1.12576  -1.12561
 Alpha  occ. eigenvalues --   -0.18231  -0.13681  -0.11804  -0.10772
 Alpha virt. eigenvalues --   -0.06154  -0.05572  -0.04214  -0.03483  -0.02769
 Alpha virt. eigenvalues --   -0.02550  -0.01951  -0.01303  -0.00458  -0.00333
 Alpha virt. eigenvalues --   -0.00057   0.00302   0.00661   0.00781   0.00829

  Beta  occ. eigenvalues --  -38.44692 -38.44458 -38.44207 -38.43829 -38.43438
  Beta  occ. eigenvalues --  -38.43379 -38.43109  -2.20540  -2.20315  -2.20012
  Beta  occ. eigenvalues --   -2.19589  -2.19366  -2.19254  -2.18923  -1.14284
  Beta  occ. eigenvalues --   -1.14182  -1.14154  -1.14052  -1.13957  -1.13947
  Beta  occ. eigenvalues --   -1.13678  -1.13669  -1.13651  -1.13311  -1.13285
  Beta  occ. eigenvalues --   -1.13237  -1.13076  -1.13064  -1.13012  -1.12937
  Beta  occ. eigenvalues --   -1.12893  -1.12866  -1.12594  -1.12573  -1.12561
  Beta  occ. eigenvalues --   -0.17549  -0.13486  -0.11620
  Beta virt. eigenvalues --   -0.06840  -0.06055  -0.05450  -0.04191  -0.02813
  Beta virt. eigenvalues --   -0.02079  -0.01855  -0.01566  -0.01163  -0.00432
  Beta virt. eigenvalues --   -0.00353   0.00107   0.00353   0.00744   0.00807

 Mulliken charges and spin densities:
               1          2
     1  Na   0.002341  -0.039015
     2  Na   0.452435   0.021379
     3  Na   0.005381   0.172914
     4  Na   0.187460   0.011179
     5  Na  -0.109272   0.171053
     6  Na  -0.033588  -0.007860
     7  Na  -0.504757   0.670351
 Sum of Mulliken charges =  -0.00000   1.00000

 Dipole moment (field-independent basis, Debye):
    X=              0.2852    Y=              0.0729    Z=              0.2522  Tot=              0.3877
 Quadrupole moment (field-independent basis, Debye-Ang):
   XX=            -54.0766   YY=            -66.1788   ZZ=            -74.6256
   XY=             -1.9702   XZ=             -0.8796   YZ=             -1.8484

 Normal termination of Gaussian 16 at Thu Dec  7 06:45:17 2023.
