 Gaussian 16, Revision B.01,
 Gaussian 16:  ES64L-G16RevB.01 20-Dec-2017

 -------------------------
 #P B3LYP/6-311+g(d) force
 -------------------------

 -----
 DPGEN
 -----
 Symbolic Z-matrix:
 Charge =  0 Multiplicity = 2

                         Standard orientation:
 ---------------------------------------------------------------------
 Center     Atomic      Atomic             Coordinates (Angstroms)
 Number     Number       Type             X           Y           Z
 ---------------------------------------------------------------------
      1         11           0       -1.192051    2.584692   -0.612883
      2         11           0        2.180152    1.979858    0.483572
      3         11           0        0.089645    0.219864   -1.748260
      4         11           0       -2.974912   -0.433406    0.397842
      5         11           0       -0.108729   -0.014508    2.000670
      6         11           0       -0.788412   -2.671595   -0.342930
      7         11           0        2.794307   -1.664904   -0.178012
 ---------------------------------------------------------------------

 SCF Done:  E(UB3LYP) =  -1136.13656889     A.U. after   19 cycles

 The electronic state is 2-A.
 Alpha  occ. eigenvalues --  -38.43825 -38.43790 -38.43737 -38.43590 -38.43465
 Alpha  occ. eigenvalues --  -38.43381 -38.43364  -2.19737  -2.19582  -2.19578
 Alpha  occ. eigenvalues --   -2.19466  -2.19456  -2.19271  -2.19239  -1.13412
 Alpha  occ. eigenvalues --   -1.13390  -1.13362  -1.13270  -1.13261  -1.13255
 Alpha  occ. eigenvalues --   -1.13244  -1.13230  -1.13223  -1.13195  -1.13152
 Alpha  occ. eigenvalues --   -1.13134  -1.13116  -1.13096  -1.13062  -1.12926
 Alpha  occ. eigenvalues --   -1.12901  -1.12897  -1.12890  -1.12873  -1.12852
 Alpha  occ. eigenvalues --   -0.18785  -0.12887  -0.12488  -0.11192
 Alpha virt. eigenvalues --   -0.05320  -0.05130  -0.04538  -0.03353  -0.03066
 Alpha virt. eigenvalues --   -0.02809  -0.01365  -0.01110  -0.00261  -0.00100
 Alpha virt. eigenvalues --    0.00044   0.00360   0.00841   0.00892   0.00930

  Beta  occ. eigenvalues --  -38.43791 -38.43738 -38.43724 -38.43581 -38.43392
  Beta  occ. eigenvalues --  -38.43363 -38.43356  -2.19586  -2.19577  -2.19559
  Beta  occ. eigenvalues --   -2.19453  -2.19325  -2.19241  -2.19229  -1.13314
  Beta  occ. eigenvalues --   -1.13287  -1.13257  -1.13256  -1.13237  -1.13231
  Beta  occ. eigenvalues --   -1.13222  -1.13208  -1.13189  -1.13172  -1.13143
  Beta  occ. eigenvalues --   -1.13107  -1.13080  -1.13028  -1.12975  -1.12903
  Beta  occ. eigenvalues --   -1.12878  -1.12868  -1.12857  -1.12848  -1.12834
  Beta  occ. eigenvalues --   -0.18050  -0.12636  -0.12213
  Beta virt. eigenvalues --   -0.07261  -0.05302  -0.05052  -0.04500  -0.02563
  Beta virt. eigenvalues --   -0.02321  -0.01767  -0.01275  -0.01018  -0.00234
  Beta virt. eigenvalues --   -0.00126   0.00124   0.00386   0.00887   0.00909

 Mulliken charges and spin densities:
               1          2
     1  Na   0.215131   0.005345
     2  Na   0.032198   0.000798
     3  Na  -0.080737   0.494202
     4  Na   0.210871   0.046809
     5  Na  -0.244395   0.624895
     6  Na  -0.003060  -0.064139
     7  Na  -0.130009  -0.107909
 Sum of Mulliken charges =  -0.00000   1.00000

 Dipole moment (field-independent basis, Debye):
    X=              0.1715    Y=              0.0092    Z=              0.2220  Tot=              0.2807
 Quadrupole moment (field-independent basis, Debye-Ang):
   XX=            -58.5279   YY=            -63.3913   ZZ=            -72.4178
   XY=             -0.2012   XZ=              0.2956   YZ=              0.7912

 Normal termination of Gaussian 16 at Tue Dec  5 20:31:45 2023.
