 Gaussian 16, Revision B.01,
 Gaussian 16:  ES64L-G16RevB.01 20-Dec-2017

 -------------------------
 #P B3LYP/6-311+g(d) force
 -------------------------

 -----
 DPGEN
 -----
 Symbolic Z-matrix:
 Charge =  0 Multiplicity = 2

                         Standard orientation:
 ---------------------------------------------------------------------
 Center     Atomic      Atomic             Coordinates (Angstroms)
 Number     Number       Type             X           Y           Z
 ---------------------------------------------------------------------
      1         11           0       -0.168676    0.249020   -1.591659
      2         11           0       -0.014315   -0.162991    1.688242
      3         11           0        3.160734   -0.828368   -0.194663
      4         11           0        0.069101   -2.931858   -0.046237
      5         11           0       -1.632756    2.486499   -0.036054
      6         11           0        1.486020    2.363090    0.191146
      7         11           0       -2.900108   -1.175392   -0.010775
 ---------------------------------------------------------------------

 SCF Done:  E(UB3LYP) =  -1136.13674346     A.U. after   19 cycles

 The electronic state is 2-A.
 Alpha  occ. eigenvalues --  -38.43805 -38.43803 -38.43791 -38.43598 -38.43498
 Alpha  occ. eigenvalues --  -38.42898 -38.42897  -2.19662  -2.19644  -2.19592
 Alpha  occ. eigenvalues --   -2.19508  -2.19424  -2.18925  -2.18894  -1.13366
 Alpha  occ. eigenvalues --   -1.13340  -1.13315  -1.13313  -1.13299  -1.13262
 Alpha  occ. eigenvalues --   -1.13262  -1.13257  -1.13249  -1.13233  -1.13183
 Alpha  occ. eigenvalues --   -1.13144  -1.13105  -1.13087  -1.13012  -1.12656
 Alpha  occ. eigenvalues --   -1.12562  -1.12541  -1.12531  -1.12523  -1.12495
 Alpha  occ. eigenvalues --   -0.19054  -0.13144  -0.12690  -0.10319
 Alpha virt. eigenvalues --   -0.05459  -0.05154  -0.05080  -0.03015  -0.02721
 Alpha virt. eigenvalues --   -0.02009  -0.01492  -0.01320  -0.00405  -0.00315
 Alpha virt. eigenvalues --    0.00047   0.00352   0.00839   0.00873   0.00894

  Beta  occ. eigenvalues --  -38.43799 -38.43799 -38.43789 -38.43590 -38.43487
  Beta  occ. eigenvalues --  -38.42828 -38.42818  -2.19656  -2.19640  -2.19590
  Beta  occ. eigenvalues --   -2.19498  -2.19410  -2.18797  -2.18749  -1.13362
  Beta  occ. eigenvalues --   -1.13321  -1.13304  -1.13299  -1.13284  -1.13258
  Beta  occ. eigenvalues --   -1.13256  -1.13250  -1.13243  -1.13234  -1.13163
  Beta  occ. eigenvalues --   -1.13120  -1.13097  -1.13038  -1.13008  -1.12565
  Beta  occ. eigenvalues --   -1.12469  -1.12447  -1.12437  -1.12414  -1.12393
  Beta  occ. eigenvalues --   -0.18331  -0.12868  -0.12450
  Beta virt. eigenvalues --   -0.06417  -0.05457  -0.05122  -0.05064  -0.02175
  Beta virt. eigenvalues --   -0.02003  -0.01422  -0.01245  -0.01008  -0.00453
  Beta virt. eigenvalues --   -0.00361   0.00177   0.00385   0.00852   0.00892

 Mulliken charges and spin densities:
               1          2
     1  Na  -0.442050   0.725163
     2  Na  -0.269499   0.640358
     3  Na  -0.062428  -0.078929
     4  Na   0.024600  -0.109519
     5  Na   0.365905  -0.063630
     6  Na   0.265532   0.006114
     7  Na   0.117940  -0.119557
 Sum of Mulliken charges =  -0.00000   1.00000

 Dipole moment (field-independent basis, Debye):
    X=             -0.0941    Y=             -0.2229    Z=              0.0328  Tot=              0.2442
 Quadrupole moment (field-independent basis, Debye-Ang):
   XX=            -56.1378   YY=            -58.5811   ZZ=            -76.7680
   XY=             -0.3763   XZ=             -0.4248   YZ=              0.9573

 Normal termination of Gaussian 16 at Fri Dec  8 04:37:32 2023.
