 Gaussian 16, Revision B.01,
 Gaussian 16:  ES64L-G16RevB.01 20-Dec-2017

 -------------------------
 #P B3LYP/6-311+g(d) force
 -------------------------

 -----
 DPGEN
 -----
 Symbolic Z-matrix:
 Charge =  0 Multiplicity = 2

                         Standard orientation:
 ---------------------------------------------------------------------
 Center     Atomic      Atomic             Coordinates (Angstroms)
 Number     Number       Type             X           Y           Z
 ---------------------------------------------------------------------
      1         11           0        3.900804   -1.012929    0.099158
      2         11           0        2.009940   -3.244390    0.342384
      3         11           0       -1.731346   -3.114699   -0.261870
      4         11           0       -4.239463   -0.984059   -0.356667
      5         11           0       -3.074539    2.303790    0.702299
      6         11           0       -0.060274    3.485389   -0.244871
      7         11           0        3.194879    2.566899   -0.280432
 ---------------------------------------------------------------------

 SCF Done:  E(UB3LYP) =  -1136.10873602     A.U. after   23 cycles

 The electronic state is 2-A.
 Alpha  occ. eigenvalues --  -38.45081 -38.44968 -38.44885 -38.44673 -38.44253
 Alpha  occ. eigenvalues --  -38.44181 -38.43857  -2.20900  -2.20745  -2.20668
 Alpha  occ. eigenvalues --   -2.20452  -2.20059  -2.20015  -2.19665  -1.14630
 Alpha  occ. eigenvalues --   -1.14555  -1.14533  -1.14425  -1.14414  -1.14395
 Alpha  occ. eigenvalues --   -1.14338  -1.14319  -1.14292  -1.14135  -1.14130
 Alpha  occ. eigenvalues --   -1.14109  -1.13711  -1.13705  -1.13688  -1.13682
 Alpha  occ. eigenvalues --   -1.13653  -1.13640  -1.13313  -1.13306  -1.13300
 Alpha  occ. eigenvalues --   -0.15707  -0.14163  -0.13695  -0.10944
 Alpha virt. eigenvalues --   -0.07831  -0.04614  -0.04306  -0.03708  -0.03606
 Alpha virt. eigenvalues --   -0.02471  -0.02202  -0.01996  -0.01407  -0.00633
 Alpha virt. eigenvalues --   -0.00469  -0.00077   0.00116   0.00390   0.00565

  Beta  occ. eigenvalues --  -38.45062 -38.44932 -38.44873 -38.44667 -38.44187
  Beta  occ. eigenvalues --  -38.44147 -38.43791  -2.20872  -2.20683  -2.20651
  Beta  occ. eigenvalues --   -2.20450  -2.19956  -2.19936  -2.19542  -1.14589
  Beta  occ. eigenvalues --   -1.14542  -1.14500  -1.14383  -1.14374  -1.14347
  Beta  occ. eigenvalues --   -1.14330  -1.14307  -1.14249  -1.14139  -1.14135
  Beta  occ. eigenvalues --   -1.14056  -1.13642  -1.13628  -1.13622  -1.13614
  Beta  occ. eigenvalues --   -1.13599  -1.13598  -1.13229  -1.13226  -1.13217
  Beta  occ. eigenvalues --   -0.15167  -0.13412  -0.12895
  Beta virt. eigenvalues --   -0.08039  -0.07789  -0.04112  -0.03808  -0.03454
  Beta virt. eigenvalues --   -0.03322  -0.02258  -0.02041  -0.01772  -0.01284
  Beta virt. eigenvalues --   -0.00289  -0.00161   0.00090   0.00295   0.00447

 Mulliken charges and spin densities:
               1          2
     1  Na  -0.215794   0.164781
     2  Na   0.590232   0.095537
     3  Na  -0.057631   0.152744
     4  Na   0.113162  -0.036728
     5  Na  -0.306163   0.254925
     6  Na  -0.542138   0.023020
     7  Na   0.418332   0.345720
 Sum of Mulliken charges =  -0.00000   1.00000

 Dipole moment (field-independent basis, Debye):
    X=             -0.4317    Y=             -0.5404    Z=             -0.0295  Tot=              0.6923
 Quadrupole moment (field-independent basis, Debye-Ang):
   XX=            -58.3183   YY=            -68.8161   ZZ=            -73.4112
   XY=             -0.1168   XZ=              0.0538   YZ=             -0.3468

 Normal termination of Gaussian 16 at Sun Dec  3 22:31:26 2023.
