 Gaussian 16, Revision B.01,
 Gaussian 16:  ES64L-G16RevB.01 20-Dec-2017

 -------------------------
 #P B3LYP/6-311+g(d) force
 -------------------------

 -----
 DPGEN
 -----
 Symbolic Z-matrix:
 Charge =  0 Multiplicity = 2

                         Standard orientation:
 ---------------------------------------------------------------------
 Center     Atomic      Atomic             Coordinates (Angstroms)
 Number     Number       Type             X           Y           Z
 ---------------------------------------------------------------------
      1         11           0        2.101443   -2.390604    0.222925
      2         11           0       -0.789108    0.090497    2.405927
      3         11           0       -2.437537    1.909748   -0.516786
      4         11           0        1.147293    2.407136   -0.006483
      5         11           0        3.730071    0.229678   -0.454766
      6         11           0       -0.228841   -0.541261   -1.196616
      7         11           0       -3.523321   -1.705193   -0.454202
 ---------------------------------------------------------------------

 SCF Done:  E(UB3LYP) =  -1136.12306075     A.U. after   24 cycles

 The electronic state is 2-A.
 Alpha  occ. eigenvalues --  -38.44787 -38.44495 -38.44350 -38.44035 -38.44034
 Alpha  occ. eigenvalues --  -38.43834 -38.42758  -2.20613  -2.20261  -2.20173
 Alpha  occ. eigenvalues --   -2.19943  -2.19860  -2.19667  -2.18598  -1.14284
 Alpha  occ. eigenvalues --   -1.14269  -1.14256  -1.13932  -1.13919  -1.13899
 Alpha  occ. eigenvalues --   -1.13874  -1.13837  -1.13780  -1.13660  -1.13615
 Alpha  occ. eigenvalues --   -1.13559  -1.13506  -1.13484  -1.13468  -1.13338
 Alpha  occ. eigenvalues --   -1.13319  -1.13305  -1.12291  -1.12265  -1.12230
 Alpha  occ. eigenvalues --   -0.17895  -0.13790  -0.11445  -0.10682
 Alpha virt. eigenvalues --   -0.06759  -0.05896  -0.04042  -0.03267  -0.02707
 Alpha virt. eigenvalues --   -0.02467  -0.02335  -0.01558  -0.00858  -0.00298
 Alpha virt. eigenvalues --   -0.00096   0.00106   0.00497   0.00649   0.00750

  Beta  occ. eigenvalues --  -38.44776 -38.44485 -38.44338 -38.44019 -38.43913
  Beta  occ. eigenvalues --  -38.43831 -38.42755  -2.20593  -2.20243  -2.20152
  Beta  occ. eigenvalues --   -2.19917  -2.19661  -2.19636  -2.18594  -1.14268
  Beta  occ. eigenvalues --   -1.14256  -1.14241  -1.13919  -1.13899  -1.13888
  Beta  occ. eigenvalues --   -1.13855  -1.13816  -1.13762  -1.13619  -1.13600
  Beta  occ. eigenvalues --   -1.13542  -1.13354  -1.13335  -1.13333  -1.13318
  Beta  occ. eigenvalues --   -1.13311  -1.13287  -1.12290  -1.12252  -1.12221
  Beta  occ. eigenvalues --   -0.17299  -0.13531  -0.11290
  Beta virt. eigenvalues --   -0.06916  -0.06394  -0.05807  -0.03884  -0.02812
  Beta virt. eigenvalues --   -0.02386  -0.01741  -0.01698  -0.01422  -0.00774
  Beta virt. eigenvalues --   -0.00137   0.00021   0.00170   0.00645   0.00672

 Mulliken charges and spin densities:
               1          2
     1  Na   0.562739   0.099045
     2  Na  -0.443809   0.608329
     3  Na   0.281923   0.045571
     4  Na   0.078205   0.048224
     5  Na   0.043417   0.004540
     6  Na  -0.756171   0.132933
     7  Na   0.233696   0.061358
 Sum of Mulliken charges =  -0.00000   1.00000

 Dipole moment (field-independent basis, Debye):
    X=             -0.1872    Y=             -0.0697    Z=              0.1347  Tot=              0.2409
 Quadrupole moment (field-independent basis, Debye-Ang):
   XX=            -50.4138   YY=            -69.6377   ZZ=            -74.1977
   XY=             -0.1464   XZ=             -0.5286   YZ=             -1.1957

 Normal termination of Gaussian 16 at Thu Dec  7 20:56:02 2023.
