 Gaussian 16, Revision B.01,
 Gaussian 16:  ES64L-G16RevB.01 20-Dec-2017

 -------------------------
 #P B3LYP/6-311+g(d) force
 -------------------------

 -----
 DPGEN
 -----
 Symbolic Z-matrix:
 Charge =  0 Multiplicity = 2

                         Standard orientation:
 ---------------------------------------------------------------------
 Center     Atomic      Atomic             Coordinates (Angstroms)
 Number     Number       Type             X           Y           Z
 ---------------------------------------------------------------------
      1         11           0       -0.066574    0.499967    2.132492
      2         11           0       -0.033147    0.165791   -1.552204
      3         11           0       -1.506667   -2.231680    0.302055
      4         11           0        0.499508    3.162760    0.047938
      5         11           0        1.813116   -2.453325   -0.039642
      6         11           0       -3.462064    0.452824   -0.490198
      7         11           0        2.755829    0.403663   -0.400442
 ---------------------------------------------------------------------

 SCF Done:  E(UB3LYP) =  -1136.13299874     A.U. after   20 cycles

 The electronic state is 2-A.
 Alpha  occ. eigenvalues --  -38.44259 -38.43812 -38.43792 -38.43614 -38.43448
 Alpha  occ. eigenvalues --  -38.43367 -38.43241  -2.20049  -2.19723  -2.19682
 Alpha  occ. eigenvalues --   -2.19440  -2.19357  -2.19328  -2.19128  -1.13716
 Alpha  occ. eigenvalues --   -1.13702  -1.13689  -1.13482  -1.13398  -1.13352
 Alpha  occ. eigenvalues --   -1.13334  -1.13311  -1.13305  -1.13115  -1.13102
 Alpha  occ. eigenvalues --   -1.13080  -1.13067  -1.13016  -1.12997  -1.12978
 Alpha  occ. eigenvalues --   -1.12961  -1.12952  -1.12800  -1.12773  -1.12761
 Alpha  occ. eigenvalues --   -0.18676  -0.13025  -0.12496  -0.10890
 Alpha virt. eigenvalues --   -0.05813  -0.05068  -0.04560  -0.03160  -0.03023
 Alpha virt. eigenvalues --   -0.02585  -0.01676  -0.01222  -0.00323  -0.00105
 Alpha virt. eigenvalues --   -0.00045   0.00323   0.00813   0.00833   0.00908

  Beta  occ. eigenvalues --  -38.44247 -38.43778 -38.43715 -38.43612 -38.43439
  Beta  occ. eigenvalues --  -38.43312 -38.43239  -2.20028  -2.19700  -2.19502
  Beta  occ. eigenvalues --   -2.19440  -2.19315  -2.19258  -2.19129  -1.13692
  Beta  occ. eigenvalues --   -1.13687  -1.13677  -1.13459  -1.13376  -1.13312
  Beta  occ. eigenvalues --   -1.13227  -1.13187  -1.13181  -1.13107  -1.13083
  Beta  occ. eigenvalues --   -1.13077  -1.13037  -1.12971  -1.12960  -1.12945
  Beta  occ. eigenvalues --   -1.12903  -1.12898  -1.12803  -1.12773  -1.12740
  Beta  occ. eigenvalues --   -0.17967  -0.12759  -0.12262
  Beta virt. eigenvalues --   -0.07011  -0.05722  -0.04975  -0.04518  -0.02451
  Beta virt. eigenvalues --   -0.02262  -0.01613  -0.01545  -0.01140  -0.00343
  Beta virt. eigenvalues --   -0.00117   0.00111   0.00361   0.00825   0.00866

 Mulliken charges and spin densities:
               1          2
     1  Na  -0.516163   0.546677
     2  Na  -0.428067   0.142365
     3  Na   0.227187   0.143748
     4  Na   0.169036  -0.025069
     5  Na  -0.124608   0.027584
     6  Na   0.108200   0.013593
     7  Na   0.564415   0.151102
 Sum of Mulliken charges =  -0.00000   1.00000

 Dipole moment (field-independent basis, Debye):
    X=             -0.3692    Y=              0.4199    Z=              0.1764  Tot=              0.5863
 Quadrupole moment (field-independent basis, Debye-Ang):
   XX=            -58.6617   YY=            -61.6612   ZZ=            -73.6429
   XY=             -1.2399   XZ=              0.3044   YZ=             -1.0853

 Normal termination of Gaussian 16 at Fri Dec  8 00:33:50 2023.
