 Gaussian 16, Revision B.01,
 Gaussian 16:  ES64L-G16RevB.01 20-Dec-2017

 -------------------------
 #P B3LYP/6-311+g(d) force
 -------------------------

 -----
 DPGEN
 -----
 Symbolic Z-matrix:
 Charge =  0 Multiplicity = 2

                         Standard orientation:
 ---------------------------------------------------------------------
 Center     Atomic      Atomic             Coordinates (Angstroms)
 Number     Number       Type             X           Y           Z
 ---------------------------------------------------------------------
      1         11           0        0.060209   -0.415200    2.195746
      2         11           0        1.806962    2.449150    0.115281
      3         11           0       -3.237227   -0.515375   -0.305607
      4         11           0        0.211964   -0.171598   -1.512632
      5         11           0       -1.687487    2.371520   -0.071507
      6         11           0       -0.044887   -2.969853   -0.029919
      7         11           0        2.890467   -0.748645   -0.391361
 ---------------------------------------------------------------------

 SCF Done:  E(UB3LYP) =  -1136.13554781     A.U. after   19 cycles

 The electronic state is 2-A.
 Alpha  occ. eigenvalues --  -38.44073 -38.43976 -38.43785 -38.43538 -38.43430
 Alpha  occ. eigenvalues --  -38.43407 -38.43194  -2.19879  -2.19864  -2.19650
 Alpha  occ. eigenvalues --   -2.19395  -2.19278  -2.19251  -2.19218  -1.13625
 Alpha  occ. eigenvalues --   -1.13551  -1.13548  -1.13515  -1.13508  -1.13470
 Alpha  occ. eigenvalues --   -1.13310  -1.13278  -1.13271  -1.13112  -1.13058
 Alpha  occ. eigenvalues --   -1.13012  -1.12975  -1.12944  -1.12936  -1.12920
 Alpha  occ. eigenvalues --   -1.12910  -1.12882  -1.12879  -1.12847  -1.12820
 Alpha  occ. eigenvalues --   -0.18622  -0.12995  -0.12524  -0.10828
 Alpha virt. eigenvalues --   -0.05657  -0.05013  -0.04830  -0.03072  -0.02984
 Alpha virt. eigenvalues --   -0.02667  -0.01518  -0.01129  -0.00436  -0.00285
 Alpha virt. eigenvalues --   -0.00024   0.00339   0.00814   0.00854   0.00916

  Beta  occ. eigenvalues --  -38.44068 -38.43962 -38.43680 -38.43532 -38.43428
  Beta  occ. eigenvalues --  -38.43405 -38.43140  -2.19873  -2.19843  -2.19455
  Beta  occ. eigenvalues --   -2.19388  -2.19276  -2.19249  -2.19121  -1.13601
  Beta  occ. eigenvalues --   -1.13549  -1.13531  -1.13512  -1.13476  -1.13459
  Beta  occ. eigenvalues --   -1.13186  -1.13141  -1.13136  -1.13096  -1.13022
  Beta  occ. eigenvalues --   -1.13011  -1.12970  -1.12937  -1.12927  -1.12914
  Beta  occ. eigenvalues --   -1.12895  -1.12876  -1.12820  -1.12772  -1.12758
  Beta  occ. eigenvalues --   -0.17916  -0.12753  -0.12302
  Beta virt. eigenvalues --   -0.06874  -0.05624  -0.05006  -0.04753  -0.02335
  Beta virt. eigenvalues --   -0.02190  -0.01592  -0.01425  -0.01061  -0.00478
  Beta virt. eigenvalues --   -0.00326   0.00137   0.00382   0.00849   0.00869

 Mulliken charges and spin densities:
               1          2
     1  Na  -0.623957   0.754886
     2  Na   0.057672   0.038962
     3  Na   0.107668  -0.032410
     4  Na  -0.422580   0.215586
     5  Na   0.042781  -0.001320
     6  Na   0.265891  -0.040839
     7  Na   0.572526   0.065134
 Sum of Mulliken charges =  -0.00000   1.00000

 Dipole moment (field-independent basis, Debye):
    X=             -0.0485    Y=             -0.2319    Z=              0.2050  Tot=              0.3133
 Quadrupole moment (field-independent basis, Debye-Ang):
   XX=            -57.6440   YY=            -62.0373   ZZ=            -74.2632
   XY=              0.9497   XZ=              0.3457   YZ=              0.8361

 Normal termination of Gaussian 16 at Thu Dec  7 19:31:01 2023.
