 Gaussian 16, Revision B.01,
 Gaussian 16:  ES64L-G16RevB.01 20-Dec-2017

 -------------------------
 #P B3LYP/6-311+g(d) force
 -------------------------

 -----
 DPGEN
 -----
 Symbolic Z-matrix:
 Charge =  0 Multiplicity = 2

                         Standard orientation:
 ---------------------------------------------------------------------
 Center     Atomic      Atomic             Coordinates (Angstroms)
 Number     Number       Type             X           Y           Z
 ---------------------------------------------------------------------
      1         11           0        0.042573   -1.140444   -0.582697
      2         11           0        2.531695    0.559191    1.502215
      3         11           0       -2.297470    1.115403   -1.324535
      4         11           0        0.565656    2.492156   -0.783795
      5         11           0        3.855093   -1.526230   -0.783385
      6         11           0       -3.135389   -2.114220    0.176173
      7         11           0       -1.562158    0.614143    1.796023
 ---------------------------------------------------------------------

 SCF Done:  E(UB3LYP) =  -1136.12764981     A.U. after   23 cycles

 The electronic state is 2-A.
 Alpha  occ. eigenvalues --  -38.44187 -38.44156 -38.44115 -38.44014 -38.43798
 Alpha  occ. eigenvalues --  -38.43616 -38.42938  -2.20020  -2.20013  -2.19941
 Alpha  occ. eigenvalues --   -2.19918  -2.19730  -2.19442  -2.18795  -1.13731
 Alpha  occ. eigenvalues --   -1.13701  -1.13695  -1.13689  -1.13660  -1.13629
 Alpha  occ. eigenvalues --   -1.13601  -1.13601  -1.13595  -1.13592  -1.13554
 Alpha  occ. eigenvalues --   -1.13521  -1.13407  -1.13389  -1.13322  -1.13113
 Alpha  occ. eigenvalues --   -1.13104  -1.13078  -1.12476  -1.12450  -1.12434
 Alpha  occ. eigenvalues --   -0.18376  -0.13827  -0.11584  -0.10728
 Alpha virt. eigenvalues --   -0.06295  -0.05672  -0.04588  -0.03161  -0.02547
 Alpha virt. eigenvalues --   -0.02315  -0.02146  -0.01344  -0.00720  -0.00301
 Alpha virt. eigenvalues --    0.00073   0.00178   0.00311   0.00484   0.00731

  Beta  occ. eigenvalues --  -38.44162 -38.44140 -38.44050 -38.43994 -38.43756
  Beta  occ. eigenvalues --  -38.43618 -38.42927  -2.19973  -2.19912  -2.19894
  Beta  occ. eigenvalues --   -2.19886  -2.19655  -2.19447  -2.18781  -1.13672
  Beta  occ. eigenvalues --   -1.13663  -1.13656  -1.13623  -1.13607  -1.13580
  Beta  occ. eigenvalues --   -1.13574  -1.13570  -1.13565  -1.13530  -1.13510
  Beta  occ. eigenvalues --   -1.13495  -1.13350  -1.13334  -1.13268  -1.13118
  Beta  occ. eigenvalues --   -1.13093  -1.13082  -1.12461  -1.12438  -1.12408
  Beta  occ. eigenvalues --   -0.17707  -0.13643  -0.11319
  Beta virt. eigenvalues --   -0.06999  -0.06084  -0.05468  -0.04147  -0.02932
  Beta virt. eigenvalues --   -0.02212  -0.01939  -0.01548  -0.01076  -0.00377
  Beta virt. eigenvalues --   -0.00180   0.00214   0.00229   0.00420   0.00568

 Mulliken charges and spin densities:
               1          2
     1  Na  -1.581500   0.287844
     2  Na   0.475426   0.095431
     3  Na   0.428508   0.113959
     4  Na  -0.065620   0.066406
     5  Na  -0.004644   0.094549
     6  Na   0.984295  -0.108511
     7  Na  -0.236464   0.450323
 Sum of Mulliken charges =  -0.00000   1.00000

 Dipole moment (field-independent basis, Debye):
    X=             -0.0618    Y=              0.0808    Z=              0.0588  Tot=              0.1175
 Quadrupole moment (field-independent basis, Debye-Ang):
   XX=            -52.8631   YY=            -70.5612   ZZ=            -70.3229
   XY=              1.5377   XZ=             -0.3354   YZ=              1.8249

 Normal termination of Gaussian 16 at Tue Dec  5 13:43:48 2023.
