 Gaussian 16, Revision B.01,
 Gaussian 16:  ES64L-G16RevB.01 20-Dec-2017

 -------------------------
 #P B3LYP/6-311+g(d) force
 -------------------------

 -----
 DPGEN
 -----
 Symbolic Z-matrix:
 Charge =  0 Multiplicity = 2

                         Standard orientation:
 ---------------------------------------------------------------------
 Center     Atomic      Atomic             Coordinates (Angstroms)
 Number     Number       Type             X           Y           Z
 ---------------------------------------------------------------------
      1         11           0       -0.657333   -0.329393    1.558627
      2         11           0        1.831490   -2.192392    0.270426
      3         11           0       -4.209779   -0.003491   -0.078054
      4         11           0        1.862092    2.008612    0.094365
      5         11           0       -1.410812    2.694278   -0.415236
      6         11           0       -1.701723   -2.200883   -0.930018
      7         11           0        4.286065    0.023269   -0.500110
 ---------------------------------------------------------------------

 SCF Done:  E(UB3LYP) =  -1136.12709817     A.U. after   20 cycles

 The electronic state is 2-A.
 Alpha  occ. eigenvalues --  -38.44393 -38.44363 -38.44231 -38.43737 -38.43712
 Alpha  occ. eigenvalues --  -38.43660 -38.43519  -2.20253  -2.20212  -2.20049
 Alpha  occ. eigenvalues --   -2.19570  -2.19567  -2.19457  -2.19364  -1.13970
 Alpha  occ. eigenvalues --   -1.13927  -1.13893  -1.13876  -1.13852  -1.13829
 Alpha  occ. eigenvalues --   -1.13708  -1.13679  -1.13665  -1.13266  -1.13252
 Alpha  occ. eigenvalues --   -1.13243  -1.13230  -1.13202  -1.13151  -1.13145
 Alpha  occ. eigenvalues --   -1.13122  -1.13099  -1.13050  -1.13029  -1.12975
 Alpha  occ. eigenvalues --   -0.17502  -0.14172  -0.12219  -0.10673
 Alpha virt. eigenvalues --   -0.06297  -0.05851  -0.04121  -0.03725  -0.02808
 Alpha virt. eigenvalues --   -0.02479  -0.01801  -0.01362  -0.00854  -0.00589
 Alpha virt. eigenvalues --   -0.00302   0.00011   0.00497   0.00660   0.00715

  Beta  occ. eigenvalues --  -38.44392 -38.44315 -38.44157 -38.43726 -38.43656
  Beta  occ. eigenvalues --  -38.43641 -38.43510  -2.20214  -2.20166  -2.19911
  Beta  occ. eigenvalues --   -2.19555  -2.19454  -2.19435  -2.19353  -1.13943
  Beta  occ. eigenvalues --   -1.13900  -1.13867  -1.13836  -1.13812  -1.13777
  Beta  occ. eigenvalues --   -1.13612  -1.13587  -1.13577  -1.13253  -1.13237
  Beta  occ. eigenvalues --   -1.13178  -1.13167  -1.13143  -1.13112  -1.13110
  Beta  occ. eigenvalues --   -1.13092  -1.13086  -1.13045  -1.13018  -1.12932
  Beta  occ. eigenvalues --   -0.16941  -0.13377  -0.11942
  Beta virt. eigenvalues --   -0.07268  -0.06108  -0.05754  -0.03679  -0.03285
  Beta virt. eigenvalues --   -0.02443  -0.02070  -0.01537  -0.01030  -0.00763
  Beta virt. eigenvalues --   -0.00287  -0.00156   0.00206   0.00608   0.00754

 Mulliken charges and spin densities:
               1          2
     1  Na   0.008062   0.293755
     2  Na  -0.219208  -0.042521
     3  Na   0.128680   0.444522
     4  Na  -0.482049  -0.026770
     5  Na  -0.022555  -0.101295
     6  Na  -0.008224  -0.030169
     7  Na   0.595294   0.462479
 Sum of Mulliken charges =  -0.00000   1.00000

 Dipole moment (field-independent basis, Debye):
    X=             -0.6061    Y=             -0.4373    Z=             -0.0280  Tot=              0.7479
 Quadrupole moment (field-independent basis, Debye-Ang):
   XX=            -65.4872   YY=            -69.5229   ZZ=            -66.7048
   XY=             -2.9212   XZ=             -0.5186   YZ=              0.7654

 Normal termination of Gaussian 16 at Tue Nov 28 18:55:24 2023.
