 Gaussian 16, Revision B.01,
 Gaussian 16:  ES64L-G16RevB.01 20-Dec-2017

 -------------------------
 #P B3LYP/6-311+g(d) force
 -------------------------

 -----
 DPGEN
 -----
 Symbolic Z-matrix:
 Charge =  0 Multiplicity = 2

                         Standard orientation:
 ---------------------------------------------------------------------
 Center     Atomic      Atomic             Coordinates (Angstroms)
 Number     Number       Type             X           Y           Z
 ---------------------------------------------------------------------
      1         11           0       -3.845521   -1.017741    0.336642
      2         11           0       -1.197061   -0.821656   -1.576963
      3         11           0       -2.006218    2.442719   -0.047318
      4         11           0       -0.409344   -0.598991    2.006033
      5         11           0        1.932020   -1.888040   -0.615314
      6         11           0        1.326803    1.568123   -0.610868
      7         11           0        4.199322    0.315587    0.507789
 ---------------------------------------------------------------------

 SCF Done:  E(UB3LYP) =  -1136.11771686     A.U. after   30 cycles

 The electronic state is 2-A.
 Alpha  occ. eigenvalues --  -38.46299 -38.45011 -38.44927 -38.43531 -38.43490
 Alpha  occ. eigenvalues --  -38.42829 -38.42675  -2.22063  -2.20832  -2.20728
 Alpha  occ. eigenvalues --   -2.19411  -2.19403  -2.18640  -2.18566  -1.15753
 Alpha  occ. eigenvalues --   -1.15714  -1.15686  -1.14488  -1.14486  -1.14459
 Alpha  occ. eigenvalues --   -1.14415  -1.14365  -1.14353  -1.13130  -1.13070
 Alpha  occ. eigenvalues --   -1.13068  -1.13055  -1.13037  -1.13009  -1.12321
 Alpha  occ. eigenvalues --   -1.12307  -1.12286  -1.12264  -1.12251  -1.12171
 Alpha  occ. eigenvalues --   -0.18207  -0.14218  -0.10953  -0.10717
 Alpha virt. eigenvalues --   -0.07836  -0.05216  -0.04332  -0.03337  -0.03057
 Alpha virt. eigenvalues --   -0.02295  -0.02132  -0.01324  -0.01209  -0.00419
 Alpha virt. eigenvalues --   -0.00253   0.00141   0.00233   0.00616   0.00645

  Beta  occ. eigenvalues --  -38.46281 -38.44972 -38.44899 -38.43504 -38.43425
  Beta  occ. eigenvalues --  -38.42830 -38.42660  -2.22029  -2.20758  -2.20675
  Beta  occ. eigenvalues --   -2.19358  -2.19295  -2.18644  -2.18544  -1.15722
  Beta  occ. eigenvalues --   -1.15691  -1.15660  -1.14440  -1.14432  -1.14410
  Beta  occ. eigenvalues --   -1.14376  -1.14331  -1.14315  -1.13068  -1.13036
  Beta  occ. eigenvalues --   -1.13017  -1.12981  -1.12955  -1.12931  -1.12321
  Beta  occ. eigenvalues --   -1.12306  -1.12283  -1.12255  -1.12204  -1.12154
  Beta  occ. eigenvalues --   -0.17555  -0.13861  -0.10667
  Beta virt. eigenvalues --   -0.07555  -0.07108  -0.05180  -0.03754  -0.02994
  Beta virt. eigenvalues --   -0.02903  -0.01823  -0.01586  -0.01234  -0.00693
  Beta virt. eigenvalues --   -0.00350  -0.00134   0.00186   0.00405   0.00683

 Mulliken charges and spin densities:
               1          2
     1  Na   0.256460   0.268677
     2  Na   0.085218   0.185110
     3  Na  -0.203420  -0.012756
     4  Na  -0.216688   0.196737
     5  Na   0.219136   0.085473
     6  Na  -0.570957  -0.004251
     7  Na   0.430252   0.281009
 Sum of Mulliken charges =  -0.00000   1.00000

 Dipole moment (field-independent basis, Debye):
    X=              0.0741    Y=             -0.5046    Z=              0.6590  Tot=              0.8333
 Quadrupole moment (field-independent basis, Debye-Ang):
   XX=            -48.2409   YY=            -79.0362   ZZ=            -68.2342
   XY=             -0.7237   XZ=              2.1183   YZ=              1.4034

 Normal termination of Gaussian 16 at Thu Dec  7 03:47:11 2023.
