 Gaussian 16, Revision B.01,
 Gaussian 16:  ES64L-G16RevB.01 20-Dec-2017

 -------------------------
 #P B3LYP/6-311+g(d) force
 -------------------------

 -----
 DPGEN
 -----
 Symbolic Z-matrix:
 Charge =  0 Multiplicity = 2

                         Standard orientation:
 ---------------------------------------------------------------------
 Center     Atomic      Atomic             Coordinates (Angstroms)
 Number     Number       Type             X           Y           Z
 ---------------------------------------------------------------------
      1         11           0       -1.186011    2.622372    0.280017
      2         11           0       -4.596442    1.298750    0.536789
      3         11           0       -5.300722   -2.508871   -0.151690
      4         11           0       -2.461736   -0.916866   -0.121790
      5         11           0        1.219553    0.533442   -0.701546
      6         11           0        5.512993    0.090758   -1.133827
      7         11           0        6.812364   -1.119586    1.292047
 ---------------------------------------------------------------------

 SCF Done:  E(UB3LYP) =  -1136.11584182     A.U. after   20 cycles

 The electronic state is 2-A.
 Alpha  occ. eigenvalues --  -38.44490 -38.44427 -38.44309 -38.44155 -38.43999
 Alpha  occ. eigenvalues --  -38.43926 -38.43600  -2.20336  -2.20228  -2.20179
 Alpha  occ. eigenvalues --   -2.19952  -2.19806  -2.19742  -2.19403  -1.14066
 Alpha  occ. eigenvalues --   -1.14001  -1.13946  -1.13924  -1.13874  -1.13873
 Alpha  occ. eigenvalues --   -1.13871  -1.13855  -1.13770  -1.13608  -1.13598
 Alpha  occ. eigenvalues --   -1.13581  -1.13467  -1.13462  -1.13425  -1.13415
 Alpha  occ. eigenvalues --   -1.13403  -1.13388  -1.13066  -1.13065  -1.13010
 Alpha  occ. eigenvalues --   -0.16433  -0.13787  -0.12409  -0.10834
 Alpha virt. eigenvalues --   -0.06339  -0.05470  -0.04317  -0.03796  -0.02926
 Alpha virt. eigenvalues --   -0.02456  -0.02029  -0.01867  -0.01311  -0.00949
 Alpha virt. eigenvalues --   -0.00274  -0.00187   0.00109   0.00467   0.00611

  Beta  occ. eigenvalues --  -38.44422 -38.44410 -38.44295 -38.44159 -38.43963
  Beta  occ. eigenvalues --  -38.43912 -38.43554  -2.20211  -2.20197  -2.20155
  Beta  occ. eigenvalues --   -2.19962  -2.19740  -2.19719  -2.19315  -1.13996
  Beta  occ. eigenvalues --   -1.13929  -1.13920  -1.13861  -1.13852  -1.13850
  Beta  occ. eigenvalues --   -1.13827  -1.13795  -1.13750  -1.13616  -1.13604
  Beta  occ. eigenvalues --   -1.13575  -1.13417  -1.13415  -1.13414  -1.13392
  Beta  occ. eigenvalues --   -1.13377  -1.13334  -1.13005  -1.13004  -1.12958
  Beta  occ. eigenvalues --   -0.15755  -0.13545  -0.12110
  Beta virt. eigenvalues --   -0.07330  -0.05897  -0.05229  -0.03932  -0.03614
  Beta virt. eigenvalues --   -0.02599  -0.02225  -0.01725  -0.01641  -0.01059
  Beta virt. eigenvalues --   -0.00741  -0.00064   0.00102   0.00331   0.00534

 Mulliken charges and spin densities:
               1          2
     1  Na   0.182767   0.286822
     2  Na   0.352935   0.181884
     3  Na   1.192565   0.217720
     4  Na  -1.634951   0.404838
     5  Na   0.047386  -0.101928
     6  Na  -0.310172  -0.064773
     7  Na   0.169470   0.075438
 Sum of Mulliken charges =  -0.00000   1.00000

 Dipole moment (field-independent basis, Debye):
    X=             -0.5905    Y=             -0.1378    Z=              0.4427  Tot=              0.7508
 Quadrupole moment (field-independent basis, Debye-Ang):
   XX=            -56.7267   YY=            -66.3097   ZZ=            -67.8887
   XY=              0.1164   XZ=              3.1249   YZ=             -2.1302

 Normal termination of Gaussian 16 at Tue Nov 28 23:07:25 2023.
