 Gaussian 16, Revision B.01,
 Gaussian 16:  ES64L-G16RevB.01 20-Dec-2017

 -------------------------
 #P B3LYP/6-311+g(d) force
 -------------------------

 -----
 DPGEN
 -----
 Symbolic Z-matrix:
 Charge =  0 Multiplicity = 2

                         Standard orientation:
 ---------------------------------------------------------------------
 Center     Atomic      Atomic             Coordinates (Angstroms)
 Number     Number       Type             X           Y           Z
 ---------------------------------------------------------------------
      1         11           0        0.980704    2.456531   -0.560896
      2         11           0       -0.476708   -1.022905    1.669310
      3         11           0       -3.895051   -0.537991   -1.019058
      4         11           0        2.607195   -1.330418    0.674519
      5         11           0        4.537641    0.795124   -0.679061
      6         11           0       -2.911679    2.626157    0.663000
      7         11           0       -0.842102   -2.986498   -0.747815
 ---------------------------------------------------------------------

 SCF Done:  E(UB3LYP) =  -1136.11521375     A.U. after   20 cycles

 The electronic state is 2-A.
 Alpha  occ. eigenvalues --  -38.45439 -38.44476 -38.44300 -38.44265 -38.44123
 Alpha  occ. eigenvalues --  -38.44101 -38.43711  -2.21153  -2.20271  -2.20149
 Alpha  occ. eigenvalues --   -2.20043  -2.19971  -2.19862  -2.19536  -1.14857
 Alpha  occ. eigenvalues --   -1.14834  -1.14749  -1.13982  -1.13949  -1.13894
 Alpha  occ. eigenvalues --   -1.13869  -1.13821  -1.13783  -1.13712  -1.13678
 Alpha  occ. eigenvalues --   -1.13661  -1.13631  -1.13621  -1.13569  -1.13547
 Alpha  occ. eigenvalues --   -1.13517  -1.13510  -1.13200  -1.13180  -1.13146
 Alpha  occ. eigenvalues --   -0.16691  -0.13708  -0.12275  -0.10501
 Alpha virt. eigenvalues --   -0.06899  -0.05444  -0.04857  -0.03559  -0.03111
 Alpha virt. eigenvalues --   -0.02414  -0.01853  -0.01638  -0.00996  -0.00750
 Alpha virt. eigenvalues --   -0.00521   0.00093   0.00292   0.00388   0.00604

  Beta  occ. eigenvalues --  -38.45427 -38.44478 -38.44283 -38.44190 -38.44128
  Beta  occ. eigenvalues --  -38.44058 -38.43657  -2.21132  -2.20277  -2.20124
  Beta  occ. eigenvalues --   -2.19904  -2.19892  -2.19873  -2.19435  -1.14844
  Beta  occ. eigenvalues --   -1.14817  -1.14727  -1.13986  -1.13956  -1.13875
  Beta  occ. eigenvalues --   -1.13827  -1.13810  -1.13750  -1.13618  -1.13588
  Beta  occ. eigenvalues --   -1.13578  -1.13567  -1.13563  -1.13555  -1.13522
  Beta  occ. eigenvalues --   -1.13513  -1.13504  -1.13130  -1.13111  -1.13083
  Beta  occ. eigenvalues --   -0.16162  -0.13053  -0.12070
  Beta virt. eigenvalues --   -0.07171  -0.06732  -0.05205  -0.04349  -0.03260
  Beta virt. eigenvalues --   -0.02654  -0.02299  -0.01550  -0.01191  -0.00887
  Beta virt. eigenvalues --   -0.00633  -0.00261   0.00238   0.00448   0.00503

 Mulliken charges and spin densities:
               1          2
     1  Na  -0.296832   0.046087
     2  Na   0.047286   0.273724
     3  Na  -0.030904   0.410939
     4  Na  -0.354844  -0.058022
     5  Na   0.423472   0.345726
     6  Na   0.064278  -0.075191
     7  Na   0.147543   0.056738
 Sum of Mulliken charges =  -0.00000   1.00000

 Dipole moment (field-independent basis, Debye):
    X=              0.2792    Y=             -0.1640    Z=             -0.0955  Tot=              0.3376
 Quadrupole moment (field-independent basis, Debye-Ang):
   XX=            -67.4563   YY=            -66.5344   ZZ=            -68.3544
   XY=             -2.1020   XZ=             -2.2534   YZ=              1.2060

 Normal termination of Gaussian 16 at Sun Dec  3 20:13:38 2023.
