 Gaussian 16, Revision B.01,
 Gaussian 16:  ES64L-G16RevB.01 20-Dec-2017

 -------------------------
 #P B3LYP/6-311+g(d) force
 -------------------------

 -----
 DPGEN
 -----
 Symbolic Z-matrix:
 Charge =  0 Multiplicity = 2

                         Standard orientation:
 ---------------------------------------------------------------------
 Center     Atomic      Atomic             Coordinates (Angstroms)
 Number     Number       Type             X           Y           Z
 ---------------------------------------------------------------------
      1         11           0       -0.013294   -0.219531    1.888613
      2         11           0       -0.233650   -2.752808   -0.264126
      3         11           0        2.113192    2.020063    0.363239
      4         11           0       -1.579246    2.497822   -0.217811
      5         11           0       -0.085656    0.309527   -1.800726
      6         11           0       -3.061789   -0.736653    0.234802
      7         11           0        2.860443   -1.118421   -0.203991
 ---------------------------------------------------------------------

 SCF Done:  E(UB3LYP) =  -1136.14002482     A.U. after   19 cycles

 The electronic state is 2-A.
 Alpha  occ. eigenvalues --  -38.44034 -38.43769 -38.43532 -38.43476 -38.43412
 Alpha  occ. eigenvalues --  -38.43316 -38.43095  -2.19865  -2.19624  -2.19409
 Alpha  occ. eigenvalues --   -2.19396  -2.19282  -2.19269  -2.18974  -1.13542
 Alpha  occ. eigenvalues --   -1.13524  -1.13505  -1.13305  -1.13288  -1.13275
 Alpha  occ. eigenvalues --   -1.13107  -1.13080  -1.13071  -1.13055  -1.13037
 Alpha  occ. eigenvalues --   -1.13021  -1.13013  -1.12947  -1.12915  -1.12902
 Alpha  occ. eigenvalues --   -1.12879  -1.12856  -1.12653  -1.12643  -1.12595
 Alpha  occ. eigenvalues --   -0.18857  -0.13106  -0.12449  -0.10878
 Alpha virt. eigenvalues --   -0.05587  -0.05120  -0.04518  -0.03259  -0.02967
 Alpha virt. eigenvalues --   -0.02566  -0.01530  -0.01043  -0.00269  -0.00178
 Alpha virt. eigenvalues --   -0.00001   0.00367   0.00812   0.00905   0.00926

  Beta  occ. eigenvalues --  -38.44029 -38.43765 -38.43522 -38.43405 -38.43395
  Beta  occ. eigenvalues --  -38.43239 -38.43086  -2.19859  -2.19619  -2.19382
  Beta  occ. eigenvalues --   -2.19266  -2.19259  -2.19139  -2.18963  -1.13526
  Beta  occ. eigenvalues --   -1.13517  -1.13500  -1.13305  -1.13277  -1.13258
  Beta  occ. eigenvalues --   -1.13071  -1.13035  -1.13028  -1.13008  -1.12988
  Beta  occ. eigenvalues --   -1.12941  -1.12911  -1.12899  -1.12889  -1.12848
  Beta  occ. eigenvalues --   -1.12797  -1.12776  -1.12646  -1.12613  -1.12583
  Beta  occ. eigenvalues --   -0.18119  -0.12862  -0.12182
  Beta virt. eigenvalues --   -0.06972  -0.05544  -0.05115  -0.04478  -0.02472
  Beta virt. eigenvalues --   -0.02178  -0.01523  -0.01434  -0.00967  -0.00300
  Beta virt. eigenvalues --   -0.00230   0.00120   0.00387   0.00875   0.00897

 Mulliken charges and spin densities:
               1          2
     1  Na  -0.339878   0.680051
     2  Na   0.097320  -0.068994
     3  Na   0.156486  -0.023985
     4  Na   0.163585  -0.092590
     5  Na  -0.267779   0.628849
     6  Na   0.114401  -0.060655
     7  Na   0.075865  -0.062675
 Sum of Mulliken charges =  -0.00000   1.00000

 Dipole moment (field-independent basis, Debye):
    X=             -0.1126    Y=              0.0046    Z=              0.0892  Tot=              0.1438
 Quadrupole moment (field-independent basis, Debye-Ang):
   XX=            -56.0699   YY=            -63.9685   ZZ=            -73.5856
   XY=             -0.0201   XZ=             -0.4751   YZ=              1.3120

 Normal termination of Gaussian 16 at Fri Dec  8 05:09:31 2023.
