 Gaussian 16, Revision B.01,
 Gaussian 16:  ES64L-G16RevB.01 20-Dec-2017

 -------------------------
 #P B3LYP/6-311+g(d) force
 -------------------------

 -----
 DPGEN
 -----
 Symbolic Z-matrix:
 Charge =  0 Multiplicity = 2

                         Standard orientation:
 ---------------------------------------------------------------------
 Center     Atomic      Atomic             Coordinates (Angstroms)
 Number     Number       Type             X           Y           Z
 ---------------------------------------------------------------------
      1         11           0        2.632834   -0.070082    0.086492
      2         11           0        3.172915   -3.165581    0.594511
      3         11           0       -3.073919   -0.281826   -1.155482
      4         11           0        1.809878    3.878299    0.630014
      5         11           0       -4.601254   -0.537830    1.468447
      6         11           0        0.067818   -1.710568   -0.826588
      7         11           0       -0.008272    1.887588   -0.797393
 ---------------------------------------------------------------------

 SCF Done:  E(UB3LYP) =  -1136.12364952     A.U. after   19 cycles

 The electronic state is 2-A.
 Alpha  occ. eigenvalues --  -38.44279 -38.44154 -38.44138 -38.44082 -38.43820
 Alpha  occ. eigenvalues --  -38.43525 -38.43377  -2.20168  -2.19986  -2.19965
 Alpha  occ. eigenvalues --   -2.19960  -2.19643  -2.19423  -2.19237  -1.13921
 Alpha  occ. eigenvalues --   -1.13858  -1.13789  -1.13659  -1.13656  -1.13638
 Alpha  occ. eigenvalues --   -1.13616  -1.13612  -1.13610  -1.13607  -1.13564
 Alpha  occ. eigenvalues --   -1.13535  -1.13360  -1.13290  -1.13271  -1.13116
 Alpha  occ. eigenvalues --   -1.13095  -1.13010  -1.12914  -1.12910  -1.12881
 Alpha  occ. eigenvalues --   -0.17260  -0.13885  -0.12889  -0.10699
 Alpha virt. eigenvalues --   -0.05942  -0.05214  -0.04517  -0.04054  -0.02560
 Alpha virt. eigenvalues --   -0.02195  -0.01699  -0.01646  -0.01281  -0.00781
 Alpha virt. eigenvalues --   -0.00006   0.00080   0.00218   0.00498   0.00622

  Beta  occ. eigenvalues --  -38.44274 -38.44113 -38.44061 -38.44038 -38.43797
  Beta  occ. eigenvalues --  -38.43508 -38.43374  -2.20161  -2.19913  -2.19887
  Beta  occ. eigenvalues --   -2.19813  -2.19599  -2.19396  -2.19241  -1.13897
  Beta  occ. eigenvalues --   -1.13853  -1.13780  -1.13609  -1.13587  -1.13580
  Beta  occ. eigenvalues --   -1.13579  -1.13545  -1.13539  -1.13492  -1.13488
  Beta  occ. eigenvalues --   -1.13468  -1.13331  -1.13260  -1.13241  -1.13099
  Beta  occ. eigenvalues --   -1.13081  -1.12963  -1.12923  -1.12913  -1.12825
  Beta  occ. eigenvalues --   -0.16688  -0.13195  -0.12644
  Beta virt. eigenvalues --   -0.07291  -0.05604  -0.04912  -0.04270  -0.03747
  Beta virt. eigenvalues --   -0.02424  -0.01872  -0.01528  -0.01220  -0.01068
  Beta virt. eigenvalues --   -0.00407   0.00205   0.00274   0.00388   0.00619

 Mulliken charges and spin densities:
               1          2
     1  Na  -0.142509   0.216274
     2  Na   0.969038   0.171400
     3  Na  -0.224940  -0.189891
     4  Na   0.923769   0.154576
     5  Na   0.188600   0.499642
     6  Na  -0.816937   0.080186
     7  Na  -0.897019   0.067815
 Sum of Mulliken charges =  -0.00000   1.00000

 Dipole moment (field-independent basis, Debye):
    X=              1.0613    Y=             -0.4942    Z=              0.3959  Tot=              1.2359
 Quadrupole moment (field-independent basis, Debye-Ang):
   XX=            -69.2138   YY=            -59.7215   ZZ=            -68.0630
   XY=             -2.2971   XZ=              1.6966   YZ=              0.1035

 Normal termination of Gaussian 16 at Wed Nov 29 01:24:33 2023.
