 Gaussian 16, Revision B.01,
 Gaussian 16:  ES64L-G16RevB.01 20-Dec-2017

 -------------------------
 #P B3LYP/6-311+g(d) force
 -------------------------

 -----
 DPGEN
 -----
 Symbolic Z-matrix:
 Charge =  0 Multiplicity = 2

                         Standard orientation:
 ---------------------------------------------------------------------
 Center     Atomic      Atomic             Coordinates (Angstroms)
 Number     Number       Type             X           Y           Z
 ---------------------------------------------------------------------
      1         11           0       -2.384613   -2.742220   -1.031928
      2         11           0        1.130688   -2.684760    1.092242
      3         11           0        4.198546   -1.464327    0.728573
      4         11           0        3.361987    1.559597   -1.572502
      5         11           0        0.527785    3.130154   -0.257302
      6         11           0       -4.470427   -0.452676   -0.535752
      7         11           0       -2.363965    2.654232    1.576668
 ---------------------------------------------------------------------

 SCF Done:  E(UB3LYP) =  -1136.10531515     A.U. after   20 cycles

 The electronic state is 2-A.
 Alpha  occ. eigenvalues --  -38.45144 -38.44897 -38.44787 -38.44443 -38.44366
 Alpha  occ. eigenvalues --  -38.44128 -38.44043  -2.20919  -2.20659  -2.20556
 Alpha  occ. eigenvalues --   -2.20231  -2.20158  -2.19913  -2.19802  -1.14597
 Alpha  occ. eigenvalues --   -1.14582  -1.14558  -1.14340  -1.14333  -1.14309
 Alpha  occ. eigenvalues --   -1.14220  -1.14211  -1.14165  -1.13891  -1.13885
 Alpha  occ. eigenvalues --   -1.13875  -1.13810  -1.13799  -1.13776  -1.13565
 Alpha  occ. eigenvalues --   -1.13555  -1.13545  -1.13492  -1.13487  -1.13434
 Alpha  occ. eigenvalues --   -0.15332  -0.13759  -0.13016  -0.10981
 Alpha virt. eigenvalues --   -0.07448  -0.04927  -0.04781  -0.03563  -0.03430
 Alpha virt. eigenvalues --   -0.02357  -0.01920  -0.01745  -0.01406  -0.01024
 Alpha virt. eigenvalues --   -0.00870  -0.00389  -0.00068   0.00411   0.00554

  Beta  occ. eigenvalues --  -38.45129 -38.44900 -38.44746 -38.44426 -38.44282
  Beta  occ. eigenvalues --  -38.44055 -38.44051  -2.20895  -2.20668  -2.20481
  Beta  occ. eigenvalues --   -2.20201  -2.20003  -2.19825  -2.19776  -1.14575
  Beta  occ. eigenvalues --   -1.14568  -1.14531  -1.14344  -1.14335  -1.14300
  Beta  occ. eigenvalues --   -1.14170  -1.14161  -1.14114  -1.13872  -1.13867
  Beta  occ. eigenvalues --   -1.13844  -1.13705  -1.13696  -1.13673  -1.13514
  Beta  occ. eigenvalues --   -1.13513  -1.13471  -1.13469  -1.13452  -1.13394
  Beta  occ. eigenvalues --   -0.14819  -0.13144  -0.12273
  Beta virt. eigenvalues --   -0.07845  -0.07534  -0.04402  -0.04348  -0.03405
  Beta virt. eigenvalues --   -0.03172  -0.02250  -0.01721  -0.01360  -0.01015
  Beta virt. eigenvalues --   -0.00826  -0.00745  -0.00214   0.00154   0.00470

 Mulliken charges and spin densities:
               1          2
     1  Na   0.135726   0.084412
     2  Na  -0.419286   0.207687
     3  Na   0.355548  -0.036565
     4  Na   0.079202   0.398014
     5  Na  -0.316186  -0.039087
     6  Na   0.082362   0.046846
     7  Na   0.082633   0.338693
 Sum of Mulliken charges =  -0.00000   1.00000

 Dipole moment (field-independent basis, Debye):
    X=             -0.1219    Y=             -0.8244    Z=             -0.0138  Tot=              0.8335
 Quadrupole moment (field-independent basis, Debye-Ang):
   XX=            -54.1542   YY=            -74.9820   ZZ=            -70.8130
   XY=             -3.1726   XZ=             -1.3019   YZ=              0.4590

 Normal termination of Gaussian 16 at Sun Dec  3 13:54:30 2023.
