 Gaussian 16, Revision B.01,
 Gaussian 16:  ES64L-G16RevB.01 20-Dec-2017

 -------------------------
 #P B3LYP/6-311+g(d) force
 -------------------------

 -----
 DPGEN
 -----
 Symbolic Z-matrix:
 Charge =  0 Multiplicity = 2

                         Standard orientation:
 ---------------------------------------------------------------------
 Center     Atomic      Atomic             Coordinates (Angstroms)
 Number     Number       Type             X           Y           Z
 ---------------------------------------------------------------------
      1         11           0        3.389364   -1.034173   -0.559822
      2         11           0       -3.172358   -1.290955   -0.163937
      3         11           0        0.630990   -0.458237    3.049555
      4         11           0        1.271775    2.223217    0.657307
      5         11           0       -2.576140    1.546950    0.088434
      6         11           0        0.541220    1.234611   -2.261113
      7         11           0       -0.084852   -2.221412   -0.810424
 ---------------------------------------------------------------------

 SCF Done:  E(UB3LYP) =  -1136.11728858     A.U. after   22 cycles

 The electronic state is 2-A.
 Alpha  occ. eigenvalues --  -38.45955 -38.44811 -38.44623 -38.43951 -38.43508
 Alpha  occ. eigenvalues --  -38.43318 -38.43169  -2.21733  -2.20642  -2.20371
 Alpha  occ. eigenvalues --   -2.19782  -2.19371  -2.19146  -2.18979  -1.15362
 Alpha  occ. eigenvalues --   -1.15358  -1.15343  -1.14316  -1.14298  -1.14242
 Alpha  occ. eigenvalues --   -1.14044  -1.14027  -1.14015  -1.13549  -1.13445
 Alpha  occ. eigenvalues --   -1.13407  -1.13021  -1.13020  -1.13004  -1.12835
 Alpha  occ. eigenvalues --   -1.12822  -1.12773  -1.12673  -1.12657  -1.12594
 Alpha  occ. eigenvalues --   -0.17485  -0.13017  -0.12283  -0.11349
 Alpha virt. eigenvalues --   -0.06318  -0.05067  -0.04646  -0.03606  -0.03274
 Alpha virt. eigenvalues --   -0.03183  -0.01849  -0.00863  -0.00706  -0.00180
 Alpha virt. eigenvalues --   -0.00027   0.00085   0.00379   0.00635   0.00781

  Beta  occ. eigenvalues --  -38.45824 -38.44756 -38.44626 -38.43951 -38.43509
  Beta  occ. eigenvalues --  -38.43313 -38.43163  -2.21490  -2.20540  -2.20377
  Beta  occ. eigenvalues --   -2.19783  -2.19374  -2.19140  -2.18970  -1.15196
  Beta  occ. eigenvalues --   -1.15191  -1.15176  -1.14252  -1.14225  -1.14166
  Beta  occ. eigenvalues --   -1.14040  -1.14032  -1.14019  -1.13552  -1.13437
  Beta  occ. eigenvalues --   -1.13409  -1.13023  -1.13022  -1.13002  -1.12830
  Beta  occ. eigenvalues --   -1.12790  -1.12771  -1.12659  -1.12646  -1.12590
  Beta  occ. eigenvalues --   -0.16799  -0.12843  -0.11240
  Beta virt. eigenvalues --   -0.08110  -0.06146  -0.04845  -0.03882  -0.03199
  Beta virt. eigenvalues --   -0.02963  -0.02409  -0.01773  -0.00705  -0.00312
  Beta virt. eigenvalues --   -0.00146   0.00051   0.00180   0.00449   0.00789

 Mulliken charges and spin densities:
               1          2
     1  Na   0.152212  -0.034359
     2  Na   0.162901  -0.012392
     3  Na  -0.125507   0.653905
     4  Na   0.062552  -0.074089
     5  Na  -0.014863  -0.030886
     6  Na   0.133420   0.537120
     7  Na  -0.370716  -0.039298
 Sum of Mulliken charges =  -0.00000   1.00000

 Dipole moment (field-independent basis, Debye):
    X=              0.6783    Y=              0.0914    Z=              0.3770  Tot=              0.7814
 Quadrupole moment (field-independent basis, Debye-Ang):
   XX=            -60.2330   YY=            -76.5930   ZZ=            -62.2677
   XY=             -0.3788   XZ=             -0.4647   YZ=             -2.1048

 Normal termination of Gaussian 16 at Sun Dec  3 12:34:35 2023.
