 Gaussian 16, Revision B.01,
 Gaussian 16:  ES64L-G16RevB.01 20-Dec-2017

 -------------------------
 #P B3LYP/6-311+g(d) force
 -------------------------

 -----
 DPGEN
 -----
 Symbolic Z-matrix:
 Charge =  0 Multiplicity = 2

                         Standard orientation:
 ---------------------------------------------------------------------
 Center     Atomic      Atomic             Coordinates (Angstroms)
 Number     Number       Type             X           Y           Z
 ---------------------------------------------------------------------
      1         11           0        0.723569   -2.237622   -0.853914
      2         11           0       -1.440324    2.971760    0.339828
      3         11           0        3.672603   -0.689528    0.418824
      4         11           0       -0.161564    0.034075    1.961324
      5         11           0        1.805609    1.572684   -0.726248
      6         11           0       -1.583673    0.430488   -1.564051
      7         11           0       -3.016219   -2.081858    0.424237
 ---------------------------------------------------------------------

 SCF Done:  E(UB3LYP) =  -1136.13296888     A.U. after   21 cycles

 The electronic state is 2-A.
 Alpha  occ. eigenvalues --  -38.44198 -38.44174 -38.44060 -38.43807 -38.43792
 Alpha  occ. eigenvalues --  -38.43382 -38.43237  -2.19995  -2.19970  -2.19874
 Alpha  occ. eigenvalues --   -2.19663  -2.19657  -2.19220  -2.19147  -1.13700
 Alpha  occ. eigenvalues --   -1.13649  -1.13644  -1.13637  -1.13632  -1.13601
 Alpha  occ. eigenvalues --   -1.13574  -1.13557  -1.13462  -1.13356  -1.13340
 Alpha  occ. eigenvalues --   -1.13326  -1.13293  -1.13277  -1.13262  -1.12945
 Alpha  occ. eigenvalues --   -1.12874  -1.12858  -1.12833  -1.12789  -1.12731
 Alpha  occ. eigenvalues --   -0.18119  -0.13154  -0.12141  -0.10607
 Alpha virt. eigenvalues --   -0.06149  -0.05387  -0.04420  -0.03268  -0.02918
 Alpha virt. eigenvalues --   -0.02528  -0.01904  -0.01381  -0.00555  -0.00167
 Alpha virt. eigenvalues --    0.00059   0.00273   0.00653   0.00732   0.00765

  Beta  occ. eigenvalues --  -38.44198 -38.44175 -38.44040 -38.43778 -38.43719
  Beta  occ. eigenvalues --  -38.43380 -38.43187  -2.19998  -2.19971  -2.19839
  Beta  occ. eigenvalues --   -2.19635  -2.19501  -2.19219  -2.19057  -1.13702
  Beta  occ. eigenvalues --   -1.13649  -1.13641  -1.13634  -1.13620  -1.13603
  Beta  occ. eigenvalues --   -1.13551  -1.13513  -1.13443  -1.13334  -1.13296
  Beta  occ. eigenvalues --   -1.13253  -1.13225  -1.13178  -1.13161  -1.12932
  Beta  occ. eigenvalues --   -1.12860  -1.12851  -1.12771  -1.12724  -1.12672
  Beta  occ. eigenvalues --   -0.17390  -0.13015  -0.11946
  Beta virt. eigenvalues --   -0.06732  -0.06017  -0.05329  -0.04297  -0.02719
  Beta virt. eigenvalues --   -0.02254  -0.01825  -0.01516  -0.01303  -0.00297
  Beta virt. eigenvalues --   -0.00206   0.00141   0.00314   0.00717   0.00795

 Mulliken charges and spin densities:
               1          2
     1  Na  -0.292385   0.039551
     2  Na   0.157675  -0.106021
     3  Na   0.499690  -0.020020
     4  Na  -0.381621   0.776305
     5  Na  -0.311826   0.073502
     6  Na   0.361919   0.360666
     7  Na  -0.033452  -0.123983
 Sum of Mulliken charges =  -0.00000   1.00000

 Dipole moment (field-independent basis, Debye):
    X=              0.2013    Y=             -0.2948    Z=              0.2099  Tot=              0.4141
 Quadrupole moment (field-independent basis, Debye-Ang):
   XX=            -54.1722   YY=            -65.0119   ZZ=            -73.6633
   XY=             -0.7392   XZ=             -0.1776   YZ=             -0.0792

 Normal termination of Gaussian 16 at Fri Dec  8 04:47:07 2023.
