 Gaussian 16, Revision B.01,
 Gaussian 16:  ES64L-G16RevB.01 20-Dec-2017

 -------------------------
 #P B3LYP/6-311+g(d) force
 -------------------------

 -----
 DPGEN
 -----
 Symbolic Z-matrix:
 Charge =  0 Multiplicity = 2

                         Standard orientation:
 ---------------------------------------------------------------------
 Center     Atomic      Atomic             Coordinates (Angstroms)
 Number     Number       Type             X           Y           Z
 ---------------------------------------------------------------------
      1         11           0        1.553421   -0.670763    2.075590
      2         11           0        1.781255    2.213392   -0.685302
      3         11           0       -0.278297   -0.459030   -0.863586
      4         11           0       -1.739372    2.631368   -0.834644
      5         11           0       -2.294903   -2.758099   -1.044555
      6         11           0        2.914884   -1.367404   -0.715815
      7         11           0       -1.936987    0.410537    2.068311
 ---------------------------------------------------------------------

 SCF Done:  E(UB3LYP) =  -1136.12528111     A.U. after   23 cycles

 The electronic state is 2-A.
 Alpha  occ. eigenvalues --  -38.44435 -38.44314 -38.44091 -38.43872 -38.43754
 Alpha  occ. eigenvalues --  -38.43473 -38.42525  -2.20251  -2.20182  -2.19940
 Alpha  occ. eigenvalues --   -2.19678  -2.19572  -2.19287  -2.18566  -1.13931
 Alpha  occ. eigenvalues --   -1.13884  -1.13873  -1.13854  -1.13841  -1.13807
 Alpha  occ. eigenvalues --   -1.13618  -1.13588  -1.13555  -1.13377  -1.13308
 Alpha  occ. eigenvalues --   -1.13292  -1.13270  -1.13251  -1.13175  -1.12970
 Alpha  occ. eigenvalues --   -1.12940  -1.12917  -1.12273  -1.12216  -1.12203
 Alpha  occ. eigenvalues --   -0.18047  -0.12843  -0.11852  -0.11608
 Alpha virt. eigenvalues --   -0.05663  -0.05000  -0.04894  -0.03358  -0.02816
 Alpha virt. eigenvalues --   -0.02634  -0.01463  -0.01249  -0.00732  -0.00012
 Alpha virt. eigenvalues --    0.00130   0.00280   0.00569   0.00636   0.00786

  Beta  occ. eigenvalues --  -38.44375 -38.44252 -38.44087 -38.43827 -38.43751
  Beta  occ. eigenvalues --  -38.43471 -38.42496  -2.20140  -2.20069  -2.19933
  Beta  occ. eigenvalues --   -2.19595  -2.19567  -2.19284  -2.18516  -1.13850
  Beta  occ. eigenvalues --   -1.13804  -1.13796  -1.13786  -1.13758  -1.13728
  Beta  occ. eigenvalues --   -1.13606  -1.13571  -1.13550  -1.13313  -1.13261
  Beta  occ. eigenvalues --   -1.13253  -1.13243  -1.13238  -1.13174  -1.12963
  Beta  occ. eigenvalues --   -1.12936  -1.12917  -1.12208  -1.12186  -1.12170
  Beta  occ. eigenvalues --   -0.17402  -0.12700  -0.11448
  Beta virt. eigenvalues --   -0.07737  -0.05505  -0.04760  -0.04421  -0.03011
  Beta virt. eigenvalues --   -0.02372  -0.01921  -0.01430  -0.01055  -0.00336
  Beta virt. eigenvalues --    0.00083   0.00218   0.00324   0.00651   0.00722

 Mulliken charges and spin densities:
               1          2
     1  Na  -0.393636   0.375142
     2  Na   1.366061  -0.094048
     3  Na  -1.799677  -0.195299
     4  Na  -0.144613   0.092986
     5  Na   0.098784   0.445919
     6  Na   0.643983   0.098315
     7  Na   0.229098   0.276984
 Sum of Mulliken charges =  -0.00000   1.00000

 Dipole moment (field-independent basis, Debye):
    X=              0.4287    Y=              0.0546    Z=              0.4317  Tot=              0.6108
 Quadrupole moment (field-independent basis, Debye-Ang):
   XX=            -58.4359   YY=            -66.8846   ZZ=            -67.5772
   XY=             -2.2550   XZ=             -1.7094   YZ=              1.5990

 Normal termination of Gaussian 16 at Tue Nov 28 23:47:05 2023.
