 Gaussian 16, Revision B.01,
 Gaussian 16:  ES64L-G16RevB.01 20-Dec-2017

 -------------------------
 #P B3LYP/6-311+g(d) force
 -------------------------

 -----
 DPGEN
 -----
 Symbolic Z-matrix:
 Charge =  0 Multiplicity = 2

                         Standard orientation:
 ---------------------------------------------------------------------
 Center     Atomic      Atomic             Coordinates (Angstroms)
 Number     Number       Type             X           Y           Z
 ---------------------------------------------------------------------
      1         11           0        0.507804    0.330662   -1.514126
      2         11           0       -0.385879   -2.513069   -0.146894
      3         11           0        2.579306    1.834875    0.463668
      4         11           0        2.573073   -1.747822   -0.205017
      5         11           0       -1.238390    2.655089   -0.456206
      6         11           0       -0.625229    0.002108    2.088647
      7         11           0       -3.410685   -0.561843   -0.230071
 ---------------------------------------------------------------------

 SCF Done:  E(UB3LYP) =  -1136.13149355     A.U. after   19 cycles

 The electronic state is 2-A.
 Alpha  occ. eigenvalues --  -38.44611 -38.44147 -38.43723 -38.43693 -38.43668
 Alpha  occ. eigenvalues --  -38.43074 -38.42998  -2.20388  -2.19962  -2.19565
 Alpha  occ. eigenvalues --   -2.19557  -2.19553  -2.19090  -2.18921  -1.14064
 Alpha  occ. eigenvalues --   -1.14044  -1.14028  -1.13648  -1.13620  -1.13592
 Alpha  occ. eigenvalues --   -1.13296  -1.13270  -1.13239  -1.13220  -1.13216
 Alpha  occ. eigenvalues --   -1.13188  -1.13184  -1.13169  -1.13161  -1.12775
 Alpha  occ. eigenvalues --   -1.12734  -1.12720  -1.12600  -1.12579  -1.12537
 Alpha  occ. eigenvalues --   -0.18568  -0.13070  -0.12412  -0.10620
 Alpha virt. eigenvalues --   -0.06103  -0.05210  -0.04376  -0.03269  -0.02854
 Alpha virt. eigenvalues --   -0.02408  -0.01855  -0.01177  -0.00448  -0.00130
 Alpha virt. eigenvalues --   -0.00035   0.00313   0.00745   0.00797   0.00872

  Beta  occ. eigenvalues --  -38.44611 -38.44137 -38.43708 -38.43664 -38.43602
  Beta  occ. eigenvalues --  -38.43021 -38.42988  -2.20391  -2.19944  -2.19550
  Beta  occ. eigenvalues --   -2.19534  -2.19395  -2.18995  -2.18908  -1.14059
  Beta  occ. eigenvalues --   -1.14039  -1.14032  -1.13635  -1.13593  -1.13583
  Beta  occ. eigenvalues --   -1.13274  -1.13262  -1.13211  -1.13184  -1.13169
  Beta  occ. eigenvalues --   -1.13148  -1.13126  -1.13079  -1.13046  -1.12715
  Beta  occ. eigenvalues --   -1.12666  -1.12649  -1.12586  -1.12548  -1.12518
  Beta  occ. eigenvalues --   -0.17866  -0.12867  -0.12154
  Beta virt. eigenvalues --   -0.06761  -0.06006  -0.05169  -0.04328  -0.02561
  Beta virt. eigenvalues --   -0.02102  -0.01752  -0.01393  -0.01097  -0.00476
  Beta virt. eigenvalues --   -0.00144   0.00118   0.00352   0.00803   0.00820

 Mulliken charges and spin densities:
               1          2
     1  Na  -0.121732   0.307152
     2  Na   0.199779  -0.021190
     3  Na   0.053861   0.063059
     4  Na   0.264138   0.028636
     5  Na   0.088290  -0.049136
     6  Na  -0.579228   0.723993
     7  Na   0.094894  -0.052513
 Sum of Mulliken charges =  -0.00000   1.00000

 Dipole moment (field-independent basis, Debye):
    X=             -0.2425    Y=              0.2767    Z=              0.2191  Tot=              0.4282
 Quadrupole moment (field-independent basis, Debye-Ang):
   XX=            -52.5936   YY=            -65.4891   ZZ=            -74.6328
   XY=              0.3396   XZ=              2.3914   YZ=              1.0476

 Normal termination of Gaussian 16 at Thu Dec  7 16:39:19 2023.
