 Gaussian 16, Revision B.01,
 Gaussian 16:  ES64L-G16RevB.01 20-Dec-2017

 -------------------------
 #P B3LYP/6-311+g(d) force
 -------------------------

 -----
 DPGEN
 -----
 Symbolic Z-matrix:
 Charge =  0 Multiplicity = 2

                         Standard orientation:
 ---------------------------------------------------------------------
 Center     Atomic      Atomic             Coordinates (Angstroms)
 Number     Number       Type             X           Y           Z
 ---------------------------------------------------------------------
      1         11           0        0.535368    2.755523    0.077841
      2         11           0       -2.324156    1.884709   -0.216538
      3         11           0        0.933822   -2.547904   -0.273346
      4         11           0       -2.694291   -1.808138    0.334799
      5         11           0       -0.328575   -0.247094   -1.691004
      6         11           0        3.490653    0.111473   -0.202318
      7         11           0        0.387179   -0.148568    1.970566
 ---------------------------------------------------------------------

 SCF Done:  E(UB3LYP) =  -1136.13291925     A.U. after   21 cycles

 The electronic state is 2-A.
 Alpha  occ. eigenvalues --  -38.44482 -38.43978 -38.43625 -38.43582 -38.43547
 Alpha  occ. eigenvalues --  -38.43323 -38.43307  -2.20249  -2.19784  -2.19522
 Alpha  occ. eigenvalues --   -2.19470  -2.19443  -2.19303  -2.19187  -1.13924
 Alpha  occ. eigenvalues --   -1.13907  -1.13887  -1.13454  -1.13446  -1.13429
 Alpha  occ. eigenvalues --   -1.13321  -1.13218  -1.13212  -1.13143  -1.13115
 Alpha  occ. eigenvalues --   -1.13102  -1.13099  -1.13077  -1.13044  -1.12961
 Alpha  occ. eigenvalues --   -1.12926  -1.12899  -1.12849  -1.12837  -1.12803
 Alpha  occ. eigenvalues --   -0.18615  -0.12926  -0.12527  -0.10671
 Alpha virt. eigenvalues --   -0.05970  -0.05008  -0.04666  -0.03118  -0.02975
 Alpha virt. eigenvalues --   -0.02450  -0.01858  -0.01093  -0.00297  -0.00251
 Alpha virt. eigenvalues --   -0.00027   0.00324   0.00778   0.00847   0.00894

  Beta  occ. eigenvalues --  -38.44483 -38.43972 -38.43611 -38.43577 -38.43460
  Beta  occ. eigenvalues --  -38.43303 -38.43255  -2.20252  -2.19775  -2.19501
  Beta  occ. eigenvalues --   -2.19464  -2.19283  -2.19183  -2.19178  -1.13919
  Beta  occ. eigenvalues --   -1.13904  -1.13891  -1.13442  -1.13430  -1.13422
  Beta  occ. eigenvalues --   -1.13290  -1.13213  -1.13165  -1.13128  -1.13089
  Beta  occ. eigenvalues --   -1.13086  -1.13009  -1.12971  -1.12928  -1.12882
  Beta  occ. eigenvalues --   -1.12851  -1.12836  -1.12820  -1.12802  -1.12798
  Beta  occ. eigenvalues --   -0.17884  -0.12688  -0.12310
  Beta virt. eigenvalues --   -0.06776  -0.05914  -0.04989  -0.04615  -0.02388
  Beta virt. eigenvalues --   -0.02189  -0.01765  -0.01419  -0.01020  -0.00338
  Beta virt. eigenvalues --   -0.00284   0.00107   0.00345   0.00824   0.00857

 Mulliken charges and spin densities:
               1          2
     1  Na   0.028417  -0.094487
     2  Na   0.152669  -0.034741
     3  Na   0.256793  -0.046425
     4  Na   0.063340  -0.022268
     5  Na  -0.063212   0.519330
     6  Na  -0.021273  -0.103950
     7  Na  -0.416734   0.782541
 Sum of Mulliken charges =  -0.00000   1.00000

 Dipole moment (field-independent basis, Debye):
    X=              0.1995    Y=             -0.1846    Z=              0.1222  Tot=              0.2979
 Quadrupole moment (field-independent basis, Debye-Ang):
   XX=            -53.8724   YY=            -64.4402   ZZ=            -74.7321
   XY=              1.2908   XZ=             -1.6642   YZ=             -0.5213

 Normal termination of Gaussian 16 at Thu Dec  7 22:04:00 2023.
