 Gaussian 16, Revision B.01,
 Gaussian 16:  ES64L-G16RevB.01 20-Dec-2017

 -------------------------
 #P B3LYP/6-311+g(d) force
 -------------------------

 -----
 DPGEN
 -----
 Symbolic Z-matrix:
 Charge =  0 Multiplicity = 2

                         Standard orientation:
 ---------------------------------------------------------------------
 Center     Atomic      Atomic             Coordinates (Angstroms)
 Number     Number       Type             X           Y           Z
 ---------------------------------------------------------------------
      1         11           0        2.595903   -1.781855    1.018451
      2         11           0        5.654675   -0.590289   -0.671700
      3         11           0        3.478466    1.508806    0.190021
      4         11           0        0.181710    2.397241   -0.021056
      5         11           0       -0.254935   -1.327449   -0.700819
      6         11           0       -4.448162    0.164168    0.598945
      7         11           0       -7.207658   -0.370622   -0.413842
 ---------------------------------------------------------------------

 SCF Done:  E(UB3LYP) =  -1136.11237675     A.U. after   19 cycles

 The electronic state is 2-A.
 Alpha  occ. eigenvalues --  -38.45262 -38.44508 -38.44378 -38.44355 -38.44069
 Alpha  occ. eigenvalues --  -38.43690 -38.43616  -2.21094  -2.20299  -2.20259
 Alpha  occ. eigenvalues --   -2.20157  -2.19886  -2.19492  -2.19416  -1.14776
 Alpha  occ. eigenvalues --   -1.14759  -1.14687  -1.13969  -1.13962  -1.13950
 Alpha  occ. eigenvalues --   -1.13919  -1.13917  -1.13907  -1.13817  -1.13803
 Alpha  occ. eigenvalues --   -1.13761  -1.13555  -1.13541  -1.13507  -1.13262
 Alpha  occ. eigenvalues --   -1.13154  -1.13148  -1.13062  -1.13062  -1.12987
 Alpha  occ. eigenvalues --   -0.16876  -0.13278  -0.12064  -0.11910
 Alpha virt. eigenvalues --   -0.06506  -0.05316  -0.04711  -0.03448  -0.03114
 Alpha virt. eigenvalues --   -0.02633  -0.02096  -0.01546  -0.01391  -0.01073
 Alpha virt. eigenvalues --   -0.00389  -0.00190   0.00233   0.00239   0.00452

  Beta  occ. eigenvalues --  -38.45198 -38.44470 -38.44328 -38.44293 -38.44063
  Beta  occ. eigenvalues --  -38.43688 -38.43622  -2.20978  -2.20231  -2.20169
  Beta  occ. eigenvalues --   -2.20044  -2.19876  -2.19489  -2.19427  -1.14692
  Beta  occ. eigenvalues --   -1.14686  -1.14591  -1.13922  -1.13905  -1.13892
  Beta  occ. eigenvalues --   -1.13869  -1.13863  -1.13821  -1.13742  -1.13719
  Beta  occ. eigenvalues --   -1.13685  -1.13541  -1.13530  -1.13499  -1.13266
  Beta  occ. eigenvalues --   -1.13151  -1.13146  -1.13069  -1.13069  -1.12992
  Beta  occ. eigenvalues --   -0.16051  -0.13294  -0.11744
  Beta virt. eigenvalues --   -0.07874  -0.06310  -0.05032  -0.04291  -0.03093
  Beta virt. eigenvalues --   -0.02618  -0.02461  -0.01916  -0.01376  -0.00968
  Beta virt. eigenvalues --   -0.00933  -0.00180  -0.00013   0.00373   0.00417

 Mulliken charges and spin densities:
               1          2
     1  Na   0.004033   0.295771
     2  Na   0.570434  -0.002903
     3  Na  -0.268279   0.222388
     4  Na  -0.041934   0.307658
     5  Na  -0.059238   0.253377
     6  Na  -0.740026  -0.054528
     7  Na   0.535010  -0.021764
 Sum of Mulliken charges =  -0.00000   1.00000

 Dipole moment (field-independent basis, Debye):
    X=              1.7360    Y=             -0.4981    Z=             -0.2814  Tot=              1.8278
 Quadrupole moment (field-independent basis, Debye-Ang):
   XX=            -63.8510   YY=            -68.5484   ZZ=            -68.7642
   XY=             -2.2563   XZ=              1.8837   YZ=              1.0630

 Normal termination of Gaussian 16 at Wed Nov 29 03:25:35 2023.
