 Gaussian 16, Revision B.01,
 Gaussian 16:  ES64L-G16RevB.01 20-Dec-2017

 -------------------------
 #P B3LYP/6-311+g(d) force
 -------------------------

 -----
 DPGEN
 -----
 Symbolic Z-matrix:
 Charge =  0 Multiplicity = 2

                         Standard orientation:
 ---------------------------------------------------------------------
 Center     Atomic      Atomic             Coordinates (Angstroms)
 Number     Number       Type             X           Y           Z
 ---------------------------------------------------------------------
      1         11           0        4.311356    0.241990   -0.993415
      2         11           0       -1.150009   -0.734184    1.427951
      3         11           0        2.610379   -0.831691    1.535276
      4         11           0        0.725605    1.961151   -0.190794
      5         11           0       -3.069066    2.066875    0.176518
      6         11           0        0.048268   -1.190784   -1.191792
      7         11           0       -3.476533   -1.513358   -0.763744
 ---------------------------------------------------------------------

 SCF Done:  E(UB3LYP) =  -1136.11330322     A.U. after   32 cycles

 The electronic state is 2-A.
 Alpha  occ. eigenvalues --  -38.45251 -38.44992 -38.44426 -38.43861 -38.43718
 Alpha  occ. eigenvalues --  -38.43479 -38.43471  -2.21139  -2.20827  -2.20254
 Alpha  occ. eigenvalues --   -2.19832  -2.19564  -2.19290  -2.19274  -1.14903
 Alpha  occ. eigenvalues --   -1.14795  -1.14717  -1.14515  -1.14487  -1.14471
 Alpha  occ. eigenvalues --   -1.13912  -1.13887  -1.13862  -1.13573  -1.13475
 Alpha  occ. eigenvalues --   -1.13426  -1.13234  -1.13202  -1.13182  -1.13035
 Alpha  occ. eigenvalues --   -1.12970  -1.12959  -1.12925  -1.12901  -1.12864
 Alpha  occ. eigenvalues --   -0.18311  -0.14534  -0.10912  -0.10725
 Alpha virt. eigenvalues --   -0.07538  -0.05102  -0.04974  -0.03301  -0.02986
 Alpha virt. eigenvalues --   -0.02144  -0.01803  -0.01597  -0.01410  -0.00223
 Alpha virt. eigenvalues --   -0.00127   0.00217   0.00267   0.00524   0.00593

  Beta  occ. eigenvalues --  -38.45239 -38.44978 -38.44344 -38.43825 -38.43675
  Beta  occ. eigenvalues --  -38.43481 -38.43458  -2.21120  -2.20809  -2.20099
  Beta  occ. eigenvalues --   -2.19771  -2.19484  -2.19311  -2.19236  -1.14872
  Beta  occ. eigenvalues --   -1.14792  -1.14701  -1.14490  -1.14479  -1.14424
  Beta  occ. eigenvalues --   -1.13807  -1.13781  -1.13761  -1.13534  -1.13394
  Beta  occ. eigenvalues --   -1.13386  -1.13179  -1.13149  -1.13121  -1.13053
  Beta  occ. eigenvalues --   -1.12965  -1.12933  -1.12900  -1.12891  -1.12861
  Beta  occ. eigenvalues --   -0.17724  -0.13890  -0.10634
  Beta virt. eigenvalues --   -0.07380  -0.07241  -0.04939  -0.04343  -0.02981
  Beta virt. eigenvalues --   -0.02848  -0.01728  -0.01458  -0.01312  -0.00968
  Beta virt. eigenvalues --   -0.00082   0.00021   0.00294   0.00375   0.00628

 Mulliken charges and spin densities:
               1          2
     1  Na   0.458444   0.589288
     2  Na   0.012576   0.292112
     3  Na   0.060875   0.045618
     4  Na  -0.574748  -0.152225
     5  Na  -0.113131   0.080675
     6  Na  -0.383624  -0.140797
     7  Na   0.539608   0.285331
 Sum of Mulliken charges =  -0.00000   1.00000

 Dipole moment (field-independent basis, Debye):
    X=              0.4875    Y=             -0.5762    Z=              0.4245  Tot=              0.8660
 Quadrupole moment (field-independent basis, Debye-Ang):
   XX=            -58.5233   YY=            -80.8215   ZZ=            -62.1808
   XY=             -0.5092   XZ=              1.2135   YZ=             -1.4700

 Normal termination of Gaussian 16 at Thu Dec  7 22:34:15 2023.
