 Gaussian 16, Revision B.01,
 Gaussian 16:  ES64L-G16RevB.01 20-Dec-2017

 -------------------------
 #P B3LYP/6-311+g(d) force
 -------------------------

 -----
 DPGEN
 -----
 Symbolic Z-matrix:
 Charge =  0 Multiplicity = 2

                         Standard orientation:
 ---------------------------------------------------------------------
 Center     Atomic      Atomic             Coordinates (Angstroms)
 Number     Number       Type             X           Y           Z
 ---------------------------------------------------------------------
      1         11           0        4.584418   -1.448600   -0.282058
      2         11           0       -3.988853   -1.963281   -0.738726
      3         11           0       -1.881037    1.549150   -1.620502
      4         11           0        0.380091    2.377749    1.386264
      5         11           0        2.180687    1.238060   -0.966371
      6         11           0        1.625627   -1.538781    0.734054
      7         11           0       -2.900933   -0.214296    1.487340
 ---------------------------------------------------------------------

 SCF Done:  E(UB3LYP) =  -1136.11565104     A.U. after   21 cycles

 The electronic state is 2-A.
 Alpha  occ. eigenvalues --  -38.44882 -38.44422 -38.44382 -38.44202 -38.44094
 Alpha  occ. eigenvalues --  -38.43966 -38.43298  -2.20718  -2.20243  -2.20205
 Alpha  occ. eigenvalues --   -2.20004  -2.19914  -2.19803  -2.19127  -1.14411
 Alpha  occ. eigenvalues --   -1.14383  -1.14343  -1.13948  -1.13943  -1.13892
 Alpha  occ. eigenvalues --   -1.13864  -1.13826  -1.13793  -1.13740  -1.13660
 Alpha  occ. eigenvalues --   -1.13639  -1.13580  -1.13569  -1.13547  -1.13467
 Alpha  occ. eigenvalues --   -1.13452  -1.13409  -1.12816  -1.12771  -1.12757
 Alpha  occ. eigenvalues --   -0.17019  -0.14256  -0.11745  -0.10082
 Alpha virt. eigenvalues --   -0.06386  -0.06068  -0.04836  -0.03350  -0.02898
 Alpha virt. eigenvalues --   -0.02533  -0.02161  -0.01439  -0.00868  -0.00553
 Alpha virt. eigenvalues --   -0.00318   0.00087   0.00170   0.00316   0.00580

  Beta  occ. eigenvalues --  -38.44866 -38.44370 -38.44355 -38.44199 -38.44092
  Beta  occ. eigenvalues --  -38.43941 -38.43276  -2.20687  -2.20222  -2.20081
  Beta  occ. eigenvalues --   -2.20000  -2.19910  -2.19757  -2.19087  -1.14390
  Beta  occ. eigenvalues --   -1.14363  -1.14309  -1.13933  -1.13920  -1.13810
  Beta  occ. eigenvalues --   -1.13804  -1.13777  -1.13733  -1.13705  -1.13658
  Beta  occ. eigenvalues --   -1.13628  -1.13577  -1.13566  -1.13543  -1.13435
  Beta  occ. eigenvalues --   -1.13423  -1.13367  -1.12792  -1.12742  -1.12715
  Beta  occ. eigenvalues --   -0.16503  -0.14020  -0.11652
  Beta virt. eigenvalues --   -0.06607  -0.06124  -0.05732  -0.04378  -0.03130
  Beta virt. eigenvalues --   -0.02594  -0.02272  -0.01606  -0.01245  -0.00705
  Beta virt. eigenvalues --   -0.00252  -0.00052   0.00200   0.00260   0.00454

 Mulliken charges and spin densities:
               1          2
     1  Na   0.931724   0.022975
     2  Na   0.231541  -0.020649
     3  Na  -0.068835   0.406961
     4  Na   0.195191   0.278660
     5  Na  -0.341931   0.097494
     6  Na  -0.683067   0.062279
     7  Na  -0.264623   0.152279
 Sum of Mulliken charges =  -0.00000   1.00000

 Dipole moment (field-independent basis, Debye):
    X=              0.9017    Y=             -0.5315    Z=             -0.1470  Tot=              1.0569
 Quadrupole moment (field-independent basis, Debye-Ang):
   XX=            -57.6727   YY=            -67.6083   ZZ=            -72.2048
   XY=              1.8152   XZ=             -0.2620   YZ=              3.2336

 Normal termination of Gaussian 16 at Mon Dec  4 02:19:21 2023.
