 Gaussian 16, Revision B.01,
 Gaussian 16:  ES64L-G16RevB.01 20-Dec-2017

 -------------------------
 #P B3LYP/6-311+g(d) force
 -------------------------

 -----
 DPGEN
 -----
 Symbolic Z-matrix:
 Charge =  0 Multiplicity = 2

                         Standard orientation:
 ---------------------------------------------------------------------
 Center     Atomic      Atomic             Coordinates (Angstroms)
 Number     Number       Type             X           Y           Z
 ---------------------------------------------------------------------
      1         11           0       -0.889430   -0.708318   -0.849891
      2         11           0        1.907196    3.072142   -0.945179
      3         11           0       -3.950109    0.153398   -0.729042
      4         11           0       -2.035975   -0.075587    1.751301
      5         11           0        0.677921    0.991488    0.910482
      6         11           0        2.718429   -1.144850    1.161582
      7         11           0        1.571967   -2.288272   -1.299253
 ---------------------------------------------------------------------

 SCF Done:  E(UB3LYP) =  -1136.09762877     A.U. after   26 cycles

 The electronic state is 2-A.
 Alpha  occ. eigenvalues --  -38.45440 -38.45295 -38.44459 -38.44252 -38.43344
 Alpha  occ. eigenvalues --  -38.43279 -38.42646  -2.21328  -2.21140  -2.20439
 Alpha  occ. eigenvalues --   -2.20321  -2.19257  -2.19100  -2.18724  -1.15024
 Alpha  occ. eigenvalues --   -1.15003  -1.14943  -1.14810  -1.14805  -1.14777
 Alpha  occ. eigenvalues --   -1.14301  -1.14074  -1.14035  -1.14017  -1.13944
 Alpha  occ. eigenvalues --   -1.13906  -1.12946  -1.12907  -1.12865  -1.12793
 Alpha  occ. eigenvalues --   -1.12733  -1.12732  -1.12440  -1.12361  -1.12341
 Alpha  occ. eigenvalues --   -0.18882  -0.14207  -0.11732  -0.10888
 Alpha virt. eigenvalues --   -0.07052  -0.05110  -0.04081  -0.03166  -0.02998
 Alpha virt. eigenvalues --   -0.02479  -0.01931  -0.00923  -0.00759  -0.00009
 Alpha virt. eigenvalues --    0.00096   0.00236   0.00474   0.00662   0.00804

  Beta  occ. eigenvalues --  -38.45427 -38.45283 -38.44405 -38.44220 -38.43333
  Beta  occ. eigenvalues --  -38.43228 -38.42619  -2.21303  -2.21119  -2.20343
  Beta  occ. eigenvalues --   -2.20267  -2.19238  -2.19006  -2.18686  -1.15009
  Beta  occ. eigenvalues --   -1.14986  -1.14919  -1.14795  -1.14784  -1.14764
  Beta  occ. eigenvalues --   -1.14234  -1.14009  -1.13974  -1.13959  -1.13901
  Beta  occ. eigenvalues --   -1.13841  -1.12925  -1.12897  -1.12848  -1.12732
  Beta  occ. eigenvalues --   -1.12668  -1.12665  -1.12426  -1.12345  -1.12231
  Beta  occ. eigenvalues --   -0.18184  -0.14092  -0.11273
  Beta virt. eigenvalues --   -0.07265  -0.06781  -0.04570  -0.03840  -0.02944
  Beta virt. eigenvalues --   -0.02708  -0.02188  -0.01376  -0.00642  -0.00486
  Beta virt. eigenvalues --    0.00092   0.00159   0.00397   0.00568   0.00749

 Mulliken charges and spin densities:
               1          2
     1  Na  -2.839147   0.448827
     2  Na   0.230828   0.099790
     3  Na   0.034295   0.010868
     4  Na   0.619823  -0.015552
     5  Na   0.568875   0.358885
     6  Na  -0.443624   0.154730
     7  Na   1.828950  -0.057547
 Sum of Mulliken charges =  -0.00000   1.00000

 Dipole moment (field-independent basis, Debye):
    X=             -1.1782    Y=             -0.4531    Z=              0.2256  Tot=              1.2823
 Quadrupole moment (field-independent basis, Debye-Ang):
   XX=            -48.0105   YY=            -75.3126   ZZ=            -68.2521
   XY=             -4.1508   XZ=              2.5868   YZ=             -3.7434

 Normal termination of Gaussian 16 at Thu Dec  7 07:23:18 2023.
