 Gaussian 16, Revision B.01,
 Gaussian 16:  ES64L-G16RevB.01 20-Dec-2017

 -------------------------
 #P B3LYP/6-311+g(d) force
 -------------------------

 -----
 DPGEN
 -----
 Symbolic Z-matrix:
 Charge =  0 Multiplicity = 2

                         Standard orientation:
 ---------------------------------------------------------------------
 Center     Atomic      Atomic             Coordinates (Angstroms)
 Number     Number       Type             X           Y           Z
 ---------------------------------------------------------------------
      1         11           0        2.589853   -1.555505    0.058243
      2         11           0       -0.210888   -0.133832    1.697936
      3         11           0       -1.711618    3.040440   -0.087391
      4         11           0       -3.457187   -0.696121    0.195360
      5         11           0       -0.638159   -2.567071   -0.446604
      6         11           0        0.005952    0.405053   -1.551171
      7         11           0        3.422048    1.507035    0.133626
 ---------------------------------------------------------------------

 SCF Done:  E(UB3LYP) =  -1136.12496506     A.U. after   23 cycles

 The electronic state is 2-A.
 Alpha  occ. eigenvalues --  -38.45198 -38.44786 -38.44098 -38.43771 -38.43637
 Alpha  occ. eigenvalues --  -38.42950 -38.42686  -2.20985  -2.20572  -2.20000
 Alpha  occ. eigenvalues --   -2.19655  -2.19409  -2.18897  -2.18614  -1.14659
 Alpha  occ. eigenvalues --   -1.14636  -1.14614  -1.14255  -1.14230  -1.14205
 Alpha  occ. eigenvalues --   -1.13724  -1.13635  -1.13607  -1.13326  -1.13318
 Alpha  occ. eigenvalues --   -1.13301  -1.13083  -1.13070  -1.13050  -1.12614
 Alpha  occ. eigenvalues --   -1.12537  -1.12498  -1.12297  -1.12269  -1.12241
 Alpha  occ. eigenvalues --   -0.18399  -0.13481  -0.11864  -0.10104
 Alpha virt. eigenvalues --   -0.06937  -0.05446  -0.04288  -0.03138  -0.02573
 Alpha virt. eigenvalues --   -0.02351  -0.01970  -0.01355  -0.00963  -0.00306
 Alpha virt. eigenvalues --   -0.00069   0.00205   0.00616   0.00651   0.00697

  Beta  occ. eigenvalues --  -38.45182 -38.44779 -38.44046 -38.43763 -38.43636
  Beta  occ. eigenvalues --  -38.42874 -38.42668  -2.20958  -2.20561  -2.19905
  Beta  occ. eigenvalues --   -2.19645  -2.19408  -2.18758  -2.18586  -1.14629
  Beta  occ. eigenvalues --   -1.14615  -1.14598  -1.14250  -1.14211  -1.14198
  Beta  occ. eigenvalues --   -1.13652  -1.13570  -1.13534  -1.13321  -1.13313
  Beta  occ. eigenvalues --   -1.13264  -1.13074  -1.13068  -1.13050  -1.12523
  Beta  occ. eigenvalues --   -1.12437  -1.12397  -1.12278  -1.12244  -1.12189
  Beta  occ. eigenvalues --   -0.17723  -0.13198  -0.11624
  Beta virt. eigenvalues --   -0.06860  -0.06277  -0.05406  -0.04245  -0.02500
  Beta virt. eigenvalues --   -0.02331  -0.01762  -0.01364  -0.01099  -0.00851
  Beta virt. eigenvalues --   -0.00298   0.00092   0.00266   0.00670   0.00753

 Mulliken charges and spin densities:
               1          2
     1  Na   0.260601   0.100240
     2  Na  -0.209542   0.519321
     3  Na  -0.211541  -0.096648
     4  Na   0.114460   0.085891
     5  Na   0.125917   0.136447
     6  Na  -0.057839   0.269062
     7  Na  -0.022055  -0.014313
 Sum of Mulliken charges =  -0.00000   1.00000

 Dipole moment (field-independent basis, Debye):
    X=             -0.2019    Y=              0.1827    Z=              0.0450  Tot=              0.2760
 Quadrupole moment (field-independent basis, Debye-Ang):
   XX=            -50.6265   YY=            -64.5188   ZZ=            -76.6095
   XY=              2.0008   XZ=              0.4459   YZ=              1.5444

 Normal termination of Gaussian 16 at Fri Dec  8 03:19:27 2023.
