 Gaussian 16, Revision B.01,
 Gaussian 16:  ES64L-G16RevB.01 20-Dec-2017

 -------------------------
 #P B3LYP/6-311+g(d) force
 -------------------------

 -----
 DPGEN
 -----
 Symbolic Z-matrix:
 Charge =  0 Multiplicity = 2

                         Standard orientation:
 ---------------------------------------------------------------------
 Center     Atomic      Atomic             Coordinates (Angstroms)
 Number     Number       Type             X           Y           Z
 ---------------------------------------------------------------------
      1         11           0        1.976814   -2.244227    0.023083
      2         11           0        0.036948    0.382568   -1.706511
      3         11           0       -0.137754    3.319318    0.196076
      4         11           0        2.993508    0.721304   -0.241950
      5         11           0        0.024516   -0.031979    2.019444
      6         11           0       -3.240689    0.522010   -0.150881
      7         11           0       -1.653343   -2.668992   -0.139260
 ---------------------------------------------------------------------

 SCF Done:  E(UB3LYP) =  -1136.13613888     A.U. after   19 cycles

 The electronic state is 2-A.
 Alpha  occ. eigenvalues --  -38.44384 -38.43950 -38.43937 -38.43688 -38.43559
 Alpha  occ. eigenvalues --  -38.43478 -38.43350  -2.20164  -2.19795  -2.19727
 Alpha  occ. eigenvalues --   -2.19492  -2.19426  -2.19342  -2.19263  -1.13844
 Alpha  occ. eigenvalues --   -1.13823  -1.13799  -1.13494  -1.13460  -1.13430
 Alpha  occ. eigenvalues --   -1.13403  -1.13384  -1.13371  -1.13167  -1.13158
 Alpha  occ. eigenvalues --   -1.13135  -1.13100  -1.13057  -1.13044  -1.13005
 Alpha  occ. eigenvalues --   -1.12999  -1.12982  -1.12946  -1.12894  -1.12886
 Alpha  occ. eigenvalues --   -0.18221  -0.12903  -0.12353  -0.10520
 Alpha virt. eigenvalues --   -0.05880  -0.05199  -0.05006  -0.03087  -0.02880
 Alpha virt. eigenvalues --   -0.02468  -0.01562  -0.01381  -0.00637  -0.00538
 Alpha virt. eigenvalues --   -0.00017   0.00353   0.00760   0.00811   0.00847

  Beta  occ. eigenvalues --  -38.44381 -38.43947 -38.43928 -38.43686 -38.43474
  Beta  occ. eigenvalues --  -38.43466 -38.43288  -2.20161  -2.19783  -2.19724
  Beta  occ. eigenvalues --   -2.19490  -2.19337  -2.19253  -2.19149  -1.13827
  Beta  occ. eigenvalues --   -1.13822  -1.13800  -1.13487  -1.13440  -1.13413
  Beta  occ. eigenvalues --   -1.13388  -1.13378  -1.13372  -1.13160  -1.13149
  Beta  occ. eigenvalues --   -1.13132  -1.13017  -1.12989  -1.12979  -1.12966
  Beta  occ. eigenvalues --   -1.12930  -1.12911  -1.12869  -1.12809  -1.12805
  Beta  occ. eigenvalues --   -0.17499  -0.12676  -0.12153
  Beta virt. eigenvalues --   -0.06652  -0.05883  -0.05058  -0.05014  -0.02329
  Beta virt. eigenvalues --   -0.02156  -0.01484  -0.01424  -0.01285  -0.00685
  Beta virt. eigenvalues --   -0.00593   0.00128   0.00385   0.00767   0.00848

 Mulliken charges and spin densities:
               1          2
     1  Na   0.111394  -0.010947
     2  Na  -0.093042   0.517164
     3  Na  -0.029598  -0.127496
     4  Na   0.334588  -0.015239
     5  Na  -0.351390   0.805434
     6  Na   0.028545  -0.107182
     7  Na  -0.000497  -0.061735
 Sum of Mulliken charges =  -0.00000   1.00000

 Dipole moment (field-independent basis, Debye):
    X=             -0.2466    Y=              0.2726    Z=              0.0441  Tot=              0.3702
 Quadrupole moment (field-independent basis, Debye-Ang):
   XX=            -57.6274   YY=            -59.8560   ZZ=            -75.6865
   XY=             -0.2145   XZ=             -0.0331   YZ=              0.9182

 Normal termination of Gaussian 16 at Fri Dec  8 04:30:18 2023.
