 Gaussian 16, Revision B.01,
 Gaussian 16:  ES64L-G16RevB.01 20-Dec-2017

 -------------------------
 #P B3LYP/6-311+g(d) force
 -------------------------

 -----
 DPGEN
 -----
 Symbolic Z-matrix:
 Charge =  0 Multiplicity = 2

                         Standard orientation:
 ---------------------------------------------------------------------
 Center     Atomic      Atomic             Coordinates (Angstroms)
 Number     Number       Type             X           Y           Z
 ---------------------------------------------------------------------
      1         11           0       -0.878398    0.317546   -1.415941
      2         11           0        2.177481   -0.706156    1.758112
      3         11           0       -0.464429    0.824517    1.813879
      4         11           0       -3.883859    0.705792   -0.067865
      5         11           0        2.143126    2.278337   -0.682706
      6         11           0        2.236810   -1.259471   -1.373597
      7         11           0       -1.330731   -2.160566   -0.031881
 ---------------------------------------------------------------------

 SCF Done:  E(UB3LYP) =  -1136.12044085     A.U. after   26 cycles

 The electronic state is 2-A.
 Alpha  occ. eigenvalues --  -38.45070 -38.44486 -38.43780 -38.43629 -38.43571
 Alpha  occ. eigenvalues --  -38.43495 -38.43361  -2.20857  -2.20383  -2.19784
 Alpha  occ. eigenvalues --   -2.19540  -2.19386  -2.19361  -2.19241  -1.14544
 Alpha  occ. eigenvalues --   -1.14503  -1.14485  -1.14109  -1.14031  -1.13969
 Alpha  occ. eigenvalues --   -1.13581  -1.13444  -1.13387  -1.13234  -1.13188
 Alpha  occ. eigenvalues --   -1.13135  -1.13064  -1.13055  -1.13046  -1.13017
 Alpha  occ. eigenvalues --   -1.13007  -1.12962  -1.12943  -1.12902  -1.12804
 Alpha  occ. eigenvalues --   -0.18717  -0.13751  -0.11880  -0.10817
 Alpha virt. eigenvalues --   -0.06587  -0.04832  -0.04410  -0.03233  -0.02774
 Alpha virt. eigenvalues --   -0.02508  -0.02386  -0.00929  -0.00645   0.00019
 Alpha virt. eigenvalues --    0.00211   0.00236   0.00366   0.00704   0.00830

  Beta  occ. eigenvalues --  -38.45070 -38.44426 -38.43743 -38.43574 -38.43535
  Beta  occ. eigenvalues --  -38.43474 -38.43357  -2.20858  -2.20275  -2.19717
  Beta  occ. eigenvalues --   -2.19444  -2.19326  -2.19321  -2.19234  -1.14540
  Beta  occ. eigenvalues --   -1.14506  -1.14486  -1.14012  -1.13959  -1.13896
  Beta  occ. eigenvalues --   -1.13534  -1.13401  -1.13330  -1.13173  -1.13090
  Beta  occ. eigenvalues --   -1.13075  -1.13026  -1.13009  -1.13003  -1.12983
  Beta  occ. eigenvalues --   -1.12966  -1.12936  -1.12929  -1.12878  -1.12802
  Beta  occ. eigenvalues --   -0.17959  -0.13542  -0.10638
  Beta virt. eigenvalues --   -0.07750  -0.06472  -0.04668  -0.03895  -0.02817
  Beta virt. eigenvalues --   -0.02341  -0.02174  -0.01734  -0.00695  -0.00393
  Beta virt. eigenvalues --    0.00066   0.00237   0.00273   0.00456   0.00778

 Mulliken charges and spin densities:
               1          2
     1  Na  -0.498228   0.258064
     2  Na   0.182993   0.258912
     3  Na  -0.139893   0.267966
     4  Na   0.504167   0.006469
     5  Na  -0.273550   0.117256
     6  Na   0.383510   0.070486
     7  Na  -0.158999   0.020847
 Sum of Mulliken charges =  -0.00000   1.00000

 Dipole moment (field-independent basis, Debye):
    X=             -0.8612    Y=              0.0316    Z=              0.0941  Tot=              0.8669
 Quadrupole moment (field-independent basis, Debye-Ang):
   XX=            -48.4986   YY=            -74.8269   ZZ=            -69.1177
   XY=             -1.4204   XZ=             -0.8219   YZ=             -4.9483

 Normal termination of Gaussian 16 at Tue Dec  5 19:28:31 2023.
