 Gaussian 16, Revision B.01,
 Gaussian 16:  ES64L-G16RevB.01 20-Dec-2017

 -------------------------
 #P B3LYP/6-311+g(d) force
 -------------------------

 -----
 DPGEN
 -----
 Symbolic Z-matrix:
 Charge =  0 Multiplicity = 2

                         Standard orientation:
 ---------------------------------------------------------------------
 Center     Atomic      Atomic             Coordinates (Angstroms)
 Number     Number       Type             X           Y           Z
 ---------------------------------------------------------------------
      1         11           0       -1.342551   -2.848161    0.543216
      2         11           0        1.994973    0.529026   -1.612544
      3         11           0       -4.128208   -0.429943   -0.814789
      4         11           0       -1.732679    1.342405   -0.070148
      5         11           0        0.741946    3.591277    0.404748
      6         11           0        1.023524   -0.218609    2.138552
      7         11           0        3.442995   -1.965995   -0.589036
 ---------------------------------------------------------------------

 SCF Done:  E(UB3LYP) =  -1136.12016103     A.U. after   20 cycles

 The electronic state is 2-A.
 Alpha  occ. eigenvalues --  -38.45118 -38.44812 -38.44261 -38.43879 -38.43838
 Alpha  occ. eigenvalues --  -38.43655 -38.43411  -2.20848  -2.20603  -2.20101
 Alpha  occ. eigenvalues --   -2.19701  -2.19652  -2.19445  -2.19280  -1.14532
 Alpha  occ. eigenvalues --   -1.14513  -1.14465  -1.14277  -1.14240  -1.14213
 Alpha  occ. eigenvalues --   -1.13788  -1.13773  -1.13724  -1.13418  -1.13346
 Alpha  occ. eigenvalues --   -1.13318  -1.13306  -1.13303  -1.13271  -1.13122
 Alpha  occ. eigenvalues --   -1.13109  -1.13084  -1.12974  -1.12961  -1.12879
 Alpha  occ. eigenvalues --   -0.16962  -0.13355  -0.12153  -0.10928
 Alpha virt. eigenvalues --   -0.06338  -0.05320  -0.04801  -0.03421  -0.03006
 Alpha virt. eigenvalues --   -0.02295  -0.01798  -0.01669  -0.01046  -0.00576
 Alpha virt. eigenvalues --   -0.00320   0.00191   0.00264   0.00589   0.00721

  Beta  occ. eigenvalues --  -38.45100 -38.44733 -38.44218 -38.43841 -38.43816
  Beta  occ. eigenvalues --  -38.43656 -38.43400  -2.20816  -2.20459  -2.20022
  Beta  occ. eigenvalues --   -2.19632  -2.19616  -2.19449  -2.19263  -1.14509
  Beta  occ. eigenvalues --   -1.14487  -1.14439  -1.14178  -1.14143  -1.14106
  Beta  occ. eigenvalues --   -1.13738  -1.13721  -1.13655  -1.13367  -1.13298
  Beta  occ. eigenvalues --   -1.13282  -1.13280  -1.13262  -1.13242  -1.13126
  Beta  occ. eigenvalues --   -1.13106  -1.13086  -1.12964  -1.12932  -1.12862
  Beta  occ. eigenvalues --   -0.16382  -0.12811  -0.11961
  Beta virt. eigenvalues --   -0.07398  -0.05930  -0.05197  -0.04636  -0.02936
  Beta virt. eigenvalues --   -0.02419  -0.01854  -0.01606  -0.01570  -0.00799
  Beta virt. eigenvalues --   -0.00500  -0.00021   0.00294   0.00425   0.00606

 Mulliken charges and spin densities:
               1          2
     1  Na  -0.022195   0.024302
     2  Na  -0.184365   0.279713
     3  Na   1.043927   0.098488
     4  Na  -1.972764   0.168979
     5  Na   0.933478  -0.042672
     6  Na  -0.011775   0.511923
     7  Na   0.213694  -0.040734
 Sum of Mulliken charges =  -0.00000   1.00000

 Dipole moment (field-independent basis, Debye):
    X=              0.2438    Y=             -0.5009    Z=              0.3433  Tot=              0.6544
 Quadrupole moment (field-independent basis, Debye-Ang):
   XX=            -65.1390   YY=            -60.7458   ZZ=            -70.7027
   XY=              2.5803   XZ=              3.7473   YZ=              0.7505

 Normal termination of Gaussian 16 at Mon Dec  4 04:57:38 2023.
