 Gaussian 16, Revision B.01,
 Gaussian 16:  ES64L-G16RevB.01 20-Dec-2017

 -------------------------
 #P B3LYP/6-311+g(d) force
 -------------------------

 -----
 DPGEN
 -----
 Symbolic Z-matrix:
 Charge =  0 Multiplicity = 2

                         Standard orientation:
 ---------------------------------------------------------------------
 Center     Atomic      Atomic             Coordinates (Angstroms)
 Number     Number       Type             X           Y           Z
 ---------------------------------------------------------------------
      1         11           0       -2.274054    0.324539   -0.966952
      2         11           0       -3.509965   -3.035704   -0.572306
      3         11           0        2.935110   -1.031465    0.356871
      4         11           0       -2.538032    3.850427    0.034079
      5         11           0        5.740138    0.446503   -0.837158
      6         11           0       -0.249565   -1.797701    1.079081
      7         11           0       -0.103632    1.243401    0.906385
 ---------------------------------------------------------------------

 SCF Done:  E(UB3LYP) =  -1136.11874971     A.U. after   20 cycles

 The electronic state is 2-A.
 Alpha  occ. eigenvalues --  -38.44599 -38.44461 -38.44338 -38.44086 -38.43925
 Alpha  occ. eigenvalues --  -38.43868 -38.43508  -2.20398  -2.20381  -2.20213
 Alpha  occ. eigenvalues --   -2.19858  -2.19832  -2.19655  -2.19323  -1.14198
 Alpha  occ. eigenvalues --   -1.14070  -1.14031  -1.14030  -1.14016  -1.13978
 Alpha  occ. eigenvalues --   -1.13904  -1.13886  -1.13759  -1.13539  -1.13530
 Alpha  occ. eigenvalues --   -1.13529  -1.13499  -1.13471  -1.13410  -1.13314
 Alpha  occ. eigenvalues --   -1.13313  -1.13265  -1.13010  -1.13008  -1.12970
 Alpha  occ. eigenvalues --   -0.17344  -0.13687  -0.12291  -0.11426
 Alpha virt. eigenvalues --   -0.06066  -0.05303  -0.04687  -0.03648  -0.02646
 Alpha virt. eigenvalues --   -0.02202  -0.01952  -0.01840  -0.01140  -0.00984
 Alpha virt. eigenvalues --   -0.00518  -0.00082   0.00285   0.00527   0.00627

  Beta  occ. eigenvalues --  -38.44495 -38.44432 -38.44327 -38.44080 -38.43890
  Beta  occ. eigenvalues --  -38.43821 -38.43512  -2.20332  -2.20206  -2.20194
  Beta  occ. eigenvalues --   -2.19848  -2.19773  -2.19566  -2.19340  -1.14172
  Beta  occ. eigenvalues --   -1.14034  -1.13931  -1.13900  -1.13899  -1.13889
  Beta  occ. eigenvalues --   -1.13887  -1.13863  -1.13741  -1.13522  -1.13522
  Beta  occ. eigenvalues --   -1.13498  -1.13465  -1.13462  -1.13350  -1.13254
  Beta  occ. eigenvalues --   -1.13248  -1.13211  -1.13030  -1.13027  -1.12919
  Beta  occ. eigenvalues --   -0.16843  -0.12860  -0.11898
  Beta virt. eigenvalues --   -0.08048  -0.05887  -0.04958  -0.04325  -0.03423
  Beta virt. eigenvalues --   -0.02283  -0.02074  -0.01700  -0.01395  -0.00775
  Beta virt. eigenvalues --   -0.00723  -0.00208   0.00003   0.00430   0.00597

 Mulliken charges and spin densities:
               1          2
     1  Na  -0.332075   0.146299
     2  Na   0.445436   0.238730
     3  Na  -0.232540   0.143822
     4  Na   0.442486   0.006973
     5  Na   0.303211   0.365900
     6  Na  -0.100021  -0.008216
     7  Na  -0.526497   0.106493
 Sum of Mulliken charges =  -0.00000   1.00000

 Dipole moment (field-independent basis, Debye):
    X=             -0.5515    Y=              0.6119    Z=              0.0746  Tot=              0.8272
 Quadrupole moment (field-independent basis, Debye-Ang):
   XX=            -64.4375   YY=            -60.5785   ZZ=            -69.7882
   XY=              0.6867   XZ=             -1.0177   YZ=             -0.9488

 Normal termination of Gaussian 16 at Tue Nov 28 19:58:08 2023.
