 Gaussian 16, Revision B.01,
 Gaussian 16:  ES64L-G16RevB.01 20-Dec-2017

 -------------------------
 #P B3LYP/6-311+g(d) force
 -------------------------

 -----
 DPGEN
 -----
 Symbolic Z-matrix:
 Charge =  0 Multiplicity = 2

                         Standard orientation:
 ---------------------------------------------------------------------
 Center     Atomic      Atomic             Coordinates (Angstroms)
 Number     Number       Type             X           Y           Z
 ---------------------------------------------------------------------
      1         11           0        0.507914   -0.327530    1.442771
      2         11           0       -2.166513   -1.899992   -0.018015
      3         11           0       -0.733100    2.476025   -0.515001
      4         11           0        3.385814   -0.743805   -0.393123
      5         11           0        2.562121    2.805691    0.055125
      6         11           0       -4.743144    0.685110   -0.121255
      7         11           0        1.186908   -2.995499   -0.450502
 ---------------------------------------------------------------------

 SCF Done:  E(UB3LYP) =  -1136.12338220     A.U. after   20 cycles

 The electronic state is 2-A.
 Alpha  occ. eigenvalues --  -38.44723 -38.44650 -38.44387 -38.44044 -38.43964
 Alpha  occ. eigenvalues --  -38.43573 -38.43339  -2.20608  -2.20427  -2.20183
 Alpha  occ. eigenvalues --   -2.19911  -2.19777  -2.19366  -2.19217  -1.14304
 Alpha  occ. eigenvalues --   -1.14273  -1.14224  -1.14115  -1.14101  -1.14048
 Alpha  occ. eigenvalues --   -1.13863  -1.13834  -1.13821  -1.13601  -1.13578
 Alpha  occ. eigenvalues --   -1.13553  -1.13475  -1.13454  -1.13394  -1.13013
 Alpha  occ. eigenvalues --   -1.13008  -1.12974  -1.12875  -1.12869  -1.12834
 Alpha  occ. eigenvalues --   -0.17475  -0.13429  -0.13079  -0.10133
 Alpha virt. eigenvalues --   -0.06414  -0.06185  -0.04632  -0.03302  -0.02699
 Alpha virt. eigenvalues --   -0.02381  -0.02133  -0.01496  -0.00941  -0.00873
 Alpha virt. eigenvalues --   -0.00159   0.00096   0.00460   0.00517   0.00674

  Beta  occ. eigenvalues --  -38.44692 -38.44644 -38.44387 -38.44038 -38.43957
  Beta  occ. eigenvalues --  -38.43478 -38.43281  -2.20553  -2.20418  -2.20185
  Beta  occ. eigenvalues --   -2.19905  -2.19769  -2.19187  -2.19107  -1.14267
  Beta  occ. eigenvalues --   -1.14234  -1.14178  -1.14111  -1.14089  -1.14040
  Beta  occ. eigenvalues --   -1.13867  -1.13833  -1.13809  -1.13597  -1.13580
  Beta  occ. eigenvalues --   -1.13515  -1.13473  -1.13449  -1.13355  -1.12891
  Beta  occ. eigenvalues --   -1.12885  -1.12858  -1.12800  -1.12799  -1.12757
  Beta  occ. eigenvalues --   -0.17052  -0.12954  -0.12470
  Beta virt. eigenvalues --   -0.06735  -0.06270  -0.06102  -0.04343  -0.02647
  Beta virt. eigenvalues --   -0.02438  -0.02107  -0.01891  -0.01238  -0.00823
  Beta virt. eigenvalues --   -0.00679   0.00163   0.00295   0.00517   0.00678

 Mulliken charges and spin densities:
               1          2
     1  Na   0.121992   0.074212
     2  Na  -0.236579   0.029978
     3  Na  -0.410476  -0.048494
     4  Na  -0.159004   0.403339
     5  Na   0.409897   0.024555
     6  Na   0.141835   0.552861
     7  Na   0.132335  -0.036451
 Sum of Mulliken charges =  -0.00000   1.00000

 Dipole moment (field-independent basis, Debye):
    X=              1.1008    Y=              0.2035    Z=              0.0929  Tot=              1.1233
 Quadrupole moment (field-independent basis, Debye-Ang):
   XX=            -76.6131   YY=            -60.3341   ZZ=            -68.5101
   XY=              4.6815   XZ=              0.6479   YZ=              0.8652

 Normal termination of Gaussian 16 at Wed Nov 29 02:07:40 2023.
