 Gaussian 16, Revision B.01,
 Gaussian 16:  ES64L-G16RevB.01 20-Dec-2017

 -------------------------
 #P B3LYP/6-311+g(d) force
 -------------------------

 -----
 DPGEN
 -----
 Symbolic Z-matrix:
 Charge =  0 Multiplicity = 2

                         Standard orientation:
 ---------------------------------------------------------------------
 Center     Atomic      Atomic             Coordinates (Angstroms)
 Number     Number       Type             X           Y           Z
 ---------------------------------------------------------------------
      1         11           0        4.085361    0.649840   -0.201332
      2         11           0        1.857938    3.881653   -0.274202
      3         11           0        3.025666   -2.947382    0.456751
      4         11           0       -3.476777   -1.911543   -0.283166
      5         11           0       -1.316083    3.469274    0.330100
      6         11           0       -0.114056   -3.999850   -0.180959
      7         11           0       -4.062049    0.858008    0.152808
 ---------------------------------------------------------------------

 SCF Done:  E(UB3LYP) =  -1136.10394179     A.U. after   23 cycles

 The electronic state is 2-A.
 Alpha  occ. eigenvalues --  -38.45048 -38.44932 -38.44710 -38.44693 -38.44593
 Alpha  occ. eigenvalues --  -38.44546 -38.44263  -2.20870  -2.20680  -2.20481
 Alpha  occ. eigenvalues --   -2.20476  -2.20385  -2.20364  -2.20052  -1.14649
 Alpha  occ. eigenvalues --   -1.14515  -1.14500  -1.14367  -1.14358  -1.14330
 Alpha  occ. eigenvalues --   -1.14198  -1.14156  -1.14139  -1.14134  -1.14124
 Alpha  occ. eigenvalues --   -1.14068  -1.14032  -1.14019  -1.14019  -1.14006
 Alpha  occ. eigenvalues --   -1.14004  -1.13977  -1.13706  -1.13696  -1.13679
 Alpha  occ. eigenvalues --   -0.15459  -0.13907  -0.13698  -0.11020
 Alpha virt. eigenvalues --   -0.07954  -0.04900  -0.04456  -0.03656  -0.03492
 Alpha virt. eigenvalues --   -0.02397  -0.02287  -0.01885  -0.01765  -0.00772
 Alpha virt. eigenvalues --   -0.00590  -0.00023   0.00050   0.00193   0.00243

  Beta  occ. eigenvalues --  -38.45030 -38.44943 -38.44713 -38.44647 -38.44523
  Beta  occ. eigenvalues --  -38.44500 -38.44202  -2.20842  -2.20707  -2.20487
  Beta  occ. eigenvalues --   -2.20398  -2.20347  -2.20192  -2.19937  -1.14610
  Beta  occ. eigenvalues --   -1.14500  -1.14477  -1.14390  -1.14380  -1.14308
  Beta  occ. eigenvalues --   -1.14176  -1.14164  -1.14124  -1.14085  -1.14073
  Beta  occ. eigenvalues --   -1.14022  -1.14002  -1.13995  -1.13971  -1.13902
  Beta  occ. eigenvalues --   -1.13889  -1.13863  -1.13627  -1.13620  -1.13603
  Beta  occ. eigenvalues --   -0.14967  -0.13150  -0.13028
  Beta virt. eigenvalues --   -0.08058  -0.07837  -0.04385  -0.03932  -0.03499
  Beta virt. eigenvalues --   -0.03175  -0.02187  -0.02111  -0.01781  -0.01665
  Beta virt. eigenvalues --   -0.00342  -0.00263   0.00141   0.00176   0.00278

 Mulliken charges and spin densities:
               1          2
     1  Na  -0.304001   0.477142
     2  Na   0.265521  -0.067178
     3  Na  -0.023127  -0.096300
     4  Na  -0.027169   0.148211
     5  Na  -0.295803   0.208674
     6  Na  -0.092842   0.302540
     7  Na   0.477421   0.026912
 Sum of Mulliken charges =  -0.00000   1.00000

 Dipole moment (field-independent basis, Debye):
    X=             -0.4686    Y=              0.1631    Z=              0.0082  Tot=              0.4963
 Quadrupole moment (field-independent basis, Debye-Ang):
   XX=            -62.6635   YY=            -64.2928   ZZ=            -74.0685
   XY=              0.8691   XZ=             -0.0251   YZ=              0.0553

 Normal termination of Gaussian 16 at Sun Dec  3 18:36:28 2023.
