 Gaussian 16, Revision B.01,
 Gaussian 16:  ES64L-G16RevB.01 20-Dec-2017

 -------------------------
 #P B3LYP/6-311+g(d) force
 -------------------------

 -----
 DPGEN
 -----
 Symbolic Z-matrix:
 Charge =  0 Multiplicity = 2

                         Standard orientation:
 ---------------------------------------------------------------------
 Center     Atomic      Atomic             Coordinates (Angstroms)
 Number     Number       Type             X           Y           Z
 ---------------------------------------------------------------------
      1         11           0        3.637648   -1.249790    1.145042
      2         11           0       -2.349036    0.805438   -0.229239
      3         11           0        3.395565    2.292873    0.347333
      4         11           0        0.885805    3.587031   -0.790852
      5         11           0       -5.847450    0.354618    0.601467
      6         11           0        2.072248   -3.321201   -0.929060
      7         11           0       -1.794779   -2.468970   -0.144690
 ---------------------------------------------------------------------

 SCF Done:  E(UB3LYP) =  -1136.10758634     A.U. after   20 cycles

 The electronic state is 2-A.
 Alpha  occ. eigenvalues --  -38.45008 -38.44958 -38.44623 -38.44618 -38.44262
 Alpha  occ. eigenvalues --  -38.44170 -38.44078  -2.20781  -2.20740  -2.20385
 Alpha  occ. eigenvalues --   -2.20371  -2.20064  -2.19965  -2.19881  -1.14458
 Alpha  occ. eigenvalues --   -1.14450  -1.14383  -1.14382  -1.14382  -1.14338
 Alpha  occ. eigenvalues --   -1.14078  -1.14069  -1.14053  -1.14047  -1.14021
 Alpha  occ. eigenvalues --   -1.14008  -1.13798  -1.13732  -1.13719  -1.13625
 Alpha  occ. eigenvalues --   -1.13615  -1.13588  -1.13531  -1.13517  -1.13501
 Alpha  occ. eigenvalues --   -0.15525  -0.13915  -0.12726  -0.10956
 Alpha virt. eigenvalues --   -0.06875  -0.06413  -0.03941  -0.03404  -0.03139
 Alpha virt. eigenvalues --   -0.02833  -0.01945  -0.01864  -0.01249  -0.01006
 Alpha virt. eigenvalues --   -0.00664  -0.00339  -0.00005   0.00175   0.00453

  Beta  occ. eigenvalues --  -38.44959 -38.44848 -38.44643 -38.44629 -38.44265
  Beta  occ. eigenvalues --  -38.44127 -38.44057  -2.20690  -2.20534  -2.20410
  Beta  occ. eigenvalues --   -2.20409  -2.20072  -2.19884  -2.19842  -1.14399
  Beta  occ. eigenvalues --   -1.14387  -1.14322  -1.14242  -1.14241  -1.14205
  Beta  occ. eigenvalues --   -1.14098  -1.14082  -1.14074  -1.14074  -1.14033
  Beta  occ. eigenvalues --   -1.14006  -1.13790  -1.13740  -1.13718  -1.13570
  Beta  occ. eigenvalues --   -1.13562  -1.13539  -1.13503  -1.13489  -1.13481
  Beta  occ. eigenvalues --   -0.15105  -0.13306  -0.12569
  Beta virt. eigenvalues --   -0.07629  -0.06462  -0.05774  -0.03779  -0.03153
  Beta virt. eigenvalues --   -0.02905  -0.02527  -0.01662  -0.01594  -0.01106
  Beta virt. eigenvalues --   -0.00694  -0.00323  -0.00042   0.00158   0.00379

 Mulliken charges and spin densities:
               1          2
     1  Na  -0.030625   0.202347
     2  Na  -0.608215   0.066833
     3  Na  -0.295023   0.005904
     4  Na   0.638652   0.049125
     5  Na   0.271697   0.516850
     6  Na   0.064826  -0.195171
     7  Na  -0.041312   0.354113
 Sum of Mulliken charges =  -0.00000   1.00000

 Dipole moment (field-independent basis, Debye):
    X=             -0.5576    Y=             -0.6411    Z=             -0.1122  Tot=              0.8570
 Quadrupole moment (field-independent basis, Debye-Ang):
   XX=            -64.3200   YY=            -65.2864   ZZ=            -70.5735
   XY=              1.8431   XZ=              0.0867   YZ=              0.5249

 Normal termination of Gaussian 16 at Sun Dec  3 16:47:59 2023.
