 Gaussian 16, Revision B.01,
 Gaussian 16:  ES64L-G16RevB.01 20-Dec-2017

 -------------------------
 #P B3LYP/6-311+g(d) force
 -------------------------

 -----
 DPGEN
 -----
 Symbolic Z-matrix:
 Charge =  0 Multiplicity = 2

                         Standard orientation:
 ---------------------------------------------------------------------
 Center     Atomic      Atomic             Coordinates (Angstroms)
 Number     Number       Type             X           Y           Z
 ---------------------------------------------------------------------
      1         11           0        1.999878   -1.943322   -0.003068
      2         11           0       -0.045625   -0.062778   -1.524228
      3         11           0       -1.243819   -2.521117   -0.033520
      4         11           0       -3.002475    0.536211   -0.114750
      5         11           0       -0.066526    2.918474   -0.115064
      6         11           0       -0.306293    0.103093    1.759946
      7         11           0        2.664860    0.969439    0.030685
 ---------------------------------------------------------------------

 SCF Done:  E(UB3LYP) =  -1136.13494760     A.U. after   19 cycles

 The electronic state is 2-A.
 Alpha  occ. eigenvalues --  -38.43950 -38.43540 -38.43498 -38.43434 -38.43341
 Alpha  occ. eigenvalues --  -38.42943 -38.42762  -2.19814  -2.19474  -2.19375
 Alpha  occ. eigenvalues --   -2.19359  -2.19293  -2.18957  -2.18866  -1.13495
 Alpha  occ. eigenvalues --   -1.13490  -1.13439  -1.13249  -1.13150  -1.13118
 Alpha  occ. eigenvalues --   -1.13098  -1.13054  -1.13042  -1.13028  -1.13000
 Alpha  occ. eigenvalues --   -1.12993  -1.12955  -1.12922  -1.12890  -1.12666
 Alpha  occ. eigenvalues --   -1.12570  -1.12569  -1.12531  -1.12484  -1.12477
 Alpha  occ. eigenvalues --   -0.19574  -0.13247  -0.12896  -0.10597
 Alpha virt. eigenvalues --   -0.05518  -0.04941  -0.04759  -0.03047  -0.02833
 Alpha virt. eigenvalues --   -0.02115  -0.01413  -0.01149  -0.00158  -0.00055
 Alpha virt. eigenvalues --    0.00048   0.00367   0.00871   0.00933   0.00963

  Beta  occ. eigenvalues --  -38.43944 -38.43534 -38.43493 -38.43426 -38.43333
  Beta  occ. eigenvalues --  -38.42859 -38.42692  -2.19807  -2.19466  -2.19368
  Beta  occ. eigenvalues --   -2.19348  -2.19285  -2.18803  -2.18739  -1.13493
  Beta  occ. eigenvalues --   -1.13455  -1.13439  -1.13249  -1.13148  -1.13090
  Beta  occ. eigenvalues --   -1.13081  -1.13048  -1.13011  -1.13000  -1.12993
  Beta  occ. eigenvalues --   -1.12981  -1.12946  -1.12890  -1.12885  -1.12569
  Beta  occ. eigenvalues --   -1.12460  -1.12458  -1.12438  -1.12392  -1.12385
  Beta  occ. eigenvalues --   -0.18835  -0.12966  -0.12614
  Beta virt. eigenvalues --   -0.06638  -0.05512  -0.04934  -0.04759  -0.02211
  Beta virt. eigenvalues --   -0.02017  -0.01340  -0.01100  -0.01064  -0.00213
  Beta virt. eigenvalues --   -0.00110   0.00176   0.00398   0.00890   0.00941

 Mulliken charges and spin densities:
               1          2
     1  Na   0.303555   0.026310
     2  Na  -0.705680   0.502980
     3  Na   0.393487  -0.029982
     4  Na   0.177560  -0.122816
     5  Na   0.173431  -0.093234
     6  Na  -0.568665   0.713206
     7  Na   0.226312   0.003537
 Sum of Mulliken charges =  -0.00000   1.00000

 Dipole moment (field-independent basis, Debye):
    X=             -0.3791    Y=              0.1863    Z=              0.1167  Tot=              0.4382
 Quadrupole moment (field-independent basis, Debye-Ang):
   XX=            -56.9888   YY=            -59.9511   ZZ=            -75.4785
   XY=             -0.1368   XZ=              0.6294   YZ=             -0.3924

 Normal termination of Gaussian 16 at Tue Dec  5 16:15:44 2023.
