 Gaussian 16, Revision B.01,
 Gaussian 16:  ES64L-G16RevB.01 20-Dec-2017

 -------------------------
 #P B3LYP/6-311+g(d) force
 -------------------------

 -----
 DPGEN
 -----
 Symbolic Z-matrix:
 Charge =  0 Multiplicity = 2

                         Standard orientation:
 ---------------------------------------------------------------------
 Center     Atomic      Atomic             Coordinates (Angstroms)
 Number     Number       Type             X           Y           Z
 ---------------------------------------------------------------------
      1         11           0        3.206004   -1.213937    0.824924
      2         11           0        0.538895   -1.988117   -1.232082
      3         11           0        3.362290    2.002096   -0.171273
      4         11           0       -0.052100    1.813967   -0.893024
      5         11           0       -2.427272   -1.115102   -1.320605
      6         11           0       -0.990044   -0.965973    2.077256
      7         11           0       -3.637774    1.467067    0.714805
 ---------------------------------------------------------------------

 SCF Done:  E(UB3LYP) =  -1136.12116272     A.U. after   23 cycles

 The electronic state is 2-A.
 Alpha  occ. eigenvalues --  -38.45011 -38.44735 -38.44472 -38.44230 -38.44226
 Alpha  occ. eigenvalues --  -38.43693 -38.42918  -2.20802  -2.20532  -2.20257
 Alpha  occ. eigenvalues --   -2.20118  -2.20018  -2.19485  -2.18796  -1.14485
 Alpha  occ. eigenvalues --   -1.14449  -1.14402  -1.14211  -1.14183  -1.14165
 Alpha  occ. eigenvalues --   -1.13938  -1.13910  -1.13894  -1.13816  -1.13766
 Alpha  occ. eigenvalues --   -1.13734  -1.13712  -1.13693  -1.13621  -1.13153
 Alpha  occ. eigenvalues --   -1.13146  -1.13138  -1.12487  -1.12450  -1.12427
 Alpha  occ. eigenvalues --   -0.17718  -0.13780  -0.11507  -0.11087
 Alpha virt. eigenvalues --   -0.06868  -0.05841  -0.04397  -0.03313  -0.02722
 Alpha virt. eigenvalues --   -0.02704  -0.02330  -0.01474  -0.00754  -0.00447
 Alpha virt. eigenvalues --   -0.00025   0.00161   0.00219   0.00376   0.00632

  Beta  occ. eigenvalues --  -38.44943 -38.44716 -38.44460 -38.44192 -38.44192
  Beta  occ. eigenvalues --  -38.43698 -38.42894  -2.20674  -2.20496  -2.20235
  Beta  occ. eigenvalues --   -2.20052  -2.19956  -2.19497  -2.18757  -1.14398
  Beta  occ. eigenvalues --   -1.14364  -1.14305  -1.14184  -1.14159  -1.14142
  Beta  occ. eigenvalues --   -1.13924  -1.13884  -1.13879  -1.13762  -1.13713
  Beta  occ. eigenvalues --   -1.13683  -1.13668  -1.13640  -1.13581  -1.13160
  Beta  occ. eigenvalues --   -1.13150  -1.13143  -1.12452  -1.12425  -1.12381
  Beta  occ. eigenvalues --   -0.17038  -0.13601  -0.11218
  Beta virt. eigenvalues --   -0.07448  -0.06466  -0.05745  -0.03941  -0.03018
  Beta virt. eigenvalues --   -0.02287  -0.02253  -0.01823  -0.01266  -0.00504
  Beta virt. eigenvalues --   -0.00350   0.00051   0.00204   0.00348   0.00543

 Mulliken charges and spin densities:
               1          2
     1  Na   0.190477   0.271513
     2  Na  -0.135619   0.028073
     3  Na   0.156336  -0.152356
     4  Na  -0.752136   0.224613
     5  Na   0.368443   0.151302
     6  Na  -0.321077   0.360395
     7  Na   0.493576   0.116459
 Sum of Mulliken charges =  -0.00000   1.00000

 Dipole moment (field-independent basis, Debye):
    X=             -0.4603    Y=             -0.1826    Z=              0.4574  Tot=              0.6741
 Quadrupole moment (field-independent basis, Debye-Ang):
   XX=            -52.2460   YY=            -74.0955   ZZ=            -70.4713
   XY=             -2.2733   XZ=              2.0640   YZ=              0.3270

 Normal termination of Gaussian 16 at Sun Dec  3 12:12:01 2023.
