 Gaussian 16, Revision B.01,
 Gaussian 16:  ES64L-G16RevB.01 20-Dec-2017

 -------------------------
 #P B3LYP/6-311+g(d) force
 -------------------------

 -----
 DPGEN
 -----
 Symbolic Z-matrix:
 Charge =  0 Multiplicity = 2

                         Standard orientation:
 ---------------------------------------------------------------------
 Center     Atomic      Atomic             Coordinates (Angstroms)
 Number     Number       Type             X           Y           Z
 ---------------------------------------------------------------------
      1         11           0        2.413637   -2.134363   -0.817396
      2         11           0       -1.397193   -1.716458    1.171911
      3         11           0       -0.982373    1.646459    1.020736
      4         11           0       -3.474599    0.113141   -0.931517
      5         11           0        0.000542   -0.298306   -1.571268
      6         11           0        1.962573    2.542981   -0.594854
      7         11           0        1.477412   -0.153454    1.722388
 ---------------------------------------------------------------------

 SCF Done:  E(UB3LYP) =  -1136.13283232     A.U. after   20 cycles

 The electronic state is 2-A.
 Alpha  occ. eigenvalues --  -38.44100 -38.43828 -38.43565 -38.43456 -38.43362
 Alpha  occ. eigenvalues --  -38.43277 -38.43034  -2.19929  -2.19729  -2.19533
 Alpha  occ. eigenvalues --   -2.19440  -2.19207  -2.19097  -2.18990  -1.13594
 Alpha  occ. eigenvalues --   -1.13585  -1.13564  -1.13456  -1.13388  -1.13326
 Alpha  occ. eigenvalues --   -1.13258  -1.13180  -1.13133  -1.13130  -1.13116
 Alpha  occ. eigenvalues --   -1.13063  -1.12872  -1.12849  -1.12821  -1.12770
 Alpha  occ. eigenvalues --   -1.12748  -1.12738  -1.12708  -1.12655  -1.12562
 Alpha  occ. eigenvalues --   -0.18952  -0.13169  -0.11683  -0.11675
 Alpha virt. eigenvalues --   -0.05589  -0.04936  -0.04308  -0.03170  -0.02870
 Alpha virt. eigenvalues --   -0.02800  -0.01642  -0.00996  -0.00659   0.00293
 Alpha virt. eigenvalues --    0.00315   0.00413   0.00579   0.00763   0.00855

  Beta  occ. eigenvalues --  -38.44082 -38.43789 -38.43509 -38.43400 -38.43350
  Beta  occ. eigenvalues --  -38.43268 -38.43010  -2.19896  -2.19663  -2.19433
  Beta  occ. eigenvalues --   -2.19338  -2.19186  -2.19082  -2.18951  -1.13564
  Beta  occ. eigenvalues --   -1.13561  -1.13547  -1.13403  -1.13318  -1.13285
  Beta  occ. eigenvalues --   -1.13185  -1.13104  -1.13063  -1.13055  -1.13046
  Beta  occ. eigenvalues --   -1.12988  -1.12845  -1.12828  -1.12806  -1.12751
  Beta  occ. eigenvalues --   -1.12737  -1.12727  -1.12677  -1.12593  -1.12544
  Beta  occ. eigenvalues --   -0.18133  -0.12954  -0.11492
  Beta virt. eigenvalues --   -0.07610  -0.05428  -0.04804  -0.03930  -0.02875
  Beta virt. eigenvalues --   -0.02288  -0.01842  -0.01523  -0.00895  -0.00315
  Beta virt. eigenvalues --    0.00308   0.00343   0.00475   0.00693   0.00825

 Mulliken charges and spin densities:
               1          2
     1  Na  -0.075670  -0.047691
     2  Na   0.005586   0.110687
     3  Na  -0.096000   0.209726
     4  Na   0.368188  -0.049745
     5  Na  -0.429188   0.649158
     6  Na  -0.081737  -0.089490
     7  Na   0.308820   0.217355
 Sum of Mulliken charges =  -0.00000   1.00000

 Dipole moment (field-independent basis, Debye):
    X=             -0.4044    Y=             -0.0924    Z=             -0.1384  Tot=              0.4373
 Quadrupole moment (field-independent basis, Debye-Ang):
   XX=            -55.2104   YY=            -70.0880   ZZ=            -67.4788
   XY=              0.3109   XZ=              0.4761   YZ=             -2.1771

 Normal termination of Gaussian 16 at Tue Dec  5 12:11:48 2023.
