 Gaussian 16, Revision B.01,
 Gaussian 16:  ES64L-G16RevB.01 20-Dec-2017

 -------------------------
 #P B3LYP/6-311+g(d) force
 -------------------------

 -----
 DPGEN
 -----
 Symbolic Z-matrix:
 Charge =  0 Multiplicity = 2

                         Standard orientation:
 ---------------------------------------------------------------------
 Center     Atomic      Atomic             Coordinates (Angstroms)
 Number     Number       Type             X           Y           Z
 ---------------------------------------------------------------------
      1         11           0        1.988768   -1.783728   -0.795481
      2         11           0       -0.200569    0.538472   -0.925769
      3         11           0       -1.401445   -2.384730    0.093111
      4         11           0        2.665049    1.574630   -0.983166
      5         11           0        1.236174   -0.743891    2.210168
      6         11           0       -0.806747    2.535552    1.051163
      7         11           0       -3.481230    0.263695   -0.650026
 ---------------------------------------------------------------------

 SCF Done:  E(UB3LYP) =  -1136.12829052     A.U. after   23 cycles

 The electronic state is 2-A.
 Alpha  occ. eigenvalues --  -38.44096 -38.44066 -38.43935 -38.43811 -38.43458
 Alpha  occ. eigenvalues --  -38.43242 -38.42695  -2.19957  -2.19884  -2.19792
 Alpha  occ. eigenvalues --   -2.19661  -2.19372  -2.19094  -2.18822  -1.13611
 Alpha  occ. eigenvalues --   -1.13608  -1.13565  -1.13563  -1.13538  -1.13516
 Alpha  occ. eigenvalues --   -1.13509  -1.13442  -1.13427  -1.13408  -1.13295
 Alpha  occ. eigenvalues --   -1.13248  -1.13083  -1.13036  -1.12977  -1.12798
 Alpha  occ. eigenvalues --   -1.12767  -1.12706  -1.12522  -1.12463  -1.12437
 Alpha  occ. eigenvalues --   -0.18587  -0.13205  -0.12114  -0.11109
 Alpha virt. eigenvalues --   -0.05674  -0.05012  -0.04366  -0.03281  -0.02908
 Alpha virt. eigenvalues --   -0.02598  -0.01640  -0.00966  -0.00515   0.00045
 Alpha virt. eigenvalues --    0.00124   0.00338   0.00686   0.00826   0.00847

  Beta  occ. eigenvalues --  -38.44060 -38.44006 -38.43906 -38.43784 -38.43442
  Beta  occ. eigenvalues --  -38.43239 -38.42671  -2.19872  -2.19789  -2.19742
  Beta  occ. eigenvalues --   -2.19612  -2.19346  -2.19092  -2.18784  -1.13553
  Beta  occ. eigenvalues --   -1.13532  -1.13506  -1.13501  -1.13491  -1.13471
  Beta  occ. eigenvalues --   -1.13443  -1.13411  -1.13397  -1.13362  -1.13248
  Beta  occ. eigenvalues --   -1.13217  -1.13064  -1.13009  -1.12943  -1.12797
  Beta  occ. eigenvalues --   -1.12756  -1.12698  -1.12458  -1.12445  -1.12411
  Beta  occ. eigenvalues --   -0.17904  -0.12898  -0.11911
  Beta virt. eigenvalues --   -0.07231  -0.05423  -0.04960  -0.04173  -0.02772
  Beta virt. eigenvalues --   -0.02327  -0.01687  -0.01420  -0.00951  -0.00215
  Beta virt. eigenvalues --    0.00091   0.00156   0.00391   0.00841   0.00880

 Mulliken charges and spin densities:
               1          2
     1  Na   0.218428   0.064690
     2  Na  -0.826316   0.100699
     3  Na  -0.158754   0.115053
     4  Na   0.405534  -0.007738
     5  Na  -0.314402   0.504423
     6  Na  -0.469353   0.200829
     7  Na   1.144862   0.022043
 Sum of Mulliken charges =  -0.00000   1.00000

 Dipole moment (field-independent basis, Debye):
    X=             -0.0034    Y=              0.0734    Z=              0.3638  Tot=              0.3712
 Quadrupole moment (field-independent basis, Debye-Ang):
   XX=            -55.2461   YY=            -66.8133   ZZ=            -70.0464
   XY=              0.0245   XZ=             -0.5129   YZ=              1.3351

 Normal termination of Gaussian 16 at Fri Dec  8 00:45:32 2023.
