 Gaussian 16, Revision B.01,
 Gaussian 16:  ES64L-G16RevB.01 20-Dec-2017

 -------------------------
 #P B3LYP/6-311+g(d) force
 -------------------------

 -----
 DPGEN
 -----
 Symbolic Z-matrix:
 Charge =  0 Multiplicity = 2

                         Standard orientation:
 ---------------------------------------------------------------------
 Center     Atomic      Atomic             Coordinates (Angstroms)
 Number     Number       Type             X           Y           Z
 ---------------------------------------------------------------------
      1         11           0        0.803442   -1.605507    1.853125
      2         11           0        3.664308   -0.379084    0.187592
      3         11           0       -4.286833    0.506867    0.110120
      4         11           0       -1.781169    2.220120    0.400583
      5         11           0        1.111105   -0.849700   -1.312634
      6         11           0       -1.642552   -2.522788   -0.823604
      7         11           0        2.131700    2.630092   -0.415181
 ---------------------------------------------------------------------

 SCF Done:  E(UB3LYP) =  -1136.11454863     A.U. after   23 cycles

 The electronic state is 2-A.
 Alpha  occ. eigenvalues --  -38.44843 -38.44578 -38.44371 -38.44006 -38.43901
 Alpha  occ. eigenvalues --  -38.43783 -38.43579  -2.20722  -2.20381  -2.20207
 Alpha  occ. eigenvalues --   -2.19797  -2.19732  -2.19698  -2.19400  -1.14459
 Alpha  occ. eigenvalues --   -1.14367  -1.14326  -1.14081  -1.14031  -1.14009
 Alpha  occ. eigenvalues --   -1.13894  -1.13858  -1.13817  -1.13473  -1.13456
 Alpha  occ. eigenvalues --   -1.13438  -1.13437  -1.13410  -1.13366  -1.13358
 Alpha  occ. eigenvalues --   -1.13339  -1.13318  -1.13069  -1.13038  -1.13026
 Alpha  occ. eigenvalues --   -0.17551  -0.13781  -0.12286  -0.10245
 Alpha virt. eigenvalues --   -0.07133  -0.05784  -0.04015  -0.03450  -0.03060
 Alpha virt. eigenvalues --   -0.02404  -0.01888  -0.01695  -0.01137  -0.00280
 Alpha virt. eigenvalues --   -0.00203  -0.00011   0.00190   0.00536   0.00682

  Beta  occ. eigenvalues --  -38.44821 -38.44557 -38.44319 -38.44003 -38.43877
  Beta  occ. eigenvalues --  -38.43752 -38.43540  -2.20683  -2.20343  -2.20114
  Beta  occ. eigenvalues --   -2.19796  -2.19678  -2.19655  -2.19329  -1.14439
  Beta  occ. eigenvalues --   -1.14341  -1.14270  -1.14054  -1.14004  -1.13981
  Beta  occ. eigenvalues --   -1.13834  -1.13797  -1.13734  -1.13474  -1.13459
  Beta  occ. eigenvalues --   -1.13417  -1.13394  -1.13356  -1.13333  -1.13325
  Beta  occ. eigenvalues --   -1.13311  -1.13281  -1.13009  -1.12994  -1.12981
  Beta  occ. eigenvalues --   -0.17012  -0.13424  -0.11883
  Beta virt. eigenvalues --   -0.07063  -0.06652  -0.05618  -0.03750  -0.03038
  Beta virt. eigenvalues --   -0.02697  -0.02144  -0.01555  -0.01230  -0.00999
  Beta virt. eigenvalues --   -0.00118  -0.00049   0.00142   0.00375   0.00580

 Mulliken charges and spin densities:
               1          2
     1  Na  -0.295811   0.293576
     2  Na   1.090485   0.210892
     3  Na   0.191352   0.098239
     4  Na  -0.333687   0.011740
     5  Na  -0.437607   0.283767
     6  Na  -0.109463   0.085022
     7  Na  -0.105268   0.016764
 Sum of Mulliken charges =  -0.00000   1.00000

 Dipole moment (field-independent basis, Debye):
    X=              0.1832    Y=             -0.3679    Z=              0.2417  Tot=              0.4768
 Quadrupole moment (field-independent basis, Debye-Ang):
   XX=            -54.0309   YY=            -71.5778   ZZ=            -72.7068
   XY=              5.9264   XZ=             -0.5533   YZ=              0.9283

 Normal termination of Gaussian 16 at Mon Dec  4 04:39:17 2023.
