 Gaussian 16, Revision B.01,
 Gaussian 16:  ES64L-G16RevB.01 20-Dec-2017

 -------------------------
 #P B3LYP/6-311+g(d) force
 -------------------------

 -----
 DPGEN
 -----
 Symbolic Z-matrix:
 Charge =  0 Multiplicity = 2

                         Standard orientation:
 ---------------------------------------------------------------------
 Center     Atomic      Atomic             Coordinates (Angstroms)
 Number     Number       Type             X           Y           Z
 ---------------------------------------------------------------------
      1         11           0       -3.256539   -2.627301   -0.489148
      2         11           0       -1.994672    3.417110    0.005713
      3         11           0       -4.326614    0.085454    0.785216
      4         11           0        0.634623   -2.988277   -0.543450
      5         11           0        3.978955    1.181852    0.106190
      6         11           0        1.287113    3.180010   -0.518815
      7         11           0        3.677133   -2.248847    0.654294
 ---------------------------------------------------------------------

 SCF Done:  E(UB3LYP) =  -1136.10756248     A.U. after   23 cycles

 The electronic state is 2-A.
 Alpha  occ. eigenvalues --  -38.45339 -38.44887 -38.44738 -38.44617 -38.44300
 Alpha  occ. eigenvalues --  -38.44024 -38.43945  -2.21115  -2.20666  -2.20515
 Alpha  occ. eigenvalues --   -2.20405  -2.20082  -2.19840  -2.19737  -1.14782
 Alpha  occ. eigenvalues --   -1.14778  -1.14755  -1.14343  -1.14340  -1.14325
 Alpha  occ. eigenvalues --   -1.14178  -1.14169  -1.14126  -1.14068  -1.14063
 Alpha  occ. eigenvalues --   -1.14049  -1.13763  -1.13760  -1.13748  -1.13490
 Alpha  occ. eigenvalues --   -1.13482  -1.13462  -1.13388  -1.13379  -1.13366
 Alpha  occ. eigenvalues --   -0.15525  -0.14062  -0.13375  -0.10779
 Alpha virt. eigenvalues --   -0.07911  -0.04815  -0.04509  -0.03650  -0.03466
 Alpha virt. eigenvalues --   -0.02376  -0.02190  -0.01863  -0.01313  -0.01043
 Alpha virt. eigenvalues --   -0.00689  -0.00035   0.00128   0.00234   0.00637

  Beta  occ. eigenvalues --  -38.45311 -38.44893 -38.44682 -38.44603 -38.44300
  Beta  occ. eigenvalues --  -38.43950 -38.43883  -2.21069  -2.20681  -2.20413
  Beta  occ. eigenvalues --   -2.20383  -2.20089  -2.19702  -2.19623  -1.14749
  Beta  occ. eigenvalues --   -1.14747  -1.14709  -1.14356  -1.14348  -1.14306
  Beta  occ. eigenvalues --   -1.14108  -1.14101  -1.14061  -1.14055  -1.14048
  Beta  occ. eigenvalues --   -1.14017  -1.13775  -1.13772  -1.13701  -1.13395
  Beta  occ. eigenvalues --   -1.13391  -1.13374  -1.13311  -1.13304  -1.13288
  Beta  occ. eigenvalues --   -0.14982  -0.13421  -0.12600
  Beta virt. eigenvalues --   -0.08012  -0.07644  -0.04435  -0.03953  -0.03475
  Beta virt. eigenvalues --   -0.03140  -0.02151  -0.02047  -0.01675  -0.01145
  Beta virt. eigenvalues --   -0.00741  -0.00370   0.00100   0.00204   0.00307

 Mulliken charges and spin densities:
               1          2
     1  Na   0.102686   0.089969
     2  Na   0.056827   0.254308
     3  Na  -0.110756   0.120591
     4  Na  -0.795567   0.287598
     5  Na  -0.356019   0.335663
     6  Na   0.331780  -0.009466
     7  Na   0.771050  -0.078664
 Sum of Mulliken charges =  -0.00000   1.00000

 Dipole moment (field-independent basis, Debye):
    X=             -0.5286    Y=             -0.9297    Z=              0.2377  Tot=              1.0956
 Quadrupole moment (field-independent basis, Debye-Ang):
   XX=            -58.2887   YY=            -70.3412   ZZ=            -71.4525
   XY=             -4.0641   XZ=              0.1617   YZ=              1.2966

 Normal termination of Gaussian 16 at Sun Dec  3 17:45:26 2023.
