 Gaussian 16, Revision B.01,
 Gaussian 16:  ES64L-G16RevB.01 20-Dec-2017

 -------------------------
 #P B3LYP/6-311+g(d) force
 -------------------------

 -----
 DPGEN
 -----
 Symbolic Z-matrix:
 Charge =  0 Multiplicity = 2

                         Standard orientation:
 ---------------------------------------------------------------------
 Center     Atomic      Atomic             Coordinates (Angstroms)
 Number     Number       Type             X           Y           Z
 ---------------------------------------------------------------------
      1         11           0        1.090513   -2.754900    0.097672
      2         11           0       -0.188276   -0.105105    2.164095
      3         11           0        0.279359    0.179938   -1.526417
      4         11           0        3.331724    0.050274   -0.210185
      5         11           0       -2.746874    1.545396   -0.092321
      6         11           0       -2.533006   -1.873109   -0.456375
      7         11           0        0.766561    2.957506    0.023530
 ---------------------------------------------------------------------

 SCF Done:  E(UB3LYP) =  -1136.13780447     A.U. after   19 cycles

 The electronic state is 2-A.
 Alpha  occ. eigenvalues --  -38.44303 -38.43969 -38.43732 -38.43629 -38.43569
 Alpha  occ. eigenvalues --  -38.43475 -38.43171  -2.20109  -2.19783  -2.19547
 Alpha  occ. eigenvalues --   -2.19486  -2.19391  -2.19306  -2.19137  -1.13794
 Alpha  occ. eigenvalues --   -1.13764  -1.13742  -1.13460  -1.13452  -1.13423
 Alpha  occ. eigenvalues --   -1.13220  -1.13202  -1.13187  -1.13148  -1.13109
 Alpha  occ. eigenvalues --   -1.13108  -1.13101  -1.13052  -1.13012  -1.12990
 Alpha  occ. eigenvalues --   -1.12976  -1.12933  -1.12824  -1.12769  -1.12758
 Alpha  occ. eigenvalues --   -0.18275  -0.12933  -0.12343  -0.10589
 Alpha virt. eigenvalues --   -0.05797  -0.05249  -0.04837  -0.03058  -0.02856
 Alpha virt. eigenvalues --   -0.02522  -0.01683  -0.01192  -0.00574  -0.00527
 Alpha virt. eigenvalues --   -0.00029   0.00331   0.00762   0.00824   0.00861

  Beta  occ. eigenvalues --  -38.44300 -38.43965 -38.43722 -38.43566 -38.43523
  Beta  occ. eigenvalues --  -38.43470 -38.43123  -2.20104  -2.19780  -2.19530
  Beta  occ. eigenvalues --   -2.19389  -2.19300  -2.19290  -2.19049  -1.13781
  Beta  occ. eigenvalues --   -1.13756  -1.13742  -1.13453  -1.13440  -1.13418
  Beta  occ. eigenvalues --   -1.13198  -1.13189  -1.13173  -1.13097  -1.13040
  Beta  occ. eigenvalues --   -1.13021  -1.13012  -1.12987  -1.12974  -1.12966
  Beta  occ. eigenvalues --   -1.12940  -1.12932  -1.12760  -1.12710  -1.12692
  Beta  occ. eigenvalues --   -0.17577  -0.12703  -0.12135
  Beta virt. eigenvalues --   -0.06681  -0.05758  -0.05243  -0.04753  -0.02341
  Beta virt. eigenvalues --   -0.02091  -0.01593  -0.01461  -0.01119  -0.00621
  Beta virt. eigenvalues --   -0.00561   0.00131   0.00373   0.00818   0.00837

 Mulliken charges and spin densities:
               1          2
     1  Na   0.147584  -0.002974
     2  Na  -0.470838   0.773615
     3  Na  -0.171815   0.334573
     4  Na   0.186921  -0.051204
     5  Na   0.151332  -0.012491
     6  Na   0.069421   0.022862
     7  Na   0.087397  -0.064380
 Sum of Mulliken charges =  -0.00000   1.00000

 Dipole moment (field-independent basis, Debye):
    X=              0.1851    Y=              0.1035    Z=              0.1102  Tot=              0.2390
 Quadrupole moment (field-independent basis, Debye-Ang):
   XX=            -55.5092   YY=            -61.9737   ZZ=            -75.3822
   XY=             -0.1169   XZ=              0.8632   YZ=              0.8094

 Normal termination of Gaussian 16 at Fri Dec  8 03:14:46 2023.
