 Gaussian 16, Revision B.01,
 Gaussian 16:  ES64L-G16RevB.01 20-Dec-2017

 -------------------------
 #P B3LYP/6-311+g(d) force
 -------------------------

 -----
 DPGEN
 -----
 Symbolic Z-matrix:
 Charge =  0 Multiplicity = 2

                         Standard orientation:
 ---------------------------------------------------------------------
 Center     Atomic      Atomic             Coordinates (Angstroms)
 Number     Number       Type             X           Y           Z
 ---------------------------------------------------------------------
      1         11           0       -4.315355   -0.438851   -0.057830
      2         11           0       -0.382596   -1.388720   -1.440666
      3         11           0        1.541242    1.386398    1.434949
      4         11           0        1.509866    1.494831   -1.314199
      5         11           0       -1.697889    1.717846    0.080491
      6         11           0       -0.020024   -1.602250    1.552942
      7         11           0        3.364756   -1.169254   -0.255687
 ---------------------------------------------------------------------

 SCF Done:  E(UB3LYP) =  -1136.11521124     A.U. after   26 cycles

 The electronic state is 2-A.
 Alpha  occ. eigenvalues --  -38.45800 -38.45041 -38.44145 -38.43613 -38.43274
 Alpha  occ. eigenvalues --  -38.43148 -38.43027  -2.21539  -2.20845  -2.20016
 Alpha  occ. eigenvalues --   -2.19499  -2.19261  -2.19126  -2.18886  -1.15214
 Alpha  occ. eigenvalues --   -1.15209  -1.15163  -1.14517  -1.14516  -1.14464
 Alpha  occ. eigenvalues --   -1.13772  -1.13692  -1.13588  -1.13210  -1.13193
 Alpha  occ. eigenvalues --   -1.13153  -1.13080  -1.12907  -1.12845  -1.12773
 Alpha  occ. eigenvalues --   -1.12709  -1.12652  -1.12586  -1.12572  -1.12491
 Alpha  occ. eigenvalues --   -0.18733  -0.13528  -0.11211  -0.11146
 Alpha virt. eigenvalues --   -0.07622  -0.04697  -0.03677  -0.03214  -0.02943
 Alpha virt. eigenvalues --   -0.02671  -0.02390  -0.01397  -0.00603  -0.00029
 Alpha virt. eigenvalues --    0.00009   0.00233   0.00251   0.00776   0.00936

  Beta  occ. eigenvalues --  -38.45806 -38.45029 -38.44113 -38.43556 -38.43228
  Beta  occ. eigenvalues --  -38.43109 -38.43019  -2.21550  -2.20825  -2.19959
  Beta  occ. eigenvalues --   -2.19395  -2.19180  -2.19056  -2.18875  -1.15223
  Beta  occ. eigenvalues --   -1.15214  -1.15170  -1.14509  -1.14477  -1.14454
  Beta  occ. eigenvalues --   -1.13730  -1.13639  -1.13546  -1.13155  -1.13128
  Beta  occ. eigenvalues --   -1.13058  -1.13012  -1.12840  -1.12787  -1.12721
  Beta  occ. eigenvalues --   -1.12659  -1.12588  -1.12577  -1.12542  -1.12485
  Beta  occ. eigenvalues --   -0.17916  -0.13423  -0.11064
  Beta virt. eigenvalues --   -0.07490  -0.06996  -0.04709  -0.03096  -0.03085
  Beta virt. eigenvalues --   -0.02757  -0.02106  -0.01471  -0.01235  -0.00281
  Beta virt. eigenvalues --   -0.00025   0.00025   0.00239   0.00405   0.00812

 Mulliken charges and spin densities:
               1          2
     1  Na   0.269634  -0.046319
     2  Na  -0.248668   0.202100
     3  Na   0.071855   0.256566
     4  Na   0.180727   0.453299
     5  Na  -0.338785  -0.063861
     6  Na  -0.185966   0.248379
     7  Na   0.251202  -0.050164
 Sum of Mulliken charges =  -0.00000   1.00000

 Dipole moment (field-independent basis, Debye):
    X=             -0.7386    Y=             -0.7412    Z=             -0.0106  Tot=              1.0464
 Quadrupole moment (field-independent basis, Debye-Ang):
   XX=            -42.0318   YY=            -77.8564   ZZ=            -70.4370
   XY=              0.3228   XZ=             -0.2713   YZ=              0.2394

 Normal termination of Gaussian 16 at Tue Dec  5 17:18:46 2023.
