 Gaussian 16, Revision B.01,
 Gaussian 16:  ES64L-G16RevB.01 20-Dec-2017

 -------------------------
 #P B3LYP/6-311+g(d) force
 -------------------------

 -----
 DPGEN
 -----
 Symbolic Z-matrix:
 Charge =  0 Multiplicity = 2

                         Standard orientation:
 ---------------------------------------------------------------------
 Center     Atomic      Atomic             Coordinates (Angstroms)
 Number     Number       Type             X           Y           Z
 ---------------------------------------------------------------------
      1         11           0        0.109509   -0.135551   -0.859980
      2         11           0        0.596916   -2.617906    0.979582
      3         11           0       -3.101290    1.308260   -0.368696
      4         11           0        3.195960   -1.383142   -0.211831
      5         11           0       -3.045474   -2.027952   -0.184412
      6         11           0       -0.468188    2.921888    1.027782
      7         11           0        2.712566    1.934402   -0.382445
 ---------------------------------------------------------------------

 SCF Done:  E(UB3LYP) =  -1136.12533092     A.U. after   22 cycles

 The electronic state is 2-A.
 Alpha  occ. eigenvalues --  -38.44475 -38.44402 -38.44188 -38.43774 -38.43500
 Alpha  occ. eigenvalues --  -38.43280 -38.43213  -2.20313  -2.20286  -2.20133
 Alpha  occ. eigenvalues --   -2.19598  -2.19361  -2.19179  -2.19055  -1.14000
 Alpha  occ. eigenvalues --   -1.13983  -1.13974  -1.13959  -1.13953  -1.13937
 Alpha  occ. eigenvalues --   -1.13874  -1.13788  -1.13751  -1.13263  -1.13245
 Alpha  occ. eigenvalues --   -1.13228  -1.13029  -1.13018  -1.12986  -1.12852
 Alpha  occ. eigenvalues --   -1.12810  -1.12800  -1.12712  -1.12704  -1.12685
 Alpha  occ. eigenvalues --   -0.17808  -0.14082  -0.12998  -0.09636
 Alpha virt. eigenvalues --   -0.06429  -0.06024  -0.04115  -0.03357  -0.02924
 Alpha virt. eigenvalues --   -0.02307  -0.01891  -0.01220  -0.00763  -0.00488
 Alpha virt. eigenvalues --    0.00085   0.00214   0.00370   0.00685   0.00766

  Beta  occ. eigenvalues --  -38.44461 -38.44388 -38.44195 -38.43735 -38.43457
  Beta  occ. eigenvalues --  -38.43229 -38.43166  -2.20295  -2.20269  -2.20145
  Beta  occ. eigenvalues --   -2.19527  -2.19285  -2.19086  -2.18968  -1.13995
  Beta  occ. eigenvalues --   -1.13979  -1.13967  -1.13952  -1.13889  -1.13872
  Beta  occ. eigenvalues --   -1.13864  -1.13807  -1.13766  -1.13216  -1.13192
  Beta  occ. eigenvalues --   -1.13174  -1.12978  -1.12970  -1.12917  -1.12792
  Beta  occ. eigenvalues --   -1.12746  -1.12735  -1.12652  -1.12643  -1.12628
  Beta  occ. eigenvalues --   -0.17488  -0.13359  -0.12475
  Beta virt. eigenvalues --   -0.06460  -0.06388  -0.05747  -0.03921  -0.02796
  Beta virt. eigenvalues --   -0.02338  -0.02111  -0.01818  -0.00946  -0.00514
  Beta virt. eigenvalues --   -0.00364   0.00315   0.00383   0.00467   0.00751

 Mulliken charges and spin densities:
               1          2
     1  Na  -0.986546  -0.089378
     2  Na  -0.280231   0.194523
     3  Na   0.483015   0.106370
     4  Na   0.710122   0.092580
     5  Na   0.130928   0.257977
     6  Na  -0.224189   0.206414
     7  Na   0.166901   0.231512
 Sum of Mulliken charges =  -0.00000   1.00000

 Dipole moment (field-independent basis, Debye):
    X=              0.0685    Y=             -0.2113    Z=              0.3603  Tot=              0.4233
 Quadrupole moment (field-independent basis, Debye-Ang):
   XX=            -60.9049   YY=            -66.6505   ZZ=            -70.9531
   XY=             -2.1603   XZ=              0.4615   YZ=             -0.1775

 Normal termination of Gaussian 16 at Wed Nov 29 15:59:41 2023.
