 Gaussian 16, Revision B.01,
 Gaussian 16:  ES64L-G16RevB.01 20-Dec-2017

 -------------------------
 #P B3LYP/6-311+g(d) force
 -------------------------

 -----
 DPGEN
 -----
 Symbolic Z-matrix:
 Charge =  0 Multiplicity = 2

                         Standard orientation:
 ---------------------------------------------------------------------
 Center     Atomic      Atomic             Coordinates (Angstroms)
 Number     Number       Type             X           Y           Z
 ---------------------------------------------------------------------
      1         11           0        1.470927    0.541372    1.226686
      2         11           0       -0.854186   -0.810506    1.540786
      3         11           0        0.813742    2.192178   -0.823214
      4         11           0       -1.577965    1.409201    0.177986
      5         11           0       -2.762189   -1.109988   -0.619614
      6         11           0        0.080914   -0.790215   -1.092314
      7         11           0        2.828758   -1.432041   -0.410314
 ---------------------------------------------------------------------

 SCF Done:  E(UB3LYP) =  -1136.07259045     A.U. after   23 cycles

 The electronic state is 2-A.
 Alpha  occ. eigenvalues --  -38.44560 -38.44233 -38.44137 -38.43958 -38.43586
 Alpha  occ. eigenvalues --  -38.43481 -38.43468  -2.20804  -2.20266  -2.20215
 Alpha  occ. eigenvalues --   -2.20063  -2.19832  -2.19784  -2.19556  -1.14745
 Alpha  occ. eigenvalues --   -1.14607  -1.14421  -1.14075  -1.14009  -1.13973
 Alpha  occ. eigenvalues --   -1.13923  -1.13893  -1.13818  -1.13796  -1.13710
 Alpha  occ. eigenvalues --   -1.13650  -1.13599  -1.13508  -1.13449  -1.13407
 Alpha  occ. eigenvalues --   -1.13363  -1.13305  -1.13137  -1.13130  -1.13037
 Alpha  occ. eigenvalues --   -0.21241  -0.14309  -0.12239  -0.12011
 Alpha virt. eigenvalues --   -0.05793  -0.04597  -0.03870  -0.03495  -0.02670
 Alpha virt. eigenvalues --   -0.02482  -0.01545  -0.00664  -0.00215   0.00277
 Alpha virt. eigenvalues --    0.00624   0.00696   0.00929   0.01002   0.01079

  Beta  occ. eigenvalues --  -38.44478 -38.44217 -38.44132 -38.43906 -38.43564
  Beta  occ. eigenvalues --  -38.43461 -38.43415  -2.20660  -2.20240  -2.20129
  Beta  occ. eigenvalues --   -2.20055  -2.19801  -2.19696  -2.19523  -1.14655
  Beta  occ. eigenvalues --   -1.14503  -1.14308  -1.14028  -1.13965  -1.13949
  Beta  occ. eigenvalues --   -1.13896  -1.13847  -1.13777  -1.13742  -1.13683
  Beta  occ. eigenvalues --   -1.13638  -1.13557  -1.13474  -1.13384  -1.13326
  Beta  occ. eigenvalues --   -1.13300  -1.13239  -1.13110  -1.13078  -1.13016
  Beta  occ. eigenvalues --   -0.20382  -0.14067  -0.12005
  Beta virt. eigenvalues --   -0.07641  -0.05722  -0.04500  -0.03457  -0.03050
  Beta virt. eigenvalues --   -0.02003  -0.01523  -0.01335  -0.00600   0.00021
  Beta virt. eigenvalues --    0.00315   0.00630   0.00762   0.00933   0.01021

 Mulliken charges and spin densities:
               1          2
     1  Na  -0.019001  -0.200335
     2  Na  -0.094677   0.292903
     3  Na   0.361715  -0.004604
     4  Na  -0.499406   0.461714
     5  Na   1.831113  -0.031452
     6  Na  -1.343421   0.410730
     7  Na  -0.236322   0.071043
 Sum of Mulliken charges =  -0.00000   1.00000

 Dipole moment (field-independent basis, Debye):
    X=              0.0479    Y=             -0.2453    Z=             -0.3373  Tot=              0.4198
 Quadrupole moment (field-independent basis, Debye-Ang):
   XX=            -54.5369   YY=            -71.3038   ZZ=            -68.9804
   XY=              0.5547   XZ=              0.3898   YZ=              0.1036

 Normal termination of Gaussian 16 at Fri Dec  8 18:41:26 2023.
