 Gaussian 16, Revision B.01,
 Gaussian 16:  ES64L-G16RevB.01 20-Dec-2017

 -------------------------
 #P B3LYP/6-311+g(d) force
 -------------------------

 -----
 DPGEN
 -----
 Symbolic Z-matrix:
 Charge =  0 Multiplicity = 2

                         Standard orientation:
 ---------------------------------------------------------------------
 Center     Atomic      Atomic             Coordinates (Angstroms)
 Number     Number       Type             X           Y           Z
 ---------------------------------------------------------------------
      1         11           0        2.153648   -1.153673    1.379810
      2         11           0        0.823118    1.765912    0.777072
      3         11           0        4.151093    0.208929   -0.874577
      4         11           0        0.348008   -0.869972   -1.818983
      5         11           0       -3.240261   -1.832641   -0.524063
      6         11           0       -2.651143    2.334939   -0.595141
      7         11           0       -1.584463   -0.453494    1.655880
 ---------------------------------------------------------------------

 SCF Done:  E(UB3LYP) =  -1136.11699570     A.U. after   29 cycles

 The electronic state is 2-A.
 Alpha  occ. eigenvalues --  -38.45409 -38.45335 -38.44493 -38.43980 -38.43754
 Alpha  occ. eigenvalues --  -38.43405 -38.42826  -2.21178  -2.21124  -2.20377
 Alpha  occ. eigenvalues --   -2.19761  -2.19661  -2.19215  -2.18695  -1.14874
 Alpha  occ. eigenvalues --   -1.14857  -1.14800  -1.14777  -1.14766  -1.14746
 Alpha  occ. eigenvalues --   -1.14056  -1.14034  -1.13992  -1.13433  -1.13405
 Alpha  occ. eigenvalues --   -1.13378  -1.13356  -1.13342  -1.13282  -1.12904
 Alpha  occ. eigenvalues --   -1.12862  -1.12845  -1.12412  -1.12381  -1.12296
 Alpha  occ. eigenvalues --   -0.18056  -0.13998  -0.11130  -0.10752
 Alpha virt. eigenvalues --   -0.07200  -0.05543  -0.04751  -0.03027  -0.02872
 Alpha virt. eigenvalues --   -0.02385  -0.02307  -0.01429  -0.01105  -0.00257
 Alpha virt. eigenvalues --    0.00029   0.00093   0.00269   0.00445   0.00577

  Beta  occ. eigenvalues --  -38.45372 -38.45315 -38.44447 -38.43933 -38.43716
  Beta  occ. eigenvalues --  -38.43417 -38.42825  -2.21111  -2.21086  -2.20296
  Beta  occ. eigenvalues --   -2.19673  -2.19593  -2.19239  -2.18698  -1.14828
  Beta  occ. eigenvalues --   -1.14806  -1.14774  -1.14749  -1.14725  -1.14710
  Beta  occ. eigenvalues --   -1.14003  -1.13978  -1.13911  -1.13370  -1.13343
  Beta  occ. eigenvalues --   -1.13324  -1.13305  -1.13298  -1.13226  -1.12915
  Beta  occ. eigenvalues --   -1.12872  -1.12859  -1.12416  -1.12348  -1.12303
  Beta  occ. eigenvalues --   -0.17357  -0.13841  -0.10572
  Beta virt. eigenvalues --   -0.07390  -0.06955  -0.05120  -0.04391  -0.02759
  Beta virt. eigenvalues --   -0.02684  -0.01906  -0.01743  -0.01039  -0.00895
  Beta virt. eigenvalues --   -0.00109   0.00057   0.00219   0.00322   0.00525

 Mulliken charges and spin densities:
               1          2
     1  Na   0.408948   0.107734
     2  Na  -0.437819   0.101342
     3  Na   0.358780   0.138676
     4  Na  -0.492333   0.356942
     5  Na   0.151503  -0.055743
     6  Na  -0.119092   0.250441
     7  Na   0.130013   0.100609
 Sum of Mulliken charges =  -0.00000   1.00000

 Dipole moment (field-independent basis, Debye):
    X=              1.4808    Y=              0.0142    Z=             -0.3909  Tot=              1.5316
 Quadrupole moment (field-independent basis, Debye-Ang):
   XX=            -48.8550   YY=            -77.4728   ZZ=            -69.2551
   XY=             -0.4765   XZ=              0.2830   YZ=             -4.6215

 Normal termination of Gaussian 16 at Thu Dec  7 21:01:03 2023.
