 Gaussian 16, Revision B.01,
 Gaussian 16:  ES64L-G16RevB.01 20-Dec-2017

 -------------------------
 #P B3LYP/6-311+g(d) force
 -------------------------

 -----
 DPGEN
 -----
 Symbolic Z-matrix:
 Charge =  0 Multiplicity = 2

                         Standard orientation:
 ---------------------------------------------------------------------
 Center     Atomic      Atomic             Coordinates (Angstroms)
 Number     Number       Type             X           Y           Z
 ---------------------------------------------------------------------
      1         11           0       -0.596044    0.004868    0.019753
      2         11           0        1.423271    2.606661   -0.657641
      3         11           0       -2.221201    3.229813   -0.022447
      4         11           0       -3.651182   -1.013157    0.673744
      5         11           0       -0.995868   -3.421177   -0.377535
      6         11           0        3.653556   -0.221230    1.668575
      7         11           0        2.387468   -1.185777   -1.304448
 ---------------------------------------------------------------------

 SCF Done:  E(UB3LYP) =  -1136.12396480     A.U. after   22 cycles

 The electronic state is 2-A.
 Alpha  occ. eigenvalues --  -38.44561 -38.44446 -38.44287 -38.44106 -38.43935
 Alpha  occ. eigenvalues --  -38.43626 -38.43234  -2.20354  -2.20196  -2.20066
 Alpha  occ. eigenvalues --   -2.19923  -2.19743  -2.19446  -2.19171  -1.14045
 Alpha  occ. eigenvalues --   -1.14036  -1.13947  -1.13882  -1.13856  -1.13831
 Alpha  occ. eigenvalues --   -1.13745  -1.13727  -1.13692  -1.13608  -1.13602
 Alpha  occ. eigenvalues --   -1.13550  -1.13418  -1.13403  -1.13348  -1.13092
 Alpha  occ. eigenvalues --   -1.13087  -1.13049  -1.12888  -1.12841  -1.12791
 Alpha  occ. eigenvalues --   -0.17007  -0.13428  -0.12575  -0.09912
 Alpha virt. eigenvalues --   -0.06125  -0.05887  -0.05149  -0.03318  -0.02296
 Alpha virt. eigenvalues --   -0.01978  -0.01791  -0.01732  -0.01227  -0.01074
 Alpha virt. eigenvalues --   -0.00188   0.00193   0.00285   0.00452   0.00621

  Beta  occ. eigenvalues --  -38.44545 -38.44458 -38.44273 -38.44096 -38.43892
  Beta  occ. eigenvalues --  -38.43525 -38.43223  -2.20325  -2.20221  -2.20042
  Beta  occ. eigenvalues --   -2.19910  -2.19661  -2.19257  -2.19154  -1.14025
  Beta  occ. eigenvalues --   -1.14008  -1.13931  -1.13900  -1.13872  -1.13839
  Beta  occ. eigenvalues --   -1.13731  -1.13709  -1.13667  -1.13598  -1.13583
  Beta  occ. eigenvalues --   -1.13521  -1.13363  -1.13347  -1.13294  -1.12963
  Beta  occ. eigenvalues --   -1.12957  -1.12926  -1.12869  -1.12818  -1.12779
  Beta  occ. eigenvalues --   -0.16593  -0.12887  -0.12333
  Beta virt. eigenvalues --   -0.06531  -0.05998  -0.05418  -0.04953  -0.02856
  Beta virt. eigenvalues --   -0.01996  -0.01875  -0.01639  -0.01338  -0.01089
  Beta virt. eigenvalues --   -0.00713   0.00123   0.00338   0.00516   0.00640

 Mulliken charges and spin densities:
               1          2
     1  Na  -4.163977   0.110028
     2  Na   2.238218   0.042409
     3  Na  -0.211419  -0.031552
     4  Na  -0.430742   0.154778
     5  Na   0.605135   0.021742
     6  Na   0.241915   0.516998
     7  Na   1.720871   0.185596
 Sum of Mulliken charges =  -0.00000   1.00000

 Dipole moment (field-independent basis, Debye):
    X=             -0.7328    Y=              0.2467    Z=             -0.7119  Tot=              1.0511
 Quadrupole moment (field-independent basis, Debye-Ang):
   XX=            -66.7948   YY=            -56.6017   ZZ=            -72.1330
   XY=             -0.1525   XZ=             -4.8628   YZ=              0.4486

 Normal termination of Gaussian 16 at Wed Nov 29 15:43:27 2023.
