 Gaussian 16, Revision B.01,
 Gaussian 16:  ES64L-G16RevB.01 20-Dec-2017

 -------------------------
 #P B3LYP/6-311+g(d) force
 -------------------------

 -----
 DPGEN
 -----
 Symbolic Z-matrix:
 Charge =  0 Multiplicity = 2

                         Standard orientation:
 ---------------------------------------------------------------------
 Center     Atomic      Atomic             Coordinates (Angstroms)
 Number     Number       Type             X           Y           Z
 ---------------------------------------------------------------------
      1         11           0       -1.215369    1.495593    1.240277
      2         11           0       -0.551004   -2.233840    1.445288
      3         11           0        2.350396   -1.954290   -1.182460
      4         11           0       -3.425447   -0.183728   -0.500067
      5         11           0        2.122228    0.319072    1.561973
      6         11           0       -0.548213   -0.348471   -1.820921
      7         11           0        1.267409    2.905665   -0.744089
 ---------------------------------------------------------------------

 SCF Done:  E(UB3LYP) =  -1136.13380753     A.U. after   19 cycles

 The electronic state is 2-A.
 Alpha  occ. eigenvalues --  -38.44307 -38.43882 -38.43729 -38.43720 -38.43660
 Alpha  occ. eigenvalues --  -38.43421 -38.43400  -2.20113  -2.19723  -2.19641
 Alpha  occ. eigenvalues --   -2.19568  -2.19472  -2.19312  -2.19203  -1.13797
 Alpha  occ. eigenvalues --   -1.13763  -1.13723  -1.13419  -1.13385  -1.13361
 Alpha  occ. eigenvalues --   -1.13332  -1.13310  -1.13276  -1.13239  -1.13206
 Alpha  occ. eigenvalues --   -1.13185  -1.13137  -1.13122  -1.13094  -1.13004
 Alpha  occ. eigenvalues --   -1.12983  -1.12924  -1.12869  -1.12856  -1.12834
 Alpha  occ. eigenvalues --   -0.18193  -0.12789  -0.11921  -0.11595
 Alpha virt. eigenvalues --   -0.05505  -0.04932  -0.04711  -0.03389  -0.03251
 Alpha virt. eigenvalues --   -0.02933  -0.01394  -0.00985  -0.00717   0.00206
 Alpha virt. eigenvalues --    0.00235   0.00341   0.00425   0.00685   0.00846

  Beta  occ. eigenvalues --  -38.44260 -38.43855 -38.43717 -38.43664 -38.43639
  Beta  occ. eigenvalues --  -38.43400 -38.43391  -2.20029  -2.19675  -2.19565
  Beta  occ. eigenvalues --   -2.19521  -2.19435  -2.19275  -2.19188  -1.13733
  Beta  occ. eigenvalues --   -1.13697  -1.13668  -1.13374  -1.13348  -1.13308
  Beta  occ. eigenvalues --   -1.13301  -1.13244  -1.13227  -1.13194  -1.13184
  Beta  occ. eigenvalues --   -1.13152  -1.13100  -1.13091  -1.13069  -1.12981
  Beta  occ. eigenvalues --   -1.12933  -1.12905  -1.12849  -1.12846  -1.12823
  Beta  occ. eigenvalues --   -0.17413  -0.12621  -0.11734
  Beta virt. eigenvalues --   -0.07677  -0.05346  -0.04705  -0.04374  -0.02952
  Beta virt. eigenvalues --   -0.02765  -0.02028  -0.01316  -0.00880  -0.00345
  Beta virt. eigenvalues --    0.00216   0.00308   0.00405   0.00520   0.00792

 Mulliken charges and spin densities:
               1          2
     1  Na  -0.092810   0.294243
     2  Na  -0.321706   0.238813
     3  Na   0.128382  -0.039415
     4  Na   0.440815  -0.126954
     5  Na   0.139862   0.205699
     6  Na  -0.317722   0.527947
     7  Na   0.023180  -0.100334
 Sum of Mulliken charges =  -0.00000   1.00000

 Dipole moment (field-independent basis, Debye):
    X=             -0.1377    Y=             -0.2910    Z=              0.1185  Tot=              0.3431
 Quadrupole moment (field-independent basis, Debye-Ang):
   XX=            -59.4066   YY=            -68.7156   ZZ=            -66.7597
   XY=              0.6507   XZ=             -1.2140   YZ=             -2.4399

 Normal termination of Gaussian 16 at Fri Dec  8 01:42:12 2023.
