 Gaussian 16, Revision B.01,
 Gaussian 16:  ES64L-G16RevB.01 20-Dec-2017

 -------------------------
 #P B3LYP/6-311+g(d) force
 -------------------------

 -----
 DPGEN
 -----
 Symbolic Z-matrix:
 Charge =  0 Multiplicity = 2

                         Standard orientation:
 ---------------------------------------------------------------------
 Center     Atomic      Atomic             Coordinates (Angstroms)
 Number     Number       Type             X           Y           Z
 ---------------------------------------------------------------------
      1         11           0       -0.676133    2.921587    0.540840
      2         11           0       -1.308123   -2.507866    0.688196
      3         11           0        2.658027   -2.043527   -0.285460
      4         11           0        0.013974   -0.135764   -1.679630
      5         11           0        2.788870    1.632313   -0.387846
      6         11           0       -3.871370    0.111689   -0.629644
      7         11           0        0.394755    0.021569    1.753543
 ---------------------------------------------------------------------

 SCF Done:  E(UB3LYP) =  -1136.13002450     A.U. after   21 cycles

 The electronic state is 2-A.
 Alpha  occ. eigenvalues --  -38.44665 -38.44143 -38.44102 -38.43922 -38.43591
 Alpha  occ. eigenvalues --  -38.43424 -38.43234  -2.20407  -2.19979  -2.19960
 Alpha  occ. eigenvalues --   -2.19724  -2.19419  -2.19228  -2.19187  -1.14077
 Alpha  occ. eigenvalues --   -1.14061  -1.14030  -1.13693  -1.13655  -1.13636
 Alpha  occ. eigenvalues --   -1.13617  -1.13581  -1.13576  -1.13406  -1.13378
 Alpha  occ. eigenvalues --   -1.13359  -1.13140  -1.13081  -1.13023  -1.12942
 Alpha  occ. eigenvalues --   -1.12890  -1.12860  -1.12851  -1.12817  -1.12777
 Alpha  occ. eigenvalues --   -0.18074  -0.12830  -0.12073  -0.10613
 Alpha virt. eigenvalues --   -0.06275  -0.05353  -0.04550  -0.03113  -0.02787
 Alpha virt. eigenvalues --   -0.02313  -0.02108  -0.01344  -0.00714  -0.00300
 Alpha virt. eigenvalues --   -0.00111   0.00243   0.00669   0.00697   0.00753

  Beta  occ. eigenvalues --  -38.44638 -38.44135 -38.44057 -38.43920 -38.43571
  Beta  occ. eigenvalues --  -38.43413 -38.43153  -2.20356  -2.19948  -2.19897
  Beta  occ. eigenvalues --   -2.19724  -2.19386  -2.19212  -2.19040  -1.14036
  Beta  occ. eigenvalues --   -1.14027  -1.13997  -1.13641  -1.13631  -1.13615
  Beta  occ. eigenvalues --   -1.13569  -1.13562  -1.13518  -1.13401  -1.13379
  Beta  occ. eigenvalues --   -1.13347  -1.13103  -1.13052  -1.12998  -1.12912
  Beta  occ. eigenvalues --   -1.12871  -1.12840  -1.12769  -1.12717  -1.12669
  Beta  occ. eigenvalues --   -0.17435  -0.12472  -0.11809
  Beta virt. eigenvalues --   -0.06990  -0.05966  -0.05339  -0.04457  -0.02569
  Beta virt. eigenvalues --   -0.02130  -0.01872  -0.01429  -0.01302  -0.00689
  Beta virt. eigenvalues --   -0.00265   0.00035   0.00303   0.00753   0.00765

 Mulliken charges and spin densities:
               1          2
     1  Na  -0.132546   0.002760
     2  Na  -0.038830   0.031836
     3  Na  -0.100364  -0.053644
     4  Na  -0.094231   0.564150
     5  Na  -0.019344  -0.009321
     6  Na  -0.137681   0.154603
     7  Na   0.522998   0.309616
 Sum of Mulliken charges =  -0.00000   1.00000

 Dipole moment (field-independent basis, Debye):
    X=              0.2129    Y=              0.0023    Z=             -0.1414  Tot=              0.2556
 Quadrupole moment (field-independent basis, Debye-Ang):
   XX=            -54.0633   YY=            -64.3003   ZZ=            -74.2702
   XY=             -0.7121   XZ=             -0.4061   YZ=             -0.6911

 Normal termination of Gaussian 16 at Thu Dec  7 19:26:02 2023.
