 Gaussian 16, Revision B.01,
 Gaussian 16:  ES64L-G16RevB.01 20-Dec-2017

 -------------------------
 #P B3LYP/6-311+g(d) force
 -------------------------

 -----
 DPGEN
 -----
 Symbolic Z-matrix:
 Charge =  0 Multiplicity = 2

                         Standard orientation:
 ---------------------------------------------------------------------
 Center     Atomic      Atomic             Coordinates (Angstroms)
 Number     Number       Type             X           Y           Z
 ---------------------------------------------------------------------
      1         11           0        2.839319   -2.217040   -0.485206
      2         11           0       -1.644656    3.431845   -0.531831
      3         11           0        1.800443    1.964932   -0.075747
      4         11           0       -4.589686    0.754115    0.108975
      5         11           0       -2.807953   -2.181563    0.988596
      6         11           0       -0.317478   -2.780668   -0.781746
      7         11           0        4.720010    1.028379    0.776960
 ---------------------------------------------------------------------

 SCF Done:  E(UB3LYP) =  -1136.10992282     A.U. after   22 cycles

 The electronic state is 2-A.
 Alpha  occ. eigenvalues --  -38.45326 -38.45052 -38.44718 -38.44566 -38.44111
 Alpha  occ. eigenvalues --  -38.44004 -38.43648  -2.21113  -2.20791  -2.20502
 Alpha  occ. eigenvalues --   -2.20375  -2.19939  -2.19771  -2.19486  -1.14794
 Alpha  occ. eigenvalues --   -1.14784  -1.14723  -1.14474  -1.14451  -1.14429
 Alpha  occ. eigenvalues --   -1.14197  -1.14188  -1.14134  -1.14065  -1.14036
 Alpha  occ. eigenvalues --   -1.13999  -1.13594  -1.13579  -1.13550  -1.13434
 Alpha  occ. eigenvalues --   -1.13419  -1.13390  -1.13158  -1.13145  -1.13133
 Alpha  occ. eigenvalues --   -0.15915  -0.13976  -0.12997  -0.10921
 Alpha virt. eigenvalues --   -0.07327  -0.05027  -0.04354  -0.03650  -0.03432
 Alpha virt. eigenvalues --   -0.02349  -0.02256  -0.01499  -0.01222  -0.00896
 Alpha virt. eigenvalues --   -0.00762  -0.00098   0.00055   0.00522   0.00599

  Beta  occ. eigenvalues --  -38.45289 -38.45046 -38.44700 -38.44548 -38.44048
  Beta  occ. eigenvalues --  -38.43941 -38.43640  -2.21049  -2.20782  -2.20475
  Beta  occ. eigenvalues --   -2.20341  -2.19820  -2.19656  -2.19475  -1.14747
  Beta  occ. eigenvalues --   -1.14742  -1.14661  -1.14471  -1.14446  -1.14410
  Beta  occ. eigenvalues --   -1.14183  -1.14167  -1.14078  -1.14050  -1.14012
  Beta  occ. eigenvalues --   -1.13969  -1.13512  -1.13498  -1.13474  -1.13356
  Beta  occ. eigenvalues --   -1.13339  -1.13312  -1.13150  -1.13133  -1.13118
  Beta  occ. eigenvalues --   -0.15421  -0.13453  -0.12223
  Beta virt. eigenvalues --   -0.07658  -0.07397  -0.04540  -0.04053  -0.03331
  Beta virt. eigenvalues --   -0.03123  -0.02154  -0.02040  -0.01318  -0.00945
  Beta virt. eigenvalues --   -0.00585  -0.00459   0.00036   0.00253   0.00581

 Mulliken charges and spin densities:
               1          2
     1  Na   0.552990   0.218523
     2  Na   0.105031  -0.179618
     3  Na  -1.699342   0.406877
     4  Na  -0.107539   0.061464
     5  Na   0.151021   0.122660
     6  Na  -0.700391  -0.087294
     7  Na   1.698230   0.457389
 Sum of Mulliken charges =  -0.00000   1.00000

 Dipole moment (field-independent basis, Debye):
    X=              0.4636    Y=             -0.5249    Z=              0.2049  Tot=              0.7296
 Quadrupole moment (field-independent basis, Debye-Ang):
   XX=            -54.4256   YY=            -71.0255   ZZ=            -71.8470
   XY=             -4.8840   XZ=              0.9662   YZ=             -0.8449

 Normal termination of Gaussian 16 at Sun Dec  3 20:32:33 2023.
