 Gaussian 16, Revision B.01,
 Gaussian 16:  ES64L-G16RevB.01 20-Dec-2017

 -------------------------
 #P B3LYP/6-311+g(d) force
 -------------------------

 -----
 DPGEN
 -----
 Symbolic Z-matrix:
 Charge =  0 Multiplicity = 2

                         Standard orientation:
 ---------------------------------------------------------------------
 Center     Atomic      Atomic             Coordinates (Angstroms)
 Number     Number       Type             X           Y           Z
 ---------------------------------------------------------------------
      1         11           0       -1.779657    1.879091   -0.309911
      2         11           0        0.162655   -0.162045   -1.697791
      3         11           0        3.595090    0.159359   -1.079814
      4         11           0        1.246896    1.666108    1.347433
      5         11           0       -1.298245   -0.494382    1.620976
      6         11           0        1.787802   -2.043514    0.812997
      7         11           0       -3.714541   -1.004617   -0.693891
 ---------------------------------------------------------------------

 SCF Done:  E(UB3LYP) =  -1136.12367962     A.U. after   25 cycles

 The electronic state is 2-A.
 Alpha  occ. eigenvalues --  -38.44711 -38.44610 -38.44162 -38.43884 -38.43668
 Alpha  occ. eigenvalues --  -38.43498 -38.42244  -2.20530  -2.20505  -2.20017
 Alpha  occ. eigenvalues --   -2.19687  -2.19640  -2.19449  -2.18133  -1.14206
 Alpha  occ. eigenvalues --   -1.14205  -1.14190  -1.14182  -1.14166  -1.14093
 Alpha  occ. eigenvalues --   -1.13700  -1.13661  -1.13632  -1.13391  -1.13362
 Alpha  occ. eigenvalues --   -1.13351  -1.13324  -1.13317  -1.13225  -1.13161
 Alpha  occ. eigenvalues --   -1.13092  -1.13006  -1.11819  -1.11796  -1.11760
 Alpha  occ. eigenvalues --   -0.18825  -0.14048  -0.11682  -0.10760
 Alpha virt. eigenvalues --   -0.06836  -0.04993  -0.04561  -0.03189  -0.02748
 Alpha virt. eigenvalues --   -0.02422  -0.02244  -0.01013  -0.00855  -0.00127
 Alpha virt. eigenvalues --    0.00141   0.00242   0.00381   0.00700   0.00798

  Beta  occ. eigenvalues --  -38.44693 -38.44564 -38.44110 -38.43896 -38.43611
  Beta  occ. eigenvalues --  -38.43475 -38.42233  -2.20496  -2.20424  -2.19924
  Beta  occ. eigenvalues --   -2.19711  -2.19537  -2.19407  -2.18116  -1.14171
  Beta  occ. eigenvalues --   -1.14158  -1.14147  -1.14144  -1.14116  -1.14036
  Beta  occ. eigenvalues --   -1.13636  -1.13597  -1.13552  -1.13393  -1.13369
  Beta  occ. eigenvalues --   -1.13344  -1.13291  -1.13238  -1.13156  -1.13121
  Beta  occ. eigenvalues --   -1.13051  -1.12979  -1.11804  -1.11764  -1.11753
  Beta  occ. eigenvalues --   -0.18037  -0.13909  -0.10605
  Beta virt. eigenvalues --   -0.07647  -0.06578  -0.04654  -0.04256  -0.02794
  Beta virt. eigenvalues --   -0.02421  -0.01864  -0.01689  -0.00886  -0.00494
  Beta virt. eigenvalues --   -0.00038   0.00162   0.00360   0.00418   0.00776

 Mulliken charges and spin densities:
               1          2
     1  Na   0.539154   0.075197
     2  Na  -0.569262   0.469329
     3  Na   0.544039   0.007468
     4  Na  -0.412511   0.136523
     5  Na   0.106436   0.306931
     6  Na  -0.223847   0.108572
     7  Na   0.015990  -0.104021
 Sum of Mulliken charges =  -0.00000   1.00000

 Dipole moment (field-independent basis, Debye):
    X=              0.5091    Y=              0.2001    Z=             -0.1919  Tot=              0.5797
 Quadrupole moment (field-independent basis, Debye-Ang):
   XX=            -52.0721   YY=            -72.9910   ZZ=            -70.2774
   XY=              1.0718   XZ=              0.2938   YZ=             -5.1693

 Normal termination of Gaussian 16 at Tue Dec  5 11:11:30 2023.
