 Gaussian 16, Revision B.01,
 Gaussian 16:  ES64L-G16RevB.01 20-Dec-2017

 -------------------------
 #P B3LYP/6-311+g(d) force
 -------------------------

 -----
 DPGEN
 -----
 Symbolic Z-matrix:
 Charge =  0 Multiplicity = 2

                         Standard orientation:
 ---------------------------------------------------------------------
 Center     Atomic      Atomic             Coordinates (Angstroms)
 Number     Number       Type             X           Y           Z
 ---------------------------------------------------------------------
      1         11           0       -3.205346   -0.546497    0.228593
      2         11           0        3.327341   -1.231338    0.007106
      3         11           0       -0.416044   -2.548148   -0.081966
      4         11           0       -1.630402    2.251932   -0.189981
      5         11           0        0.235379    0.163581    2.028402
      6         11           0        2.005879    2.378079   -0.320036
      7         11           0       -0.316807   -0.467610   -1.672118
 ---------------------------------------------------------------------

 SCF Done:  E(UB3LYP) =  -1136.12556830     A.U. after   20 cycles

 The electronic state is 2-A.
 Alpha  occ. eigenvalues --  -38.44848 -38.44333 -38.43794 -38.43756 -38.43673
 Alpha  occ. eigenvalues --  -38.43506 -38.43167  -2.20594  -2.20192  -2.19779
 Alpha  occ. eigenvalues --   -2.19585  -2.19551  -2.19449  -2.19045  -1.14275
 Alpha  occ. eigenvalues --   -1.14249  -1.14232  -1.13873  -1.13858  -1.13844
 Alpha  occ. eigenvalues --   -1.13821  -1.13404  -1.13333  -1.13263  -1.13251
 Alpha  occ. eigenvalues --   -1.13228  -1.13222  -1.13183  -1.13160  -1.13064
 Alpha  occ. eigenvalues --   -1.13009  -1.12991  -1.12729  -1.12707  -1.12675
 Alpha  occ. eigenvalues --   -0.18660  -0.13093  -0.12220  -0.10688
 Alpha virt. eigenvalues --   -0.06280  -0.05327  -0.04152  -0.03273  -0.02843
 Alpha virt. eigenvalues --   -0.02452  -0.02055  -0.01151  -0.00331  -0.00205
 Alpha virt. eigenvalues --   -0.00050   0.00300   0.00713   0.00804   0.00840

  Beta  occ. eigenvalues --  -38.44852 -38.44328 -38.43789 -38.43688 -38.43584
  Beta  occ. eigenvalues --  -38.43493 -38.43158  -2.20603  -2.20185  -2.19658
  Beta  occ. eigenvalues --   -2.19579  -2.19427  -2.19387  -2.19033  -1.14269
  Beta  occ. eigenvalues --   -1.14257  -1.14239  -1.13869  -1.13844  -1.13815
  Beta  occ. eigenvalues --   -1.13767  -1.13316  -1.13251  -1.13245  -1.13239
  Beta  occ. eigenvalues --   -1.13220  -1.13123  -1.13073  -1.13041  -1.13023
  Beta  occ. eigenvalues --   -1.12988  -1.12949  -1.12722  -1.12672  -1.12670
  Beta  occ. eigenvalues --   -0.17912  -0.12921  -0.11955
  Beta virt. eigenvalues --   -0.06774  -0.06221  -0.05305  -0.04118  -0.02539
  Beta virt. eigenvalues --   -0.02067  -0.01952  -0.01406  -0.01095  -0.00387
  Beta virt. eigenvalues --   -0.00228   0.00099   0.00329   0.00760   0.00846

 Mulliken charges and spin densities:
               1          2
     1  Na   0.284213   0.069085
     2  Na  -0.007820  -0.122386
     3  Na   0.491989  -0.040632
     4  Na   0.069266  -0.046922
     5  Na  -0.471649   0.738951
     6  Na  -0.086718  -0.094978
     7  Na  -0.279281   0.496882
 Sum of Mulliken charges =  -0.00000   1.00000

 Dipole moment (field-independent basis, Debye):
    X=              0.3766    Y=             -0.0794    Z=              0.2376  Tot=              0.4523
 Quadrupole moment (field-independent basis, Debye-Ang):
   XX=            -50.8672   YY=            -67.2199   ZZ=            -74.6396
   XY=             -0.1909   XZ=             -1.3334   YZ=             -1.5575

 Normal termination of Gaussian 16 at Thu Dec  7 22:21:24 2023.
