 Gaussian 16, Revision B.01,
 Gaussian 16:  ES64L-G16RevB.01 20-Dec-2017

 -------------------------
 #P B3LYP/6-311+g(d) force
 -------------------------

 -----
 DPGEN
 -----
 Symbolic Z-matrix:
 Charge =  0 Multiplicity = 2

                         Standard orientation:
 ---------------------------------------------------------------------
 Center     Atomic      Atomic             Coordinates (Angstroms)
 Number     Number       Type             X           Y           Z
 ---------------------------------------------------------------------
      1         11           0       -0.458923   -2.669996   -0.519038
      2         11           0        1.019877    1.382576    1.162246
      3         11           0       -1.670541    3.897716   -0.084145
      4         11           0        4.618829    0.732681   -0.671475
      5         11           0       -2.216104    0.531299   -0.784939
      6         11           0        2.362936   -2.075995    0.511478
      7         11           0       -3.656074   -1.798281    0.385873
 ---------------------------------------------------------------------

 SCF Done:  E(UB3LYP) =  -1136.11986882     A.U. after   19 cycles

 The electronic state is 2-A.
 Alpha  occ. eigenvalues --  -38.45260 -38.44183 -38.44021 -38.43873 -38.43798
 Alpha  occ. eigenvalues --  -38.43729 -38.43728  -2.20999  -2.19973  -2.19793
 Alpha  occ. eigenvalues --   -2.19759  -2.19668  -2.19607  -2.19579  -1.14704
 Alpha  occ. eigenvalues --   -1.14703  -1.14582  -1.13619  -1.13618  -1.13570
 Alpha  occ. eigenvalues --   -1.13554  -1.13470  -1.13463  -1.13444  -1.13425
 Alpha  occ. eigenvalues --   -1.13395  -1.13386  -1.13303  -1.13297  -1.13281
 Alpha  occ. eigenvalues --   -1.13253  -1.13236  -1.13225  -1.13202  -1.13146
 Alpha  occ. eigenvalues --   -0.16840  -0.13774  -0.12786  -0.10504
 Alpha virt. eigenvalues --   -0.06426  -0.05358  -0.04966  -0.03326  -0.02619
 Alpha virt. eigenvalues --   -0.02337  -0.02024  -0.01651  -0.00987  -0.00712
 Alpha virt. eigenvalues --   -0.00271  -0.00162   0.00301   0.00453   0.00667

  Beta  occ. eigenvalues --  -38.45265 -38.44077 -38.44020 -38.43865 -38.43753
  Beta  occ. eigenvalues --  -38.43697 -38.43692  -2.21009  -2.19790  -2.19774
  Beta  occ. eigenvalues --   -2.19748  -2.19586  -2.19546  -2.19528  -1.14711
  Beta  occ. eigenvalues --   -1.14702  -1.14592  -1.13520  -1.13483  -1.13482
  Beta  occ. eigenvalues --   -1.13470  -1.13461  -1.13441  -1.13436  -1.13420
  Beta  occ. eigenvalues --   -1.13381  -1.13316  -1.13256  -1.13242  -1.13237
  Beta  occ. eigenvalues --   -1.13221  -1.13198  -1.13187  -1.13166  -1.13069
  Beta  occ. eigenvalues --   -0.16495  -0.13034  -0.12441
  Beta virt. eigenvalues --   -0.06941  -0.06184  -0.05200  -0.04751  -0.02884
  Beta virt. eigenvalues --   -0.02299  -0.02182  -0.01839  -0.01220  -0.00822
  Beta virt. eigenvalues --   -0.00426   0.00112   0.00136   0.00405   0.00496

 Mulliken charges and spin densities:
               1          2
     1  Na   0.015726   0.116774
     2  Na  -0.351138  -0.028375
     3  Na   0.330075   0.005120
     4  Na   0.092415   0.562223
     5  Na  -0.654894   0.095782
     6  Na   0.064401   0.055570
     7  Na   0.503416   0.192907
 Sum of Mulliken charges =  -0.00000   1.00000

 Dipole moment (field-independent basis, Debye):
    X=             -0.7026    Y=              0.2907    Z=              0.3397  Tot=              0.8328
 Quadrupole moment (field-independent basis, Debye-Ang):
   XX=            -69.3124   YY=            -63.1889   ZZ=            -67.8409
   XY=             -2.4321   XZ=             -1.4990   YZ=             -0.9231

 Normal termination of Gaussian 16 at Sun Dec  3 23:32:31 2023.
