 Gaussian 16, Revision B.01,
 Gaussian 16:  ES64L-G16RevB.01 20-Dec-2017

 -------------------------
 #P B3LYP/6-311+g(d) force
 -------------------------

 -----
 DPGEN
 -----
 Symbolic Z-matrix:
 Charge =  0 Multiplicity = 2

                         Standard orientation:
 ---------------------------------------------------------------------
 Center     Atomic      Atomic             Coordinates (Angstroms)
 Number     Number       Type             X           Y           Z
 ---------------------------------------------------------------------
      1         11           0        0.304336   -0.073220   -1.861963
      2         11           0        0.302278   -0.330373    1.925100
      3         11           0       -0.905781   -2.475364   -0.321504
      4         11           0       -3.318006   -0.318525   -0.020147
      5         11           0       -1.561633    2.386196    0.356059
      6         11           0        2.074225    1.911179   -0.410985
      7         11           0        3.104581   -1.099894    0.333440
 ---------------------------------------------------------------------

 SCF Done:  E(UB3LYP) =  -1136.13064435     A.U. after   20 cycles

 The electronic state is 2-A.
 Alpha  occ. eigenvalues --  -38.44597 -38.44508 -38.43901 -38.43753 -38.43531
 Alpha  occ. eigenvalues --  -38.42952 -38.42912  -2.20431  -2.20352  -2.19815
 Alpha  occ. eigenvalues --   -2.19721  -2.19433  -2.18817  -2.18792  -1.14098
 Alpha  occ. eigenvalues --   -1.14092  -1.14085  -1.14034  -1.14013  -1.13987
 Alpha  occ. eigenvalues --   -1.13492  -1.13452  -1.13445  -1.13433  -1.13393
 Alpha  occ. eigenvalues --   -1.13315  -1.13106  -1.13075  -1.13046  -1.12515
 Alpha  occ. eigenvalues --   -1.12478  -1.12468  -1.12462  -1.12431  -1.12430
 Alpha  occ. eigenvalues --   -0.18848  -0.13636  -0.11893  -0.11145
 Alpha virt. eigenvalues --   -0.06295  -0.05057  -0.03892  -0.03613  -0.02904
 Alpha virt. eigenvalues --   -0.02664  -0.01996  -0.00955  -0.00150  -0.00131
 Alpha virt. eigenvalues --    0.00001   0.00317   0.00723   0.00763   0.00893

  Beta  occ. eigenvalues --  -38.44600 -38.44497 -38.43822 -38.43668 -38.43517
  Beta  occ. eigenvalues --  -38.42948 -38.42901  -2.20436  -2.20336  -2.19669
  Beta  occ. eigenvalues --   -2.19565  -2.19410  -2.18801  -2.18787  -1.14107
  Beta  occ. eigenvalues --   -1.14090  -1.14079  -1.14019  -1.13987  -1.13973
  Beta  occ. eigenvalues --   -1.13397  -1.13352  -1.13341  -1.13322  -1.13288
  Beta  occ. eigenvalues --   -1.13210  -1.13070  -1.13040  -1.13032  -1.12501
  Beta  occ. eigenvalues --   -1.12466  -1.12450  -1.12446  -1.12421  -1.12419
  Beta  occ. eigenvalues --   -0.18114  -0.13399  -0.11616
  Beta virt. eigenvalues --   -0.07219  -0.06211  -0.05030  -0.03880  -0.02830
  Beta virt. eigenvalues --   -0.02038  -0.01900  -0.01696  -0.00898  -0.00178
  Beta virt. eigenvalues --   -0.00088   0.00083   0.00343   0.00822   0.00900

 Mulliken charges and spin densities:
               1          2
     1  Na  -0.183437   0.474720
     2  Na  -0.465130   0.703145
     3  Na   0.351566  -0.067890
     4  Na  -0.132780  -0.065364
     5  Na   0.031238  -0.037963
     6  Na   0.118921   0.031706
     7  Na   0.279623  -0.038353
 Sum of Mulliken charges =  -0.00000   1.00000

 Dipole moment (field-independent basis, Debye):
    X=              0.2242    Y=             -0.2615    Z=              0.1382  Tot=              0.3712
 Quadrupole moment (field-independent basis, Debye-Ang):
   XX=            -51.9649   YY=            -69.9193   ZZ=            -72.6377
   XY=             -0.2579   XZ=              0.1678   YZ=              0.1183

 Normal termination of Gaussian 16 at Thu Dec  7 08:58:57 2023.
