 Gaussian 16, Revision B.01,
 Gaussian 16:  ES64L-G16RevB.01 20-Dec-2017

 -------------------------
 #P B3LYP/6-311+g(d) force
 -------------------------

 -----
 DPGEN
 -----
 Symbolic Z-matrix:
 Charge =  0 Multiplicity = 2

                         Standard orientation:
 ---------------------------------------------------------------------
 Center     Atomic      Atomic             Coordinates (Angstroms)
 Number     Number       Type             X           Y           Z
 ---------------------------------------------------------------------
      1         11           0        2.320251    3.188945   -0.102198
      2         11           0       -3.945993    1.744009    0.228598
      3         11           0       -0.981126    2.886138    0.239153
      4         11           0       -3.797112   -2.210552   -0.415385
      5         11           0        4.467157   -0.418432   -0.850427
      6         11           0        2.895813   -2.383367    1.156707
      7         11           0       -0.958990   -2.806740   -0.256447
 ---------------------------------------------------------------------

 SCF Done:  E(UB3LYP) =  -1136.10510917     A.U. after   20 cycles

 The electronic state is 2-A.
 Alpha  occ. eigenvalues --  -38.45463 -38.44858 -38.44514 -38.44506 -38.44198
 Alpha  occ. eigenvalues --  -38.44047 -38.43655  -2.21224  -2.20641  -2.20342
 Alpha  occ. eigenvalues --   -2.20319  -2.20019  -2.19847  -2.19460  -1.14895
 Alpha  occ. eigenvalues --   -1.14888  -1.14871  -1.14298  -1.14289  -1.14281
 Alpha  occ. eigenvalues --   -1.14202  -1.13998  -1.13983  -1.13955  -1.13937
 Alpha  occ. eigenvalues --   -1.13855  -1.13687  -1.13657  -1.13631  -1.13495
 Alpha  occ. eigenvalues --   -1.13492  -1.13469  -1.13137  -1.13133  -1.13120
 Alpha  occ. eigenvalues --   -0.15516  -0.13981  -0.13314  -0.10931
 Alpha virt. eigenvalues --   -0.07440  -0.04973  -0.04211  -0.03618  -0.03411
 Alpha virt. eigenvalues --   -0.02581  -0.02278  -0.01987  -0.01005  -0.00763
 Alpha virt. eigenvalues --   -0.00620  -0.00423   0.00193   0.00305   0.00625

  Beta  occ. eigenvalues --  -38.45458 -38.44833 -38.44494 -38.44486 -38.44112
  Beta  occ. eigenvalues --  -38.43964 -38.43656  -2.21219  -2.20595  -2.20316
  Beta  occ. eigenvalues --   -2.20278  -2.19861  -2.19694  -2.19472  -1.14892
  Beta  occ. eigenvalues --   -1.14882  -1.14854  -1.14266  -1.14260  -1.14246
  Beta  occ. eigenvalues --   -1.14166  -1.13979  -1.13955  -1.13933  -1.13916
  Beta  occ. eigenvalues --   -1.13819  -1.13582  -1.13550  -1.13525  -1.13395
  Beta  occ. eigenvalues --   -1.13388  -1.13366  -1.13153  -1.13149  -1.13061
  Beta  occ. eigenvalues --   -0.15023  -0.13354  -0.12465
  Beta virt. eigenvalues --   -0.07741  -0.07527  -0.04689  -0.03755  -0.03246
  Beta virt. eigenvalues --   -0.03193  -0.02345  -0.02069  -0.01685  -0.00865
  Beta virt. eigenvalues --   -0.00555  -0.00318  -0.00106   0.00233   0.00382

 Mulliken charges and spin densities:
               1          2
     1  Na  -0.122268   0.345099
     2  Na   0.441222   0.325937
     3  Na  -0.361920   0.056557
     4  Na   0.582885  -0.056966
     5  Na   0.184921   0.019039
     6  Na  -0.078600   0.165501
     7  Na  -0.646240   0.144834
 Sum of Mulliken charges =  -0.00000   1.00000

 Dipole moment (field-independent basis, Debye):
    X=              0.8206    Y=             -1.1038    Z=             -0.1374  Tot=              1.3823
 Quadrupole moment (field-independent basis, Debye-Ang):
   XX=            -52.5423   YY=            -76.5420   ZZ=            -70.3495
   XY=              2.9670   XZ=             -2.4415   YZ=             -2.4071

 Normal termination of Gaussian 16 at Sun Dec  3 19:06:31 2023.
