 Gaussian 16, Revision B.01,
 Gaussian 16:  ES64L-G16RevB.01 20-Dec-2017

 -------------------------
 #P B3LYP/6-311+g(d) force
 -------------------------

 -----
 DPGEN
 -----
 Symbolic Z-matrix:
 Charge =  0 Multiplicity = 2

                         Standard orientation:
 ---------------------------------------------------------------------
 Center     Atomic      Atomic             Coordinates (Angstroms)
 Number     Number       Type             X           Y           Z
 ---------------------------------------------------------------------
      1         11           0        1.594951   -2.164102   -0.073270
      2         11           0       -0.062595    3.850596   -0.629948
      3         11           0        5.178863   -1.107791    0.579057
      4         11           0       -4.208105   -1.228028    0.349594
      5         11           0        2.680393    1.623048   -0.255432
      6         11           0       -2.103411   -3.161173   -0.689309
      7         11           0       -3.080098    2.187450    0.719309
 ---------------------------------------------------------------------

 SCF Done:  E(UB3LYP) =  -1136.11276867     A.U. after   22 cycles

 The electronic state is 2-A.
 Alpha  occ. eigenvalues --  -38.45552 -38.45200 -38.44730 -38.44598 -38.44341
 Alpha  occ. eigenvalues --  -38.43938 -38.43595  -2.21291  -2.20965  -2.20487
 Alpha  occ. eigenvalues --   -2.20383  -2.20155  -2.19752  -2.19372  -1.14993
 Alpha  occ. eigenvalues --   -1.14987  -1.14878  -1.14665  -1.14657  -1.14557
 Alpha  occ. eigenvalues --   -1.14170  -1.14157  -1.14100  -1.14040  -1.14039
 Alpha  occ. eigenvalues --   -1.13982  -1.13865  -1.13820  -1.13798  -1.13408
 Alpha  occ. eigenvalues --   -1.13405  -1.13382  -1.13044  -1.13031  -1.13012
 Alpha  occ. eigenvalues --   -0.15694  -0.14065  -0.12957  -0.10852
 Alpha virt. eigenvalues --   -0.07256  -0.05859  -0.03913  -0.03688  -0.03089
 Alpha virt. eigenvalues --   -0.02737  -0.02206  -0.01827  -0.01361  -0.00826
 Alpha virt. eigenvalues --   -0.00566  -0.00173   0.00043   0.00466   0.00536

  Beta  occ. eigenvalues --  -38.45529 -38.45175 -38.44697 -38.44534 -38.44335
  Beta  occ. eigenvalues --  -38.43919 -38.43580  -2.21253  -2.20921  -2.20427
  Beta  occ. eigenvalues --   -2.20261  -2.20144  -2.19716  -2.19346  -1.14971
  Beta  occ. eigenvalues --   -1.14964  -1.14824  -1.14639  -1.14631  -1.14499
  Beta  occ. eigenvalues --   -1.14131  -1.14118  -1.14049  -1.13956  -1.13955
  Beta  occ. eigenvalues --   -1.13905  -1.13860  -1.13814  -1.13778  -1.13388
  Beta  occ. eigenvalues --   -1.13383  -1.13349  -1.13028  -1.13013  -1.12989
  Beta  occ. eigenvalues --   -0.15194  -0.13644  -0.12527
  Beta virt. eigenvalues --   -0.07472  -0.07055  -0.05318  -0.03559  -0.03518
  Beta virt. eigenvalues --   -0.02752  -0.02514  -0.01942  -0.01646  -0.01211
  Beta virt. eigenvalues --   -0.00493  -0.00269   0.00079   0.00258   0.00536

 Mulliken charges and spin densities:
               1          2
     1  Na  -0.988958   0.374238
     2  Na   0.065996  -0.152103
     3  Na   1.312423   0.552114
     4  Na   0.274237  -0.027381
     5  Na  -0.606794   0.351053
     6  Na   0.088199  -0.224256
     7  Na  -0.145104   0.126335
 Sum of Mulliken charges =  -0.00000   1.00000

 Dipole moment (field-independent basis, Debye):
    X=              1.0662    Y=             -0.3913    Z=              0.1422  Tot=              1.1446
 Quadrupole moment (field-independent basis, Debye-Ang):
   XX=            -58.0617   YY=            -67.0590   ZZ=            -72.9188
   XY=              0.0781   XZ=              0.5182   YZ=             -0.2658

 Normal termination of Gaussian 16 at Mon Dec  4 04:07:02 2023.
