 Gaussian 16, Revision B.01,
 Gaussian 16:  ES64L-G16RevB.01 20-Dec-2017

 -------------------------
 #P B3LYP/6-311+g(d) force
 -------------------------

 -----
 DPGEN
 -----
 Symbolic Z-matrix:
 Charge =  0 Multiplicity = 2

                         Standard orientation:
 ---------------------------------------------------------------------
 Center     Atomic      Atomic             Coordinates (Angstroms)
 Number     Number       Type             X           Y           Z
 ---------------------------------------------------------------------
      1         11           0        1.316369   -2.462594   -0.512775
      2         11           0       -0.055901    2.585350   -0.183820
      3         11           0       -1.446703   -2.706057    0.283106
      4         11           0        4.135902    2.036572   -0.250431
      5         11           0       -4.918200   -0.985324   -0.184694
      6         11           0       -3.606957    2.542960    0.327668
      7         11           0        4.575491   -1.010906    0.520945
 ---------------------------------------------------------------------

 SCF Done:  E(UB3LYP) =  -1136.10436729     A.U. after   20 cycles

 The electronic state is 2-A.
 Alpha  occ. eigenvalues --  -38.45139 -38.45051 -38.44841 -38.44756 -38.44663
 Alpha  occ. eigenvalues --  -38.43951 -38.43722  -2.20940  -2.20825  -2.20573
 Alpha  occ. eigenvalues --   -2.20535  -2.20421  -2.19771  -2.19565  -1.14634
 Alpha  occ. eigenvalues --   -1.14598  -1.14582  -1.14491  -1.14473  -1.14446
 Alpha  occ. eigenvalues --   -1.14264  -1.14244  -1.14224  -1.14185  -1.14167
 Alpha  occ. eigenvalues --   -1.14148  -1.14086  -1.14073  -1.14023  -1.13588
 Alpha  occ. eigenvalues --   -1.13425  -1.13407  -1.13205  -1.13197  -1.13155
 Alpha  occ. eigenvalues --   -0.15652  -0.14073  -0.12689  -0.11138
 Alpha virt. eigenvalues --   -0.07523  -0.05041  -0.04627  -0.03645  -0.03488
 Alpha virt. eigenvalues --   -0.02675  -0.01894  -0.01725  -0.01094  -0.00887
 Alpha virt. eigenvalues --   -0.00649  -0.00371  -0.00051   0.00362   0.00513

  Beta  occ. eigenvalues --  -38.45110 -38.45044 -38.44859 -38.44658 -38.44589
  Beta  occ. eigenvalues --  -38.43947 -38.43696  -2.20888  -2.20816  -2.20612
  Beta  occ. eigenvalues --   -2.20353  -2.20283  -2.19769  -2.19519  -1.14599
  Beta  occ. eigenvalues --   -1.14564  -1.14544  -1.14487  -1.14464  -1.14421
  Beta  occ. eigenvalues --   -1.14296  -1.14273  -1.14218  -1.14060  -1.14044
  Beta  occ. eigenvalues --   -1.14030  -1.13992  -1.13979  -1.13934  -1.13556
  Beta  occ. eigenvalues --   -1.13427  -1.13407  -1.13174  -1.13166  -1.13122
  Beta  occ. eigenvalues --   -0.15158  -0.13359  -0.12178
  Beta virt. eigenvalues --   -0.07865  -0.07557  -0.04464  -0.04261  -0.03366
  Beta virt. eigenvalues --   -0.03131  -0.02466  -0.01798  -0.01646  -0.00661
  Beta virt. eigenvalues --   -0.00612  -0.00556   0.00051   0.00131   0.00346

 Mulliken charges and spin densities:
               1          2
     1  Na  -0.606252   0.087888
     2  Na  -0.317368   0.340011
     3  Na  -0.015780   0.014889
     4  Na   0.092867   0.089031
     5  Na   0.147159   0.455544
     6  Na   0.361526  -0.132155
     7  Na   0.337848   0.144792
 Sum of Mulliken charges =  -0.00000   1.00000

 Dipole moment (field-independent basis, Debye):
    X=              0.9318    Y=              0.4962    Z=              0.1084  Tot=              1.0612
 Quadrupole moment (field-independent basis, Debye-Ang):
   XX=            -56.1608   YY=            -68.2464   ZZ=            -73.3833
   XY=             -1.1855   XZ=             -0.3027   YZ=             -1.3694

 Normal termination of Gaussian 16 at Mon Dec  4 02:03:30 2023.
