 Gaussian 16, Revision B.01,
 Gaussian 16:  ES64L-G16RevB.01 20-Dec-2017

 -------------------------
 #P B3LYP/6-311+g(d) force
 -------------------------

 -----
 DPGEN
 -----
 Symbolic Z-matrix:
 Charge =  0 Multiplicity = 2

                         Standard orientation:
 ---------------------------------------------------------------------
 Center     Atomic      Atomic             Coordinates (Angstroms)
 Number     Number       Type             X           Y           Z
 ---------------------------------------------------------------------
      1         11           0       -1.255150    3.219447    0.525219
      2         11           0        2.742181   -2.899630   -0.505338
      3         11           0        1.759304    2.918633    0.013786
      4         11           0        0.131707   -2.771944    1.218608
      5         11           0        4.108294    0.801370   -0.362212
      6         11           0       -3.472465   -2.140409   -0.414327
      7         11           0       -4.013871    0.872533   -0.475736
 ---------------------------------------------------------------------

 SCF Done:  E(UB3LYP) =  -1136.10809693     A.U. after   20 cycles

 The electronic state is 2-A.
 Alpha  occ. eigenvalues --  -38.44857 -38.44784 -38.44778 -38.44572 -38.44251
 Alpha  occ. eigenvalues --  -38.43952 -38.43806  -2.20657  -2.20576  -2.20563
 Alpha  occ. eigenvalues --   -2.20383  -2.20071  -2.19787  -2.19638  -1.14375
 Alpha  occ. eigenvalues --   -1.14326  -1.14320  -1.14300  -1.14236  -1.14230
 Alpha  occ. eigenvalues --   -1.14212  -1.14200  -1.14145  -1.14032  -1.14020
 Alpha  occ. eigenvalues --   -1.14010  -1.13752  -1.13711  -1.13684  -1.13520
 Alpha  occ. eigenvalues --   -1.13449  -1.13442  -1.13274  -1.13265  -1.13248
 Alpha  occ. eigenvalues --   -0.15759  -0.14002  -0.13549  -0.10885
 Alpha virt. eigenvalues --   -0.07390  -0.04950  -0.04042  -0.03740  -0.03479
 Alpha virt. eigenvalues --   -0.02472  -0.02135  -0.01831  -0.01228  -0.00821
 Alpha virt. eigenvalues --   -0.00443  -0.00075   0.00118   0.00453   0.00671

  Beta  occ. eigenvalues --  -38.44845 -38.44772 -38.44750 -38.44536 -38.44166
  Beta  occ. eigenvalues --  -38.43948 -38.43740  -2.20641  -2.20557  -2.20515
  Beta  occ. eigenvalues --   -2.20318  -2.19915  -2.19789  -2.19516  -1.14346
  Beta  occ. eigenvalues --   -1.14314  -1.14294  -1.14276  -1.14228  -1.14202
  Beta  occ. eigenvalues --   -1.14182  -1.14177  -1.14108  -1.13990  -1.13981
  Beta  occ. eigenvalues --   -1.13956  -1.13651  -1.13606  -1.13579  -1.13476
  Beta  occ. eigenvalues --   -1.13458  -1.13423  -1.13191  -1.13187  -1.13170
  Beta  occ. eigenvalues --   -0.15226  -0.13229  -0.12839
  Beta virt. eigenvalues --   -0.07731  -0.07493  -0.04582  -0.03562  -0.03513
  Beta virt. eigenvalues --   -0.03061  -0.02240  -0.01848  -0.01726  -0.01066
  Beta virt. eigenvalues --   -0.00581  -0.00183   0.00189   0.00311   0.00437

 Mulliken charges and spin densities:
               1          2
     1  Na   0.293484   0.264555
     2  Na   0.180196  -0.011044
     3  Na  -0.075679  -0.023835
     4  Na  -0.496146   0.184148
     5  Na  -0.131869   0.403405
     6  Na   0.097243   0.146048
     7  Na   0.132772   0.036724
 Sum of Mulliken charges =  -0.00000   1.00000

 Dipole moment (field-independent basis, Debye):
    X=             -0.3237    Y=             -1.1784    Z=             -0.1363  Tot=              1.2297
 Quadrupole moment (field-independent basis, Debye-Ang):
   XX=            -62.3967   YY=            -68.4312   ZZ=            -70.7186
   XY=             -4.6257   XZ=             -2.1135   YZ=              1.1826

 Normal termination of Gaussian 16 at Sun Dec  3 20:21:40 2023.
