 Gaussian 16, Revision B.01,
 Gaussian 16:  ES64L-G16RevB.01 20-Dec-2017

 -------------------------
 #P B3LYP/6-311+g(d) force
 -------------------------

 -----
 DPGEN
 -----
 Symbolic Z-matrix:
 Charge =  0 Multiplicity = 2

                         Standard orientation:
 ---------------------------------------------------------------------
 Center     Atomic      Atomic             Coordinates (Angstroms)
 Number     Number       Type             X           Y           Z
 ---------------------------------------------------------------------
      1         11           0        3.169051    1.732437   -0.108939
      2         11           0       -1.647814   -3.223244   -0.185854
      3         11           0        4.272051   -0.896970   -0.332061
      4         11           0        1.439750   -3.246519    0.477256
      5         11           0       -2.901859    2.605501   -0.348702
      6         11           0        0.065217    4.164675    0.436899
      7         11           0       -4.396395   -1.135880    0.061401
 ---------------------------------------------------------------------

 SCF Done:  E(UB3LYP) =  -1136.10662553     A.U. after   21 cycles

 The electronic state is 2-A.
 Alpha  occ. eigenvalues --  -38.45453 -38.45090 -38.44532 -38.44488 -38.44247
 Alpha  occ. eigenvalues --  -38.44241 -38.44140  -2.21182  -2.20912  -2.20348
 Alpha  occ. eigenvalues --   -2.20334  -2.20050  -2.20033  -2.19919  -1.14873
 Alpha  occ. eigenvalues --   -1.14859  -1.14812  -1.14673  -1.14560  -1.14543
 Alpha  occ. eigenvalues --   -1.14034  -1.13998  -1.13995  -1.13974  -1.13967
 Alpha  occ. eigenvalues --   -1.13943  -1.13723  -1.13721  -1.13714  -1.13682
 Alpha  occ. eigenvalues --   -1.13663  -1.13644  -1.13579  -1.13568  -1.13554
 Alpha  occ. eigenvalues --   -0.15620  -0.13981  -0.13609  -0.11112
 Alpha virt. eigenvalues --   -0.07565  -0.04760  -0.04446  -0.03587  -0.03463
 Alpha virt. eigenvalues --   -0.02534  -0.02315  -0.02008  -0.01662  -0.00508
 Alpha virt. eigenvalues --   -0.00353  -0.00168   0.00042   0.00305   0.00461

  Beta  occ. eigenvalues --  -38.45454 -38.45062 -38.44465 -38.44464 -38.44240
  Beta  occ. eigenvalues --  -38.44166 -38.44101  -2.21188  -2.20865  -2.20298
  Beta  occ. eigenvalues --   -2.20225  -2.20045  -2.19891  -2.19847  -1.14881
  Beta  occ. eigenvalues --   -1.14867  -1.14787  -1.14624  -1.14531  -1.14507
  Beta  occ. eigenvalues --   -1.13960  -1.13949  -1.13945  -1.13923  -1.13914
  Beta  occ. eigenvalues --   -1.13879  -1.13726  -1.13721  -1.13651  -1.13586
  Beta  occ. eigenvalues --   -1.13569  -1.13561  -1.13530  -1.13521  -1.13504
  Beta  occ. eigenvalues --   -0.15073  -0.13219  -0.12875
  Beta virt. eigenvalues --   -0.07954  -0.07710  -0.04272  -0.04064  -0.03310
  Beta virt. eigenvalues --   -0.03081  -0.02323  -0.02075  -0.01868  -0.01492
  Beta virt. eigenvalues --   -0.00139  -0.00012   0.00013   0.00222   0.00374

 Mulliken charges and spin densities:
               1          2
     1  Na  -0.163414   0.193613
     2  Na  -0.332626  -0.035491
     3  Na   0.460791  -0.039361
     4  Na  -0.107003   0.259999
     5  Na  -0.258019   0.022417
     6  Na   0.246764   0.209507
     7  Na   0.153508   0.389317
 Sum of Mulliken charges =  -0.00000   1.00000

 Dipole moment (field-independent basis, Debye):
    X=              0.5526    Y=              0.2587    Z=             -0.0275  Tot=              0.6108
 Quadrupole moment (field-independent basis, Debye-Ang):
   XX=            -60.5012   YY=            -66.2515   ZZ=            -73.6701
   XY=             -2.7430   XZ=              0.9908   YZ=              0.5318

 Normal termination of Gaussian 16 at Sun Dec  3 19:55:02 2023.
