 Gaussian 16, Revision B.01,
 Gaussian 16:  ES64L-G16RevB.01 20-Dec-2017

 -------------------------
 #P B3LYP/6-311+g(d) force
 -------------------------

 -----
 DPGEN
 -----
 Symbolic Z-matrix:
 Charge =  0 Multiplicity = 2

                         Standard orientation:
 ---------------------------------------------------------------------
 Center     Atomic      Atomic             Coordinates (Angstroms)
 Number     Number       Type             X           Y           Z
 ---------------------------------------------------------------------
      1         11           0       -0.070280   -1.170605    0.955880
      2         11           0        6.285883   -0.169371    0.059624
      3         11           0        3.352221   -0.653002   -0.874148
      4         11           0        1.120404    2.277090   -0.068814
      5         11           0       -2.200356    1.174698    0.796877
      6         11           0       -3.089472   -2.022741   -0.104047
      7         11           0       -5.398401    0.563931   -0.765373
 ---------------------------------------------------------------------

 SCF Done:  E(UB3LYP) =  -1136.11823161     A.U. after   20 cycles

 The electronic state is 2-A.
 Alpha  occ. eigenvalues --  -38.44460 -38.44414 -38.44367 -38.44053 -38.43911
 Alpha  occ. eigenvalues --  -38.43836 -38.43705  -2.20296  -2.20260  -2.20222
 Alpha  occ. eigenvalues --   -2.19945  -2.19713  -2.19615  -2.19526  -1.14035
 Alpha  occ. eigenvalues --   -1.13991  -1.13931  -1.13918  -1.13904  -1.13896
 Alpha  occ. eigenvalues --   -1.13885  -1.13859  -1.13828  -1.13624  -1.13609
 Alpha  occ. eigenvalues --   -1.13532  -1.13372  -1.13371  -1.13334  -1.13329
 Alpha  occ. eigenvalues --   -1.13276  -1.13274  -1.13203  -1.13181  -1.13113
 Alpha  occ. eigenvalues --   -0.17249  -0.14030  -0.11591  -0.11443
 Alpha virt. eigenvalues --   -0.06590  -0.05632  -0.04259  -0.03607  -0.03064
 Alpha virt. eigenvalues --   -0.02594  -0.02008  -0.01352  -0.01099  -0.00630
 Alpha virt. eigenvalues --   -0.00440  -0.00099   0.00203   0.00406   0.00643

  Beta  occ. eigenvalues --  -38.44412 -38.44391 -38.44327 -38.44000 -38.43871
  Beta  occ. eigenvalues --  -38.43847 -38.43701  -2.20255  -2.20171  -2.20154
  Beta  occ. eigenvalues --   -2.19851  -2.19637  -2.19636  -2.19518  -1.13985
  Beta  occ. eigenvalues --   -1.13963  -1.13875  -1.13871  -1.13855  -1.13839
  Beta  occ. eigenvalues --   -1.13833  -1.13806  -1.13756  -1.13564  -1.13546
  Beta  occ. eigenvalues --   -1.13439  -1.13344  -1.13320  -1.13314  -1.13289
  Beta  occ. eigenvalues --   -1.13288  -1.13284  -1.13194  -1.13176  -1.13119
  Beta  occ. eigenvalues --   -0.16522  -0.13864  -0.11384
  Beta virt. eigenvalues --   -0.07588  -0.06490  -0.05018  -0.04033  -0.03437
  Beta virt. eigenvalues --   -0.02487  -0.02160  -0.01810  -0.01287  -0.00788
  Beta virt. eigenvalues --   -0.00479  -0.00131   0.00047   0.00387   0.00467

 Mulliken charges and spin densities:
               1          2
     1  Na  -0.105231   0.561955
     2  Na   0.355149  -0.038971
     3  Na  -0.509429  -0.054812
     4  Na   0.291950   0.235154
     5  Na  -0.528962   0.155675
     6  Na   0.258853  -0.042046
     7  Na   0.237670   0.183044
 Sum of Mulliken charges =  -0.00000   1.00000

 Dipole moment (field-independent basis, Debye):
    X=             -0.6989    Y=              0.3643    Z=              0.0564  Tot=              0.7902
 Quadrupole moment (field-independent basis, Debye-Ang):
   XX=            -63.9178   YY=            -66.3817   ZZ=            -70.2032
   XY=              3.7856   XZ=              4.5160   YZ=              0.4108

 Normal termination of Gaussian 16 at Wed Nov 29 01:00:11 2023.
