 Gaussian 16, Revision B.01,
 Gaussian 16:  ES64L-G16RevB.01 20-Dec-2017

 -------------------------
 #P B3LYP/6-311+g(d) force
 -------------------------

 -----
 DPGEN
 -----
 Symbolic Z-matrix:
 Charge =  0 Multiplicity = 2

                         Standard orientation:
 ---------------------------------------------------------------------
 Center     Atomic      Atomic             Coordinates (Angstroms)
 Number     Number       Type             X           Y           Z
 ---------------------------------------------------------------------
      1         11           0       -2.719543   -2.027858   -1.208666
      2         11           0       -0.929395    3.360554    0.553375
      3         11           0       -1.316771   -2.019453    1.751844
      4         11           0        2.626642   -2.811732   -0.101048
      5         11           0        4.053677   -0.178120   -0.301627
      6         11           0        1.979558    2.932595   -0.271625
      7         11           0       -3.694166    0.744014   -0.422253
 ---------------------------------------------------------------------

 SCF Done:  E(UB3LYP) =  -1136.10605909     A.U. after   20 cycles

 The electronic state is 2-A.
 Alpha  occ. eigenvalues --  -38.45057 -38.44791 -38.44363 -38.44328 -38.44253
 Alpha  occ. eigenvalues --  -38.44082 -38.43834  -2.20895  -2.20577  -2.20165
 Alpha  occ. eigenvalues --   -2.20141  -2.20093  -2.19881  -2.19661  -1.14598
 Alpha  occ. eigenvalues --   -1.14554  -1.14546  -1.14284  -1.14240  -1.14213
 Alpha  occ. eigenvalues --   -1.13880  -1.13825  -1.13807  -1.13789  -1.13777
 Alpha  occ. eigenvalues --   -1.13757  -1.13756  -1.13721  -1.13716  -1.13538
 Alpha  occ. eigenvalues --   -1.13532  -1.13516  -1.13326  -1.13307  -1.13293
 Alpha  occ. eigenvalues --   -0.16114  -0.14053  -0.12985  -0.10338
 Alpha virt. eigenvalues --   -0.07265  -0.05814  -0.03843  -0.03631  -0.03109
 Alpha virt. eigenvalues --   -0.02581  -0.02107  -0.01725  -0.01364  -0.01098
 Alpha virt. eigenvalues --   -0.00213   0.00039   0.00226   0.00422   0.00552

  Beta  occ. eigenvalues --  -38.45051 -38.44790 -38.44351 -38.44238 -38.44184
  Beta  occ. eigenvalues --  -38.44076 -38.43807  -2.20893  -2.20580  -2.20145
  Beta  occ. eigenvalues --   -2.19975  -2.19966  -2.19873  -2.19611  -1.14590
  Beta  occ. eigenvalues --   -1.14557  -1.14505  -1.14279  -1.14245  -1.14199
  Beta  occ. eigenvalues --   -1.13860  -1.13813  -1.13793  -1.13676  -1.13669
  Beta  occ. eigenvalues --   -1.13664  -1.13645  -1.13638  -1.13626  -1.13534
  Beta  occ. eigenvalues --   -1.13527  -1.13496  -1.13294  -1.13272  -1.13257
  Beta  occ. eigenvalues --   -0.15552  -0.13614  -0.12516
  Beta virt. eigenvalues --   -0.07283  -0.06867  -0.05504  -0.03659  -0.03116
  Beta virt. eigenvalues --   -0.02850  -0.02209  -0.01885  -0.01535  -0.01121
  Beta virt. eigenvalues --   -0.00945   0.00071   0.00284   0.00395   0.00488

 Mulliken charges and spin densities:
               1          2
     1  Na   0.398135  -0.021314
     2  Na   0.138521  -0.007457
     3  Na  -0.297491   0.523592
     4  Na  -0.262057  -0.005686
     5  Na   0.352424   0.106250
     6  Na  -0.203197   0.036684
     7  Na  -0.126335   0.367932
 Sum of Mulliken charges =  -0.00000   1.00000

 Dipole moment (field-independent basis, Debye):
    X=             -0.3783    Y=             -0.5806    Z=             -0.2312  Tot=              0.7305
 Quadrupole moment (field-independent basis, Debye-Ang):
   XX=            -68.5633   YY=            -66.4066   ZZ=            -69.7722
   XY=              1.6070   XZ=             -1.7272   YZ=              4.4154

 Normal termination of Gaussian 16 at Mon Dec  4 04:48:16 2023.
