 Gaussian 16, Revision B.01,
 Gaussian 16:  ES64L-G16RevB.01 20-Dec-2017

 -------------------------
 #P B3LYP/6-311+g(d) force
 -------------------------

 -----
 DPGEN
 -----
 Symbolic Z-matrix:
 Charge =  0 Multiplicity = 2

                         Standard orientation:
 ---------------------------------------------------------------------
 Center     Atomic      Atomic             Coordinates (Angstroms)
 Number     Number       Type             X           Y           Z
 ---------------------------------------------------------------------
      1         11           0        0.140347    0.237932   -1.817345
      2         11           0       -0.544971   -0.409975    2.248089
      3         11           0       -2.684227   -1.293794   -0.381871
      4         11           0        2.763589   -0.173771    0.859335
      5         11           0        1.279428   -2.787936   -0.666447
      6         11           0        1.663564    2.781321   -0.397046
      7         11           0       -2.617731    1.646222    0.155285
 ---------------------------------------------------------------------

 SCF Done:  E(UB3LYP) =  -1136.13134594     A.U. after   20 cycles

 The electronic state is 2-A.
 Alpha  occ. eigenvalues --  -38.44513 -38.44193 -38.44124 -38.43923 -38.43660
 Alpha  occ. eigenvalues --  -38.43234 -38.43004  -2.20356  -2.20051  -2.20001
 Alpha  occ. eigenvalues --   -2.19776  -2.19579  -2.19054  -2.18823  -1.14014
 Alpha  occ. eigenvalues --   -1.13999  -1.13973  -1.13850  -1.13710  -1.13687
 Alpha  occ. eigenvalues --   -1.13654  -1.13641  -1.13571  -1.13459  -1.13438
 Alpha  occ. eigenvalues --   -1.13407  -1.13254  -1.13221  -1.13213  -1.12733
 Alpha  occ. eigenvalues --   -1.12707  -1.12692  -1.12502  -1.12480  -1.12464
 Alpha  occ. eigenvalues --   -0.18311  -0.13404  -0.11740  -0.11457
 Alpha virt. eigenvalues --   -0.05541  -0.05290  -0.04552  -0.03660  -0.03167
 Alpha virt. eigenvalues --   -0.02855  -0.01400  -0.01017  -0.00366  -0.00119
 Alpha virt. eigenvalues --   -0.00041   0.00414   0.00691   0.00796   0.00816

  Beta  occ. eigenvalues --  -38.44422 -38.44189 -38.44117 -38.43907 -38.43594
  Beta  occ. eigenvalues --  -38.43225 -38.43005  -2.20187  -2.20046  -2.19991
  Beta  occ. eigenvalues --   -2.19749  -2.19458  -2.19039  -2.18827  -1.13904
  Beta  occ. eigenvalues --   -1.13883  -1.13859  -1.13839  -1.13696  -1.13671
  Beta  occ. eigenvalues --   -1.13637  -1.13623  -1.13566  -1.13432  -1.13411
  Beta  occ. eigenvalues --   -1.13391  -1.13176  -1.13132  -1.13122  -1.12718
  Beta  occ. eigenvalues --   -1.12689  -1.12682  -1.12498  -1.12478  -1.12468
  Beta  occ. eigenvalues --   -0.17549  -0.13223  -0.11535
  Beta virt. eigenvalues --   -0.07530  -0.05374  -0.05213  -0.04304  -0.03047
  Beta virt. eigenvalues --   -0.02366  -0.02044  -0.01307  -0.00921  -0.00254
  Beta virt. eigenvalues --   -0.00151   0.00079   0.00437   0.00817   0.00857

 Mulliken charges and spin densities:
               1          2
     1  Na   0.065777   0.446732
     2  Na  -0.217520   0.451369
     3  Na   0.205630  -0.015303
     4  Na  -0.005319   0.178972
     5  Na  -0.061631  -0.022012
     6  Na  -0.019218  -0.073540
     7  Na   0.032282   0.033781
 Sum of Mulliken charges =  -0.00000   1.00000

 Dipole moment (field-independent basis, Debye):
    X=             -0.6362    Y=             -0.0986    Z=              0.3454  Tot=              0.7306
 Quadrupole moment (field-independent basis, Debye-Ang):
   XX=            -60.1205   YY=            -66.1760   ZZ=            -70.2581
   XY=             -0.7088   XZ=              1.6134   YZ=              1.8062

 Normal termination of Gaussian 16 at Tue Dec  5 18:05:30 2023.
