 Gaussian 16, Revision B.01,
 Gaussian 16:  ES64L-G16RevB.01 20-Dec-2017

 -------------------------
 #P B3LYP/6-311+g(d) force
 -------------------------

 -----
 DPGEN
 -----
 Symbolic Z-matrix:
 Charge =  0 Multiplicity = 2

                         Standard orientation:
 ---------------------------------------------------------------------
 Center     Atomic      Atomic             Coordinates (Angstroms)
 Number     Number       Type             X           Y           Z
 ---------------------------------------------------------------------
      1         11           0       -0.333910   -1.688105   -0.006789
      2         11           0       -2.092020    0.322321   -1.515760
      3         11           0        2.365103    1.999937   -0.747232
      4         11           0       -4.055736   -0.832293    0.437494
      5         11           0       -1.172866    1.863174    0.597717
      6         11           0        1.816353    0.016264    1.942591
      7         11           0        3.473076   -1.681299   -0.708021
 ---------------------------------------------------------------------

 SCF Done:  E(UB3LYP) =  -1136.10858173     A.U. after   27 cycles

 The electronic state is 2-A.
 Alpha  occ. eigenvalues --  -38.45893 -38.44982 -38.43992 -38.43967 -38.43876
 Alpha  occ. eigenvalues --  -38.43653 -38.43053  -2.21711  -2.20984  -2.19867
 Alpha  occ. eigenvalues --   -2.19769  -2.19757  -2.19448  -2.18972  -1.15417
 Alpha  occ. eigenvalues --   -1.15360  -1.15340  -1.14732  -1.14663  -1.14556
 Alpha  occ. eigenvalues --   -1.13603  -1.13549  -1.13479  -1.13461  -1.13439
 Alpha  occ. eigenvalues --   -1.13414  -1.13384  -1.13378  -1.13361  -1.13122
 Alpha  occ. eigenvalues --   -1.13094  -1.13077  -1.12724  -1.12604  -1.12556
 Alpha  occ. eigenvalues --   -0.18363  -0.14596  -0.10961  -0.10249
 Alpha virt. eigenvalues --   -0.07256  -0.05722  -0.04792  -0.03144  -0.02856
 Alpha virt. eigenvalues --   -0.02286  -0.01851  -0.01377  -0.00776  -0.00341
 Alpha virt. eigenvalues --   -0.00068   0.00183   0.00313   0.00533   0.00679

  Beta  occ. eigenvalues --  -38.45889 -38.44963 -38.43969 -38.43933 -38.43825
  Beta  occ. eigenvalues --  -38.43620 -38.43042  -2.21704  -2.20948  -2.19830
  Beta  occ. eigenvalues --   -2.19706  -2.19669  -2.19388  -2.18956  -1.15407
  Beta  occ. eigenvalues --   -1.15355  -1.15332  -1.14705  -1.14638  -1.14529
  Beta  occ. eigenvalues --   -1.13572  -1.13494  -1.13438  -1.13430  -1.13396
  Beta  occ. eigenvalues --   -1.13349  -1.13325  -1.13319  -1.13297  -1.13081
  Beta  occ. eigenvalues --   -1.13049  -1.13032  -1.12712  -1.12562  -1.12551
  Beta  occ. eigenvalues --   -0.17828  -0.14162  -0.10832
  Beta virt. eigenvalues --   -0.07144  -0.06561  -0.05553  -0.04270  -0.02917
  Beta virt. eigenvalues --   -0.02734  -0.01762  -0.01321  -0.01220  -0.00380
  Beta virt. eigenvalues --   -0.00187   0.00070   0.00199   0.00450   0.00632

 Mulliken charges and spin densities:
               1          2
     1  Na  -0.805558   0.119989
     2  Na   0.451267   0.184785
     3  Na  -0.184006   0.360997
     4  Na   0.470105  -0.099788
     5  Na  -0.291880   0.200618
     6  Na   0.211868  -0.041737
     7  Na   0.148204   0.275135
 Sum of Mulliken charges =  -0.00000   1.00000

 Dipole moment (field-independent basis, Debye):
    X=             -1.7473    Y=             -0.1745    Z=              0.6654  Tot=              1.8778
 Quadrupole moment (field-independent basis, Debye-Ang):
   XX=            -51.0469   YY=            -77.3216   ZZ=            -67.4112
   XY=              2.2102   XZ=             -2.3498   YZ=              1.1829

 Normal termination of Gaussian 16 at Tue Dec  5 17:48:42 2023.
