 Gaussian 16, Revision B.01,
 Gaussian 16:  ES64L-G16RevB.01 20-Dec-2017

 -------------------------
 #P B3LYP/6-311+g(d) force
 -------------------------

 -----
 DPGEN
 -----
 Symbolic Z-matrix:
 Charge =  0 Multiplicity = 2

                         Standard orientation:
 ---------------------------------------------------------------------
 Center     Atomic      Atomic             Coordinates (Angstroms)
 Number     Number       Type             X           Y           Z
 ---------------------------------------------------------------------
      1         11           0        1.324566    2.710600    0.259875
      2         11           0        3.307479   -0.504985   -0.611714
      3         11           0        0.671798   -2.572591    0.642039
      4         11           0       -2.797833   -1.466227   -0.325331
      5         11           0       -2.393341    1.786518   -0.215202
      6         11           0       -0.007488   -0.137995   -1.548308
      7         11           0       -0.105180    0.184681    1.798641
 ---------------------------------------------------------------------

 SCF Done:  E(UB3LYP) =  -1136.13581911     A.U. after   20 cycles

 The electronic state is 2-A.
 Alpha  occ. eigenvalues --  -38.44252 -38.43801 -38.43731 -38.43386 -38.43296
 Alpha  occ. eigenvalues --  -38.43202 -38.43094  -2.20057  -2.19659  -2.19603
 Alpha  occ. eigenvalues --   -2.19291  -2.19213  -2.19191  -2.18991  -1.13733
 Alpha  occ. eigenvalues --   -1.13699  -1.13694  -1.13368  -1.13338  -1.13295
 Alpha  occ. eigenvalues --   -1.13286  -1.13269  -1.13203  -1.13020  -1.12942
 Alpha  occ. eigenvalues --   -1.12925  -1.12907  -1.12895  -1.12869  -1.12839
 Alpha  occ. eigenvalues --   -1.12821  -1.12786  -1.12655  -1.12640  -1.12591
 Alpha  occ. eigenvalues --   -0.18840  -0.13218  -0.12276  -0.10758
 Alpha virt. eigenvalues --   -0.05765  -0.05184  -0.04372  -0.03211  -0.02809
 Alpha virt. eigenvalues --   -0.02319  -0.01807  -0.01147  -0.00358  -0.00147
 Alpha virt. eigenvalues --    0.00043   0.00315   0.00767   0.00843   0.00903

  Beta  occ. eigenvalues --  -38.44231 -38.43794 -38.43725 -38.43381 -38.43245
  Beta  occ. eigenvalues --  -38.43113 -38.43073  -2.20021  -2.19650  -2.19595
  Beta  occ. eigenvalues --   -2.19208  -2.19198  -2.19030  -2.18956  -1.13695
  Beta  occ. eigenvalues --   -1.13677  -1.13672  -1.13361  -1.13327  -1.13276
  Beta  occ. eigenvalues --   -1.13271  -1.13254  -1.13191  -1.12950  -1.12908
  Beta  occ. eigenvalues --   -1.12879  -1.12854  -1.12834  -1.12825  -1.12800
  Beta  occ. eigenvalues --   -1.12719  -1.12685  -1.12617  -1.12587  -1.12561
  Beta  occ. eigenvalues --   -0.18158  -0.12882  -0.12012
  Beta virt. eigenvalues --   -0.06929  -0.05613  -0.05192  -0.04323  -0.02529
  Beta virt. eigenvalues --   -0.02069  -0.01634  -0.01333  -0.01107  -0.00339
  Beta virt. eigenvalues --   -0.00136   0.00133   0.00364   0.00830   0.00848

 Mulliken charges and spin densities:
               1          2
     1  Na  -0.066090  -0.043358
     2  Na  -0.077634   0.070579
     3  Na   0.178364   0.092109
     4  Na   0.171560   0.009246
     5  Na   0.029163  -0.042206
     6  Na  -0.285944   0.451499
     7  Na   0.050581   0.462132
 Sum of Mulliken charges =  -0.00000   1.00000

 Dipole moment (field-independent basis, Debye):
    X=              0.0270    Y=              0.0689    Z=             -0.0720  Tot=              0.1032
 Quadrupole moment (field-independent basis, Debye-Ang):
   XX=            -54.0943   YY=            -63.8925   ZZ=            -74.2908
   XY=              0.4859   XZ=             -0.2654   YZ=             -0.4758

 Normal termination of Gaussian 16 at Thu Dec  7 10:37:12 2023.
