 Gaussian 16, Revision B.01,
 Gaussian 16:  ES64L-G16RevB.01 20-Dec-2017

 -------------------------
 #P B3LYP/6-311+g(d) force
 -------------------------

 -----
 DPGEN
 -----
 Symbolic Z-matrix:
 Charge =  0 Multiplicity = 2

                         Standard orientation:
 ---------------------------------------------------------------------
 Center     Atomic      Atomic             Coordinates (Angstroms)
 Number     Number       Type             X           Y           Z
 ---------------------------------------------------------------------
      1         11           0        3.895142   -3.128529   -0.282781
      2         11           0        5.106080    0.700902   -0.425974
      3         11           0        0.923633   -1.992705    0.852961
      4         11           0       -2.648957   -0.991447    0.001905
      5         11           0        4.804240    3.774632    0.154541
      6         11           0       -6.172830    2.416667    0.093163
      7         11           0       -5.907308   -0.779520   -0.393814
 ---------------------------------------------------------------------

 SCF Done:  E(UB3LYP) =  -1136.10645350     A.U. after   20 cycles

 The electronic state is 2-A.
 Alpha  occ. eigenvalues --  -38.45707 -38.45185 -38.44670 -38.44541 -38.44248
 Alpha  occ. eigenvalues --  -38.43373 -38.43308  -2.21499  -2.20995  -2.20477
 Alpha  occ. eigenvalues --   -2.20333  -2.19998  -2.19151  -2.19105  -1.15147
 Alpha  occ. eigenvalues --   -1.15143  -1.15123  -1.14675  -1.14660  -1.14643
 Alpha  occ. eigenvalues --   -1.14138  -1.14133  -1.14074  -1.13984  -1.13970
 Alpha  occ. eigenvalues --   -1.13966  -1.13686  -1.13685  -1.13636  -1.12876
 Alpha  occ. eigenvalues --   -1.12832  -1.12815  -1.12751  -1.12751  -1.12689
 Alpha  occ. eigenvalues --   -0.15597  -0.14227  -0.12252  -0.11251
 Alpha virt. eigenvalues --   -0.07226  -0.05227  -0.04457  -0.03657  -0.03181
 Alpha virt. eigenvalues --   -0.02683  -0.02142  -0.01932  -0.01417  -0.01000
 Alpha virt. eigenvalues --   -0.00757  -0.00675  -0.00129   0.00208   0.00312

  Beta  occ. eigenvalues --  -38.45632 -38.45195 -38.44591 -38.44481 -38.44268
  Beta  occ. eigenvalues --  -38.43381 -38.43277  -2.21358  -2.21020  -2.20329
  Beta  occ. eigenvalues --   -2.20219  -2.20039  -2.19168  -2.19048  -1.15048
  Beta  occ. eigenvalues --   -1.15046  -1.15033  -1.14683  -1.14680  -1.14635
  Beta  occ. eigenvalues --   -1.14037  -1.14032  -1.13983  -1.13906  -1.13901
  Beta  occ. eigenvalues --   -1.13890  -1.13718  -1.13718  -1.13627  -1.12866
  Beta  occ. eigenvalues --   -1.12846  -1.12819  -1.12713  -1.12712  -1.12662
  Beta  occ. eigenvalues --   -0.14951  -0.13767  -0.11637
  Beta virt. eigenvalues --   -0.08224  -0.06600  -0.05032  -0.04139  -0.03460
  Beta virt. eigenvalues --   -0.02873  -0.02523  -0.01851  -0.01560  -0.01265
  Beta virt. eigenvalues --   -0.00812  -0.00424  -0.00332   0.00083   0.00306

 Mulliken charges and spin densities:
               1          2
     1  Na   0.533335   0.270444
     2  Na  -0.355806  -0.016486
     3  Na  -1.154530  -0.257426
     4  Na  -1.201289   0.350843
     5  Na   0.300665   0.158569
     6  Na   0.103331   0.377485
     7  Na   1.774295   0.116572
 Sum of Mulliken charges =  -0.00000   1.00000

 Dipole moment (field-independent basis, Debye):
    X=             -3.4899    Y=              0.0269    Z=             -0.0261  Tot=              3.4901
 Quadrupole moment (field-independent basis, Debye-Ang):
   XX=            -61.0412   YY=            -59.1904   ZZ=            -74.1574
   XY=            -10.8474   XZ=             -0.2478   YZ=              4.2480

 Normal termination of Gaussian 16 at Sun Dec  3 13:50:03 2023.
