 Gaussian 16, Revision B.01,
 Gaussian 16:  ES64L-G16RevB.01 20-Dec-2017

 -------------------------
 #P B3LYP/6-311+g(d) force
 -------------------------

 -----
 DPGEN
 -----
 Symbolic Z-matrix:
 Charge =  0 Multiplicity = 2

                         Standard orientation:
 ---------------------------------------------------------------------
 Center     Atomic      Atomic             Coordinates (Angstroms)
 Number     Number       Type             X           Y           Z
 ---------------------------------------------------------------------
      1         11           0        0.624467    0.254631    2.181726
      2         11           0        0.219820   -2.234557    0.220742
      3         11           0        1.445335    1.102731   -1.952879
      4         11           0       -0.560958    3.426549    0.261356
      5         11           0       -3.401392   -1.866857   -0.562614
      6         11           0        3.336403   -1.364947   -0.120440
      7         11           0       -1.663673    0.682450   -0.027890
 ---------------------------------------------------------------------

 SCF Done:  E(UB3LYP) =  -1136.12740498     A.U. after   21 cycles

 The electronic state is 2-A.
 Alpha  occ. eigenvalues --  -38.44471 -38.44460 -38.44029 -38.43791 -38.43576
 Alpha  occ. eigenvalues --  -38.43405 -38.42760  -2.20352  -2.20282  -2.19844
 Alpha  occ. eigenvalues --   -2.19633  -2.19473  -2.19224  -2.18775  -1.14062
 Alpha  occ. eigenvalues --   -1.13966  -1.13962  -1.13947  -1.13928  -1.13881
 Alpha  occ. eigenvalues --   -1.13532  -1.13495  -1.13490  -1.13371  -1.13269
 Alpha  occ. eigenvalues --   -1.13260  -1.13200  -1.13154  -1.13051  -1.12922
 Alpha  occ. eigenvalues --   -1.12873  -1.12846  -1.12484  -1.12447  -1.12372
 Alpha  occ. eigenvalues --   -0.18281  -0.13004  -0.12470  -0.11180
 Alpha virt. eigenvalues --   -0.05821  -0.05199  -0.04461  -0.03439  -0.03179
 Alpha virt. eigenvalues --   -0.02443  -0.01620  -0.01392  -0.00273  -0.00239
 Alpha virt. eigenvalues --    0.00096   0.00293   0.00669   0.00702   0.00809

  Beta  occ. eigenvalues --  -38.44398 -38.44361 -38.44030 -38.43794 -38.43567
  Beta  occ. eigenvalues --  -38.43392 -38.42749  -2.20172  -2.20146  -2.19849
  Beta  occ. eigenvalues --   -2.19641  -2.19460  -2.19200  -2.18759  -1.13940
  Beta  occ. eigenvalues --   -1.13868  -1.13846  -1.13837  -1.13815  -1.13782
  Beta  occ. eigenvalues --   -1.13538  -1.13496  -1.13476  -1.13379  -1.13270
  Beta  occ. eigenvalues --   -1.13254  -1.13185  -1.13123  -1.13050  -1.12906
  Beta  occ. eigenvalues --   -1.12854  -1.12832  -1.12468  -1.12402  -1.12370
  Beta  occ. eigenvalues --   -0.17545  -0.12823  -0.12156
  Beta virt. eigenvalues --   -0.07426  -0.05625  -0.04920  -0.04300  -0.02746
  Beta virt. eigenvalues --   -0.02534  -0.01807  -0.01505  -0.01322  -0.00240
  Beta virt. eigenvalues --   -0.00043   0.00215   0.00364   0.00789   0.00812

 Mulliken charges and spin densities:
               1          2
     1  Na  -0.022530   0.061495
     2  Na  -0.049193   0.208326
     3  Na  -0.322575   0.196456
     4  Na   1.214835   0.098290
     5  Na   1.068148  -0.193347
     6  Na   0.236936   0.122995
     7  Na  -2.125621   0.505784
 Sum of Mulliken charges =  -0.00000   1.00000

 Dipole moment (field-independent basis, Debye):
    X=              0.8640    Y=              0.2950    Z=              0.1479  Tot=              0.9249
 Quadrupole moment (field-independent basis, Debye-Ang):
   XX=            -61.3473   YY=            -62.2065   ZZ=            -70.1293
   XY=             -0.8950   XZ=              1.0423   YZ=              1.1012

 Normal termination of Gaussian 16 at Mon Dec  4 04:27:44 2023.
