 Gaussian 16, Revision B.01,
 Gaussian 16:  ES64L-G16RevB.01 20-Dec-2017

 -------------------------
 #P B3LYP/6-311+g(d) force
 -------------------------

 -----
 DPGEN
 -----
 Symbolic Z-matrix:
 Charge =  0 Multiplicity = 2

                         Standard orientation:
 ---------------------------------------------------------------------
 Center     Atomic      Atomic             Coordinates (Angstroms)
 Number     Number       Type             X           Y           Z
 ---------------------------------------------------------------------
      1         11           0       -2.576335    0.266920   -0.904436
      2         11           0       -3.756224   -2.588025   -0.311557
      3         11           0        2.883733   -1.102527    0.213890
      4         11           0       -2.103307    3.583959   -0.121851
      5         11           0        5.686025   -0.094398   -0.752877
      6         11           0       -0.676722   -1.850330    0.911337
      7         11           0        0.542830    1.784401    0.965494
 ---------------------------------------------------------------------

 SCF Done:  E(UB3LYP) =  -1136.12655052     A.U. after   19 cycles

 The electronic state is 2-A.
 Alpha  occ. eigenvalues --  -38.44504 -38.44168 -38.44162 -38.44079 -38.43954
 Alpha  occ. eigenvalues --  -38.43575 -38.43212  -2.20306  -2.20047  -2.19993
 Alpha  occ. eigenvalues --   -2.19940  -2.19800  -2.19391  -2.19040  -1.14000
 Alpha  occ. eigenvalues --   -1.13986  -1.13910  -1.13758  -1.13741  -1.13685
 Alpha  occ. eigenvalues --   -1.13643  -1.13622  -1.13620  -1.13619  -1.13617
 Alpha  occ. eigenvalues --   -1.13538  -1.13450  -1.13447  -1.13407  -1.13055
 Alpha  occ. eigenvalues --   -1.13049  -1.13023  -1.12721  -1.12720  -1.12696
 Alpha  occ. eigenvalues --   -0.17050  -0.13859  -0.12709  -0.11117
 Alpha virt. eigenvalues --   -0.05698  -0.05296  -0.04838  -0.03892  -0.02494
 Alpha virt. eigenvalues --   -0.02241  -0.01868  -0.01807  -0.01059  -0.00841
 Alpha virt. eigenvalues --   -0.00357   0.00076   0.00229   0.00489   0.00688

  Beta  occ. eigenvalues --  -38.44486 -38.44140 -38.44074 -38.44035 -38.43936
  Beta  occ. eigenvalues --  -38.43562 -38.43210  -2.20275  -2.20009  -2.19861
  Beta  occ. eigenvalues --   -2.19817  -2.19766  -2.19368  -2.19046  -1.13980
  Beta  occ. eigenvalues --   -1.13960  -1.13883  -1.13723  -1.13714  -1.13652
  Beta  occ. eigenvalues --   -1.13572  -1.13571  -1.13528  -1.13499  -1.13497
  Beta  occ. eigenvalues --   -1.13473  -1.13424  -1.13417  -1.13381  -1.13035
  Beta  occ. eigenvalues --   -1.13033  -1.13011  -1.12733  -1.12732  -1.12630
  Beta  occ. eigenvalues --   -0.16477  -0.13083  -0.12504
  Beta virt. eigenvalues --   -0.07675  -0.05504  -0.04982  -0.04340  -0.03639
  Beta virt. eigenvalues --   -0.02190  -0.02095  -0.01726  -0.01325  -0.00831
  Beta virt. eigenvalues --   -0.00531  -0.00014   0.00200   0.00392   0.00594

 Mulliken charges and spin densities:
               1          2
     1  Na  -0.767337   0.240753
     2  Na   0.954293   0.092194
     3  Na  -0.602415   0.369552
     4  Na   0.561308   0.051490
     5  Na   0.650649   0.322501
     6  Na  -0.527791  -0.091566
     7  Na  -0.268706   0.015076
 Sum of Mulliken charges =  -0.00000   1.00000

 Dipole moment (field-independent basis, Debye):
    X=             -1.1556    Y=              0.1249    Z=              0.1383  Tot=              1.1705
 Quadrupole moment (field-independent basis, Debye-Ang):
   XX=            -63.2737   YY=            -61.9293   ZZ=            -70.4054
   XY=              5.3309   XZ=              0.0215   YZ=             -0.2411

 Normal termination of Gaussian 16 at Tue Nov 28 22:45:15 2023.
