 Gaussian 16, Revision B.01,
 Gaussian 16:  ES64L-G16RevB.01 20-Dec-2017

 -------------------------
 #P B3LYP/6-311+g(d) force
 -------------------------

 -----
 DPGEN
 -----
 Symbolic Z-matrix:
 Charge =  0 Multiplicity = 2

                         Standard orientation:
 ---------------------------------------------------------------------
 Center     Atomic      Atomic             Coordinates (Angstroms)
 Number     Number       Type             X           Y           Z
 ---------------------------------------------------------------------
      1         11           0        0.804295   -2.748587   -0.719924
      2         11           0        1.567228    3.155451   -0.204430
      3         11           0       -2.179532   -1.613065    0.164826
      4         11           0       -3.133968    1.176423    0.124890
      5         11           0       -0.445053    0.679824   -1.645730
      6         11           0        0.066633    0.031510    2.045045
      7         11           0        3.320397   -0.681556    0.235322
 ---------------------------------------------------------------------

 SCF Done:  E(UB3LYP) =  -1136.12606144     A.U. after   21 cycles

 The electronic state is 2-A.
 Alpha  occ. eigenvalues --  -38.44954 -38.44679 -38.44013 -38.43808 -38.43539
 Alpha  occ. eigenvalues --  -38.43404 -38.43102  -2.20719  -2.20549  -2.19868
 Alpha  occ. eigenvalues --   -2.19564  -2.19496  -2.19317  -2.18951  -1.14400
 Alpha  occ. eigenvalues --   -1.14379  -1.14352  -1.14271  -1.14203  -1.14175
 Alpha  occ. eigenvalues --   -1.13551  -1.13498  -1.13481  -1.13243  -1.13223
 Alpha  occ. eigenvalues --   -1.13208  -1.13173  -1.13158  -1.13140  -1.12997
 Alpha  occ. eigenvalues --   -1.12964  -1.12927  -1.12617  -1.12614  -1.12590
 Alpha  occ. eigenvalues --   -0.18358  -0.13222  -0.12026  -0.10745
 Alpha virt. eigenvalues --   -0.06492  -0.05309  -0.04414  -0.03378  -0.02811
 Alpha virt. eigenvalues --   -0.02517  -0.01948  -0.01206  -0.00637  -0.00290
 Alpha virt. eigenvalues --   -0.00023   0.00329   0.00582   0.00717   0.00794

  Beta  occ. eigenvalues --  -38.44954 -38.44674 -38.43922 -38.43812 -38.43525
  Beta  occ. eigenvalues --  -38.43345 -38.43085  -2.20721  -2.20544  -2.19702
  Beta  occ. eigenvalues --   -2.19572  -2.19476  -2.19207  -2.18920  -1.14388
  Beta  occ. eigenvalues --   -1.14382  -1.14357  -1.14272  -1.14190  -1.14155
  Beta  occ. eigenvalues --   -1.13441  -1.13382  -1.13358  -1.13240  -1.13230
  Beta  occ. eigenvalues --   -1.13213  -1.13163  -1.13150  -1.13077  -1.12925
  Beta  occ. eigenvalues --   -1.12886  -1.12844  -1.12598  -1.12590  -1.12558
  Beta  occ. eigenvalues --   -0.17597  -0.13047  -0.11801
  Beta virt. eigenvalues --   -0.06885  -0.06403  -0.05206  -0.04311  -0.02653
  Beta virt. eigenvalues --   -0.02170  -0.01844  -0.01578  -0.01078  -0.00656
  Beta virt. eigenvalues --   -0.00272   0.00120   0.00364   0.00693   0.00779

 Mulliken charges and spin densities:
               1          2
     1  Na  -0.158431   0.070582
     2  Na  -0.216938  -0.098037
     3  Na   0.280647   0.328599
     4  Na   0.221083   0.001395
     5  Na   0.076489   0.282422
     6  Na  -0.169703   0.432997
     7  Na  -0.033148  -0.017958
 Sum of Mulliken charges =  -0.00000   1.00000

 Dipole moment (field-independent basis, Debye):
    X=              0.1088    Y=              0.3486    Z=              0.2583  Tot=              0.4473
 Quadrupole moment (field-independent basis, Debye-Ang):
   XX=            -53.5545   YY=            -65.7936   ZZ=            -74.6077
   XY=             -1.7510   XZ=             -0.2828   YZ=              1.4801

 Normal termination of Gaussian 16 at Fri Dec  8 02:26:00 2023.
