 Gaussian 16, Revision B.01,
 Gaussian 16:  ES64L-G16RevB.01 20-Dec-2017

 -------------------------
 #P B3LYP/6-311+g(d) force
 -------------------------

 -----
 DPGEN
 -----
 Symbolic Z-matrix:
 Charge =  0 Multiplicity = 2

                         Standard orientation:
 ---------------------------------------------------------------------
 Center     Atomic      Atomic             Coordinates (Angstroms)
 Number     Number       Type             X           Y           Z
 ---------------------------------------------------------------------
      1         11           0        2.013726    3.237785   -0.333928
      2         11           0       -3.911850    1.592791   -0.665778
      3         11           0       -0.787517    2.839594    0.844775
      4         11           0        3.115405   -2.942477   -0.254669
      5         11           0       -0.724346   -2.297025    0.425382
      6         11           0        4.200780   -0.005492   -0.027980
      7         11           0       -3.906197   -2.425176    0.012198
 ---------------------------------------------------------------------

 SCF Done:  E(UB3LYP) =  -1136.10821740     A.U. after   19 cycles

 The electronic state is 2-A.
 Alpha  occ. eigenvalues --  -38.45245 -38.44917 -38.44584 -38.44558 -38.44349
 Alpha  occ. eigenvalues --  -38.44099 -38.43622  -2.21022  -2.20693  -2.20368
 Alpha  occ. eigenvalues --   -2.20344  -2.20144  -2.19907  -2.19447  -1.14697
 Alpha  occ. eigenvalues --   -1.14691  -1.14666  -1.14370  -1.14356  -1.14329
 Alpha  occ. eigenvalues --   -1.14018  -1.14007  -1.14002  -1.13996  -1.13986
 Alpha  occ. eigenvalues --   -1.13974  -1.13845  -1.13817  -1.13796  -1.13565
 Alpha  occ. eigenvalues --   -1.13559  -1.13547  -1.13103  -1.13088  -1.13076
 Alpha  occ. eigenvalues --   -0.15634  -0.13870  -0.13276  -0.10707
 Alpha virt. eigenvalues --   -0.07449  -0.04861  -0.04693  -0.03469  -0.03245
 Alpha virt. eigenvalues --   -0.02541  -0.02298  -0.02041  -0.01276  -0.00818
 Alpha virt. eigenvalues --   -0.00364  -0.00004   0.00180   0.00349   0.00617

  Beta  occ. eigenvalues --  -38.45235 -38.44885 -38.44542 -38.44481 -38.44354
  Beta  occ. eigenvalues --  -38.44076 -38.43580  -2.21008  -2.20637  -2.20318
  Beta  occ. eigenvalues --   -2.20178  -2.20159  -2.19865  -2.19367  -1.14691
  Beta  occ. eigenvalues --   -1.14681  -1.14636  -1.14333  -1.14319  -1.14281
  Beta  occ. eigenvalues --   -1.13991  -1.13970  -1.13953  -1.13889  -1.13873
  Beta  occ. eigenvalues --   -1.13853  -1.13852  -1.13833  -1.13771  -1.13534
  Beta  occ. eigenvalues --   -1.13531  -1.13519  -1.13056  -1.13033  -1.13021
  Beta  occ. eigenvalues --   -0.15180  -0.13154  -0.12706
  Beta virt. eigenvalues --   -0.07497  -0.07366  -0.04673  -0.04269  -0.03133
  Beta virt. eigenvalues --   -0.02840  -0.02284  -0.02053  -0.01899  -0.01117
  Beta virt. eigenvalues --   -0.00355  -0.00223   0.00185   0.00299   0.00410

 Mulliken charges and spin densities:
               1          2
     1  Na   0.131424   0.154600
     2  Na   0.102218   0.520662
     3  Na  -0.355080  -0.010230
     4  Na   0.506749   0.153790
     5  Na  -0.703115   0.224646
     6  Na  -0.188656   0.070798
     7  Na   0.506461  -0.114266
 Sum of Mulliken charges =  -0.00000   1.00000

 Dipole moment (field-independent basis, Debye):
    X=              0.0348    Y=             -0.7729    Z=             -0.1466  Tot=              0.7875
 Quadrupole moment (field-independent basis, Debye-Ang):
   XX=            -56.2223   YY=            -71.2418   ZZ=            -72.2795
   XY=              4.9343   XZ=              0.4003   YZ=              0.2310

 Normal termination of Gaussian 16 at Sun Dec  3 15:55:35 2023.
