 Gaussian 16, Revision B.01,
 Gaussian 16:  ES64L-G16RevB.01 20-Dec-2017

 -------------------------
 #P B3LYP/6-311+g(d) force
 -------------------------

 -----
 DPGEN
 -----
 Symbolic Z-matrix:
 Charge =  0 Multiplicity = 2

                         Standard orientation:
 ---------------------------------------------------------------------
 Center     Atomic      Atomic             Coordinates (Angstroms)
 Number     Number       Type             X           Y           Z
 ---------------------------------------------------------------------
      1         11           0       -0.485340   -0.189457    0.003809
      2         11           0        1.166921   -3.218288    0.435387
      3         11           0       -2.955438   -2.149341   -0.270890
      4         11           0       -3.818831    1.275426    0.323500
      5         11           0        0.085778    3.352706   -0.681532
      6         11           0        2.686851    1.879070    1.015249
      7         11           0        3.320057   -0.950117   -0.825523
 ---------------------------------------------------------------------

 SCF Done:  E(UB3LYP) =  -1136.12233914     A.U. after   23 cycles

 The electronic state is 2-A.
 Alpha  occ. eigenvalues --  -38.44866 -38.44579 -38.43918 -38.43824 -38.43612
 Alpha  occ. eigenvalues --  -38.43501 -38.43436  -2.20667  -2.20382  -2.19722
 Alpha  occ. eigenvalues --   -2.19632  -2.19420  -2.19402  -2.19277  -1.14370
 Alpha  occ. eigenvalues --   -1.14346  -1.14274  -1.14070  -1.14048  -1.14012
 Alpha  occ. eigenvalues --   -1.13385  -1.13361  -1.13340  -1.13312  -1.13300
 Alpha  occ. eigenvalues --   -1.13266  -1.13133  -1.13084  -1.13068  -1.13057
 Alpha  occ. eigenvalues --   -1.13040  -1.13014  -1.12938  -1.12925  -1.12903
 Alpha  occ. eigenvalues --   -0.16938  -0.13769  -0.12786  -0.09459
 Alpha virt. eigenvalues --   -0.06599  -0.05362  -0.05251  -0.02715  -0.02541
 Alpha virt. eigenvalues --   -0.02224  -0.02171  -0.01689  -0.01624  -0.00336
 Alpha virt. eigenvalues --    0.00058   0.00309   0.00459   0.00464   0.00560

  Beta  occ. eigenvalues --  -38.44864 -38.44567 -38.43853 -38.43812 -38.43571
  Beta  occ. eigenvalues --  -38.43495 -38.43385  -2.20669  -2.20365  -2.19614
  Beta  occ. eigenvalues --   -2.19602  -2.19389  -2.19344  -2.19183  -1.14376
  Beta  occ. eigenvalues --   -1.14352  -1.14237  -1.14063  -1.14040  -1.13964
  Beta  occ. eigenvalues --   -1.13303  -1.13300  -1.13292  -1.13274  -1.13261
  Beta  occ. eigenvalues --   -1.13235  -1.13124  -1.13055  -1.13030  -1.13018
  Beta  occ. eigenvalues --   -1.13007  -1.12986  -1.12875  -1.12859  -1.12834
  Beta  occ. eigenvalues --   -0.16600  -0.13087  -0.12357
  Beta virt. eigenvalues --   -0.06527  -0.06182  -0.05155  -0.04980  -0.02408
  Beta virt. eigenvalues --   -0.02111  -0.02007  -0.01802  -0.01529  -0.01287
  Beta virt. eigenvalues --   -0.00220   0.00331   0.00437   0.00554   0.00582

 Mulliken charges and spin densities:
               1          2
     1  Na  -3.533956  -0.161499
     2  Na   0.539862   0.012527
     3  Na   0.031679   0.048163
     4  Na   0.350968   0.383767
     5  Na   0.856682   0.113879
     6  Na   1.019283   0.146674
     7  Na   0.735482   0.456488
 Sum of Mulliken charges =  -0.00000   1.00000

 Dipole moment (field-independent basis, Debye):
    X=             -0.3771    Y=             -0.2596    Z=              0.1030  Tot=              0.4693
 Quadrupole moment (field-independent basis, Debye-Ang):
   XX=            -72.0860   YY=            -58.9628   ZZ=            -67.7694
   XY=              2.4649   XZ=              2.4937   YZ=              0.6640

 Normal termination of Gaussian 16 at Fri Dec  8 20:05:24 2023.
