 Gaussian 16, Revision B.01,
 Gaussian 16:  ES64L-G16RevB.01 20-Dec-2017

 -------------------------
 #P B3LYP/6-311+g(d) force
 -------------------------

 -----
 DPGEN
 -----
 Symbolic Z-matrix:
 Charge =  0 Multiplicity = 2

                         Standard orientation:
 ---------------------------------------------------------------------
 Center     Atomic      Atomic             Coordinates (Angstroms)
 Number     Number       Type             X           Y           Z
 ---------------------------------------------------------------------
      1         11           0       -3.233950   -2.618161    0.035377
      2         11           0        4.696565    1.256230   -0.161309
      3         11           0        0.846610   -3.378370    0.435131
      4         11           0        3.445369   -2.030642   -0.375432
      5         11           0       -2.209186    2.991436   -0.161098
      6         11           0        1.000036    3.476287    0.446228
      7         11           0       -4.545442    0.303219   -0.218897
 ---------------------------------------------------------------------

 SCF Done:  E(UB3LYP) =  -1136.10494331     A.U. after   23 cycles

 The electronic state is 2-A.
 Alpha  occ. eigenvalues --  -38.45211 -38.44924 -38.44695 -38.44660 -38.44504
 Alpha  occ. eigenvalues --  -38.44286 -38.44199  -2.20974  -2.20676  -2.20498
 Alpha  occ. eigenvalues --   -2.20448  -2.20314  -2.20075  -2.20018  -1.14646
 Alpha  occ. eigenvalues --   -1.14645  -1.14623  -1.14350  -1.14348  -1.14314
 Alpha  occ. eigenvalues --   -1.14157  -1.14149  -1.14142  -1.14092  -1.14089
 Alpha  occ. eigenvalues --   -1.14073  -1.14043  -1.13981  -1.13959  -1.13742
 Alpha  occ. eigenvalues --   -1.13737  -1.13709  -1.13656  -1.13654  -1.13635
 Alpha  occ. eigenvalues --   -0.15422  -0.14232  -0.13268  -0.11228
 Alpha virt. eigenvalues --   -0.07778  -0.04831  -0.04457  -0.03617  -0.03566
 Alpha virt. eigenvalues --   -0.02564  -0.02158  -0.01951  -0.01294  -0.00915
 Alpha virt. eigenvalues --   -0.00788  -0.00307  -0.00078   0.00387   0.00453

  Beta  occ. eigenvalues --  -38.45202 -38.44913 -38.44673 -38.44562 -38.44498
  Beta  occ. eigenvalues --  -38.44261 -38.44136  -2.20962  -2.20660  -2.20458
  Beta  occ. eigenvalues --   -2.20313  -2.20267  -2.20032  -2.19902  -1.14639
  Beta  occ. eigenvalues --   -1.14636  -1.14599  -1.14343  -1.14338  -1.14282
  Beta  occ. eigenvalues --   -1.14131  -1.14125  -1.14106  -1.14017  -1.13989
  Beta  occ. eigenvalues --   -1.13976  -1.13968  -1.13951  -1.13919  -1.13714
  Beta  occ. eigenvalues --   -1.13708  -1.13670  -1.13581  -1.13576  -1.13557
  Beta  occ. eigenvalues --   -0.14931  -0.13438  -0.12505
  Beta virt. eigenvalues --   -0.08043  -0.07982  -0.04232  -0.03989  -0.03436
  Beta virt. eigenvalues --   -0.03354  -0.02337  -0.01973  -0.01779  -0.01159
  Beta virt. eigenvalues --   -0.00561  -0.00446   0.00034   0.00081   0.00410

 Mulliken charges and spin densities:
               1          2
     1  Na   0.032680   0.048851
     2  Na   0.279899   0.472801
     3  Na  -0.177476   0.234570
     4  Na  -0.254456   0.043963
     5  Na  -0.172796   0.058709
     6  Na   0.042524   0.025329
     7  Na   0.249626   0.115776
 Sum of Mulliken charges =  -0.00000   1.00000

 Dipole moment (field-independent basis, Debye):
    X=             -0.6760    Y=              0.0255    Z=              0.0469  Tot=              0.6781
 Quadrupole moment (field-independent basis, Debye-Ang):
   XX=            -59.9599   YY=            -66.3285   ZZ=            -74.1184
   XY=              2.4623   XZ=              0.4604   YZ=             -0.0522

 Normal termination of Gaussian 16 at Sun Dec  3 21:20:32 2023.
