 Gaussian 16, Revision B.01,
 Gaussian 16:  ES64L-G16RevB.01 20-Dec-2017

 -------------------------
 #P B3LYP/6-311+g(d) force
 -------------------------

 -----
 DPGEN
 -----
 Symbolic Z-matrix:
 Charge =  0 Multiplicity = 2

                         Standard orientation:
 ---------------------------------------------------------------------
 Center     Atomic      Atomic             Coordinates (Angstroms)
 Number     Number       Type             X           Y           Z
 ---------------------------------------------------------------------
      1         11           0        0.003760    2.817610    0.064505
      2         11           0       -2.677675    0.815376   -0.842582
      3         11           0        0.366407   -0.409920   -1.663545
      4         11           0        1.611827   -2.229719    0.190720
      5         11           0        3.087159    0.839032   -0.004752
      6         11           0       -1.626396   -2.234598    0.248283
      7         11           0       -0.765081    0.402220    2.007370
 ---------------------------------------------------------------------

 SCF Done:  E(UB3LYP) =  -1136.13508963     A.U. after   19 cycles

 The electronic state is 2-A.
 Alpha  occ. eigenvalues --  -38.43843 -38.43699 -38.43653 -38.43512 -38.43385
 Alpha  occ. eigenvalues --  -38.43357 -38.43187  -2.19665  -2.19590  -2.19579
 Alpha  occ. eigenvalues --   -2.19446  -2.19400  -2.19221  -2.19116  -1.13365
 Alpha  occ. eigenvalues --   -1.13341  -1.13319  -1.13303  -1.13288  -1.13262
 Alpha  occ. eigenvalues --   -1.13246  -1.13226  -1.13223  -1.13182  -1.13094
 Alpha  occ. eigenvalues --   -1.13064  -1.13041  -1.13000  -1.12958  -1.12904
 Alpha  occ. eigenvalues --   -1.12880  -1.12839  -1.12788  -1.12768  -1.12743
 Alpha  occ. eigenvalues --   -0.19079  -0.13082  -0.12667  -0.11109
 Alpha virt. eigenvalues --   -0.05409  -0.04870  -0.04665  -0.03412  -0.03072
 Alpha virt. eigenvalues --   -0.02662  -0.01300  -0.00919  -0.00183  -0.00058
 Alpha virt. eigenvalues --    0.00056   0.00367   0.00882   0.00926   0.00956

  Beta  occ. eigenvalues --  -38.43844 -38.43671 -38.43570 -38.43507 -38.43351
  Beta  occ. eigenvalues --  -38.43324 -38.43176  -2.19669  -2.19541  -2.19437
  Beta  occ. eigenvalues --   -2.19424  -2.19294  -2.19214  -2.19100  -1.13351
  Beta  occ. eigenvalues --   -1.13335  -1.13307  -1.13296  -1.13247  -1.13203
  Beta  occ. eigenvalues --   -1.13191  -1.13142  -1.13125  -1.13085  -1.13062
  Beta  occ. eigenvalues --   -1.13058  -1.12981  -1.12932  -1.12893  -1.12886
  Beta  occ. eigenvalues --   -1.12854  -1.12839  -1.12776  -1.12739  -1.12717
  Beta  occ. eigenvalues --   -0.18340  -0.12863  -0.12420
  Beta virt. eigenvalues --   -0.07126  -0.05366  -0.04849  -0.04580  -0.02685
  Beta virt. eigenvalues --   -0.02294  -0.01621  -0.01194  -0.00842  -0.00165
  Beta virt. eigenvalues --   -0.00044   0.00132   0.00408   0.00916   0.00947

 Mulliken charges and spin densities:
               1          2
     1  Na   0.085104  -0.016745
     2  Na   0.185355   0.076850
     3  Na  -0.327119   0.347282
     4  Na   0.196985   0.011730
     5  Na  -0.016639  -0.088876
     6  Na   0.382023   0.117354
     7  Na  -0.505708   0.552403
 Sum of Mulliken charges =  -0.00000   1.00000

 Dipole moment (field-independent basis, Debye):
    X=              0.0911    Y=              0.1720    Z=              0.1453  Tot=              0.2429
 Quadrupole moment (field-independent basis, Debye-Ang):
   XX=            -58.8956   YY=            -64.1299   ZZ=            -71.8202
   XY=              0.6008   XZ=              2.1234   YZ=             -1.5687

 Normal termination of Gaussian 16 at Tue Dec  5 15:38:03 2023.
