 Gaussian 16, Revision B.01,
 Gaussian 16:  ES64L-G16RevB.01 20-Dec-2017

 -------------------------
 #P B3LYP/6-311+g(d) force
 -------------------------

 -----
 DPGEN
 -----
 Symbolic Z-matrix:
 Charge =  0 Multiplicity = 2

                         Standard orientation:
 ---------------------------------------------------------------------
 Center     Atomic      Atomic             Coordinates (Angstroms)
 Number     Number       Type             X           Y           Z
 ---------------------------------------------------------------------
      1         11           0        1.101594    2.077741   -1.482467
      2         11           0        1.261595    0.201045    1.683230
      3         11           0        0.654526   -1.766388   -1.191582
      4         11           0        3.497300   -0.971727    0.209669
      5         11           0       -2.404848    0.456253   -1.415694
      6         11           0       -2.891649   -1.860629    0.700161
      7         11           0       -1.218519    1.863706    1.496683
 ---------------------------------------------------------------------

 SCF Done:  E(UB3LYP) =  -1136.12428592     A.U. after   21 cycles

 The electronic state is 2-A.
 Alpha  occ. eigenvalues --  -38.44242 -38.44172 -38.44097 -38.43972 -38.43847
 Alpha  occ. eigenvalues --  -38.43693 -38.43178  -2.20118  -2.20032  -2.19912
 Alpha  occ. eigenvalues --   -2.19774  -2.19684  -2.19670  -2.19059  -1.13891
 Alpha  occ. eigenvalues --   -1.13760  -1.13739  -1.13723  -1.13703  -1.13665
 Alpha  occ. eigenvalues --   -1.13581  -1.13554  -1.13529  -1.13436  -1.13419
 Alpha  occ. eigenvalues --   -1.13406  -1.13391  -1.13375  -1.13360  -1.13293
 Alpha  occ. eigenvalues --   -1.13285  -1.13273  -1.12763  -1.12693  -1.12656
 Alpha  occ. eigenvalues --   -0.18280  -0.13638  -0.11565  -0.11450
 Alpha virt. eigenvalues --   -0.05951  -0.05286  -0.04531  -0.03367  -0.03133
 Alpha virt. eigenvalues --   -0.02689  -0.01797  -0.01078  -0.00515  -0.00014
 Alpha virt. eigenvalues --    0.00243   0.00305   0.00386   0.00533   0.00830

  Beta  occ. eigenvalues --  -38.44238 -38.44153 -38.44036 -38.43961 -38.43830
  Beta  occ. eigenvalues --  -38.43641 -38.43149  -2.20112  -2.19999  -2.19800
  Beta  occ. eigenvalues --   -2.19754  -2.19655  -2.19576  -2.19008  -1.13874
  Beta  occ. eigenvalues --   -1.13754  -1.13732  -1.13696  -1.13672  -1.13643
  Beta  occ. eigenvalues --   -1.13499  -1.13472  -1.13455  -1.13421  -1.13401
  Beta  occ. eigenvalues --   -1.13392  -1.13369  -1.13317  -1.13312  -1.13273
  Beta  occ. eigenvalues --   -1.13221  -1.13211  -1.12717  -1.12658  -1.12616
  Beta  occ. eigenvalues --   -0.17567  -0.13469  -0.11301
  Beta virt. eigenvalues --   -0.07599  -0.05764  -0.05041  -0.04085  -0.03081
  Beta virt. eigenvalues --   -0.02576  -0.01867  -0.01746  -0.00783  -0.00288
  Beta virt. eigenvalues --    0.00082   0.00296   0.00354   0.00510   0.00650

 Mulliken charges and spin densities:
               1          2
     1  Na  -0.277595   0.352611
     2  Na  -0.475358   0.244578
     3  Na  -0.371356   0.160332
     4  Na   0.716718  -0.051426
     5  Na   0.156213   0.208233
     6  Na   0.025142  -0.021926
     7  Na   0.226235   0.107598
 Sum of Mulliken charges =  -0.00000   1.00000

 Dipole moment (field-independent basis, Debye):
    X=              0.3828    Y=             -0.0032    Z=             -0.3112  Tot=              0.4934
 Quadrupole moment (field-independent basis, Debye-Ang):
   XX=            -55.8043   YY=            -72.4564   ZZ=            -67.9071
   XY=             -0.3536   XZ=             -2.1830   YZ=             -4.0357

 Normal termination of Gaussian 16 at Thu Dec  7 14:21:17 2023.
