 Gaussian 16, Revision B.01,
 Gaussian 16:  ES64L-G16RevB.01 20-Dec-2017

 -------------------------
 #P B3LYP/6-311+g(d) force
 -------------------------

 -----
 DPGEN
 -----
 Symbolic Z-matrix:
 Charge =  0 Multiplicity = 2

                         Standard orientation:
 ---------------------------------------------------------------------
 Center     Atomic      Atomic             Coordinates (Angstroms)
 Number     Number       Type             X           Y           Z
 ---------------------------------------------------------------------
      1         11           0        2.626431    1.139539   -1.383655
      2         11           0        1.508057    1.366074    1.610166
      3         11           0       -1.712949   -0.665670    1.921631
      4         11           0       -3.484935   -0.889263   -0.984692
      5         11           0       -0.115851   -1.125175   -0.844277
      6         11           0        2.786144   -2.081082    0.103626
      7         11           0       -1.606896    2.255577   -0.422799
 ---------------------------------------------------------------------

 SCF Done:  E(UB3LYP) =  -1136.12670905     A.U. after   22 cycles

 The electronic state is 2-A.
 Alpha  occ. eigenvalues --  -38.44448 -38.44371 -38.44206 -38.43732 -38.43603
 Alpha  occ. eigenvalues --  -38.43485 -38.43153  -2.20292  -2.20207  -2.20082
 Alpha  occ. eigenvalues --   -2.19530  -2.19425  -2.19335  -2.19100  -1.13980
 Alpha  occ. eigenvalues --   -1.13958  -1.13891  -1.13881  -1.13859  -1.13843
 Alpha  occ. eigenvalues --   -1.13780  -1.13704  -1.13687  -1.13219  -1.13197
 Alpha  occ. eigenvalues --   -1.13148  -1.13121  -1.13083  -1.13062  -1.13006
 Alpha  occ. eigenvalues --   -1.13002  -1.12956  -1.12822  -1.12758  -1.12713
 Alpha  occ. eigenvalues --   -0.18260  -0.14021  -0.11063  -0.10913
 Alpha virt. eigenvalues --   -0.06068  -0.05585  -0.04967  -0.03072  -0.02619
 Alpha virt. eigenvalues --   -0.02379  -0.02054  -0.01060  -0.00821  -0.00203
 Alpha virt. eigenvalues --    0.00199   0.00275   0.00345   0.00437   0.00708

  Beta  occ. eigenvalues --  -38.44418 -38.44349 -38.44139 -38.43716 -38.43607
  Beta  occ. eigenvalues --  -38.43458 -38.43136  -2.20237  -2.20167  -2.19960
  Beta  occ. eigenvalues --   -2.19503  -2.19433  -2.19288  -2.19075  -1.13942
  Beta  occ. eigenvalues --   -1.13920  -1.13852  -1.13847  -1.13832  -1.13812
  Beta  occ. eigenvalues --   -1.13697  -1.13621  -1.13589  -1.13198  -1.13169
  Beta  occ. eigenvalues --   -1.13127  -1.13126  -1.13082  -1.13064  -1.12979
  Beta  occ. eigenvalues --   -1.12945  -1.12925  -1.12773  -1.12737  -1.12700
  Beta  occ. eigenvalues --   -0.17564  -0.13798  -0.10865
  Beta virt. eigenvalues --   -0.07184  -0.05915  -0.05369  -0.04350  -0.02968
  Beta virt. eigenvalues --   -0.02067  -0.01877  -0.01623  -0.00973  -0.00348
  Beta virt. eigenvalues --   -0.00142   0.00262   0.00318   0.00440   0.00602

 Mulliken charges and spin densities:
               1          2
     1  Na   0.201319  -0.022034
     2  Na   0.179790   0.232778
     3  Na  -0.164449   0.138434
     4  Na   0.589778   0.112290
     5  Na  -0.685163   0.443749
     6  Na   0.213518  -0.027680
     7  Na  -0.334792   0.122464
 Sum of Mulliken charges =  -0.00000   1.00000

 Dipole moment (field-independent basis, Debye):
    X=             -0.3524    Y=              0.1265    Z=             -0.0482  Tot=              0.3775
 Quadrupole moment (field-independent basis, Debye-Ang):
   XX=            -50.7999   YY=            -75.1149   ZZ=            -67.2910
   XY=              0.8721   XZ=              0.9563   YZ=             -3.2681

 Normal termination of Gaussian 16 at Thu Dec  7 18:37:48 2023.
