 Gaussian 16, Revision B.01,
 Gaussian 16:  ES64L-G16RevB.01 20-Dec-2017

 -------------------------
 #P B3LYP/6-311+g(d) force
 -------------------------

 -----
 DPGEN
 -----
 Symbolic Z-matrix:
 Charge =  0 Multiplicity = 2

                         Standard orientation:
 ---------------------------------------------------------------------
 Center     Atomic      Atomic             Coordinates (Angstroms)
 Number     Number       Type             X           Y           Z
 ---------------------------------------------------------------------
      1         11           0        3.151881   -0.576671   -0.433112
      2         11           0       -0.185759   -0.201919    2.109431
      3         11           0       -0.307591   -0.028037   -1.605223
      4         11           0       -3.001400   -1.270623   -0.216284
      5         11           0        1.496908    2.261710    0.207669
      6         11           0        0.515683   -2.624570    0.090999
      7         11           0       -1.669722    2.440109   -0.153478
 ---------------------------------------------------------------------

 SCF Done:  E(UB3LYP) =  -1136.13666421     A.U. after   18 cycles

 The electronic state is 2-A.
 Alpha  occ. eigenvalues --  -38.44096 -38.43753 -38.43712 -38.43504 -38.43377
 Alpha  occ. eigenvalues --  -38.43204 -38.43184  -2.19911  -2.19618  -2.19589
 Alpha  occ. eigenvalues --   -2.19380  -2.19275  -2.19216  -2.19085  -1.13600
 Alpha  occ. eigenvalues --   -1.13565  -1.13545  -1.13297  -1.13260  -1.13252
 Alpha  occ. eigenvalues --   -1.13251  -1.13241  -1.13227  -1.13114  -1.13041
 Alpha  occ. eigenvalues --   -1.13014  -1.13005  -1.12952  -1.12882  -1.12873
 Alpha  occ. eigenvalues --   -1.12836  -1.12825  -1.12751  -1.12741  -1.12714
 Alpha  occ. eigenvalues --   -0.18896  -0.12888  -0.12656  -0.10966
 Alpha virt. eigenvalues --   -0.05651  -0.05019  -0.04495  -0.03086  -0.03075
 Alpha virt. eigenvalues --   -0.02690  -0.01614  -0.01059  -0.00216  -0.00073
 Alpha virt. eigenvalues --   -0.00000   0.00339   0.00822   0.00899   0.00934

  Beta  occ. eigenvalues --  -38.44092 -38.43746 -38.43609 -38.43500 -38.43367
  Beta  occ. eigenvalues --  -38.43178 -38.43145  -2.19907  -2.19579  -2.19428
  Beta  occ. eigenvalues --   -2.19375  -2.19262  -2.19108  -2.19076  -1.13585
  Beta  occ. eigenvalues --   -1.13559  -1.13540  -1.13255  -1.13240  -1.13225
  Beta  occ. eigenvalues --   -1.13174  -1.13122  -1.13099  -1.13096  -1.13022
  Beta  occ. eigenvalues --   -1.13008  -1.12983  -1.12908  -1.12867  -1.12817
  Beta  occ. eigenvalues --   -1.12777  -1.12754  -1.12730  -1.12716  -1.12702
  Beta  occ. eigenvalues --   -0.18160  -0.12643  -0.12405
  Beta virt. eigenvalues --   -0.07017  -0.05614  -0.04992  -0.04462  -0.02359
  Beta virt. eigenvalues --   -0.02230  -0.01624  -0.01517  -0.01005  -0.00223
  Beta virt. eigenvalues --   -0.00112   0.00117   0.00363   0.00857   0.00912

 Mulliken charges and spin densities:
               1          2
     1  Na  -0.007149  -0.001730
     2  Na  -0.484753   0.620452
     3  Na  -0.445713   0.432753
     4  Na   0.180594  -0.096525
     5  Na   0.216856   0.084612
     6  Na   0.356470   0.030587
     7  Na   0.183696  -0.070149
 Sum of Mulliken charges =  -0.00000   1.00000

 Dipole moment (field-independent basis, Debye):
    X=             -0.3391    Y=             -0.1495    Z=              0.1423  Tot=              0.3970
 Quadrupole moment (field-independent basis, Debye-Ang):
   XX=            -55.9666   YY=            -64.4005   ZZ=            -73.3066
   XY=              0.0991   XZ=             -0.5589   YZ=              0.4656

 Normal termination of Gaussian 16 at Thu Dec  7 01:50:43 2023.
