 Gaussian 16, Revision B.01,
 Gaussian 16:  ES64L-G16RevB.01 20-Dec-2017

 -------------------------
 #P B3LYP/6-311+g(d) force
 -------------------------

 -----
 DPGEN
 -----
 Symbolic Z-matrix:
 Charge =  0 Multiplicity = 2

                         Standard orientation:
 ---------------------------------------------------------------------
 Center     Atomic      Atomic             Coordinates (Angstroms)
 Number     Number       Type             X           Y           Z
 ---------------------------------------------------------------------
      1         11           0        0.450668    0.906130    1.713131
      2         11           0       -0.775762   -2.205178    0.711972
      3         11           0       -3.420461   -1.270800   -0.926357
      4         11           0       -0.123186    0.339056   -1.094110
      5         11           0       -2.568207    2.382107    0.371494
      6         11           0        3.279357    1.408647   -0.971571
      7         11           0        3.157591   -1.559962    0.195441
 ---------------------------------------------------------------------

 SCF Done:  E(UB3LYP) =  -1136.12071644     A.U. after   23 cycles

 The electronic state is 2-A.
 Alpha  occ. eigenvalues --  -38.44901 -38.44296 -38.44190 -38.43847 -38.43841
 Alpha  occ. eigenvalues --  -38.43726 -38.42691  -2.20704  -2.20264  -2.20035
 Alpha  occ. eigenvalues --   -2.19678  -2.19655  -2.19625  -2.18583  -1.14383
 Alpha  occ. eigenvalues --   -1.14378  -1.14339  -1.14088  -1.13905  -1.13862
 Alpha  occ. eigenvalues --   -1.13694  -1.13677  -1.13657  -1.13367  -1.13343
 Alpha  occ. eigenvalues --   -1.13321  -1.13306  -1.13305  -1.13280  -1.13276
 Alpha  occ. eigenvalues --   -1.13273  -1.13211  -1.12293  -1.12240  -1.12201
 Alpha  occ. eigenvalues --   -0.18297  -0.14027  -0.11349  -0.10706
 Alpha virt. eigenvalues --   -0.06552  -0.05746  -0.04240  -0.03186  -0.02619
 Alpha virt. eigenvalues --   -0.02499  -0.01981  -0.01575  -0.00603  -0.00311
 Alpha virt. eigenvalues --    0.00039   0.00157   0.00498   0.00561   0.00650

  Beta  occ. eigenvalues --  -38.44896 -38.44288 -38.44142 -38.43843 -38.43802
  Beta  occ. eigenvalues --  -38.43652 -38.42674  -2.20698  -2.20253  -2.19946
  Beta  occ. eigenvalues --   -2.19633  -2.19591  -2.19521  -2.18556  -1.14382
  Beta  occ. eigenvalues --   -1.14368  -1.14314  -1.14042  -1.13904  -1.13859
  Beta  occ. eigenvalues --   -1.13631  -1.13617  -1.13596  -1.13308  -1.13288
  Beta  occ. eigenvalues --   -1.13284  -1.13279  -1.13267  -1.13264  -1.13241
  Beta  occ. eigenvalues --   -1.13180  -1.13114  -1.12279  -1.12219  -1.12154
  Beta  occ. eigenvalues --   -0.17653  -0.13519  -0.11165
  Beta virt. eigenvalues --   -0.07149  -0.06411  -0.05455  -0.03711  -0.02936
  Beta virt. eigenvalues --   -0.02399  -0.02011  -0.01519  -0.01301  -0.00373
  Beta virt. eigenvalues --   -0.00104   0.00117   0.00205   0.00580   0.00669

 Mulliken charges and spin densities:
               1          2
     1  Na   0.223446   0.395504
     2  Na  -0.252879  -0.039296
     3  Na   0.574148   0.239347
     4  Na  -0.953909   0.046985
     5  Na  -0.059866  -0.016619
     6  Na   0.343482   0.300623
     7  Na   0.125578   0.073456
 Sum of Mulliken charges =  -0.00000   1.00000

 Dipole moment (field-independent basis, Debye):
    X=              0.5834    Y=              0.2301    Z=              0.3960  Tot=              0.7417
 Quadrupole moment (field-independent basis, Debye-Ang):
   XX=            -53.7155   YY=            -71.1440   ZZ=            -70.0322
   XY=             -3.6630   XZ=              1.1570   YZ=             -1.3243

 Normal termination of Gaussian 16 at Fri Dec  8 07:06:58 2023.
