 Gaussian 16, Revision B.01,
 Gaussian 16:  ES64L-G16RevB.01 20-Dec-2017

 -------------------------
 #P B3LYP/6-311+g(d) force
 -------------------------

 -----
 DPGEN
 -----
 Symbolic Z-matrix:
 Charge =  0 Multiplicity = 2

                         Standard orientation:
 ---------------------------------------------------------------------
 Center     Atomic      Atomic             Coordinates (Angstroms)
 Number     Number       Type             X           Y           Z
 ---------------------------------------------------------------------
      1         11           0       -1.847117   -3.609669    0.412506
      2         11           0       -3.132463    2.483092   -0.400487
      3         11           0       -4.070129   -1.031080    0.371288
      4         11           0        0.043651    3.686968   -0.450764
      5         11           0        2.783413    2.499736    0.867829
      6         11           0        4.429517   -1.130358    0.021979
      7         11           0        1.793127   -2.898688   -0.822351
 ---------------------------------------------------------------------

 SCF Done:  E(UB3LYP) =  -1136.10748861     A.U. after   23 cycles

 The electronic state is 2-A.
 Alpha  occ. eigenvalues --  -38.45176 -38.45156 -38.44760 -38.44612 -38.44321
 Alpha  occ. eigenvalues --  -38.44123 -38.44027  -2.20925  -2.20918  -2.20552
 Alpha  occ. eigenvalues --   -2.20393  -2.20114  -2.19910  -2.19826  -1.14612
 Alpha  occ. eigenvalues --   -1.14598  -1.14595  -1.14586  -1.14570  -1.14558
 Alpha  occ. eigenvalues --   -1.14213  -1.14204  -1.14174  -1.14055  -1.14042
 Alpha  occ. eigenvalues --   -1.14035  -1.13788  -1.13787  -1.13773  -1.13567
 Alpha  occ. eigenvalues --   -1.13556  -1.13543  -1.13480  -1.13469  -1.13451
 Alpha  occ. eigenvalues --   -0.15388  -0.13744  -0.13669  -0.10916
 Alpha virt. eigenvalues --   -0.07840  -0.04873  -0.04521  -0.03571  -0.03476
 Alpha virt. eigenvalues --   -0.02276  -0.02161  -0.01934  -0.01552  -0.01003
 Alpha virt. eigenvalues --   -0.00727  -0.00172   0.00105   0.00265   0.00565

  Beta  occ. eigenvalues --  -38.45180 -38.45139 -38.44694 -38.44585 -38.44321
  Beta  occ. eigenvalues --  -38.44072 -38.43960  -2.20937  -2.20890  -2.20432
  Beta  occ. eigenvalues --   -2.20346  -2.20122  -2.19815  -2.19700  -1.14626
  Beta  occ. eigenvalues --   -1.14611  -1.14579  -1.14571  -1.14542  -1.14513
  Beta  occ. eigenvalues --   -1.14130  -1.14124  -1.14089  -1.14024  -1.14010
  Beta  occ. eigenvalues --   -1.13991  -1.13799  -1.13797  -1.13732  -1.13502
  Beta  occ. eigenvalues --   -1.13494  -1.13479  -1.13393  -1.13387  -1.13370
  Beta  occ. eigenvalues --   -0.14830  -0.13037  -0.12920
  Beta virt. eigenvalues --   -0.07968  -0.07820  -0.04390  -0.04019  -0.03366
  Beta virt. eigenvalues --   -0.03200  -0.02044  -0.02028  -0.01695  -0.01390
  Beta virt. eigenvalues --   -0.00644  -0.00506   0.00016   0.00253   0.00293

 Mulliken charges and spin densities:
               1          2
     1  Na  -0.012932   0.216589
     2  Na   0.225423   0.333452
     3  Na   0.119273   0.022417
     4  Na  -0.198077  -0.045038
     5  Na  -0.097700   0.287395
     6  Na   0.395163   0.095857
     7  Na  -0.431149   0.089328
 Sum of Mulliken charges =  -0.00000   1.00000

 Dipole moment (field-independent basis, Debye):
    X=              0.6194    Y=             -0.3508    Z=              0.0961  Tot=              0.7182
 Quadrupole moment (field-independent basis, Debye-Ang):
   XX=            -58.9071   YY=            -69.2334   ZZ=            -72.1790
   XY=              1.1351   XZ=              1.4624   YZ=              0.0873

 Normal termination of Gaussian 16 at Sun Dec  3 14:55:56 2023.
