 Gaussian 16, Revision B.01,
 Gaussian 16:  ES64L-G16RevB.01 20-Dec-2017

 -------------------------
 #P B3LYP/6-311+g(d) force
 -------------------------

 -----
 DPGEN
 -----
 Symbolic Z-matrix:
 Charge =  0 Multiplicity = 2

                         Standard orientation:
 ---------------------------------------------------------------------
 Center     Atomic      Atomic             Coordinates (Angstroms)
 Number     Number       Type             X           Y           Z
 ---------------------------------------------------------------------
      1         11           0        0.121355   -1.153603   -1.443527
      2         11           0        2.212901   -0.804547    1.688138
      3         11           0        0.952372    2.317646   -0.167823
      4         11           0       -2.281580    1.635275   -0.596937
      5         11           0        3.602584   -0.527284   -1.143377
      6         11           0       -3.670446   -1.451894   -0.334953
      7         11           0       -0.937187   -0.015593    1.998479
 ---------------------------------------------------------------------

 SCF Done:  E(UB3LYP) =  -1136.12604508     A.U. after   24 cycles

 The electronic state is 2-A.
 Alpha  occ. eigenvalues --  -38.44751 -38.44365 -38.44225 -38.43918 -38.43891
 Alpha  occ. eigenvalues --  -38.43627 -38.42786  -2.20557  -2.20259  -2.20059
 Alpha  occ. eigenvalues --   -2.19818  -2.19783  -2.19423  -2.18644  -1.14270
 Alpha  occ. eigenvalues --   -1.14243  -1.14148  -1.13965  -1.13915  -1.13885
 Alpha  occ. eigenvalues --   -1.13720  -1.13702  -1.13683  -1.13517  -1.13503
 Alpha  occ. eigenvalues --   -1.13471  -1.13418  -1.13411  -1.13388  -1.13098
 Alpha  occ. eigenvalues --   -1.13087  -1.13053  -1.12333  -1.12288  -1.12271
 Alpha  occ. eigenvalues --   -0.18418  -0.14025  -0.11725  -0.10973
 Alpha virt. eigenvalues --   -0.06665  -0.05011  -0.04889  -0.03355  -0.02740
 Alpha virt. eigenvalues --   -0.02461  -0.02296  -0.01046  -0.00938  -0.00192
 Alpha virt. eigenvalues --    0.00124   0.00286   0.00369   0.00490   0.00742

  Beta  occ. eigenvalues --  -38.44730 -38.44308 -38.44213 -38.43870 -38.43853
  Beta  occ. eigenvalues --  -38.43629 -38.42759  -2.20522  -2.20156  -2.20036
  Beta  occ. eigenvalues --   -2.19744  -2.19701  -2.19428  -2.18596  -1.14237
  Beta  occ. eigenvalues --   -1.14212  -1.14123  -1.13875  -1.13855  -1.13819
  Beta  occ. eigenvalues --   -1.13691  -1.13683  -1.13662  -1.13460  -1.13439
  Beta  occ. eigenvalues --   -1.13428  -1.13362  -1.13339  -1.13334  -1.13099
  Beta  occ. eigenvalues --   -1.13089  -1.13057  -1.12294  -1.12249  -1.12238
  Beta  occ. eigenvalues --   -0.17696  -0.13889  -0.10760
  Beta virt. eigenvalues --   -0.07643  -0.06516  -0.04870  -0.04337  -0.02928
  Beta virt. eigenvalues --   -0.02437  -0.02076  -0.01716  -0.00907  -0.00471
  Beta virt. eigenvalues --   -0.00114   0.00157   0.00335   0.00476   0.00626

 Mulliken charges and spin densities:
               1          2
     1  Na  -0.997996   0.277105
     2  Na   0.010708   0.035942
     3  Na  -0.439817   0.220668
     4  Na   0.381374   0.070907
     5  Na   0.800486   0.120459
     6  Na   0.516880  -0.058310
     7  Na  -0.271636   0.333230
 Sum of Mulliken charges =  -0.00000   1.00000

 Dipole moment (field-independent basis, Debye):
    X=              0.4160    Y=              0.1694    Z=             -0.0093  Tot=              0.4493
 Quadrupole moment (field-independent basis, Debye-Ang):
   XX=            -52.9912   YY=            -74.9559   ZZ=            -69.2786
   XY=              0.2353   XZ=             -0.9442   YZ=             -3.7806

 Normal termination of Gaussian 16 at Fri Dec  8 02:22:23 2023.
