 Gaussian 16, Revision B.01,
 Gaussian 16:  ES64L-G16RevB.01 20-Dec-2017

 -------------------------
 #P B3LYP/6-311+g(d) force
 -------------------------

 -----
 DPGEN
 -----
 Symbolic Z-matrix:
 Charge =  0 Multiplicity = 2

                         Standard orientation:
 ---------------------------------------------------------------------
 Center     Atomic      Atomic             Coordinates (Angstroms)
 Number     Number       Type             X           Y           Z
 ---------------------------------------------------------------------
      1         11           0       -1.640926   -2.086083    0.211778
      2         11           0        1.890643   -2.188755   -0.126663
      3         11           0       -0.041144    2.764224    0.401096
      4         11           0       -0.254422   -0.192194   -1.701874
      5         11           0        2.997631    1.107425   -0.332180
      6         11           0       -0.026468   -0.275313    1.964289
      7         11           0       -2.925314    0.870695   -0.416447
 ---------------------------------------------------------------------

 SCF Done:  E(UB3LYP) =  -1136.13497571     A.U. after   19 cycles

 The electronic state is 2-A.
 Alpha  occ. eigenvalues --  -38.43956 -38.43759 -38.43643 -38.43441 -38.43393
 Alpha  occ. eigenvalues --  -38.43327 -38.43154  -2.19765  -2.19645  -2.19609
 Alpha  occ. eigenvalues --   -2.19458  -2.19304  -2.19270  -2.19004  -1.13439
 Alpha  occ. eigenvalues --   -1.13421  -1.13413  -1.13383  -1.13351  -1.13301
 Alpha  occ. eigenvalues --   -1.13275  -1.13247  -1.13217  -1.13197  -1.13092
 Alpha  occ. eigenvalues --   -1.13080  -1.12959  -1.12939  -1.12935  -1.12929
 Alpha  occ. eigenvalues --   -1.12906  -1.12870  -1.12690  -1.12668  -1.12630
 Alpha  occ. eigenvalues --   -0.19154  -0.13151  -0.12482  -0.11129
 Alpha virt. eigenvalues --   -0.05498  -0.05057  -0.04414  -0.03281  -0.03010
 Alpha virt. eigenvalues --   -0.02699  -0.01455  -0.00979  -0.00182  -0.00039
 Alpha virt. eigenvalues --    0.00042   0.00352   0.00839   0.00918   0.00945

  Beta  occ. eigenvalues --  -38.43953 -38.43749 -38.43547 -38.43387 -38.43373
  Beta  occ. eigenvalues --  -38.43312 -38.43146  -2.19763  -2.19629  -2.19435
  Beta  occ. eigenvalues --   -2.19335  -2.19283  -2.19263  -2.18991  -1.13430
  Beta  occ. eigenvalues --   -1.13421  -1.13408  -1.13354  -1.13291  -1.13258
  Beta  occ. eigenvalues --   -1.13245  -1.13138  -1.13116  -1.13096  -1.13006
  Beta  occ. eigenvalues --   -1.13004  -1.12922  -1.12917  -1.12911  -1.12895
  Beta  occ. eigenvalues --   -1.12872  -1.12856  -1.12675  -1.12643  -1.12626
  Beta  occ. eigenvalues --   -0.18407  -0.12870  -0.12222
  Beta virt. eigenvalues --   -0.07171  -0.05431  -0.05058  -0.04380  -0.02507
  Beta virt. eigenvalues --   -0.02207  -0.01632  -0.01354  -0.00943  -0.00148
  Beta virt. eigenvalues --   -0.00079   0.00127   0.00384   0.00899   0.00916

 Mulliken charges and spin densities:
               1          2
     1  Na   0.655070   0.008207
     2  Na   0.117846  -0.086722
     3  Na   0.010132  -0.029522
     4  Na  -0.421604   0.545894
     5  Na  -0.141562  -0.062889
     6  Na  -0.392181   0.626290
     7  Na   0.172299  -0.001259
 Sum of Mulliken charges =  -0.00000   1.00000

 Dipole moment (field-independent basis, Debye):
    X=              0.1402    Y=              0.0548    Z=              0.0078  Tot=              0.1507
 Quadrupole moment (field-independent basis, Debye-Ang):
   XX=            -56.7307   YY=            -64.9605   ZZ=            -72.5595
   XY=             -0.6193   XZ=             -0.4299   YZ=             -0.0157

 Normal termination of Gaussian 16 at Fri Dec  8 01:51:48 2023.
