 Gaussian 16, Revision B.01,
 Gaussian 16:  ES64L-G16RevB.01 20-Dec-2017

 -------------------------
 #P B3LYP/6-311+g(d) force
 -------------------------

 -----
 DPGEN
 -----
 Symbolic Z-matrix:
 Charge =  0 Multiplicity = 2

                         Standard orientation:
 ---------------------------------------------------------------------
 Center     Atomic      Atomic             Coordinates (Angstroms)
 Number     Number       Type             X           Y           Z
 ---------------------------------------------------------------------
      1         11           0        3.790105   -0.503928    0.992721
      2         11           0        1.612198   -1.244634   -1.240988
      3         11           0       -3.522029   -0.143412    1.345086
      4         11           0       -1.753497    1.723845   -0.927071
      5         11           0       -1.572636   -1.885761   -1.205088
      6         11           0        1.426917    2.435891   -0.401112
      7         11           0        0.018941   -0.382002    1.436452
 ---------------------------------------------------------------------

 SCF Done:  E(UB3LYP) =  -1136.12761418     A.U. after   25 cycles

 The electronic state is 2-A.
 Alpha  occ. eigenvalues --  -38.44777 -38.44701 -38.44549 -38.43491 -38.43327
 Alpha  occ. eigenvalues --  -38.43160 -38.42660  -2.20601  -2.20594  -2.20387
 Alpha  occ. eigenvalues --   -2.19418  -2.19214  -2.19031  -2.18492  -1.14336
 Alpha  occ. eigenvalues --   -1.14271  -1.14245  -1.14241  -1.14224  -1.14206
 Alpha  occ. eigenvalues --   -1.14047  -1.14029  -1.14001  -1.13134  -1.13072
 Alpha  occ. eigenvalues --   -1.13042  -1.12889  -1.12866  -1.12828  -1.12711
 Alpha  occ. eigenvalues --   -1.12700  -1.12664  -1.12170  -1.12167  -1.12116
 Alpha  occ. eigenvalues --   -0.18461  -0.14118  -0.11406  -0.11034
 Alpha virt. eigenvalues --   -0.06658  -0.05031  -0.04688  -0.03316  -0.02661
 Alpha virt. eigenvalues --   -0.02478  -0.02126  -0.01118  -0.00769  -0.00143
 Alpha virt. eigenvalues --    0.00095   0.00302   0.00355   0.00614   0.00745

  Beta  occ. eigenvalues --  -38.44742 -38.44683 -38.44494 -38.43460 -38.43285
  Beta  occ. eigenvalues --  -38.43147 -38.42656  -2.20568  -2.20528  -2.20283
  Beta  occ. eigenvalues --   -2.19366  -2.19143  -2.19011  -2.18487  -1.14292
  Beta  occ. eigenvalues --   -1.14230  -1.14228  -1.14204  -1.14185  -1.14166
  Beta  occ. eigenvalues --   -1.13971  -1.13958  -1.13937  -1.13096  -1.13009
  Beta  occ. eigenvalues --   -1.13003  -1.12838  -1.12818  -1.12760  -1.12697
  Beta  occ. eigenvalues --   -1.12671  -1.12648  -1.12166  -1.12158  -1.12108
  Beta  occ. eigenvalues --   -0.17835  -0.13739  -0.10982
  Beta virt. eigenvalues --   -0.07515  -0.06391  -0.04747  -0.04293  -0.03130
  Beta virt. eigenvalues --   -0.02372  -0.01923  -0.01461  -0.00752  -0.00655
  Beta virt. eigenvalues --   -0.00042   0.00181   0.00398   0.00413   0.00738

 Mulliken charges and spin densities:
               1          2
     1  Na   1.072979   0.211698
     2  Na  -0.233165   0.158653
     3  Na   1.197714   0.202320
     4  Na  -0.398820   0.158087
     5  Na  -0.082905   0.106188
     6  Na  -0.226018  -0.032018
     7  Na  -1.329785   0.195073
 Sum of Mulliken charges =  -0.00000   1.00000

 Dipole moment (field-independent basis, Debye):
    X=              0.1314    Y=             -0.3238    Z=              0.4557  Tot=              0.5742
 Quadrupole moment (field-independent basis, Debye-Ang):
   XX=            -48.3876   YY=            -78.6695   ZZ=            -67.1720
   XY=              0.7871   XZ=              1.3147   YZ=              0.4744

 Normal termination of Gaussian 16 at Tue Dec  5 11:40:31 2023.
