 Gaussian 16, Revision B.01,
 Gaussian 16:  ES64L-G16RevB.01 20-Dec-2017

 -------------------------
 #P B3LYP/6-311+g(d) force
 -------------------------

 -----
 DPGEN
 -----
 Symbolic Z-matrix:
 Charge =  0 Multiplicity = 2

                         Standard orientation:
 ---------------------------------------------------------------------
 Center     Atomic      Atomic             Coordinates (Angstroms)
 Number     Number       Type             X           Y           Z
 ---------------------------------------------------------------------
      1         11           0       -3.335776    0.198324    0.136813
      2         11           0       -0.787649    2.666849    0.123469
      3         11           0       -1.117190   -2.541541   -0.029918
      4         11           0        2.172224   -1.690131   -0.288089
      5         11           0        0.640571   -0.366521    1.927635
      6         11           0        0.057758    0.120451   -1.878218
      7         11           0        2.370062    1.612569    0.008308
 ---------------------------------------------------------------------

 SCF Done:  E(UB3LYP) =  -1136.13583790     A.U. after   19 cycles

 The electronic state is 2-A.
 Alpha  occ. eigenvalues --  -38.44108 -38.43683 -38.43511 -38.43453 -38.43433
 Alpha  occ. eigenvalues --  -38.43291 -38.43288  -2.19896  -2.19649  -2.19484
 Alpha  occ. eigenvalues --   -2.19418  -2.19358  -2.19163  -2.19148  -1.13569
 Alpha  occ. eigenvalues --   -1.13552  -1.13546  -1.13404  -1.13284  -1.13277
 Alpha  occ. eigenvalues --   -1.13206  -1.13146  -1.13118  -1.13064  -1.13049
 Alpha  occ. eigenvalues --   -1.13040  -1.13024  -1.13003  -1.12975  -1.12840
 Alpha  occ. eigenvalues --   -1.12836  -1.12825  -1.12813  -1.12783  -1.12770
 Alpha  occ. eigenvalues --   -0.19136  -0.13005  -0.12649  -0.11115
 Alpha virt. eigenvalues --   -0.05610  -0.04981  -0.04540  -0.03228  -0.03088
 Alpha virt. eigenvalues --   -0.02723  -0.01339  -0.00932  -0.00222  -0.00070
 Alpha virt. eigenvalues --   -0.00038   0.00360   0.00874   0.00932   0.00952

  Beta  occ. eigenvalues --  -38.44111 -38.43600 -38.43439 -38.43427 -38.43423
  Beta  occ. eigenvalues --  -38.43286 -38.43285  -2.19902  -2.19498  -2.19397
  Beta  occ. eigenvalues --   -2.19346  -2.19329  -2.19157  -2.19144  -1.13564
  Beta  occ. eigenvalues --   -1.13558  -1.13550  -1.13325  -1.13183  -1.13170
  Beta  occ. eigenvalues --   -1.13130  -1.13063  -1.13051  -1.13015  -1.13007
  Beta  occ. eigenvalues --   -1.12991  -1.12971  -1.12963  -1.12947  -1.12837
  Beta  occ. eigenvalues --   -1.12818  -1.12802  -1.12791  -1.12784  -1.12772
  Beta  occ. eigenvalues --   -0.18354  -0.12795  -0.12387
  Beta virt. eigenvalues --   -0.07122  -0.05550  -0.04984  -0.04492  -0.02475
  Beta virt. eigenvalues --   -0.02258  -0.01656  -0.01275  -0.00875  -0.00251
  Beta virt. eigenvalues --   -0.00124   0.00110   0.00396   0.00914   0.00935

 Mulliken charges and spin densities:
               1          2
     1  Na  -0.147498  -0.096341
     2  Na  -0.082260  -0.099176
     3  Na   0.015529  -0.096545
     4  Na   0.671975  -0.004894
     5  Na  -0.493678   0.707265
     6  Na  -0.339806   0.602749
     7  Na   0.375738  -0.013058
 Sum of Mulliken charges =  -0.00000   1.00000

 Dipole moment (field-independent basis, Debye):
    X=             -0.2147    Y=              0.0146    Z=              0.0693  Tot=              0.2260
 Quadrupole moment (field-independent basis, Debye-Ang):
   XX=            -57.9582   YY=            -64.8854   ZZ=            -72.1365
   XY=              0.2497   XZ=             -1.1530   YZ=              0.9392

 Normal termination of Gaussian 16 at Tue Dec  5 23:14:41 2023.
