 Gaussian 16, Revision B.01,
 Gaussian 16:  ES64L-G16RevB.01 20-Dec-2017

 -------------------------
 #P B3LYP/6-311+g(d) force
 -------------------------

 -----
 DPGEN
 -----
 Symbolic Z-matrix:
 Charge =  0 Multiplicity = 2

                         Standard orientation:
 ---------------------------------------------------------------------
 Center     Atomic      Atomic             Coordinates (Angstroms)
 Number     Number       Type             X           Y           Z
 ---------------------------------------------------------------------
      1         11           0       -0.020459    1.372452    1.410139
      2         11           0        1.316819    3.770531   -0.443852
      3         11           0        2.895957    0.665412   -0.498400
      4         11           0        3.962346   -2.571766   -0.276183
      5         11           0        0.686901   -2.091634    0.504761
      6         11           0       -2.849732   -0.667602   -0.435641
      7         11           0       -5.991832   -0.477392   -0.260824
 ---------------------------------------------------------------------

 SCF Done:  E(UB3LYP) =  -1136.12587173     A.U. after   19 cycles

 The electronic state is 2-A.
 Alpha  occ. eigenvalues --  -38.44492 -38.44338 -38.44106 -38.43992 -38.43930
 Alpha  occ. eigenvalues --  -38.43910 -38.43236  -2.20335  -2.20190  -2.19944
 Alpha  occ. eigenvalues --   -2.19810  -2.19746  -2.19731  -2.19037  -1.14030
 Alpha  occ. eigenvalues --   -1.14009  -1.13944  -1.13894  -1.13883  -1.13778
 Alpha  occ. eigenvalues --   -1.13633  -1.13625  -1.13548  -1.13472  -1.13466
 Alpha  occ. eigenvalues --   -1.13435  -1.13395  -1.13389  -1.13387  -1.13377
 Alpha  occ. eigenvalues --   -1.13377  -1.13351  -1.12722  -1.12718  -1.12684
 Alpha  occ. eigenvalues --   -0.17080  -0.13443  -0.12867  -0.11032
 Alpha virt. eigenvalues --   -0.05686  -0.05660  -0.04908  -0.03580  -0.02631
 Alpha virt. eigenvalues --   -0.02269  -0.01893  -0.01521  -0.01371  -0.00870
 Alpha virt. eigenvalues --   -0.00552   0.00038   0.00297   0.00482   0.00577

  Beta  occ. eigenvalues --  -38.44462 -38.44311 -38.44068 -38.43977 -38.43888
  Beta  occ. eigenvalues --  -38.43850 -38.43242  -2.20282  -2.20143  -2.19877
  Beta  occ. eigenvalues --   -2.19781  -2.19690  -2.19595  -2.19055  -1.13996
  Beta  occ. eigenvalues --   -1.13976  -1.13888  -1.13864  -1.13843  -1.13739
  Beta  occ. eigenvalues --   -1.13590  -1.13579  -1.13486  -1.13450  -1.13446
  Beta  occ. eigenvalues --   -1.13418  -1.13359  -1.13352  -1.13327  -1.13298
  Beta  occ. eigenvalues --   -1.13275  -1.13274  -1.12742  -1.12739  -1.12638
  Beta  occ. eigenvalues --   -0.16478  -0.12811  -0.12521
  Beta virt. eigenvalues --   -0.07679  -0.05529  -0.05283  -0.04413  -0.03299
  Beta virt. eigenvalues --   -0.02326  -0.02180  -0.01754  -0.01132  -0.01060
  Beta virt. eigenvalues --   -0.00505  -0.00268   0.00187   0.00435   0.00577

 Mulliken charges and spin densities:
               1          2
     1  Na   0.088670   0.168274
     2  Na   0.422389   0.037131
     3  Na  -1.008654   0.279487
     4  Na   1.157954   0.133694
     5  Na  -0.462350  -0.008134
     6  Na  -0.419889   0.098551
     7  Na   0.221880   0.290995
 Sum of Mulliken charges =  -0.00000   1.00000

 Dipole moment (field-independent basis, Debye):
    X=              1.1930    Y=              0.4838    Z=              0.2314  Tot=              1.3080
 Quadrupole moment (field-independent basis, Debye-Ang):
   XX=            -65.6502   YY=            -61.1345   ZZ=            -69.6963
   XY=             -4.7141   XZ=             -2.1615   YZ=             -1.0301

 Normal termination of Gaussian 16 at Tue Nov 28 19:47:06 2023.
