 Gaussian 16, Revision B.01,
 Gaussian 16:  ES64L-G16RevB.01 20-Dec-2017

 -------------------------
 #P B3LYP/6-311+g(d) force
 -------------------------

 -----
 DPGEN
 -----
 Symbolic Z-matrix:
 Charge =  0 Multiplicity = 2

                         Standard orientation:
 ---------------------------------------------------------------------
 Center     Atomic      Atomic             Coordinates (Angstroms)
 Number     Number       Type             X           Y           Z
 ---------------------------------------------------------------------
      1         11           0        3.060375   -1.235152   -0.385095
      2         11           0        0.431395    0.191638    2.293138
      3         11           0       -3.154060   -1.059569   -0.195089
      4         11           0       -2.620840    2.333345   -0.118716
      5         11           0       -0.256355   -2.858539    0.005663
      6         11           0        2.374713    2.400457   -0.213627
      7         11           0        0.164772    0.227820   -1.386274
 ---------------------------------------------------------------------

 SCF Done:  E(UB3LYP) =  -1136.13020429     A.U. after   21 cycles

 The electronic state is 2-A.
 Alpha  occ. eigenvalues --  -38.44634 -38.44233 -38.44198 -38.44169 -38.43731
 Alpha  occ. eigenvalues --  -38.43457 -38.42920  -2.20441  -2.20044  -2.19996
 Alpha  occ. eigenvalues --   -2.19940  -2.19563  -2.19392  -2.18761  -1.14124
 Alpha  occ. eigenvalues --   -1.14097  -1.14068  -1.13719  -1.13706  -1.13696
 Alpha  occ. eigenvalues --   -1.13682  -1.13650  -1.13633  -1.13612  -1.13589
 Alpha  occ. eigenvalues --   -1.13581  -1.13215  -1.13185  -1.13176  -1.13095
 Alpha  occ. eigenvalues --   -1.13044  -1.13014  -1.12446  -1.12422  -1.12399
 Alpha  occ. eigenvalues --   -0.17939  -0.13289  -0.11878  -0.10497
 Alpha virt. eigenvalues --   -0.06223  -0.05832  -0.04427  -0.03116  -0.02659
 Alpha virt. eigenvalues --   -0.02477  -0.01954  -0.01489  -0.00972  -0.00443
 Alpha virt. eigenvalues --   -0.00065   0.00263   0.00648   0.00690   0.00856

  Beta  occ. eigenvalues --  -38.44620 -38.44232 -38.44194 -38.44172 -38.43612
  Beta  occ. eigenvalues --  -38.43422 -38.42917  -2.20420  -2.20042  -2.19992
  Beta  occ. eigenvalues --   -2.19946  -2.19343  -2.19328  -2.18758  -1.14099
  Beta  occ. eigenvalues --   -1.14076  -1.14055  -1.13710  -1.13706  -1.13697
  Beta  occ. eigenvalues --   -1.13676  -1.13638  -1.13625  -1.13609  -1.13593
  Beta  occ. eigenvalues --   -1.13584  -1.13074  -1.13037  -1.13032  -1.13019
  Beta  occ. eigenvalues --   -1.12999  -1.12964  -1.12445  -1.12402  -1.12398
  Beta  occ. eigenvalues --   -0.17274  -0.13095  -0.11719
  Beta virt. eigenvalues --   -0.06491  -0.06202  -0.05739  -0.04407  -0.02468
  Beta virt. eigenvalues --   -0.01877  -0.01828  -0.01566  -0.01328  -0.01004
  Beta virt. eigenvalues --   -0.00463   0.00133   0.00331   0.00689   0.00753

 Mulliken charges and spin densities:
               1          2
     1  Na   0.299708   0.088786
     2  Na  -0.528067   0.765711
     3  Na   0.067994   0.009075
     4  Na   0.145769  -0.000693
     5  Na   0.059181   0.047656
     6  Na   0.103483   0.019681
     7  Na  -0.148069   0.069784
 Sum of Mulliken charges =  -0.00000   1.00000

 Dipole moment (field-independent basis, Debye):
    X=              0.3243    Y=              0.2675    Z=              0.0059  Tot=              0.4205
 Quadrupole moment (field-independent basis, Debye-Ang):
   XX=            -53.2928   YY=            -63.2719   ZZ=            -76.6437
   XY=              0.0144   XZ=             -0.6782   YZ=              0.1019

 Normal termination of Gaussian 16 at Thu Dec  7 10:55:46 2023.
