 Gaussian 16, Revision B.01,
 Gaussian 16:  ES64L-G16RevB.01 20-Dec-2017

 -------------------------
 #P B3LYP/6-311+g(d) force
 -------------------------

 -----
 DPGEN
 -----
 Symbolic Z-matrix:
 Charge =  0 Multiplicity = 2

                         Standard orientation:
 ---------------------------------------------------------------------
 Center     Atomic      Atomic             Coordinates (Angstroms)
 Number     Number       Type             X           Y           Z
 ---------------------------------------------------------------------
      1         11           0       -1.657126    2.481876   -0.928085
      2         11           0       -3.479165   -1.098132    0.045483
      3         11           0        3.186173   -0.610811   -1.281916
      4         11           0        2.002038   -1.724538    1.082737
      5         11           0        1.966801    2.307117    0.894231
      6         11           0       -1.281171   -0.282445    1.993001
      7         11           0       -0.737550   -1.073066   -1.805452
 ---------------------------------------------------------------------

 SCF Done:  E(UB3LYP) =  -1136.11630843     A.U. after   23 cycles

 The electronic state is 2-A.
 Alpha  occ. eigenvalues --  -38.44682 -38.44617 -38.44477 -38.44358 -38.44273
 Alpha  occ. eigenvalues --  -38.43819 -38.43651  -2.20531  -2.20464  -2.20305
 Alpha  occ. eigenvalues --   -2.20226  -2.20132  -2.19580  -2.19397  -1.14325
 Alpha  occ. eigenvalues --   -1.14208  -1.14167  -1.14144  -1.14135  -1.14089
 Alpha  occ. eigenvalues --   -1.13973  -1.13956  -1.13916  -1.13889  -1.13851
 Alpha  occ. eigenvalues --   -1.13829  -1.13780  -1.13771  -1.13750  -1.13266
 Alpha  occ. eigenvalues --   -1.13234  -1.13204  -1.13084  -1.13061  -1.13031
 Alpha  occ. eigenvalues --   -0.17757  -0.13916  -0.11428  -0.11015
 Alpha virt. eigenvalues --   -0.06434  -0.05615  -0.05032  -0.03361  -0.03012
 Alpha virt. eigenvalues --   -0.02718  -0.02010  -0.01004  -0.00786  -0.00371
 Alpha virt. eigenvalues --    0.00056   0.00185   0.00305   0.00424   0.00499

  Beta  occ. eigenvalues --  -38.44671 -38.44616 -38.44420 -38.44283 -38.44259
  Beta  occ. eigenvalues --  -38.43796 -38.43652  -2.20510  -2.20465  -2.20199
  Beta  occ. eigenvalues --   -2.20109  -2.20086  -2.19539  -2.19400  -1.14314
  Beta  occ. eigenvalues --   -1.14189  -1.14146  -1.14128  -1.14126  -1.14085
  Beta  occ. eigenvalues --   -1.13902  -1.13877  -1.13841  -1.13797  -1.13764
  Beta  occ. eigenvalues --   -1.13759  -1.13750  -1.13728  -1.13725  -1.13229
  Beta  occ. eigenvalues --   -1.13209  -1.13174  -1.13078  -1.13063  -1.13035
  Beta  occ. eigenvalues --   -0.17025  -0.13770  -0.10874
  Beta virt. eigenvalues --   -0.07629  -0.06115  -0.05481  -0.04362  -0.03202
  Beta virt. eigenvalues --   -0.02325  -0.02114  -0.01886  -0.00770  -0.00596
  Beta virt. eigenvalues --   -0.00205   0.00206   0.00219   0.00390   0.00522

 Mulliken charges and spin densities:
               1          2
     1  Na  -0.225876   0.017214
     2  Na   0.590974  -0.012284
     3  Na   0.510653   0.119732
     4  Na  -0.127358   0.054871
     5  Na  -0.317510  -0.019129
     6  Na  -0.091465   0.396353
     7  Na  -0.339418   0.443242
 Sum of Mulliken charges =  -0.00000   1.00000

 Dipole moment (field-independent basis, Debye):
    X=             -0.2808    Y=             -0.5169    Z=             -0.3355  Tot=              0.6772
 Quadrupole moment (field-independent basis, Debye-Ang):
   XX=            -53.1480   YY=            -77.2285   ZZ=            -67.5724
   XY=              0.8125   XZ=             -0.7322   YZ=             -1.4875

 Normal termination of Gaussian 16 at Mon Dec  4 00:54:37 2023.
