 Gaussian 16, Revision B.01,
 Gaussian 16:  ES64L-G16RevB.01 20-Dec-2017

 -------------------------
 #P B3LYP/6-311+g(d) force
 -------------------------

 -----
 DPGEN
 -----
 Symbolic Z-matrix:
 Charge =  0 Multiplicity = 2

                         Standard orientation:
 ---------------------------------------------------------------------
 Center     Atomic      Atomic             Coordinates (Angstroms)
 Number     Number       Type             X           Y           Z
 ---------------------------------------------------------------------
      1         11           0       -3.064044   -1.894655   -0.817150
      2         11           0        3.739613    0.192843   -0.745011
      3         11           0       -1.298833   -0.249058    1.924865
      4         11           0       -2.355951    2.259768   -0.425135
      5         11           0        1.667539   -1.933450    0.491653
      6         11           0        1.198435    1.395226    0.930252
      7         11           0        0.113241    0.229326   -1.359474
 ---------------------------------------------------------------------

 SCF Done:  E(UB3LYP) =  -1136.11854431     A.U. after   25 cycles

 The electronic state is 2-A.
 Alpha  occ. eigenvalues --  -38.44797 -38.44099 -38.43820 -38.43706 -38.43692
 Alpha  occ. eigenvalues --  -38.43593 -38.43304  -2.20660  -2.20109  -2.19602
 Alpha  occ. eigenvalues --   -2.19590  -2.19514  -2.19508  -2.19333  -1.14325
 Alpha  occ. eigenvalues --   -1.14313  -1.14297  -1.13964  -1.13746  -1.13698
 Alpha  occ. eigenvalues --   -1.13310  -1.13273  -1.13265  -1.13244  -1.13241
 Alpha  occ. eigenvalues --   -1.13222  -1.13212  -1.13195  -1.13170  -1.13133
 Alpha  occ. eigenvalues --   -1.13127  -1.13114  -1.13044  -1.12966  -1.12878
 Alpha  occ. eigenvalues --   -0.18960  -0.13994  -0.11166  -0.10934
 Alpha virt. eigenvalues --   -0.06469  -0.05498  -0.04325  -0.02908  -0.02580
 Alpha virt. eigenvalues --   -0.02367  -0.02179  -0.01140  -0.00828  -0.00021
 Alpha virt. eigenvalues --    0.00160   0.00236   0.00486   0.00615   0.00759

  Beta  occ. eigenvalues --  -38.44780 -38.44068 -38.43797 -38.43693 -38.43682
  Beta  occ. eigenvalues --  -38.43525 -38.43268  -2.20626  -2.20055  -2.19582
  Beta  occ. eigenvalues --   -2.19546  -2.19491  -2.19393  -2.19275  -1.14303
  Beta  occ. eigenvalues --   -1.14292  -1.14269  -1.13915  -1.13708  -1.13655
  Beta  occ. eigenvalues --   -1.13297  -1.13234  -1.13232  -1.13206  -1.13195
  Beta  occ. eigenvalues --   -1.13193  -1.13172  -1.13161  -1.13147  -1.13113
  Beta  occ. eigenvalues --   -1.13040  -1.13038  -1.13007  -1.12870  -1.12847
  Beta  occ. eigenvalues --   -0.18218  -0.13692  -0.10751
  Beta virt. eigenvalues --   -0.07251  -0.06248  -0.05410  -0.03814  -0.02731
  Beta virt. eigenvalues --   -0.02272  -0.01878  -0.01415  -0.01077  -0.00433
  Beta virt. eigenvalues --    0.00067   0.00186   0.00234   0.00602   0.00685

 Mulliken charges and spin densities:
               1          2
     1  Na  -0.208988   0.098610
     2  Na   0.466125   0.078007
     3  Na   0.201249   0.131087
     4  Na  -0.045063   0.039034
     5  Na  -0.134789   0.065311
     6  Na   0.321497   0.281776
     7  Na  -0.600033   0.306176
 Sum of Mulliken charges =  -0.00000   1.00000

 Dipole moment (field-independent basis, Debye):
    X=              0.7812    Y=              0.2082    Z=             -0.0398  Tot=              0.8095
 Quadrupole moment (field-independent basis, Debye-Ang):
   XX=            -48.5725   YY=            -74.0017   ZZ=            -69.4332
   XY=             -2.1646   XZ=             -1.3223   YZ=              0.3377

 Normal termination of Gaussian 16 at Tue Dec  5 14:03:47 2023.
