 Gaussian 16, Revision B.01,
 Gaussian 16:  ES64L-G16RevB.01 20-Dec-2017

 -------------------------
 #P B3LYP/6-311+g(d) force
 -------------------------

 -----
 DPGEN
 -----
 Symbolic Z-matrix:
 Charge =  0 Multiplicity = 2

                         Standard orientation:
 ---------------------------------------------------------------------
 Center     Atomic      Atomic             Coordinates (Angstroms)
 Number     Number       Type             X           Y           Z
 ---------------------------------------------------------------------
      1         11           0        3.689900    2.524319   -0.348619
      2         11           0       -3.403197    0.021944   -0.181735
      3         11           0       -6.288500    0.825959    0.218441
      4         11           0       -0.408480   -2.128158   -0.949013
      5         11           0        3.673432   -1.226264    1.509171
      6         11           0        0.233772    0.161246    1.440338
      7         11           0        2.503072   -0.179046   -1.688583
 ---------------------------------------------------------------------

 SCF Done:  E(UB3LYP) =  -1136.11015850     A.U. after   25 cycles

 The electronic state is 2-A.
 Alpha  occ. eigenvalues --  -38.45903 -38.45328 -38.44576 -38.44446 -38.43725
 Alpha  occ. eigenvalues --  -38.43264 -38.43015  -2.21697  -2.21130  -2.20446
 Alpha  occ. eigenvalues --   -2.20249  -2.19561  -2.19054  -2.18852  -1.15389
 Alpha  occ. eigenvalues --   -1.15359  -1.15316  -1.14801  -1.14764  -1.14735
 Alpha  occ. eigenvalues --   -1.14148  -1.14101  -1.14070  -1.13911  -1.13897
 Alpha  occ. eigenvalues --   -1.13855  -1.13222  -1.13219  -1.13196  -1.12791
 Alpha  occ. eigenvalues --   -1.12710  -1.12710  -1.12538  -1.12526  -1.12428
 Alpha  occ. eigenvalues --   -0.17515  -0.13637  -0.11477  -0.11168
 Alpha virt. eigenvalues --   -0.07807  -0.05533  -0.04376  -0.03452  -0.02976
 Alpha virt. eigenvalues --   -0.02417  -0.02383  -0.01632  -0.01403  -0.01001
 Alpha virt. eigenvalues --   -0.00847  -0.00040   0.00117   0.00415   0.00567

  Beta  occ. eigenvalues --  -38.45895 -38.45247 -38.44529 -38.44402 -38.43700
  Beta  occ. eigenvalues --  -38.43292 -38.43012  -2.21683  -2.20981  -2.20362
  Beta  occ. eigenvalues --   -2.20169  -2.19514  -2.19107  -2.18844  -1.15373
  Beta  occ. eigenvalues --   -1.15349  -1.15295  -1.14695  -1.14658  -1.14634
  Beta  occ. eigenvalues --   -1.14083  -1.14044  -1.13997  -1.13857  -1.13827
  Beta  occ. eigenvalues --   -1.13806  -1.13185  -1.13179  -1.13171  -1.12823
  Beta  occ. eigenvalues --   -1.12746  -1.12745  -1.12529  -1.12517  -1.12446
  Beta  occ. eigenvalues --   -0.16835  -0.13604  -0.11292
  Beta virt. eigenvalues --   -0.07449  -0.07297  -0.05234  -0.04217  -0.03152
  Beta virt. eigenvalues --   -0.02531  -0.01883  -0.01775  -0.01558  -0.01221
  Beta virt. eigenvalues --   -0.00789  -0.00710   0.00097   0.00190   0.00504

 Mulliken charges and spin densities:
               1          2
     1  Na   0.133164   0.113242
     2  Na  -1.096317  -0.350635
     3  Na   0.366663  -0.028300
     4  Na   0.632838   0.261152
     5  Na   0.001766   0.223741
     6  Na  -0.211622   0.328988
     7  Na   0.173509   0.451812
 Sum of Mulliken charges =  -0.00000   1.00000

 Dipole moment (field-independent basis, Debye):
    X=              2.4142    Y=             -0.3323    Z=              0.5111  Tot=              2.4899
 Quadrupole moment (field-independent basis, Debye-Ang):
   XX=            -70.1570   YY=            -63.6808   ZZ=            -72.3593
   XY=             -2.4650   XZ=              0.5572   YZ=              5.1694

 Normal termination of Gaussian 16 at Sun Dec  3 16:56:00 2023.
