 Gaussian 16, Revision B.01,
 Gaussian 16:  ES64L-G16RevB.01 20-Dec-2017

 -------------------------
 #P B3LYP/6-311+g(d) force
 -------------------------

 -----
 DPGEN
 -----
 Symbolic Z-matrix:
 Charge =  0 Multiplicity = 2

                         Standard orientation:
 ---------------------------------------------------------------------
 Center     Atomic      Atomic             Coordinates (Angstroms)
 Number     Number       Type             X           Y           Z
 ---------------------------------------------------------------------
      1         11           0        4.176329   -0.715564   -1.183515
      2         11           0        0.738543    1.900907    1.761272
      3         11           0       -2.322701    1.338792    0.191088
      4         11           0       -0.998722   -1.888754    0.188284
      5         11           0       -4.485414   -0.847505   -0.688678
      6         11           0        0.977017    1.492449   -1.811350
      7         11           0        1.914948   -1.280324    1.542898
 ---------------------------------------------------------------------

 SCF Done:  E(UB3LYP) =  -1136.11784444     A.U. after   25 cycles

 The electronic state is 2-A.
 Alpha  occ. eigenvalues --  -38.44940 -38.44778 -38.44602 -38.44193 -38.43579
 Alpha  occ. eigenvalues --  -38.43574 -38.43512  -2.20724  -2.20587  -2.20374
 Alpha  occ. eigenvalues --   -2.19999  -2.19453  -2.19414  -2.19373  -1.14414
 Alpha  occ. eigenvalues --   -1.14374  -1.14320  -1.14279  -1.14273  -1.14195
 Alpha  occ. eigenvalues --   -1.14037  -1.14017  -1.13999  -1.13688  -1.13656
 Alpha  occ. eigenvalues --   -1.13620  -1.13159  -1.13146  -1.13105  -1.13087
 Alpha  occ. eigenvalues --   -1.13061  -1.13054  -1.13018  -1.13005  -1.12989
 Alpha  occ. eigenvalues --   -0.17555  -0.13784  -0.11589  -0.11233
 Alpha virt. eigenvalues --   -0.07104  -0.05174  -0.04447  -0.03314  -0.03105
 Alpha virt. eigenvalues --   -0.02513  -0.02399  -0.01502  -0.01100  -0.00167
 Alpha virt. eigenvalues --   -0.00064   0.00059   0.00236   0.00467   0.00750

  Beta  occ. eigenvalues --  -38.44887 -38.44754 -38.44549 -38.44184 -38.43577
  Beta  occ. eigenvalues --  -38.43552 -38.43472  -2.20624  -2.20545  -2.20276
  Beta  occ. eigenvalues --   -2.19983  -2.19450  -2.19375  -2.19304  -1.14347
  Beta  occ. eigenvalues --   -1.14309  -1.14251  -1.14240  -1.14238  -1.14156
  Beta  occ. eigenvalues --   -1.13972  -1.13940  -1.13940  -1.13675  -1.13644
  Beta  occ. eigenvalues --   -1.13612  -1.13152  -1.13139  -1.13077  -1.13062
  Beta  occ. eigenvalues --   -1.13033  -1.13012  -1.12998  -1.12964  -1.12924
  Beta  occ. eigenvalues --   -0.16935  -0.13395  -0.11106
  Beta virt. eigenvalues --   -0.07845  -0.06697  -0.04958  -0.04035  -0.02978
  Beta virt. eigenvalues --   -0.02667  -0.02327  -0.01883  -0.01249  -0.00756
  Beta virt. eigenvalues --   -0.00111   0.00009   0.00172   0.00348   0.00601

 Mulliken charges and spin densities:
               1          2
     1  Na   0.130601   0.269860
     2  Na   0.178777   0.389340
     3  Na  -0.388736  -0.011231
     4  Na  -0.245276   0.344481
     5  Na   0.550555   0.084138
     6  Na  -0.167498   0.290139
     7  Na  -0.058423  -0.366727
 Sum of Mulliken charges =  -0.00000   1.00000

 Dipole moment (field-independent basis, Debye):
    X=             -0.3942    Y=              0.2986    Z=             -0.3642  Tot=              0.6142
 Quadrupole moment (field-independent basis, Debye-Ang):
   XX=            -56.0969   YY=            -75.5333   ZZ=            -66.0985
   XY=              1.5291   XZ=              2.2844   YZ=              1.7590

 Normal termination of Gaussian 16 at Sun Dec  3 20:53:10 2023.
