 Gaussian 16, Revision B.01,
 Gaussian 16:  ES64L-G16RevB.01 20-Dec-2017

 -------------------------
 #P B3LYP/6-311+g(d) force
 -------------------------

 -----
 DPGEN
 -----
 Symbolic Z-matrix:
 Charge =  0 Multiplicity = 2

                         Standard orientation:
 ---------------------------------------------------------------------
 Center     Atomic      Atomic             Coordinates (Angstroms)
 Number     Number       Type             X           Y           Z
 ---------------------------------------------------------------------
      1         11           0        2.955011   -1.581425   -0.256424
      2         11           0       -0.171544   -0.223056   -1.687843
      3         11           0       -1.112180   -2.557965    0.023040
      4         11           0       -2.862576   -0.098678    0.054061
      5         11           0        2.238561    1.752565    0.275651
      6         11           0       -0.165137   -0.036872    2.002017
      7         11           0       -0.882135    2.745431   -0.410503
 ---------------------------------------------------------------------

 SCF Done:  E(UB3LYP) =  -1136.13412065     A.U. after   19 cycles

 The electronic state is 2-A.
 Alpha  occ. eigenvalues --  -38.43937 -38.43787 -38.43691 -38.43620 -38.43510
 Alpha  occ. eigenvalues --  -38.43336 -38.43004  -2.19738  -2.19723  -2.19622
 Alpha  occ. eigenvalues --   -2.19482  -2.19447  -2.19347  -2.18882  -1.13492
 Alpha  occ. eigenvalues --   -1.13408  -1.13397  -1.13388  -1.13386  -1.13366
 Alpha  occ. eigenvalues --   -1.13291  -1.13261  -1.13238  -1.13203  -1.13154
 Alpha  occ. eigenvalues --   -1.13152  -1.13108  -1.13086  -1.13048  -1.13009
 Alpha  occ. eigenvalues --   -1.12955  -1.12948  -1.12560  -1.12529  -1.12525
 Alpha  occ. eigenvalues --   -0.19106  -0.13250  -0.12379  -0.11048
 Alpha virt. eigenvalues --   -0.05531  -0.05121  -0.04517  -0.03365  -0.02847
 Alpha virt. eigenvalues --   -0.02677  -0.01437  -0.01036  -0.00201  -0.00111
 Alpha virt. eigenvalues --    0.00015   0.00360   0.00848   0.00899   0.00922

  Beta  occ. eigenvalues --  -38.43938 -38.43776 -38.43615 -38.43597 -38.43501
  Beta  occ. eigenvalues --  -38.43265 -38.42996  -2.19726  -2.19724  -2.19475
  Beta  occ. eigenvalues --   -2.19450  -2.19435  -2.19217  -2.18871  -1.13485
  Beta  occ. eigenvalues --   -1.13395  -1.13384  -1.13382  -1.13369  -1.13348
  Beta  occ. eigenvalues --   -1.13199  -1.13179  -1.13157  -1.13134  -1.13124
  Beta  occ. eigenvalues --   -1.13109  -1.13100  -1.13046  -1.13039  -1.12928
  Beta  occ. eigenvalues --   -1.12874  -1.12851  -1.12546  -1.12523  -1.12501
  Beta  occ. eigenvalues --   -0.18336  -0.13004  -0.12125
  Beta virt. eigenvalues --   -0.07079  -0.05491  -0.05079  -0.04497  -0.02530
  Beta virt. eigenvalues --   -0.02116  -0.01629  -0.01335  -0.00964  -0.00237
  Beta virt. eigenvalues --   -0.00129   0.00126   0.00379   0.00884   0.00920

 Mulliken charges and spin densities:
               1          2
     1  Na  -0.075388  -0.111136
     2  Na  -0.364257   0.576533
     3  Na   0.210303  -0.089411
     4  Na   0.508580   0.089405
     5  Na   0.066985  -0.010644
     6  Na  -0.399216   0.576305
     7  Na   0.052993  -0.031053
 Sum of Mulliken charges =  -0.00000   1.00000

 Dipole moment (field-independent basis, Debye):
    X=              0.1295    Y=             -0.1559    Z=              0.1643  Tot=              0.2609
 Quadrupole moment (field-independent basis, Debye-Ang):
   XX=            -58.1078   YY=            -63.2358   ZZ=            -73.0537
   XY=             -0.5871   XZ=             -0.0332   YZ=             -0.1915

 Normal termination of Gaussian 16 at Fri Dec  8 04:44:38 2023.
