 Gaussian 16, Revision B.01,
 Gaussian 16:  ES64L-G16RevB.01 20-Dec-2017

 -------------------------
 #P B3LYP/6-311+g(d) force
 -------------------------

 -----
 DPGEN
 -----
 Symbolic Z-matrix:
 Charge =  0 Multiplicity = 2

                         Standard orientation:
 ---------------------------------------------------------------------
 Center     Atomic      Atomic             Coordinates (Angstroms)
 Number     Number       Type             X           Y           Z
 ---------------------------------------------------------------------
      1         11           0        2.874813   -0.498027    0.066011
      2         11           0       -0.102661   -0.026025    2.063496
      3         11           0       -2.444402    1.882902    0.218587
      4         11           0        0.932002   -2.672368   -0.111704
      5         11           0       -2.589661   -1.515330   -0.230293
      6         11           0        1.674114    2.760612   -0.310356
      7         11           0       -0.344205    0.068236   -1.695741
 ---------------------------------------------------------------------

 SCF Done:  E(UB3LYP) =  -1136.13484054     A.U. after   19 cycles

 The electronic state is 2-A.
 Alpha  occ. eigenvalues --  -38.44098 -38.43827 -38.43774 -38.43762 -38.43570
 Alpha  occ. eigenvalues --  -38.43327 -38.43195  -2.19933  -2.19702  -2.19669
 Alpha  occ. eigenvalues --   -2.19649  -2.19361  -2.19300  -2.19105  -1.13613
 Alpha  occ. eigenvalues --   -1.13606  -1.13566  -1.13424  -1.13423  -1.13358
 Alpha  occ. eigenvalues --   -1.13331  -1.13320  -1.13311  -1.13300  -1.13272
 Alpha  occ. eigenvalues --   -1.13264  -1.13037  -1.13018  -1.13006  -1.12978
 Alpha  occ. eigenvalues --   -1.12935  -1.12917  -1.12776  -1.12744  -1.12733
 Alpha  occ. eigenvalues --   -0.18772  -0.13284  -0.12251  -0.10915
 Alpha virt. eigenvalues --   -0.05646  -0.05259  -0.04544  -0.03396  -0.02830
 Alpha virt. eigenvalues --   -0.02653  -0.01430  -0.01192  -0.00382  -0.00180
 Alpha virt. eigenvalues --   -0.00025   0.00364   0.00805   0.00862   0.00921

  Beta  occ. eigenvalues --  -38.44092 -38.43818 -38.43771 -38.43667 -38.43568
  Beta  occ. eigenvalues --  -38.43260 -38.43190  -2.19924  -2.19689  -2.19666
  Beta  occ. eigenvalues --   -2.19474  -2.19359  -2.19178  -2.19100  -1.13609
  Beta  occ. eigenvalues --   -1.13573  -1.13564  -1.13426  -1.13404  -1.13329
  Beta  occ. eigenvalues --   -1.13313  -1.13312  -1.13289  -1.13198  -1.13150
  Beta  occ. eigenvalues --   -1.13140  -1.13022  -1.13017  -1.13004  -1.12900
  Beta  occ. eigenvalues --   -1.12853  -1.12826  -1.12773  -1.12734  -1.12707
  Beta  occ. eigenvalues --   -0.18027  -0.13047  -0.12011
  Beta virt. eigenvalues --   -0.06989  -0.05624  -0.05185  -0.04531  -0.02564
  Beta virt. eigenvalues --   -0.02082  -0.01621  -0.01334  -0.01106  -0.00426
  Beta virt. eigenvalues --   -0.00236   0.00117   0.00389   0.00841   0.00899

 Mulliken charges and spin densities:
               1          2
     1  Na   0.068877  -0.005007
     2  Na  -0.434753   0.658864
     3  Na   0.077132  -0.055116
     4  Na   0.193711  -0.019677
     5  Na   0.390175  -0.013441
     6  Na  -0.012832  -0.076853
     7  Na  -0.282309   0.511230
 Sum of Mulliken charges =  -0.00000   1.00000

 Dipole moment (field-independent basis, Debye):
    X=             -0.4457    Y=              0.2123    Z=              0.1767  Tot=              0.5243
 Quadrupole moment (field-independent basis, Debye-Ang):
   XX=            -58.1709   YY=            -62.6200   ZZ=            -73.6759
   XY=             -0.1886   XZ=             -0.3444   YZ=              0.2662

 Normal termination of Gaussian 16 at Wed Nov 29 16:31:55 2023.
