 Gaussian 16, Revision B.01,
 Gaussian 16:  ES64L-G16RevB.01 20-Dec-2017

 -------------------------
 #P B3LYP/6-311+g(d) force
 -------------------------

 -----
 DPGEN
 -----
 Symbolic Z-matrix:
 Charge =  0 Multiplicity = 2

                         Standard orientation:
 ---------------------------------------------------------------------
 Center     Atomic      Atomic             Coordinates (Angstroms)
 Number     Number       Type             X           Y           Z
 ---------------------------------------------------------------------
      1         11           0       -2.818434   -1.010171   -0.474997
      2         11           0        1.949819    2.572180    0.089616
      3         11           0       -2.544963    1.999345   -0.235357
      4         11           0        0.324166   -2.840117    0.533688
      5         11           0        0.191796   -0.379180   -1.595240
      6         11           0       -0.271693    0.202455    2.124728
      7         11           0        3.169309   -0.544512   -0.442439
 ---------------------------------------------------------------------

 SCF Done:  E(UB3LYP) =  -1136.13263895     A.U. after   20 cycles

 The electronic state is 2-A.
 Alpha  occ. eigenvalues --  -38.44249 -38.43944 -38.43916 -38.43855 -38.43678
 Alpha  occ. eigenvalues --  -38.43552 -38.42975  -2.20090  -2.19838  -2.19749
 Alpha  occ. eigenvalues --   -2.19719  -2.19510  -2.19469  -2.18834  -1.13796
 Alpha  occ. eigenvalues --   -1.13743  -1.13712  -1.13603  -1.13520  -1.13472
 Alpha  occ. eigenvalues --   -1.13403  -1.13388  -1.13378  -1.13350  -1.13342
 Alpha  occ. eigenvalues --   -1.13336  -1.13194  -1.13153  -1.13145  -1.13139
 Alpha  occ. eigenvalues --   -1.13121  -1.13115  -1.12511  -1.12495  -1.12467
 Alpha  occ. eigenvalues --   -0.18405  -0.13446  -0.11949  -0.10959
 Alpha virt. eigenvalues --   -0.05752  -0.05350  -0.04480  -0.03375  -0.02931
 Alpha virt. eigenvalues --   -0.02654  -0.01693  -0.01075  -0.00521  -0.00317
 Alpha virt. eigenvalues --   -0.00005   0.00342   0.00730   0.00840   0.00900

  Beta  occ. eigenvalues --  -38.44238 -38.43928 -38.43913 -38.43753 -38.43679
  Beta  occ. eigenvalues --  -38.43504 -38.42963  -2.20072  -2.19813  -2.19746
  Beta  occ. eigenvalues --   -2.19531  -2.19473  -2.19422  -2.18814  -1.13773
  Beta  occ. eigenvalues --   -1.13724  -1.13703  -1.13593  -1.13497  -1.13439
  Beta  occ. eigenvalues --   -1.13393  -1.13377  -1.13339  -1.13257  -1.13217
  Beta  occ. eigenvalues --   -1.13196  -1.13140  -1.13135  -1.13129  -1.13110
  Beta  occ. eigenvalues --   -1.13083  -1.13075  -1.12500  -1.12463  -1.12448
  Beta  occ. eigenvalues --   -0.17697  -0.13177  -0.11747
  Beta virt. eigenvalues --   -0.07054  -0.05653  -0.05307  -0.04401  -0.02679
  Beta virt. eigenvalues --   -0.02165  -0.01667  -0.01570  -0.00991  -0.00554
  Beta virt. eigenvalues --   -0.00299   0.00119   0.00390   0.00819   0.00847

 Mulliken charges and spin densities:
               1          2
     1  Na   0.426556   0.098333
     2  Na  -0.157801  -0.058124
     3  Na  -0.139220  -0.051882
     4  Na  -0.001276   0.053369
     5  Na   0.016724   0.255357
     6  Na  -0.388759   0.708003
     7  Na   0.243775  -0.005056
 Sum of Mulliken charges =  -0.00000   1.00000

 Dipole moment (field-independent basis, Debye):
    X=              0.0983    Y=              0.0594    Z=              0.0572  Tot=              0.1283
 Quadrupole moment (field-independent basis, Debye-Ang):
   XX=            -57.3289   YY=            -64.1467   ZZ=            -73.4142
   XY=             -0.8670   XZ=              0.5313   YZ=             -0.8179

 Normal termination of Gaussian 16 at Thu Dec  7 17:14:55 2023.
