 Gaussian 16, Revision B.01,
 Gaussian 16:  ES64L-G16RevB.01 20-Dec-2017

 -------------------------
 #P B3LYP/6-311+g(d) force
 -------------------------

 -----
 DPGEN
 -----
 Symbolic Z-matrix:
 Charge =  0 Multiplicity = 2

                         Standard orientation:
 ---------------------------------------------------------------------
 Center     Atomic      Atomic             Coordinates (Angstroms)
 Number     Number       Type             X           Y           Z
 ---------------------------------------------------------------------
      1         11           0       -3.278687    1.258422   -0.158780
      2         11           0       -0.598777    0.051097   -1.444589
      3         11           0       -1.624181   -2.515693   -0.159943
      4         11           0        1.813841   -2.260037   -0.076891
      5         11           0        0.680879    2.976142    0.228386
      6         11           0        0.059076   -0.241948    2.219899
      7         11           0        2.947849    0.732017   -0.608081
 ---------------------------------------------------------------------

 SCF Done:  E(UB3LYP) =  -1136.13280350     A.U. after   20 cycles

 The electronic state is 2-A.
 Alpha  occ. eigenvalues --  -38.44422 -38.43991 -38.43841 -38.43779 -38.43583
 Alpha  occ. eigenvalues --  -38.43400 -38.43157  -2.20202  -2.19850  -2.19652
 Alpha  occ. eigenvalues --   -2.19639  -2.19440  -2.19275  -2.19138  -1.13893
 Alpha  occ. eigenvalues --   -1.13854  -1.13838  -1.13587  -1.13505  -1.13461
 Alpha  occ. eigenvalues --   -1.13336  -1.13320  -1.13296  -1.13291  -1.13269
 Alpha  occ. eigenvalues --   -1.13250  -1.13130  -1.13098  -1.13076  -1.12939
 Alpha  occ. eigenvalues --   -1.12937  -1.12909  -1.12823  -1.12785  -1.12758
 Alpha  occ. eigenvalues --   -0.18409  -0.12914  -0.12471  -0.10740
 Alpha virt. eigenvalues --   -0.06018  -0.05100  -0.04689  -0.03077  -0.02935
 Alpha virt. eigenvalues --   -0.02642  -0.01675  -0.01237  -0.00478  -0.00346
 Alpha virt. eigenvalues --   -0.00033   0.00318   0.00762   0.00845   0.00895

  Beta  occ. eigenvalues --  -38.44424 -38.43985 -38.43838 -38.43670 -38.43569
  Beta  occ. eigenvalues --  -38.43393 -38.43114  -2.20206  -2.19842  -2.19647
  Beta  occ. eigenvalues --   -2.19437  -2.19415  -2.19266  -2.19062  -1.13888
  Beta  occ. eigenvalues --   -1.13854  -1.13840  -1.13577  -1.13480  -1.13458
  Beta  occ. eigenvalues --   -1.13333  -1.13299  -1.13293  -1.13161  -1.13131
  Beta  occ. eigenvalues --   -1.13114  -1.13105  -1.13073  -1.13055  -1.12935
  Beta  occ. eigenvalues --   -1.12914  -1.12889  -1.12768  -1.12727  -1.12701
  Beta  occ. eigenvalues --   -0.17704  -0.12677  -0.12278
  Beta virt. eigenvalues --   -0.06810  -0.05972  -0.05009  -0.04644  -0.02374
  Beta virt. eigenvalues --   -0.02196  -0.01683  -0.01471  -0.01174  -0.00484
  Beta virt. eigenvalues --   -0.00372   0.00132   0.00370   0.00778   0.00893

 Mulliken charges and spin densities:
               1          2
     1  Na   0.057885  -0.059896
     2  Na  -0.168859   0.178722
     3  Na   0.241198  -0.033563
     4  Na   0.307380   0.116811
     5  Na   0.047711   0.045973
     6  Na  -0.534052   0.704026
     7  Na   0.048737   0.047926
 Sum of Mulliken charges =  -0.00000   1.00000

 Dipole moment (field-independent basis, Debye):
    X=             -0.5584    Y=              0.0853    Z=              0.2321  Tot=              0.6107
 Quadrupole moment (field-independent basis, Debye-Ang):
   XX=            -57.7435   YY=            -61.2160   ZZ=            -74.6865
   XY=             -0.4907   XZ=             -1.6415   YZ=              0.7907

 Normal termination of Gaussian 16 at Fri Dec  8 05:21:30 2023.
