 Gaussian 16, Revision B.01,
 Gaussian 16:  ES64L-G16RevB.01 20-Dec-2017

 -------------------------
 #P B3LYP/6-311+g(d) force
 -------------------------

 -----
 DPGEN
 -----
 Symbolic Z-matrix:
 Charge =  0 Multiplicity = 2

                         Standard orientation:
 ---------------------------------------------------------------------
 Center     Atomic      Atomic             Coordinates (Angstroms)
 Number     Number       Type             X           Y           Z
 ---------------------------------------------------------------------
      1         11           0        1.637071   -2.579931    0.341040
      2         11           0       -0.302535    0.070053    2.090311
      3         11           0        2.944680    0.299288   -0.392841
      4         11           0       -2.188647   -2.019524   -0.360244
      5         11           0        1.031657    3.008446   -0.051172
      6         11           0       -0.214994   -0.226065   -1.573083
      7         11           0       -2.907232    1.447733   -0.054010
 ---------------------------------------------------------------------

 SCF Done:  E(UB3LYP) =  -1136.13463374     A.U. after   20 cycles

 The electronic state is 2-A.
 Alpha  occ. eigenvalues --  -38.44319 -38.43940 -38.43697 -38.43628 -38.43541
 Alpha  occ. eigenvalues --  -38.43445 -38.43312  -2.20123  -2.19818  -2.19564
 Alpha  occ. eigenvalues --   -2.19499  -2.19343  -2.19303  -2.19287  -1.13801
 Alpha  occ. eigenvalues --   -1.13785  -1.13761  -1.13601  -1.13459  -1.13414
 Alpha  occ. eigenvalues --   -1.13231  -1.13194  -1.13189  -1.13180  -1.13170
 Alpha  occ. eigenvalues --   -1.13156  -1.13013  -1.12999  -1.12984  -1.12980
 Alpha  occ. eigenvalues --   -1.12947  -1.12947  -1.12938  -1.12929  -1.12894
 Alpha  occ. eigenvalues --   -0.18500  -0.13186  -0.12245  -0.10740
 Alpha virt. eigenvalues --   -0.05787  -0.05157  -0.04736  -0.03242  -0.02858
 Alpha virt. eigenvalues --   -0.02561  -0.01568  -0.01212  -0.00443  -0.00384
 Alpha virt. eigenvalues --   -0.00003   0.00349   0.00778   0.00834   0.00898

  Beta  occ. eigenvalues --  -38.44316 -38.43926 -38.43621 -38.43599 -38.43542
  Beta  occ. eigenvalues --  -38.43439 -38.43254  -2.20121  -2.19796  -2.19488
  Beta  occ. eigenvalues --   -2.19382  -2.19346  -2.19279  -2.19197  -1.13789
  Beta  occ. eigenvalues --   -1.13780  -1.13756  -1.13574  -1.13426  -1.13403
  Beta  occ. eigenvalues --   -1.13184  -1.13163  -1.13138  -1.13109  -1.13066
  Beta  occ. eigenvalues --   -1.13047  -1.13006  -1.13000  -1.12982  -1.12946
  Beta  occ. eigenvalues --   -1.12928  -1.12917  -1.12898  -1.12858  -1.12828
  Beta  occ. eigenvalues --   -0.17788  -0.12936  -0.12035
  Beta virt. eigenvalues --   -0.06825  -0.05773  -0.05078  -0.04702  -0.02477
  Beta virt. eigenvalues --   -0.02104  -0.01530  -0.01475  -0.01126  -0.00481
  Beta virt. eigenvalues --   -0.00416   0.00134   0.00384   0.00799   0.00891

 Mulliken charges and spin densities:
               1          2
     1  Na   0.110245   0.039392
     2  Na  -0.469358   0.795524
     3  Na   0.099066  -0.009578
     4  Na   0.366295   0.016496
     5  Na  -0.054046  -0.081796
     6  Na  -0.078921   0.318975
     7  Na   0.026719  -0.079011
 Sum of Mulliken charges =  -0.00000   1.00000

 Dipole moment (field-independent basis, Debye):
    X=             -0.4976    Y=              0.0690    Z=              0.1606  Tot=              0.5274
 Quadrupole moment (field-independent basis, Debye-Ang):
   XX=            -57.5390   YY=            -61.3775   ZZ=            -74.7356
   XY=             -1.3063   XZ=              0.0839   YZ=             -0.7051

 Normal termination of Gaussian 16 at Thu Dec  7 03:26:30 2023.
