 Gaussian 16, Revision B.01,
 Gaussian 16:  ES64L-G16RevB.01 20-Dec-2017

 -------------------------
 #P B3LYP/6-311+g(d) force
 -------------------------

 -----
 DPGEN
 -----
 Symbolic Z-matrix:
 Charge =  0 Multiplicity = 2

                         Standard orientation:
 ---------------------------------------------------------------------
 Center     Atomic      Atomic             Coordinates (Angstroms)
 Number     Number       Type             X           Y           Z
 ---------------------------------------------------------------------
      1         11           0        2.813720   -1.099165    1.218088
      2         11           0       -3.702732   -0.315407   -0.124169
      3         11           0       -1.139736    1.303257   -1.331851
      4         11           0       -0.797186    0.909457    2.378444
      5         11           0       -0.754595   -1.938112   -0.013822
      6         11           0        2.000511    2.072769   -0.378696
      7         11           0        1.580018   -0.932798   -1.747995
 ---------------------------------------------------------------------

 SCF Done:  E(UB3LYP) =  -1136.12561474     A.U. after   24 cycles

 The electronic state is 2-A.
 Alpha  occ. eigenvalues --  -38.45015 -38.44837 -38.44527 -38.43708 -38.43190
 Alpha  occ. eigenvalues --  -38.42837 -38.42788  -2.20811  -2.20656  -2.20349
 Alpha  occ. eigenvalues --   -2.19657  -2.19106  -2.18743  -2.18640  -1.14478
 Alpha  occ. eigenvalues --   -1.14437  -1.14425  -1.14339  -1.14307  -1.14292
 Alpha  occ. eigenvalues --   -1.14025  -1.14002  -1.13978  -1.13374  -1.13300
 Alpha  occ. eigenvalues --   -1.13264  -1.12807  -1.12757  -1.12730  -1.12466
 Alpha  occ. eigenvalues --   -1.12419  -1.12333  -1.12322  -1.12295  -1.12283
 Alpha  occ. eigenvalues --   -0.18580  -0.13668  -0.11837  -0.10998
 Alpha virt. eigenvalues --   -0.06575  -0.04835  -0.04501  -0.03463  -0.02871
 Alpha virt. eigenvalues --   -0.02719  -0.02116  -0.00832  -0.00472  -0.00137
 Alpha virt. eigenvalues --    0.00176   0.00307   0.00349   0.00710   0.00846

  Beta  occ. eigenvalues --  -38.44926 -38.44840 -38.44503 -38.43670 -38.43156
  Beta  occ. eigenvalues --  -38.42826 -38.42787  -2.20663  -2.20646  -2.20305
  Beta  occ. eigenvalues --   -2.19589  -2.19047  -2.18727  -2.18642  -1.14365
  Beta  occ. eigenvalues --   -1.14339  -1.14323  -1.14313  -1.14310  -1.14291
  Beta  occ. eigenvalues --   -1.13995  -1.13964  -1.13948  -1.13326  -1.13257
  Beta  occ. eigenvalues --   -1.13203  -1.12767  -1.12699  -1.12690  -1.12447
  Beta  occ. eigenvalues --   -1.12387  -1.12325  -1.12318  -1.12289  -1.12279
  Beta  occ. eigenvalues --   -0.17798  -0.13541  -0.10812
  Beta virt. eigenvalues --   -0.07861  -0.06281  -0.04580  -0.04042  -0.03000
  Beta virt. eigenvalues --   -0.02374  -0.02107  -0.01898  -0.00628  -0.00257
  Beta virt. eigenvalues --    0.00017   0.00273   0.00321   0.00433   0.00835

 Mulliken charges and spin densities:
               1          2
     1  Na  -0.062026   0.189752
     2  Na   0.573188  -0.048356
     3  Na  -0.268195   0.105235
     4  Na  -0.382085   0.528407
     5  Na  -0.411155   0.165575
     6  Na  -0.123762  -0.067266
     7  Na   0.674035   0.126653
 Sum of Mulliken charges =  -0.00000   1.00000

 Dipole moment (field-independent basis, Debye):
    X=             -0.6623    Y=              0.0132    Z=              0.7190  Tot=              0.9776
 Quadrupole moment (field-independent basis, Debye-Ang):
   XX=            -50.3737   YY=            -79.6664   ZZ=            -64.3809
   XY=             -0.0954   XZ=              1.4162   YZ=              0.2514

 Normal termination of Gaussian 16 at Thu Dec  7 12:52:51 2023.
