 Gaussian 16, Revision B.01,
 Gaussian 16:  ES64L-G16RevB.01 20-Dec-2017

 -------------------------
 #P B3LYP/6-311+g(d) force
 -------------------------

 -----
 DPGEN
 -----
 Symbolic Z-matrix:
 Charge =  0 Multiplicity = 2

                         Standard orientation:
 ---------------------------------------------------------------------
 Center     Atomic      Atomic             Coordinates (Angstroms)
 Number     Number       Type             X           Y           Z
 ---------------------------------------------------------------------
      1         11           0        2.309633    1.638668   -0.305166
      2         11           0       -0.399012    3.275508    0.068846
      3         11           0       -3.224663   -0.725742    0.075884
      4         11           0        5.109340   -0.937736   -0.714499
      5         11           0       -6.171600   -0.762459   -0.695281
      6         11           0        0.068465   -0.451036    1.467907
      7         11           0        2.307837   -2.037203    0.102309
 ---------------------------------------------------------------------

 SCF Done:  E(UB3LYP) =  -1136.11672926     A.U. after   22 cycles

 The electronic state is 2-A.
 Alpha  occ. eigenvalues --  -38.44560 -38.44389 -38.44383 -38.44336 -38.44201
 Alpha  occ. eigenvalues --  -38.43894 -38.43496  -2.20453  -2.20278  -2.20213
 Alpha  occ. eigenvalues --   -2.20196  -2.20006  -2.19705  -2.19305  -1.14207
 Alpha  occ. eigenvalues --   -1.14102  -1.14047  -1.13976  -1.13932  -1.13928
 Alpha  occ. eigenvalues --   -1.13890  -1.13874  -1.13859  -1.13856  -1.13825
 Alpha  occ. eigenvalues --   -1.13793  -1.13663  -1.13647  -1.13616  -1.13396
 Alpha  occ. eigenvalues --   -1.13343  -1.13343  -1.12975  -1.12968  -1.12946
 Alpha  occ. eigenvalues --   -0.17346  -0.13687  -0.12471  -0.11556
 Alpha virt. eigenvalues --   -0.06223  -0.05512  -0.04783  -0.03543  -0.02730
 Alpha virt. eigenvalues --   -0.02331  -0.02208  -0.01495  -0.01267  -0.00895
 Alpha virt. eigenvalues --   -0.00487  -0.00073   0.00131   0.00461   0.00606

  Beta  occ. eigenvalues --  -38.44479 -38.44358 -38.44355 -38.44308 -38.44176
  Beta  occ. eigenvalues --  -38.43858 -38.43501  -2.20306  -2.20232  -2.20154
  Beta  occ. eigenvalues --   -2.20146  -2.19960  -2.19638  -2.19319  -1.14107
  Beta  occ. eigenvalues --   -1.14006  -1.13951  -1.13925  -1.13905  -1.13877
  Beta  occ. eigenvalues --   -1.13857  -1.13833  -1.13819  -1.13809  -1.13782
  Beta  occ. eigenvalues --   -1.13742  -1.13632  -1.13609  -1.13589  -1.13354
  Beta  occ. eigenvalues --   -1.13298  -1.13297  -1.12988  -1.12979  -1.12926
  Beta  occ. eigenvalues --   -0.16614  -0.13402  -0.11921
  Beta virt. eigenvalues --   -0.08127  -0.05899  -0.05023  -0.04521  -0.03092
  Beta virt. eigenvalues --   -0.02484  -0.02213  -0.01818  -0.01328  -0.01087
  Beta virt. eigenvalues --   -0.00444  -0.00226   0.00060   0.00269   0.00527

 Mulliken charges and spin densities:
               1          2
     1  Na  -0.617454   0.260149
     2  Na   0.608813   0.069689
     3  Na  -0.528149   0.064478
     4  Na   0.331562   0.123430
     5  Na   0.451375   0.049728
     6  Na  -0.681805   0.391884
     7  Na   0.435658   0.040643
 Sum of Mulliken charges =  -0.00000   1.00000

 Dipole moment (field-independent basis, Debye):
    X=              1.2273    Y=              0.4975    Z=             -0.1265  Tot=              1.3304
 Quadrupole moment (field-independent basis, Debye-Ang):
   XX=            -56.4916   YY=            -68.0442   ZZ=            -71.2949
   XY=             -4.7875   XZ=              0.2801   YZ=              0.3078

 Normal termination of Gaussian 16 at Tue Nov 28 21:15:05 2023.
