 Gaussian 16, Revision B.01,
 Gaussian 16:  ES64L-G16RevB.01 20-Dec-2017

 -------------------------
 #P B3LYP/6-311+g(d) force
 -------------------------

 -----
 DPGEN
 -----
 Symbolic Z-matrix:
 Charge =  0 Multiplicity = 2

                         Standard orientation:
 ---------------------------------------------------------------------
 Center     Atomic      Atomic             Coordinates (Angstroms)
 Number     Number       Type             X           Y           Z
 ---------------------------------------------------------------------
      1         11           0       -0.228271   -0.162446    2.178406
      2         11           0        1.969268   -2.490560    0.501651
      3         11           0       -2.379555   -1.947784   -0.651080
      4         11           0       -3.037326    1.047413   -0.024713
      5         11           0        0.301533    3.026735    0.095506
      6         11           0        0.343519   -0.336823   -1.570450
      7         11           0        3.030832    0.863465   -0.529320
 ---------------------------------------------------------------------

 SCF Done:  E(UB3LYP) =  -1136.13335701     A.U. after   20 cycles

 The electronic state is 2-A.
 Alpha  occ. eigenvalues --  -38.44189 -38.44108 -38.44076 -38.43775 -38.43687
 Alpha  occ. eigenvalues --  -38.43493 -38.43126  -2.20015  -2.19955  -2.19920
 Alpha  occ. eigenvalues --   -2.19632  -2.19503  -2.19444  -2.18926  -1.13709
 Alpha  occ. eigenvalues --   -1.13684  -1.13677  -1.13655  -1.13605  -1.13580
 Alpha  occ. eigenvalues --   -1.13566  -1.13553  -1.13533  -1.13323  -1.13275
 Alpha  occ. eigenvalues --   -1.13260  -1.13181  -1.13170  -1.13146  -1.13114
 Alpha  occ. eigenvalues --   -1.13087  -1.13052  -1.12605  -1.12594  -1.12566
 Alpha  occ. eigenvalues --   -0.18214  -0.13330  -0.11987  -0.10979
 Alpha virt. eigenvalues --   -0.05719  -0.05307  -0.04684  -0.03356  -0.02846
 Alpha virt. eigenvalues --   -0.02746  -0.01648  -0.01178  -0.00463  -0.00378
 Alpha virt. eigenvalues --   -0.00044   0.00337   0.00719   0.00843   0.00846

  Beta  occ. eigenvalues --  -38.44188 -38.44093 -38.43976 -38.43757 -38.43676
  Beta  occ. eigenvalues --  -38.43445 -38.43128  -2.20015  -2.19930  -2.19735
  Beta  occ. eigenvalues --   -2.19601  -2.19486  -2.19357  -2.18931  -1.13711
  Beta  occ. eigenvalues --   -1.13673  -1.13650  -1.13649  -1.13582  -1.13553
  Beta  occ. eigenvalues --   -1.13458  -1.13428  -1.13394  -1.13293  -1.13256
  Beta  occ. eigenvalues --   -1.13230  -1.13167  -1.13144  -1.13127  -1.13054
  Beta  occ. eigenvalues --   -1.13019  -1.12999  -1.12602  -1.12599  -1.12562
  Beta  occ. eigenvalues --   -0.17528  -0.13071  -0.11762
  Beta virt. eigenvalues --   -0.07108  -0.05624  -0.05240  -0.04545  -0.02694
  Beta virt. eigenvalues --   -0.02161  -0.01732  -0.01530  -0.01063  -0.00474
  Beta virt. eigenvalues --   -0.00396   0.00100   0.00386   0.00821   0.00852

 Mulliken charges and spin densities:
               1          2
     1  Na  -0.356769   0.692574
     2  Na  -0.050854   0.049769
     3  Na   0.340624   0.061096
     4  Na  -0.067088   0.000414
     5  Na  -0.176184  -0.018644
     6  Na   0.010218   0.192494
     7  Na   0.300053   0.022298
 Sum of Mulliken charges =  -0.00000   1.00000

 Dipole moment (field-independent basis, Debye):
    X=             -0.0073    Y=             -0.1904    Z=              0.1683  Tot=              0.2542
 Quadrupole moment (field-independent basis, Debye-Ang):
   XX=            -56.3600   YY=            -64.8809   ZZ=            -73.4397
   XY=             -1.0446   XZ=              0.4060   YZ=             -0.2507

 Normal termination of Gaussian 16 at Fri Dec  8 05:04:45 2023.
