 Gaussian 16, Revision B.01,
 Gaussian 16:  ES64L-G16RevB.01 20-Dec-2017

 -------------------------
 #P B3LYP/6-311+g(d) force
 -------------------------

 -----
 DPGEN
 -----
 Symbolic Z-matrix:
 Charge =  0 Multiplicity = 2

                         Standard orientation:
 ---------------------------------------------------------------------
 Center     Atomic      Atomic             Coordinates (Angstroms)
 Number     Number       Type             X           Y           Z
 ---------------------------------------------------------------------
      1         11           0        1.016278   -1.680387   -1.061151
      2         11           0        1.498022    1.862959   -0.493449
      3         11           0       -1.954709    2.830997    0.144780
      4         11           0        3.549931   -0.303872    0.475447
      5         11           0       -1.478015   -0.063729   -1.487339
      6         11           0       -0.484338   -0.147967    2.053327
      7         11           0       -2.147168   -2.498001    0.368385
 ---------------------------------------------------------------------

 SCF Done:  E(UB3LYP) =  -1136.13265374     A.U. after   19 cycles

 The electronic state is 2-A.
 Alpha  occ. eigenvalues --  -38.44064 -38.43903 -38.43702 -38.43656 -38.43502
 Alpha  occ. eigenvalues --  -38.43326 -38.43261  -2.19934  -2.19752  -2.19572
 Alpha  occ. eigenvalues --   -2.19534  -2.19443  -2.19256  -2.19138  -1.13602
 Alpha  occ. eigenvalues --   -1.13574  -1.13550  -1.13453  -1.13423  -1.13391
 Alpha  occ. eigenvalues --   -1.13278  -1.13254  -1.13227  -1.13220  -1.13213
 Alpha  occ. eigenvalues --   -1.13201  -1.13126  -1.13095  -1.13026  -1.12925
 Alpha  occ. eigenvalues --   -1.12895  -1.12855  -1.12795  -1.12793  -1.12762
 Alpha  occ. eigenvalues --   -0.18679  -0.13254  -0.12287  -0.11108
 Alpha virt. eigenvalues --   -0.05677  -0.05148  -0.04286  -0.03442  -0.02964
 Alpha virt. eigenvalues --   -0.02792  -0.01539  -0.01285  -0.00363   0.00005
 Alpha virt. eigenvalues --    0.00234   0.00321   0.00793   0.00822   0.00884

  Beta  occ. eigenvalues --  -38.43974 -38.43902 -38.43695 -38.43648 -38.43467
  Beta  occ. eigenvalues --  -38.43327 -38.43206  -2.19768  -2.19750  -2.19563
  Beta  occ. eigenvalues --   -2.19522  -2.19384  -2.19158  -2.19141  -1.13494
  Beta  occ. eigenvalues --   -1.13456  -1.13451  -1.13431  -1.13421  -1.13381
  Beta  occ. eigenvalues --   -1.13267  -1.13226  -1.13212  -1.13189  -1.13184
  Beta  occ. eigenvalues --   -1.13168  -1.13123  -1.13036  -1.12989  -1.12860
  Beta  occ. eigenvalues --   -1.12842  -1.12807  -1.12788  -1.12783  -1.12733
  Beta  occ. eigenvalues --   -0.17920  -0.13077  -0.12103
  Beta virt. eigenvalues --   -0.07091  -0.05484  -0.05147  -0.04226  -0.02778
  Beta virt. eigenvalues --   -0.02272  -0.01768  -0.01468  -0.01219  -0.00086
  Beta virt. eigenvalues --   -0.00030   0.00281   0.00378   0.00821   0.00859

 Mulliken charges and spin densities:
               1          2
     1  Na  -0.321631   0.113025
     2  Na  -0.398357   0.023566
     3  Na   0.118039  -0.091988
     4  Na   0.549705  -0.028620
     5  Na   0.482229   0.317407
     6  Na  -0.504308   0.763457
     7  Na   0.074323  -0.096847
 Sum of Mulliken charges =  -0.00000   1.00000

 Dipole moment (field-independent basis, Debye):
    X=              0.1497    Y=             -0.1745    Z=              0.4195  Tot=              0.4784
 Quadrupole moment (field-independent basis, Debye-Ang):
   XX=            -57.6107   YY=            -64.6999   ZZ=            -71.7258
   XY=              0.4061   XZ=              0.8497   YZ=             -0.2589

 Normal termination of Gaussian 16 at Thu Dec  7 06:02:19 2023.
