 Gaussian 16, Revision B.01,
 Gaussian 16:  ES64L-G16RevB.01 20-Dec-2017

 -------------------------
 #P B3LYP/6-311+g(d) force
 -------------------------

 -----
 DPGEN
 -----
 Symbolic Z-matrix:
 Charge =  0 Multiplicity = 2

                         Standard orientation:
 ---------------------------------------------------------------------
 Center     Atomic      Atomic             Coordinates (Angstroms)
 Number     Number       Type             X           Y           Z
 ---------------------------------------------------------------------
      1         11           0        0.626788    2.481693    0.335383
      2         11           0       -2.543679    2.243185   -0.586310
      3         11           0       -4.708091   -1.254557   -0.917924
      4         11           0        1.261322   -1.608440    0.191281
      5         11           0        4.260724   -2.105429   -0.599115
      6         11           0       -2.839681   -1.221278    1.463831
      7         11           0        3.942617    1.464827    0.112854
 ---------------------------------------------------------------------

 SCF Done:  E(UB3LYP) =  -1136.11045970     A.U. after   26 cycles

 The electronic state is 2-A.
 Alpha  occ. eigenvalues --  -38.45135 -38.45077 -38.44771 -38.44191 -38.44096
 Alpha  occ. eigenvalues --  -38.43980 -38.42834  -2.20904  -2.20874  -2.20570
 Alpha  occ. eigenvalues --   -2.20009  -2.19916  -2.19816  -2.18644  -1.14592
 Alpha  occ. eigenvalues --   -1.14578  -1.14567  -1.14537  -1.14527  -1.14514
 Alpha  occ. eigenvalues --   -1.14262  -1.14234  -1.14208  -1.13681  -1.13647
 Alpha  occ. eigenvalues --   -1.13630  -1.13575  -1.13564  -1.13520  -1.13473
 Alpha  occ. eigenvalues --   -1.13453  -1.13443  -1.12321  -1.12313  -1.12298
 Alpha  occ. eigenvalues --   -0.16343  -0.14543  -0.11947  -0.10315
 Alpha virt. eigenvalues --   -0.07562  -0.05526  -0.04173  -0.03646  -0.03122
 Alpha virt. eigenvalues --   -0.02732  -0.02199  -0.01524  -0.01216  -0.00595
 Alpha virt. eigenvalues --   -0.00231  -0.00067   0.00071   0.00348   0.00522

  Beta  occ. eigenvalues --  -38.45135 -38.45086 -38.44773 -38.44131 -38.44008
  Beta  occ. eigenvalues --  -38.43933 -38.42830  -2.20905  -2.20893  -2.20578
  Beta  occ. eigenvalues --   -2.19897  -2.19752  -2.19726  -2.18639  -1.14593
  Beta  occ. eigenvalues --   -1.14584  -1.14563  -1.14545  -1.14527  -1.14517
  Beta  occ. eigenvalues --   -1.14257  -1.14242  -1.14200  -1.13605  -1.13565
  Beta  occ. eigenvalues --   -1.13555  -1.13464  -1.13453  -1.13417  -1.13408
  Beta  occ. eigenvalues --   -1.13390  -1.13383  -1.12323  -1.12313  -1.12265
  Beta  occ. eigenvalues --   -0.15801  -0.14112  -0.11623
  Beta virt. eigenvalues --   -0.07300  -0.06932  -0.05109  -0.03924  -0.03394
  Beta virt. eigenvalues --   -0.02709  -0.02558  -0.01787  -0.01246  -0.01084
  Beta virt. eigenvalues --   -0.00297  -0.00069   0.00039   0.00308   0.00469

 Mulliken charges and spin densities:
               1          2
     1  Na  -0.335703   0.082807
     2  Na   0.179081  -0.094164
     3  Na   0.533568   0.256255
     4  Na  -1.874348   0.292900
     5  Na   1.418530   0.195867
     6  Na  -0.079054  -0.225204
     7  Na   0.157927   0.491540
 Sum of Mulliken charges =  -0.00000   1.00000

 Dipole moment (field-independent basis, Debye):
    X=             -0.3901    Y=             -0.7026    Z=             -0.3635  Tot=              0.8821
 Quadrupole moment (field-independent basis, Debye-Ang):
   XX=            -59.1028   YY=            -73.8273   ZZ=            -66.3122
   XY=             -8.9780   XZ=              1.3796   YZ=             -0.2551

 Normal termination of Gaussian 16 at Sun Dec  3 21:23:01 2023.
