 Gaussian 16, Revision B.01,
 Gaussian 16:  ES64L-G16RevB.01 20-Dec-2017

 -------------------------
 #P B3LYP/6-311+g(d) force
 -------------------------

 -----
 DPGEN
 -----
 Symbolic Z-matrix:
 Charge =  0 Multiplicity = 2

                         Standard orientation:
 ---------------------------------------------------------------------
 Center     Atomic      Atomic             Coordinates (Angstroms)
 Number     Number       Type             X           Y           Z
 ---------------------------------------------------------------------
      1         11           0        2.778608   -2.285124   -0.734651
      2         11           0        2.050607    2.286196   -0.206909
      3         11           0       -0.025024   -0.250224   -1.574242
      4         11           0       -3.854625   -0.856970   -0.312517
      5         11           0       -1.410909    2.795499    0.011218
      6         11           0       -1.050438   -1.892882    1.179229
      7         11           0        1.511780    0.203505    1.637872
 ---------------------------------------------------------------------

 SCF Done:  E(UB3LYP) =  -1136.12356616     A.U. after   20 cycles

 The electronic state is 2-A.
 Alpha  occ. eigenvalues --  -38.44490 -38.44378 -38.44136 -38.44111 -38.43707
 Alpha  occ. eigenvalues --  -38.43502 -38.43430  -2.20255  -2.20144  -2.20001
 Alpha  occ. eigenvalues --   -2.19921  -2.19605  -2.19388  -2.19368  -1.13932
 Alpha  occ. eigenvalues --   -1.13921  -1.13892  -1.13827  -1.13821  -1.13809
 Alpha  occ. eigenvalues --   -1.13775  -1.13640  -1.13588  -1.13586  -1.13577
 Alpha  occ. eigenvalues --   -1.13548  -1.13321  -1.13255  -1.13206  -1.13103
 Alpha  occ. eigenvalues --   -1.13043  -1.13028  -1.13014  -1.12970  -1.12947
 Alpha  occ. eigenvalues --   -0.18111  -0.12960  -0.12284  -0.10531
 Alpha virt. eigenvalues --   -0.06257  -0.05767  -0.04385  -0.03059  -0.02844
 Alpha virt. eigenvalues --   -0.02210  -0.01983  -0.01621  -0.00719  -0.00258
 Alpha virt. eigenvalues --   -0.00033   0.00231   0.00546   0.00650   0.00760

  Beta  occ. eigenvalues --  -38.44497 -38.44379 -38.44108 -38.44102 -38.43652
  Beta  occ. eigenvalues --  -38.43465 -38.43364  -2.20268  -2.20149  -2.19988
  Beta  occ. eigenvalues --   -2.19871  -2.19505  -2.19302  -2.19268  -1.13934
  Beta  occ. eigenvalues --   -1.13931  -1.13899  -1.13818  -1.13817  -1.13793
  Beta  occ. eigenvalues --   -1.13779  -1.13613  -1.13583  -1.13548  -1.13533
  Beta  occ. eigenvalues --   -1.13519  -1.13248  -1.13187  -1.13127  -1.13038
  Beta  occ. eigenvalues --   -1.12976  -1.12953  -1.12950  -1.12915  -1.12869
  Beta  occ. eigenvalues --   -0.17446  -0.12824  -0.11999
  Beta virt. eigenvalues --   -0.06739  -0.06086  -0.05606  -0.04225  -0.02605
  Beta virt. eigenvalues --   -0.02259  -0.01878  -0.01504  -0.01256  -0.00653
  Beta virt. eigenvalues --   -0.00083   0.00071   0.00288   0.00622   0.00742

 Mulliken charges and spin densities:
               1          2
     1  Na   0.010192   0.058912
     2  Na   0.529545   0.040470
     3  Na  -0.601587   0.633053
     4  Na   0.224906  -0.069202
     5  Na  -0.224366  -0.028972
     6  Na  -0.175302   0.100543
     7  Na   0.236612   0.265197
 Sum of Mulliken charges =  -0.00000   1.00000

 Dipole moment (field-independent basis, Debye):
    X=             -0.3889    Y=              0.2354    Z=             -0.2448  Tot=              0.5163
 Quadrupole moment (field-independent basis, Debye-Ang):
   XX=            -52.6999   YY=            -64.8761   ZZ=            -74.8960
   XY=             -1.7764   XZ=             -0.4283   YZ=              0.1427

 Normal termination of Gaussian 16 at Fri Dec  8 02:27:03 2023.
