 Gaussian 16, Revision B.01,
 Gaussian 16:  ES64L-G16RevB.01 20-Dec-2017

 -------------------------
 #P B3LYP/6-311+g(d) force
 -------------------------

 -----
 DPGEN
 -----
 Symbolic Z-matrix:
 Charge =  0 Multiplicity = 2

                         Standard orientation:
 ---------------------------------------------------------------------
 Center     Atomic      Atomic             Coordinates (Angstroms)
 Number     Number       Type             X           Y           Z
 ---------------------------------------------------------------------
      1         11           0       -0.060623    1.771282   -0.746514
      2         11           0        2.881644    2.965346    0.445053
      3         11           0        3.190124   -0.537325    1.163471
      4         11           0        2.851777   -2.942643   -0.693643
      5         11           0       -0.371833   -1.415164   -0.288738
      6         11           0       -3.098068    0.870088   -1.097817
      7         11           0       -5.393021   -0.711585    1.218188
 ---------------------------------------------------------------------

 SCF Done:  E(UB3LYP) =  -1136.12050752     A.U. after   22 cycles

 The electronic state is 2-A.
 Alpha  occ. eigenvalues --  -38.45018 -38.44856 -38.44419 -38.44232 -38.43831
 Alpha  occ. eigenvalues --  -38.43482 -38.42934  -2.20811  -2.20683  -2.20260
 Alpha  occ. eigenvalues --   -2.20063  -2.19662  -2.19374  -2.18741  -1.14444
 Alpha  occ. eigenvalues --   -1.14443  -1.14415  -1.14401  -1.14380  -1.14248
 Alpha  occ. eigenvalues --   -1.13968  -1.13924  -1.13882  -1.13759  -1.13724
 Alpha  occ. eigenvalues --   -1.13716  -1.13338  -1.13312  -1.13286  -1.13076
 Alpha  occ. eigenvalues --   -1.13045  -1.12980  -1.12403  -1.12396  -1.12383
 Alpha  occ. eigenvalues --   -0.16983  -0.14249  -0.12124  -0.11373
 Alpha virt. eigenvalues --   -0.06158  -0.05445  -0.04555  -0.03819  -0.02872
 Alpha virt. eigenvalues --   -0.02607  -0.01905  -0.01653  -0.00894  -0.00522
 Alpha virt. eigenvalues --   -0.00256  -0.00070   0.00085   0.00232   0.00631

  Beta  occ. eigenvalues --  -38.44891 -38.44828 -38.44397 -38.44231 -38.43830
  Beta  occ. eigenvalues --  -38.43459 -38.42919  -2.20633  -2.20573  -2.20220
  Beta  occ. eigenvalues --   -2.20069  -2.19660  -2.19333  -2.18712  -1.14364
  Beta  occ. eigenvalues --   -1.14342  -1.14282  -1.14280  -1.14258  -1.14214
  Beta  occ. eigenvalues --   -1.13942  -1.13897  -1.13850  -1.13762  -1.13728
  Beta  occ. eigenvalues --   -1.13678  -1.13333  -1.13311  -1.13284  -1.13047
  Beta  occ. eigenvalues --   -1.13021  -1.12937  -1.12383  -1.12376  -1.12363
  Beta  occ. eigenvalues --   -0.16510  -0.13534  -0.11787
  Beta virt. eigenvalues --   -0.07776  -0.05933  -0.05191  -0.04157  -0.03595
  Beta virt. eigenvalues --   -0.02583  -0.02225  -0.01499  -0.01377  -0.00531
  Beta virt. eigenvalues --   -0.00335  -0.00002   0.00046   0.00217   0.00388

 Mulliken charges and spin densities:
               1          2
     1  Na  -0.755457  -0.074421
     2  Na   1.227753   0.333728
     3  Na  -0.385999   0.165636
     4  Na   0.801815   0.028964
     5  Na  -1.052433  -0.030317
     6  Na  -0.098254  -0.103216
     7  Na   0.262576   0.679626
 Sum of Mulliken charges =  -0.00000   1.00000

 Dipole moment (field-independent basis, Debye):
    X=             -0.1697    Y=             -0.8859    Z=             -0.1749  Tot=              0.9188
 Quadrupole moment (field-independent basis, Debye-Ang):
   XX=            -63.9812   YY=            -68.3441   ZZ=            -67.6808
   XY=             -2.9643   XZ=              0.1028   YZ=             -0.9198

 Normal termination of Gaussian 16 at Wed Nov 29 02:18:37 2023.
