 Gaussian 16, Revision B.01,
 Gaussian 16:  ES64L-G16RevB.01 20-Dec-2017

 -------------------------
 #P B3LYP/6-311+g(d) force
 -------------------------

 -----
 DPGEN
 -----
 Symbolic Z-matrix:
 Charge =  0 Multiplicity = 2

                         Standard orientation:
 ---------------------------------------------------------------------
 Center     Atomic      Atomic             Coordinates (Angstroms)
 Number     Number       Type             X           Y           Z
 ---------------------------------------------------------------------
      1         11           0       -5.794495    0.052827    0.028067
      2         11           0        2.507292   -2.337099    0.804709
      3         11           0       -6.463072    2.908042    0.212990
      4         11           0        5.370497    0.250367    0.284824
      5         11           0        0.131421   -3.398466   -0.652605
      6         11           0       -2.971571   -0.572766   -0.291683
      7         11           0        7.219927    3.097095   -0.386302
 ---------------------------------------------------------------------

 SCF Done:  E(UB3LYP) =  -1136.09958997     A.U. after   19 cycles

 The electronic state is 2-A.
 Alpha  occ. eigenvalues --  -38.45085 -38.44916 -38.44749 -38.44689 -38.44351
 Alpha  occ. eigenvalues --  -38.44311 -38.44119  -2.20927  -2.20760  -2.20540
 Alpha  occ. eigenvalues --   -2.20444  -2.20255  -2.20134  -2.19861  -1.14636
 Alpha  occ. eigenvalues --   -1.14546  -1.14539  -1.14485  -1.14390  -1.14373
 Alpha  occ. eigenvalues --   -1.14279  -1.14201  -1.14184  -1.14103  -1.14103
 Alpha  occ. eigenvalues --   -1.14064  -1.13924  -1.13888  -1.13881  -1.13781
 Alpha  occ. eigenvalues --   -1.13776  -1.13757  -1.13547  -1.13546  -1.13490
 Alpha  occ. eigenvalues --   -0.15745  -0.14372  -0.12673  -0.11245
 Alpha virt. eigenvalues --   -0.07365  -0.05157  -0.04290  -0.03613  -0.03121
 Alpha virt. eigenvalues --   -0.02921  -0.02335  -0.01918  -0.01897  -0.00930
 Alpha virt. eigenvalues --   -0.00710  -0.00468  -0.00316   0.00310   0.00425

  Beta  occ. eigenvalues --  -38.44993 -38.44827 -38.44768 -38.44658 -38.44346
  Beta  occ. eigenvalues --  -38.44279 -38.44132  -2.20754  -2.20595  -2.20577
  Beta  occ. eigenvalues --   -2.20385  -2.20257  -2.20073  -2.19887  -1.14525
  Beta  occ. eigenvalues --   -1.14428  -1.14421  -1.14384  -1.14291  -1.14277
  Beta  occ. eigenvalues --   -1.14259  -1.14229  -1.14200  -1.14063  -1.14063
  Beta  occ. eigenvalues --   -1.14027  -1.13896  -1.13892  -1.13843  -1.13740
  Beta  occ. eigenvalues --   -1.13734  -1.13727  -1.13567  -1.13566  -1.13492
  Beta  occ. eigenvalues --   -0.14927  -0.14052  -0.12361
  Beta virt. eigenvalues --   -0.07979  -0.06781  -0.04669  -0.04149  -0.03336
  Beta virt. eigenvalues --   -0.02922  -0.02799  -0.02076  -0.01802  -0.01588
  Beta virt. eigenvalues --   -0.00648  -0.00330  -0.00173  -0.00041   0.00361

 Mulliken charges and spin densities:
               1          2
     1  Na   0.308281   0.084197
     2  Na  -0.619079   0.150777
     3  Na   0.315067   0.429781
     4  Na  -0.159174  -0.035367
     5  Na   0.144376  -0.153592
     6  Na  -0.512399   0.377594
     7  Na   0.522929   0.146610
 Sum of Mulliken charges =  -0.00000   1.00000

 Dipole moment (field-independent basis, Debye):
    X=             -1.0811    Y=              0.7185    Z=             -0.1960  Tot=              1.3128
 Quadrupole moment (field-independent basis, Debye-Ang):
   XX=            -64.6537   YY=            -58.1398   ZZ=            -73.3156
   XY=              4.2011   XZ=             -0.5218   YZ=              0.1751

 Normal termination of Gaussian 16 at Mon Dec  4 02:43:40 2023.
