 Gaussian 16, Revision B.01,
 Gaussian 16:  ES64L-G16RevB.01 20-Dec-2017

 -------------------------
 #P B3LYP/6-311+g(d) force
 -------------------------

 -----
 DPGEN
 -----
 Symbolic Z-matrix:
 Charge =  0 Multiplicity = 2

                         Standard orientation:
 ---------------------------------------------------------------------
 Center     Atomic      Atomic             Coordinates (Angstroms)
 Number     Number       Type             X           Y           Z
 ---------------------------------------------------------------------
      1         11           0        0.306805    3.116057   -0.454157
      2         11           0        4.707111   -1.498495    0.359962
      3         11           0       -2.994882    2.362035    0.947736
      4         11           0        3.359055    2.558455   -0.444886
      5         11           0       -2.194266   -2.949008   -0.645231
      6         11           0        1.663225   -2.962948    0.385329
      7         11           0       -4.847048   -0.626097   -0.148753
 ---------------------------------------------------------------------

 SCF Done:  E(UB3LYP) =  -1136.10392153     A.U. after   23 cycles

 The electronic state is 2-A.
 Alpha  occ. eigenvalues --  -38.45435 -38.44857 -38.44720 -38.44610 -38.44580
 Alpha  occ. eigenvalues --  -38.44371 -38.44032  -2.21171  -2.20598  -2.20521
 Alpha  occ. eigenvalues --   -2.20391  -2.20358  -2.20146  -2.19828  -1.14860
 Alpha  occ. eigenvalues --   -1.14837  -1.14824  -1.14286  -1.14279  -1.14241
 Alpha  occ. eigenvalues --   -1.14200  -1.14168  -1.14145  -1.14048  -1.14038
 Alpha  occ. eigenvalues --   -1.14013  -1.14007  -1.13999  -1.13985  -1.13805
 Alpha  occ. eigenvalues --   -1.13795  -1.13761  -1.13498  -1.13495  -1.13480
 Alpha  occ. eigenvalues --   -0.15281  -0.13793  -0.13306  -0.10942
 Alpha virt. eigenvalues --   -0.07922  -0.04921  -0.04649  -0.03552  -0.03492
 Alpha virt. eigenvalues --   -0.02466  -0.02309  -0.01747  -0.01279  -0.01122
 Alpha virt. eigenvalues --   -0.00911  -0.00480   0.00026   0.00415   0.00531

  Beta  occ. eigenvalues --  -38.45454 -38.44861 -38.44670 -38.44538 -38.44530
  Beta  occ. eigenvalues --  -38.44300 -38.44031  -2.21211  -2.20611  -2.20431
  Beta  occ. eigenvalues --   -2.20267  -2.20257  -2.20014  -2.19831  -1.14892
  Beta  occ. eigenvalues --   -1.14867  -1.14822  -1.14298  -1.14292  -1.14216
  Beta  occ. eigenvalues --   -1.14134  -1.14109  -1.14081  -1.13956  -1.13952
  Beta  occ. eigenvalues --   -1.13949  -1.13937  -1.13923  -1.13920  -1.13715
  Beta  occ. eigenvalues --   -1.13706  -1.13678  -1.13504  -1.13502  -1.13446
  Beta  occ. eigenvalues --   -0.14746  -0.13149  -0.12570
  Beta virt. eigenvalues --   -0.07946  -0.07865  -0.04405  -0.04227  -0.03371
  Beta virt. eigenvalues --   -0.03233  -0.02277  -0.02142  -0.01511  -0.00983
  Beta virt. eigenvalues --   -0.00776  -0.00716  -0.00289   0.00155   0.00508

 Mulliken charges and spin densities:
               1          2
     1  Na  -0.585318  -0.025155
     2  Na   0.148886   0.213455
     3  Na  -0.041668   0.350812
     4  Na   0.398516   0.195763
     5  Na  -0.079150   0.349866
     6  Na  -0.134950  -0.035381
     7  Na   0.293683  -0.049361
 Sum of Mulliken charges =  -0.00000   1.00000

 Dipole moment (field-independent basis, Debye):
    X=             -0.0697    Y=             -0.0027    Z=              0.0518  Tot=              0.0869
 Quadrupole moment (field-independent basis, Debye-Ang):
   XX=            -49.4220   YY=            -74.7941   ZZ=            -74.0023
   XY=              3.2027   XZ=              0.2124   YZ=              0.6729

 Normal termination of Gaussian 16 at Sun Dec  3 20:59:07 2023.
