 Gaussian 16, Revision B.01,
 Gaussian 16:  ES64L-G16RevB.01 20-Dec-2017

 -------------------------
 #P B3LYP/6-311+g(d) force
 -------------------------

 -----
 DPGEN
 -----
 Symbolic Z-matrix:
 Charge =  0 Multiplicity = 2

                         Standard orientation:
 ---------------------------------------------------------------------
 Center     Atomic      Atomic             Coordinates (Angstroms)
 Number     Number       Type             X           Y           Z
 ---------------------------------------------------------------------
      1         11           0       -0.893155    2.804300   -0.951330
      2         11           0       -3.527374    0.879022   -0.370447
      3         11           0        2.277413    2.377581    0.696297
      4         11           0       -2.388386   -2.253739    0.280744
      5         11           0       -0.243533   -0.288009    1.598726
      6         11           0        3.863326   -0.695861   -0.521411
      7         11           0        0.911708   -2.823293   -0.732579
 ---------------------------------------------------------------------

 SCF Done:  E(UB3LYP) =  -1136.12344934     A.U. after   21 cycles

 The electronic state is 2-A.
 Alpha  occ. eigenvalues --  -38.44349 -38.44348 -38.44309 -38.44214 -38.44213
 Alpha  occ. eigenvalues --  -38.43956 -38.43752  -2.20206  -2.20138  -2.20101
 Alpha  occ. eigenvalues --   -2.20072  -2.19996  -2.19752  -2.19588  -1.13906
 Alpha  occ. eigenvalues --   -1.13869  -1.13845  -1.13826  -1.13807  -1.13782
 Alpha  occ. eigenvalues --   -1.13775  -1.13772  -1.13740  -1.13729  -1.13715
 Alpha  occ. eigenvalues --   -1.13691  -1.13662  -1.13633  -1.13631  -1.13421
 Alpha  occ. eigenvalues --   -1.13401  -1.13393  -1.13247  -1.13238  -1.13223
 Alpha  occ. eigenvalues --   -0.17252  -0.13551  -0.12972  -0.10166
 Alpha virt. eigenvalues --   -0.06821  -0.06039  -0.03932  -0.03897  -0.03192
 Alpha virt. eigenvalues --   -0.02075  -0.01917  -0.01355  -0.01258  -0.00646
 Alpha virt. eigenvalues --   -0.00184   0.00264   0.00314   0.00520   0.00701

  Beta  occ. eigenvalues --  -38.44340 -38.44296 -38.44293 -38.44205 -38.44163
  Beta  occ. eigenvalues --  -38.43935 -38.43711  -2.20126  -2.20101  -2.20080
  Beta  occ. eigenvalues --   -2.20059  -2.19902  -2.19714  -2.19513  -1.13845
  Beta  occ. eigenvalues --   -1.13821  -1.13817  -1.13794  -1.13775  -1.13770
  Beta  occ. eigenvalues --   -1.13761  -1.13747  -1.13713  -1.13697  -1.13694
  Beta  occ. eigenvalues --   -1.13662  -1.13599  -1.13571  -1.13559  -1.13393
  Beta  occ. eigenvalues --   -1.13375  -1.13363  -1.13196  -1.13187  -1.13164
  Beta  occ. eigenvalues --   -0.16802  -0.13137  -0.12407
  Beta virt. eigenvalues --   -0.06849  -0.06787  -0.05821  -0.03754  -0.03248
  Beta virt. eigenvalues --   -0.02613  -0.01985  -0.01691  -0.01078  -0.00930
  Beta virt. eigenvalues --   -0.00591   0.00075   0.00365   0.00517   0.00565

 Mulliken charges and spin densities:
               1          2
     1  Na  -0.072178   0.061511
     2  Na  -0.294585   0.206359
     3  Na   0.189157   0.104147
     4  Na   0.840008   0.064627
     5  Na  -0.133821   0.233514
     6  Na  -0.115739   0.271425
     7  Na  -0.412841   0.058417
 Sum of Mulliken charges =  -0.00000   1.00000

 Dipole moment (field-independent basis, Debye):
    X=             -0.2341    Y=             -0.2488    Z=              0.1078  Tot=              0.3582
 Quadrupole moment (field-independent basis, Debye-Ang):
   XX=            -62.9329   YY=            -65.6752   ZZ=            -71.9309
   XY=              9.0018   XZ=             -0.0844   YZ=              0.3727

 Normal termination of Gaussian 16 at Sun Dec  3 17:25:24 2023.
