 Gaussian 16, Revision B.01,
 Gaussian 16:  ES64L-G16RevB.01 20-Dec-2017

 -------------------------
 #P B3LYP/6-311+g(d) force
 -------------------------

 -----
 DPGEN
 -----
 Symbolic Z-matrix:
 Charge =  0 Multiplicity = 2

                         Standard orientation:
 ---------------------------------------------------------------------
 Center     Atomic      Atomic             Coordinates (Angstroms)
 Number     Number       Type             X           Y           Z
 ---------------------------------------------------------------------
      1         11           0        2.770013    0.180571    1.613871
      2         11           0       -0.217342    1.858467   -0.153390
      3         11           0        1.311945   -1.464790   -0.867030
      4         11           0       -0.884110   -1.148660    1.396289
      5         11           0       -3.690934   -1.182902   -0.689665
      6         11           0       -3.315270    1.448107   -0.075792
      7         11           0        4.025698    0.309206   -1.224283
 ---------------------------------------------------------------------

 SCF Done:  E(UB3LYP) =  -1136.10479416     A.U. after   31 cycles

 The electronic state is 2-A.
 Alpha  occ. eigenvalues --  -38.45874 -38.44830 -38.44621 -38.44585 -38.43556
 Alpha  occ. eigenvalues --  -38.42910 -38.42133  -2.21735  -2.20754  -2.20525
 Alpha  occ. eigenvalues --   -2.20477  -2.19491  -2.18786  -2.18056  -1.15431
 Alpha  occ. eigenvalues --   -1.15411  -1.15339  -1.14447  -1.14409  -1.14367
 Alpha  occ. eigenvalues --   -1.14331  -1.14144  -1.14139  -1.14131  -1.14113
 Alpha  occ. eigenvalues --   -1.14079  -1.13171  -1.13126  -1.13102  -1.12460
 Alpha  occ. eigenvalues --   -1.12455  -1.12415  -1.11755  -1.11727  -1.11679
 Alpha  occ. eigenvalues --   -0.18428  -0.15112  -0.11356  -0.10571
 Alpha virt. eigenvalues --   -0.07351  -0.05263  -0.04756  -0.03442  -0.03105
 Alpha virt. eigenvalues --   -0.01989  -0.01923  -0.01478  -0.01050  -0.00207
 Alpha virt. eigenvalues --   -0.00104   0.00124   0.00265   0.00573   0.00665

  Beta  occ. eigenvalues --  -38.45874 -38.44806 -38.44558 -38.44487 -38.43542
  Beta  occ. eigenvalues --  -38.42899 -38.42127  -2.21737  -2.20710  -2.20409
  Beta  occ. eigenvalues --   -2.20298  -2.19473  -2.18766  -2.18049  -1.15424
  Beta  occ. eigenvalues --   -1.15411  -1.15339  -1.14413  -1.14381  -1.14331
  Beta  occ. eigenvalues --   -1.14259  -1.14064  -1.14028  -1.14015  -1.14009
  Beta  occ. eigenvalues --   -1.13950  -1.13131  -1.13100  -1.13088  -1.12447
  Beta  occ. eigenvalues --   -1.12439  -1.12400  -1.11748  -1.11702  -1.11673
  Beta  occ. eigenvalues --   -0.17796  -0.14644  -0.10394
  Beta virt. eigenvalues --   -0.07673  -0.07075  -0.04714  -0.04545  -0.03042
  Beta virt. eigenvalues --   -0.02608  -0.01808  -0.01615  -0.01064  -0.00830
  Beta virt. eigenvalues --   -0.00041   0.00040   0.00238   0.00323   0.00672

 Mulliken charges and spin densities:
               1          2
     1  Na   0.446463   0.150120
     2  Na  -0.466192   0.409764
     3  Na  -0.200188  -0.078274
     4  Na  -0.408640   0.262379
     5  Na   0.183892   0.277385
     6  Na   0.065948  -0.068084
     7  Na   0.378717   0.046712
 Sum of Mulliken charges =  -0.00000   1.00000

 Dipole moment (field-independent basis, Debye):
    X=              0.8102    Y=             -0.5092    Z=              0.6711  Tot=              1.1688
 Quadrupole moment (field-independent basis, Debye-Ang):
   XX=            -71.9020   YY=            -72.5678   ZZ=            -63.3640
   XY=              3.0779   XZ=              4.2207   YZ=              5.6007

 Normal termination of Gaussian 16 at Tue Dec  5 18:06:43 2023.
