 Gaussian 16, Revision B.01,
 Gaussian 16:  ES64L-G16RevB.01 20-Dec-2017

 -------------------------
 #P B3LYP/6-311+g(d) force
 -------------------------

 -----
 DPGEN
 -----
 Symbolic Z-matrix:
 Charge =  0 Multiplicity = 2

                         Standard orientation:
 ---------------------------------------------------------------------
 Center     Atomic      Atomic             Coordinates (Angstroms)
 Number     Number       Type             X           Y           Z
 ---------------------------------------------------------------------
      1         11           0       -9.477201   -1.822283   -0.363771
      2         11           0        3.189713   -0.727838    0.731350
      3         11           0        6.808874    0.292357   -0.098663
      4         11           0        9.757433   -0.777819   -0.650714
      5         11           0       -3.400202    2.039484   -0.597794
      6         11           0       -6.688055    0.342467    0.093142
      7         11           0       -0.190562    0.653633    0.886449
 ---------------------------------------------------------------------

 SCF Done:  E(UB3LYP) =  -1136.10184113     A.U. after   19 cycles

 The electronic state is 2-A.
 Alpha  occ. eigenvalues --  -38.45285 -38.45084 -38.44963 -38.44930 -38.44783
 Alpha  occ. eigenvalues --  -38.44482 -38.44250  -2.21053  -2.20857  -2.20751
 Alpha  occ. eigenvalues --   -2.20702  -2.20500  -2.20211  -2.20025  -1.14699
 Alpha  occ. eigenvalues --   -1.14699  -1.14662  -1.14513  -1.14501  -1.14468
 Alpha  occ. eigenvalues --   -1.14397  -1.14396  -1.14395  -1.14361  -1.14357
 Alpha  occ. eigenvalues --   -1.14308  -1.14199  -1.14197  -1.14136  -1.13908
 Alpha  occ. eigenvalues --   -1.13907  -1.13848  -1.13700  -1.13697  -1.13676
 Alpha  occ. eigenvalues --   -0.14731  -0.14136  -0.12969  -0.11897
 Alpha virt. eigenvalues --   -0.07444  -0.05673  -0.04236  -0.03203  -0.03130
 Alpha virt. eigenvalues --   -0.02844  -0.02375  -0.02305  -0.02056  -0.01580
 Alpha virt. eigenvalues --   -0.01179  -0.01121  -0.00263   0.00170   0.00357

  Beta  occ. eigenvalues --  -38.45203 -38.45006 -38.44916 -38.44858 -38.44816
  Beta  occ. eigenvalues --  -38.44506 -38.44261  -2.20899  -2.20712  -2.20663
  Beta  occ. eigenvalues --   -2.20571  -2.20564  -2.20262  -2.20050  -1.14594
  Beta  occ. eigenvalues --   -1.14594  -1.14560  -1.14414  -1.14401  -1.14380
  Beta  occ. eigenvalues --   -1.14340  -1.14336  -1.14336  -1.14269  -1.14265
  Beta  occ. eigenvalues --   -1.14248  -1.14247  -1.14228  -1.14147  -1.13948
  Beta  occ. eigenvalues --   -1.13946  -1.13845  -1.13721  -1.13718  -1.13663
  Beta  occ. eigenvalues --   -0.14168  -0.13503  -0.12291
  Beta virt. eigenvalues --   -0.08910  -0.07061  -0.05239  -0.03893  -0.03028
  Beta virt. eigenvalues --   -0.02958  -0.02675  -0.02113  -0.02075  -0.01854
  Beta virt. eigenvalues --   -0.01123  -0.00805  -0.00647  -0.00180   0.00266

 Mulliken charges and spin densities:
               1          2
     1  Na   0.186246   0.388973
     2  Na   0.030506   0.348970
     3  Na  -0.263499  -0.000772
     4  Na   0.271677   0.164752
     5  Na   0.177342   0.339998
     6  Na  -0.343584  -0.087533
     7  Na  -0.058689  -0.154387
 Sum of Mulliken charges =  -0.00000   1.00000

 Dipole moment (field-independent basis, Debye):
    X=              0.1361    Y=             -0.5745    Z=             -0.3012  Tot=              0.6628
 Quadrupole moment (field-independent basis, Debye-Ang):
   XX=            -34.9357   YY=            -67.9405   ZZ=            -74.4708
   XY=              1.4637   XZ=             -0.7733   YZ=             -0.3982

 Normal termination of Gaussian 16 at Sun Dec  3 15:28:59 2023.
