 Gaussian 16, Revision B.01,
 Gaussian 16:  ES64L-G16RevB.01 20-Dec-2017

 -------------------------
 #P B3LYP/6-311+g(d) force
 -------------------------

 -----
 DPGEN
 -----
 Symbolic Z-matrix:
 Charge =  0 Multiplicity = 2

                         Standard orientation:
 ---------------------------------------------------------------------
 Center     Atomic      Atomic             Coordinates (Angstroms)
 Number     Number       Type             X           Y           Z
 ---------------------------------------------------------------------
      1         11           0       -1.398032    2.023214   -0.673701
      2         11           0        0.241327   -0.122620    1.851562
      3         11           0        1.064335   -0.999561   -1.688136
      4         11           0        1.655507    2.249811   -0.031957
      5         11           0        3.612571   -0.928336    0.389665
      6         11           0       -3.683474   -0.107054    0.328156
      7         11           0       -1.492233   -2.115454   -0.175589
 ---------------------------------------------------------------------

 SCF Done:  E(UB3LYP) =  -1136.12273615     A.U. after   23 cycles

 The electronic state is 2-A.
 Alpha  occ. eigenvalues --  -38.45278 -38.45274 -38.44267 -38.43457 -38.43300
 Alpha  occ. eigenvalues --  -38.43133 -38.42846  -2.21117  -2.21071  -2.20157
 Alpha  occ. eigenvalues --   -2.19370  -2.19214  -2.19017  -2.18730  -1.14807
 Alpha  occ. eigenvalues --   -1.14776  -1.14750  -1.14749  -1.14726  -1.14707
 Alpha  occ. eigenvalues --   -1.13852  -1.13810  -1.13758  -1.13090  -1.13033
 Alpha  occ. eigenvalues --   -1.13010  -1.12875  -1.12844  -1.12825  -1.12729
 Alpha  occ. eigenvalues --   -1.12685  -1.12647  -1.12394  -1.12385  -1.12367
 Alpha  occ. eigenvalues --   -0.18647  -0.13993  -0.11726  -0.10660
 Alpha virt. eigenvalues --   -0.07259  -0.05139  -0.03934  -0.03495  -0.02974
 Alpha virt. eigenvalues --   -0.02436  -0.02217  -0.01100  -0.00511  -0.00192
 Alpha virt. eigenvalues --    0.00070   0.00152   0.00394   0.00739   0.00810

  Beta  occ. eigenvalues --  -38.45274 -38.45274 -38.44198 -38.43442 -38.43228
  Beta  occ. eigenvalues --  -38.43127 -38.42832  -2.21117  -2.21066  -2.20030
  Beta  occ. eigenvalues --   -2.19348  -2.19083  -2.19010  -2.18705  -1.14810
  Beta  occ. eigenvalues --   -1.14774  -1.14742  -1.14735  -1.14725  -1.14698
  Beta  occ. eigenvalues --   -1.13762  -1.13720  -1.13666  -1.13063  -1.13004
  Beta  occ. eigenvalues --   -1.12980  -1.12793  -1.12754  -1.12733  -1.12722
  Beta  occ. eigenvalues --   -1.12649  -1.12648  -1.12380  -1.12361  -1.12342
  Beta  occ. eigenvalues --   -0.17943  -0.13815  -0.11461
  Beta virt. eigenvalues --   -0.07125  -0.06812  -0.05139  -0.03578  -0.03103
  Beta virt. eigenvalues --   -0.02629  -0.01837  -0.01322  -0.01048  -0.00322
  Beta virt. eigenvalues --   -0.00127   0.00114   0.00152   0.00573   0.00791

 Mulliken charges and spin densities:
               1          2
     1  Na  -0.352546   0.091618
     2  Na  -0.168145   0.359402
     3  Na   0.013994   0.212211
     4  Na   0.015140   0.093609
     5  Na   0.196549   0.022988
     6  Na   0.264310  -0.008449
     7  Na   0.030698   0.228621
 Sum of Mulliken charges =  -0.00000   1.00000

 Dipole moment (field-independent basis, Debye):
    X=              0.1928    Y=             -0.1792    Z=              0.3364  Tot=              0.4272
 Quadrupole moment (field-independent basis, Debye-Ang):
   XX=            -44.1587   YY=            -74.8894   ZZ=            -73.8234
   XY=             -0.8684   XZ=              0.2362   YZ=             -0.9429

 Normal termination of Gaussian 16 at Thu Dec  7 13:54:40 2023.
