 Gaussian 16, Revision B.01,
 Gaussian 16:  ES64L-G16RevB.01 20-Dec-2017

 -------------------------
 #P B3LYP/6-311+g(d) force
 -------------------------

 -----
 DPGEN
 -----
 Symbolic Z-matrix:
 Charge =  0 Multiplicity = 2

                         Standard orientation:
 ---------------------------------------------------------------------
 Center     Atomic      Atomic             Coordinates (Angstroms)
 Number     Number       Type             X           Y           Z
 ---------------------------------------------------------------------
      1         11           0       -0.136910   -0.023785    2.004487
      2         11           0       -0.138980   -0.267161   -1.888782
      3         11           0        0.924912    2.597031   -0.088341
      4         11           0        2.886591    0.201650   -0.115718
      5         11           0       -2.831982   -1.769288   -0.085093
      6         11           0        1.528138   -2.575363    0.152605
      7         11           0       -2.231770    1.836916    0.020842
 ---------------------------------------------------------------------

 SCF Done:  E(UB3LYP) =  -1136.13638996     A.U. after   19 cycles

 The electronic state is 2-A.
 Alpha  occ. eigenvalues --  -38.44114 -38.43733 -38.43704 -38.43682 -38.43628
 Alpha  occ. eigenvalues --  -38.43571 -38.42910  -2.19898  -2.19608  -2.19603
 Alpha  occ. eigenvalues --   -2.19598  -2.19491  -2.19483  -2.18826  -1.13574
 Alpha  occ. eigenvalues --   -1.13549  -1.13547  -1.13331  -1.13316  -1.13297
 Alpha  occ. eigenvalues --   -1.13283  -1.13264  -1.13246  -1.13232  -1.13229
 Alpha  occ. eigenvalues --   -1.13214  -1.13167  -1.13148  -1.13133  -1.13106
 Alpha  occ. eigenvalues --   -1.13104  -1.13098  -1.12501  -1.12481  -1.12469
 Alpha  occ. eigenvalues --   -0.18840  -0.13161  -0.12337  -0.11024
 Alpha virt. eigenvalues --   -0.05710  -0.05219  -0.04355  -0.03377  -0.02952
 Alpha virt. eigenvalues --   -0.02788  -0.01474  -0.01112  -0.00293  -0.00077
 Alpha virt. eigenvalues --   -0.00041   0.00372   0.00794   0.00876   0.00940

  Beta  occ. eigenvalues --  -38.44114 -38.43728 -38.43676 -38.43624 -38.43614
  Beta  occ. eigenvalues --  -38.43494 -38.42903  -2.19901  -2.19597  -2.19592
  Beta  occ. eigenvalues --   -2.19479  -2.19443  -2.19348  -2.18819  -1.13559
  Beta  occ. eigenvalues --   -1.13553  -1.13551  -1.13331  -1.13296  -1.13289
  Beta  occ. eigenvalues --   -1.13249  -1.13229  -1.13212  -1.13168  -1.13139
  Beta  occ. eigenvalues --   -1.13123  -1.13108  -1.13101  -1.13094  -1.13068
  Beta  occ. eigenvalues --   -1.13016  -1.13002  -1.12499  -1.12480  -1.12431
  Beta  occ. eigenvalues --   -0.18065  -0.12930  -0.12102
  Beta virt. eigenvalues --   -0.07090  -0.05715  -0.05132  -0.04354  -0.02552
  Beta virt. eigenvalues --   -0.02167  -0.01751  -0.01374  -0.01027  -0.00353
  Beta virt. eigenvalues --   -0.00128   0.00101   0.00388   0.00831   0.00911

 Mulliken charges and spin densities:
               1          2
     1  Na  -0.435027   0.635583
     2  Na  -0.356527   0.578217
     3  Na   0.134262   0.016714
     4  Na   0.195218   0.056054
     5  Na   0.041024  -0.158987
     6  Na   0.193894  -0.101141
     7  Na   0.227155  -0.026441
 Sum of Mulliken charges =  -0.00000   1.00000

 Dipole moment (field-independent basis, Debye):
    X=             -0.4071    Y=             -0.3685    Z=              0.0517  Tot=              0.5515
 Quadrupole moment (field-independent basis, Debye-Ang):
   XX=            -58.3316   YY=            -63.6875   ZZ=            -72.7423
   XY=              0.3348   XZ=             -0.1523   YZ=             -0.5750

 Normal termination of Gaussian 16 at Thu Dec  7 19:59:28 2023.
