 Gaussian 16, Revision B.01,
 Gaussian 16:  ES64L-G16RevB.01 20-Dec-2017

 -------------------------
 #P B3LYP/6-311+g(d) force
 -------------------------

 -----
 DPGEN
 -----
 Symbolic Z-matrix:
 Charge =  0 Multiplicity = 2

                         Standard orientation:
 ---------------------------------------------------------------------
 Center     Atomic      Atomic             Coordinates (Angstroms)
 Number     Number       Type             X           Y           Z
 ---------------------------------------------------------------------
      1         11           0       -0.036008   -0.019760   -1.732170
      2         11           0       -0.039684    0.018513    1.775642
      3         11           0        2.992451   -0.251356   -0.029643
      4         11           0        0.665734   -2.682832    0.138187
      5         11           0       -2.474323   -1.604883   -0.186247
      6         11           0        1.161258    2.585830   -0.110284
      7         11           0       -2.269428    1.954488    0.144514
 ---------------------------------------------------------------------

 SCF Done:  E(UB3LYP) =  -1136.14112700     A.U. after   20 cycles

 The electronic state is 2-A.
 Alpha  occ. eigenvalues --  -38.43574 -38.43566 -38.43547 -38.43389 -38.43238
 Alpha  occ. eigenvalues --  -38.43100 -38.43059  -2.19441  -2.19434  -2.19428
 Alpha  occ. eigenvalues --   -2.19281  -2.19158  -2.19098  -2.19069  -1.13133
 Alpha  occ. eigenvalues --   -1.13122  -1.13117  -1.13106  -1.13101  -1.13100
 Alpha  occ. eigenvalues --   -1.13093  -1.13086  -1.13046  -1.12974  -1.12953
 Alpha  occ. eigenvalues --   -1.12896  -1.12884  -1.12836  -1.12776  -1.12773
 Alpha  occ. eigenvalues --   -1.12729  -1.12708  -1.12703  -1.12686  -1.12677
 Alpha  occ. eigenvalues --   -0.19286  -0.12999  -0.12855  -0.10767
 Alpha virt. eigenvalues --   -0.05200  -0.05137  -0.04772  -0.03039  -0.02985
 Alpha virt. eigenvalues --   -0.02382  -0.01332  -0.01127  -0.00170  -0.00119
 Alpha virt. eigenvalues --    0.00027   0.00370   0.00873   0.00932   0.00944

  Beta  occ. eigenvalues --  -38.43568 -38.43562 -38.43540 -38.43382 -38.43229
  Beta  occ. eigenvalues --  -38.43018 -38.42980  -2.19438  -2.19428  -2.19420
  Beta  occ. eigenvalues --   -2.19273  -2.19147  -2.18948  -2.18926  -1.13127
  Beta  occ. eigenvalues --   -1.13121  -1.13107  -1.13105  -1.13086  -1.13076
  Beta  occ. eigenvalues --   -1.13072  -1.13061  -1.13044  -1.12966  -1.12919
  Beta  occ. eigenvalues --   -1.12893  -1.12862  -1.12792  -1.12772  -1.12685
  Beta  occ. eigenvalues --   -1.12633  -1.12606  -1.12598  -1.12585  -1.12577
  Beta  occ. eigenvalues --   -0.18543  -0.12731  -0.12576
  Beta virt. eigenvalues --   -0.06822  -0.05199  -0.05128  -0.04763  -0.02227
  Beta virt. eigenvalues --   -0.02154  -0.01322  -0.01255  -0.01057  -0.00226
  Beta virt. eigenvalues --   -0.00178   0.00145   0.00386   0.00913   0.00928

 Mulliken charges and spin densities:
               1          2
     1  Na  -0.403963   0.689319
     2  Na  -0.412784   0.722530
     3  Na   0.117454  -0.079739
     4  Na   0.260993  -0.054539
     5  Na   0.181999  -0.075186
     6  Na   0.150329  -0.098679
     7  Na   0.105973  -0.103706
 Sum of Mulliken charges =  -0.00000   1.00000

 Dipole moment (field-independent basis, Debye):
    X=             -0.0800    Y=              0.0872    Z=              0.0141  Tot=              0.1192
 Quadrupole moment (field-independent basis, Debye-Ang):
   XX=            -57.4566   YY=            -61.1003   ZZ=            -74.4346
   XY=             -0.1140   XZ=              0.0145   YZ=             -0.0398

 Normal termination of Gaussian 16 at Fri Dec  8 04:31:42 2023.
