 Gaussian 16, Revision B.01,
 Gaussian 16:  ES64L-G16RevB.01 20-Dec-2017

 -------------------------
 #P B3LYP/6-311+g(d) force
 -------------------------

 -----
 DPGEN
 -----
 Symbolic Z-matrix:
 Charge =  0 Multiplicity = 2

                         Standard orientation:
 ---------------------------------------------------------------------
 Center     Atomic      Atomic             Coordinates (Angstroms)
 Number     Number       Type             X           Y           Z
 ---------------------------------------------------------------------
      1         11           0       -1.615315   -1.629930    1.660074
      2         11           0       -3.352839   -0.117713   -0.794593
      3         11           0       -1.219704    2.322302    0.045757
      4         11           0        2.493437    1.769924   -0.874955
      5         11           0        0.192930   -0.896823   -2.303425
      6         11           0        2.327323   -2.371978    0.032306
      7         11           0        1.174167    0.924218    2.234836
 ---------------------------------------------------------------------

 SCF Done:  E(UB3LYP) =  -1136.12660153     A.U. after   21 cycles

 The electronic state is 2-A.
 Alpha  occ. eigenvalues --  -38.44765 -38.44315 -38.44296 -38.44097 -38.43769
 Alpha  occ. eigenvalues --  -38.43704 -38.43523  -2.20558  -2.20103  -2.20093
 Alpha  occ. eigenvalues --   -2.19922  -2.19594  -2.19464  -2.19340  -1.14224
 Alpha  occ. eigenvalues --   -1.14204  -1.14187  -1.13791  -1.13768  -1.13753
 Alpha  occ. eigenvalues --   -1.13744  -1.13724  -1.13715  -1.13594  -1.13567
 Alpha  occ. eigenvalues --   -1.13539  -1.13268  -1.13252  -1.13240  -1.13134
 Alpha  occ. eigenvalues --   -1.13126  -1.13117  -1.13025  -1.13018  -1.12953
 Alpha  occ. eigenvalues --   -0.17552  -0.12865  -0.11908  -0.11453
 Alpha virt. eigenvalues --   -0.05708  -0.05461  -0.04762  -0.03514  -0.03355
 Alpha virt. eigenvalues --   -0.03257  -0.01333  -0.00969  -0.00662  -0.00192
 Alpha virt. eigenvalues --    0.00053   0.00314   0.00441   0.00524   0.00624

  Beta  occ. eigenvalues --  -38.44711 -38.44301 -38.44244 -38.44046 -38.43762
  Beta  occ. eigenvalues --  -38.43711 -38.43513  -2.20458  -2.20076  -2.19997
  Beta  occ. eigenvalues --   -2.19827  -2.19584  -2.19478  -2.19322  -1.14150
  Beta  occ. eigenvalues --   -1.14132  -1.14119  -1.13760  -1.13748  -1.13707
  Beta  occ. eigenvalues --   -1.13694  -1.13674  -1.13648  -1.13529  -1.13505
  Beta  occ. eigenvalues --   -1.13463  -1.13257  -1.13242  -1.13231  -1.13140
  Beta  occ. eigenvalues --   -1.13134  -1.13122  -1.13009  -1.12994  -1.12944
  Beta  occ. eigenvalues --   -0.16762  -0.12731  -0.11341
  Beta virt. eigenvalues --   -0.08058  -0.05503  -0.05092  -0.04202  -0.03190
  Beta virt. eigenvalues --   -0.02963  -0.02454  -0.01285  -0.00790  -0.00383
  Beta virt. eigenvalues --   -0.00048   0.00108   0.00411   0.00552   0.00648

 Mulliken charges and spin densities:
               1          2
     1  Na  -0.059392   0.118502
     2  Na   0.293183   0.059739
     3  Na  -0.173327   0.082594
     4  Na   0.333332  -0.063171
     5  Na  -0.404248   0.425945
     6  Na   0.064699  -0.099055
     7  Na  -0.054246   0.475445
 Sum of Mulliken charges =  -0.00000   1.00000

 Dipole moment (field-independent basis, Debye):
    X=              0.0382    Y=              0.0028    Z=             -0.0191  Tot=              0.0428
 Quadrupole moment (field-independent basis, Debye-Ang):
   XX=            -60.4402   YY=            -72.5513   ZZ=            -64.8233
   XY=              1.3636   XZ=              1.2556   YZ=             -5.0426

 Normal termination of Gaussian 16 at Sun Dec  3 12:29:43 2023.
