 Gaussian 16, Revision B.01,
 Gaussian 16:  ES64L-G16RevB.01 20-Dec-2017

 -------------------------
 #P B3LYP/6-311+g(d) force
 -------------------------

 -----
 DPGEN
 -----
 Symbolic Z-matrix:
 Charge =  0 Multiplicity = 2

                         Standard orientation:
 ---------------------------------------------------------------------
 Center     Atomic      Atomic             Coordinates (Angstroms)
 Number     Number       Type             X           Y           Z
 ---------------------------------------------------------------------
      1         11           0        3.252229   -0.875400   -0.773431
      2         11           0       -2.925534   -1.710738   -0.943915
      3         11           0       -1.914648    2.370809   -0.827175
      4         11           0        1.787120    2.679926    0.505600
      5         11           0        0.659574   -2.877836    0.888126
      6         11           0        0.432218    0.013763   -1.064055
      7         11           0       -1.290958    0.399476    2.214849
 ---------------------------------------------------------------------

 SCF Done:  E(UB3LYP) =  -1136.12658375     A.U. after   19 cycles

 The electronic state is 2-A.
 Alpha  occ. eigenvalues --  -38.44361 -38.44296 -38.44206 -38.43996 -38.43966
 Alpha  occ. eigenvalues --  -38.43798 -38.42806  -2.20114  -2.20070  -2.20008
 Alpha  occ. eigenvalues --   -2.19782  -2.19778  -2.19634  -2.18814  -1.13791
 Alpha  occ. eigenvalues --   -1.13756  -1.13750  -1.13747  -1.13742  -1.13707
 Alpha  occ. eigenvalues --   -1.13696  -1.13668  -1.13620  -1.13460  -1.13446
 Alpha  occ. eigenvalues --   -1.13445  -1.13413  -1.13408  -1.13391  -1.13379
 Alpha  occ. eigenvalues --   -1.13276  -1.13238  -1.12508  -1.12481  -1.12432
 Alpha  occ. eigenvalues --   -0.17639  -0.12715  -0.12153  -0.10553
 Alpha virt. eigenvalues --   -0.05962  -0.05335  -0.04940  -0.03067  -0.03055
 Alpha virt. eigenvalues --   -0.02320  -0.01655  -0.01371  -0.00778  -0.00342
 Alpha virt. eigenvalues --   -0.00041   0.00329   0.00489   0.00581   0.00717

  Beta  occ. eigenvalues --  -38.44336 -38.44294 -38.44192 -38.43982 -38.43880
  Beta  occ. eigenvalues --  -38.43791 -38.42779  -2.20070  -2.20068  -2.19985
  Beta  occ. eigenvalues --   -2.19755  -2.19622  -2.19621  -2.18767  -1.13755
  Beta  occ. eigenvalues --   -1.13746  -1.13732  -1.13723  -1.13719  -1.13695
  Beta  occ. eigenvalues --   -1.13682  -1.13649  -1.13597  -1.13442  -1.13421
  Beta  occ. eigenvalues --   -1.13391  -1.13365  -1.13338  -1.13302  -1.13278
  Beta  occ. eigenvalues --   -1.13265  -1.13232  -1.12459  -1.12443  -1.12403
  Beta  occ. eigenvalues --   -0.17033  -0.12466  -0.11963
  Beta virt. eigenvalues --   -0.06835  -0.05855  -0.05065  -0.04779  -0.02598
  Beta virt. eigenvalues --   -0.02457  -0.01572  -0.01440  -0.01269  -0.00592
  Beta virt. eigenvalues --   -0.00339   0.00116   0.00397   0.00614   0.00724

 Mulliken charges and spin densities:
               1          2
     1  Na   0.448326   0.008661
     2  Na   0.000247   0.055797
     3  Na   0.210051  -0.032868
     4  Na  -0.320270  -0.006061
     5  Na  -0.350693   0.033910
     6  Na   0.239428   0.354312
     7  Na  -0.227089   0.586249
 Sum of Mulliken charges =  -0.00000   1.00000

 Dipole moment (field-independent basis, Debye):
    X=              0.0038    Y=              0.2209    Z=              0.2177  Tot=              0.3102
 Quadrupole moment (field-independent basis, Debye-Ang):
   XX=            -58.0466   YY=            -60.4364   ZZ=            -73.1850
   XY=              0.2513   XZ=              2.0915   YZ=             -0.1304

 Normal termination of Gaussian 16 at Thu Dec  7 13:55:19 2023.
