 Gaussian 16, Revision B.01,
 Gaussian 16:  ES64L-G16RevB.01 20-Dec-2017

 -------------------------
 #P B3LYP/6-311+g(d) force
 -------------------------

 -----
 DPGEN
 -----
 Symbolic Z-matrix:
 Charge =  0 Multiplicity = 2

                         Standard orientation:
 ---------------------------------------------------------------------
 Center     Atomic      Atomic             Coordinates (Angstroms)
 Number     Number       Type             X           Y           Z
 ---------------------------------------------------------------------
      1         11           0        2.240094   -1.223671   -0.687890
      2         11           0        4.662144   -1.960501    1.129256
      3         11           0        4.061143    1.829458    0.477003
      4         11           0        1.008048    2.157674   -0.507594
      5         11           0       -1.279008   -0.275061   -1.408346
      6         11           0       -4.643690   -0.902737   -0.652341
      7         11           0       -6.048730    0.374837    1.649912
 ---------------------------------------------------------------------

 SCF Done:  E(UB3LYP) =  -1136.11623021     A.U. after   20 cycles

 The electronic state is 2-A.
 Alpha  occ. eigenvalues --  -38.44872 -38.44473 -38.44305 -38.44028 -38.43925
 Alpha  occ. eigenvalues --  -38.43729 -38.43367  -2.20706  -2.20280  -2.20176
 Alpha  occ. eigenvalues --   -2.19883  -2.19752  -2.19552  -2.19191  -1.14388
 Alpha  occ. eigenvalues --   -1.14371  -1.14296  -1.13985  -1.13921  -1.13919
 Alpha  occ. eigenvalues --   -1.13875  -1.13845  -1.13800  -1.13563  -1.13554
 Alpha  occ. eigenvalues --   -1.13501  -1.13407  -1.13405  -1.13404  -1.13226
 Alpha  occ. eigenvalues --   -1.13201  -1.13164  -1.12860  -1.12854  -1.12812
 Alpha  occ. eigenvalues --   -0.16755  -0.14184  -0.12057  -0.11508
 Alpha virt. eigenvalues --   -0.06690  -0.05004  -0.03936  -0.03878  -0.03178
 Alpha virt. eigenvalues --   -0.02500  -0.02425  -0.01331  -0.01004  -0.00751
 Alpha virt. eigenvalues --   -0.00503  -0.00112   0.00164   0.00388   0.00694

  Beta  occ. eigenvalues --  -38.44799 -38.44451 -38.44267 -38.43995 -38.43929
  Beta  occ. eigenvalues --  -38.43698 -38.43338  -2.20574  -2.20237  -2.20109
  Beta  occ. eigenvalues --   -2.19826  -2.19763  -2.19497  -2.19136  -1.14291
  Beta  occ. eigenvalues --   -1.14284  -1.14193  -1.13959  -1.13892  -1.13889
  Beta  occ. eigenvalues --   -1.13829  -1.13792  -1.13747  -1.13523  -1.13520
  Beta  occ. eigenvalues --   -1.13430  -1.13415  -1.13414  -1.13396  -1.13176
  Beta  occ. eigenvalues --   -1.13164  -1.13134  -1.12819  -1.12816  -1.12784
  Beta  occ. eigenvalues --   -0.16039  -0.13906  -0.11611
  Beta virt. eigenvalues --   -0.07916  -0.06284  -0.04794  -0.03702  -0.03491
  Beta virt. eigenvalues --   -0.02627  -0.02369  -0.02105  -0.01133  -0.00763
  Beta virt. eigenvalues --   -0.00504  -0.00204   0.00081   0.00289   0.00448

 Mulliken charges and spin densities:
               1          2
     1  Na  -0.607827   0.454014
     2  Na   0.512968  -0.004764
     3  Na   0.159715   0.191092
     4  Na   0.210856   0.291832
     5  Na  -0.342314   0.026645
     6  Na   0.069093  -0.034319
     7  Na  -0.002491   0.075500
 Sum of Mulliken charges =  -0.00000   1.00000

 Dipole moment (field-independent basis, Debye):
    X=              0.5211    Y=              0.6012    Z=              0.7862  Tot=              1.1185
 Quadrupole moment (field-independent basis, Debye-Ang):
   XX=            -61.8259   YY=            -67.0009   ZZ=            -66.7376
   XY=             -0.8580   XZ=             -0.5808   YZ=              3.1250

 Normal termination of Gaussian 16 at Wed Nov 29 03:15:16 2023.
