 Gaussian 16, Revision B.01,
 Gaussian 16:  ES64L-G16RevB.01 20-Dec-2017

 -------------------------
 #P B3LYP/6-311+g(d) force
 -------------------------

 -----
 DPGEN
 -----
 Symbolic Z-matrix:
 Charge =  0 Multiplicity = 2

                         Standard orientation:
 ---------------------------------------------------------------------
 Center     Atomic      Atomic             Coordinates (Angstroms)
 Number     Number       Type             X           Y           Z
 ---------------------------------------------------------------------
      1         11           0        1.667588    2.285820    0.089232
      2         11           0       -0.013663    0.345034   -1.746436
      3         11           0        3.347821   -0.687536   -0.163319
      4         11           0        0.363097   -2.474776   -0.090085
      5         11           0        0.265274    0.147873    1.882660
      6         11           0       -2.932205   -1.659846    0.073480
      7         11           0       -2.697912    2.043431   -0.045534
 ---------------------------------------------------------------------

 SCF Done:  E(UB3LYP) =  -1136.13059052     A.U. after   22 cycles

 The electronic state is 2-A.
 Alpha  occ. eigenvalues --  -38.44731 -38.44322 -38.44290 -38.43551 -38.43475
 Alpha  occ. eigenvalues --  -38.43429 -38.42687  -2.20548  -2.20112  -2.20058
 Alpha  occ. eigenvalues --   -2.19449  -2.19409  -2.19369  -2.18591  -1.14211
 Alpha  occ. eigenvalues --   -1.14211  -1.14192  -1.13786  -1.13770  -1.13762
 Alpha  occ. eigenvalues --   -1.13738  -1.13708  -1.13699  -1.13225  -1.13169
 Alpha  occ. eigenvalues --   -1.13086  -1.13055  -1.13048  -1.13016  -1.12996
 Alpha  occ. eigenvalues --   -1.12991  -1.12962  -1.12293  -1.12263  -1.12203
 Alpha  occ. eigenvalues --   -0.18627  -0.13281  -0.12003  -0.10562
 Alpha virt. eigenvalues --   -0.06313  -0.05701  -0.03925  -0.03220  -0.02619
 Alpha virt. eigenvalues --   -0.02419  -0.02128  -0.01401  -0.00487  -0.00106
 Alpha virt. eigenvalues --   -0.00061   0.00278   0.00668   0.00771   0.00867

  Beta  occ. eigenvalues --  -38.44726 -38.44325 -38.44292 -38.43538 -38.43386
  Beta  occ. eigenvalues --  -38.43356 -38.42676  -2.20543  -2.20118  -2.20064
  Beta  occ. eigenvalues --   -2.19430  -2.19246  -2.19237  -2.18577  -1.14210
  Beta  occ. eigenvalues --   -1.14192  -1.14183  -1.13782  -1.13773  -1.13767
  Beta  occ. eigenvalues --   -1.13727  -1.13714  -1.13705  -1.13192  -1.13103
  Beta  occ. eigenvalues --   -1.13046  -1.12985  -1.12953  -1.12913  -1.12908
  Beta  occ. eigenvalues --   -1.12885  -1.12864  -1.12287  -1.12219  -1.12196
  Beta  occ. eigenvalues --   -0.17876  -0.13100  -0.11743
  Beta virt. eigenvalues --   -0.06636  -0.06243  -0.05701  -0.03931  -0.02491
  Beta virt. eigenvalues --   -0.02052  -0.01846  -0.01392  -0.01284  -0.00550
  Beta virt. eigenvalues --   -0.00131   0.00096   0.00303   0.00720   0.00772

 Mulliken charges and spin densities:
               1          2
     1  Na   0.343447  -0.129640
     2  Na  -0.285104   0.687661
     3  Na   0.253878   0.025210
     4  Na   0.029709  -0.068634
     5  Na  -0.350141   0.723546
     6  Na  -0.061855  -0.084774
     7  Na   0.070066  -0.153369
 Sum of Mulliken charges =  -0.00000   1.00000

 Dipole moment (field-independent basis, Debye):
    X=             -0.0306    Y=              0.1369    Z=              0.0296  Tot=              0.1434
 Quadrupole moment (field-independent basis, Debye-Ang):
   XX=            -48.8277   YY=            -67.3605   ZZ=            -75.5774
   XY=             -0.5064   XZ=             -0.9288   YZ=              0.3648

 Normal termination of Gaussian 16 at Sat Dec  9 05:31:33 2023.
