 Gaussian 16, Revision B.01,
 Gaussian 16:  ES64L-G16RevB.01 20-Dec-2017

 -------------------------
 #P B3LYP/6-311+g(d) force
 -------------------------

 -----
 DPGEN
 -----
 Symbolic Z-matrix:
 Charge =  0 Multiplicity = 2

                         Standard orientation:
 ---------------------------------------------------------------------
 Center     Atomic      Atomic             Coordinates (Angstroms)
 Number     Number       Type             X           Y           Z
 ---------------------------------------------------------------------
      1         11           0       -0.477775   -0.075668   -1.689688
      2         11           0       -2.457647   -2.184877    0.426020
      3         11           0       -3.025461    1.166996    0.160146
      4         11           0        0.277028    3.284565   -0.420388
      5         11           0        1.451815   -2.570114   -0.643060
      6         11           0        3.859533    0.230881    0.277338
      7         11           0        0.372507    0.148217    1.889631
 ---------------------------------------------------------------------

 SCF Done:  E(UB3LYP) =  -1136.12806813     A.U. after   21 cycles

 The electronic state is 2-A.
 Alpha  occ. eigenvalues --  -38.45071 -38.44381 -38.44249 -38.43732 -38.43619
 Alpha  occ. eigenvalues --  -38.43599 -38.43287  -2.20803  -2.20201  -2.20066
 Alpha  occ. eigenvalues --   -2.19545  -2.19431  -2.19366  -2.19205  -1.14479
 Alpha  occ. eigenvalues --   -1.14460  -1.14437  -1.13893  -1.13867  -1.13823
 Alpha  occ. eigenvalues --   -1.13757  -1.13707  -1.13677  -1.13216  -1.13205
 Alpha  occ. eigenvalues --   -1.13188  -1.13136  -1.13092  -1.13045  -1.13044
 Alpha  occ. eigenvalues --   -1.13024  -1.13004  -1.12888  -1.12853  -1.12805
 Alpha  occ. eigenvalues --   -0.17766  -0.12931  -0.11962  -0.10417
 Alpha virt. eigenvalues --   -0.06547  -0.05183  -0.04874  -0.03145  -0.02772
 Alpha virt. eigenvalues --   -0.02315  -0.02140  -0.01310  -0.00852  -0.00552
 Alpha virt. eigenvalues --   -0.00117   0.00272   0.00561   0.00666   0.00737

  Beta  occ. eigenvalues --  -38.45067 -38.44374 -38.44188 -38.43723 -38.43596
  Beta  occ. eigenvalues --  -38.43592 -38.43217  -2.20797  -2.20191  -2.19952
  Beta  occ. eigenvalues --   -2.19531  -2.19392  -2.19356  -2.19077  -1.14467
  Beta  occ. eigenvalues --   -1.14456  -1.14434  -1.13884  -1.13853  -1.13808
  Beta  occ. eigenvalues --   -1.13677  -1.13631  -1.13590  -1.13206  -1.13192
  Beta  occ. eigenvalues --   -1.13164  -1.13098  -1.13058  -1.13029  -1.13018
  Beta  occ. eigenvalues --   -1.13017  -1.12995  -1.12802  -1.12763  -1.12707
  Beta  occ. eigenvalues --   -0.17096  -0.12694  -0.11688
  Beta virt. eigenvalues --   -0.06809  -0.06300  -0.05158  -0.04724  -0.02532
  Beta virt. eigenvalues --   -0.02111  -0.02043  -0.01382  -0.01217  -0.00856
  Beta virt. eigenvalues --   -0.00538   0.00047   0.00321   0.00681   0.00731

 Mulliken charges and spin densities:
               1          2
     1  Na   0.366182   0.400076
     2  Na  -0.046027   0.092492
     3  Na   0.120633   0.005917
     4  Na  -0.187176  -0.081206
     5  Na  -0.018804   0.019987
     6  Na  -0.058631  -0.038511
     7  Na  -0.176177   0.601244
 Sum of Mulliken charges =  -0.00000   1.00000

 Dipole moment (field-independent basis, Debye):
    X=              0.2974    Y=              0.1141    Z=              0.1874  Tot=              0.3696
 Quadrupole moment (field-independent basis, Debye-Ang):
   XX=            -52.8764   YY=            -64.1165   ZZ=            -75.5673
   XY=              0.8438   XZ=             -1.6158   YZ=             -0.5620

 Normal termination of Gaussian 16 at Fri Dec  8 03:31:44 2023.
