 Gaussian 16, Revision B.01,
 Gaussian 16:  ES64L-G16RevB.01 20-Dec-2017

 -------------------------
 #P B3LYP/6-311+g(d) force
 -------------------------

 -----
 DPGEN
 -----
 Symbolic Z-matrix:
 Charge =  0 Multiplicity = 2

                         Standard orientation:
 ---------------------------------------------------------------------
 Center     Atomic      Atomic             Coordinates (Angstroms)
 Number     Number       Type             X           Y           Z
 ---------------------------------------------------------------------
      1         11           0       -0.950637    0.525663    2.341181
      2         11           0       -1.158103    2.950617   -0.506343
      3         11           0        2.846623    1.572363    0.694390
      4         11           0        3.650454   -1.262430   -0.636530
      5         11           0        0.541907   -1.283657   -1.475268
      6         11           0       -3.020990    0.029718   -1.788781
      7         11           0       -1.909254   -2.532273    1.371352
 ---------------------------------------------------------------------

 SCF Done:  E(UB3LYP) =  -1136.11859650     A.U. after   21 cycles

 The electronic state is 2-A.
 Alpha  occ. eigenvalues --  -38.45094 -38.44650 -38.44534 -38.44229 -38.43993
 Alpha  occ. eigenvalues --  -38.43859 -38.43456  -2.20872  -2.20458  -2.20305
 Alpha  occ. eigenvalues --   -2.20029  -2.19788  -2.19692  -2.19217  -1.14542
 Alpha  occ. eigenvalues --   -1.14505  -1.14486  -1.14128  -1.14108  -1.14070
 Alpha  occ. eigenvalues --   -1.13990  -1.13971  -1.13941  -1.13716  -1.13705
 Alpha  occ. eigenvalues --   -1.13663  -1.13464  -1.13443  -1.13405  -1.13351
 Alpha  occ. eigenvalues --   -1.13340  -1.13335  -1.12899  -1.12883  -1.12859
 Alpha  occ. eigenvalues --   -0.16911  -0.13435  -0.11934  -0.11352
 Alpha virt. eigenvalues --   -0.06123  -0.05501  -0.04770  -0.03253  -0.03225
 Alpha virt. eigenvalues --   -0.03125  -0.01924  -0.01092  -0.00828  -0.00487
 Alpha virt. eigenvalues --   -0.00137   0.00184   0.00325   0.00431   0.00721

  Beta  occ. eigenvalues --  -38.45027 -38.44574 -38.44530 -38.44208 -38.43954
  Beta  occ. eigenvalues --  -38.43859 -38.43456  -2.20748  -2.20319  -2.20297
  Beta  occ. eigenvalues --   -2.19991  -2.19718  -2.19694  -2.19218  -1.14449
  Beta  occ. eigenvalues --   -1.14424  -1.14402  -1.14035  -1.14018  -1.13983
  Beta  occ. eigenvalues --   -1.13966  -1.13957  -1.13937  -1.13681  -1.13679
  Beta  occ. eigenvalues --   -1.13641  -1.13403  -1.13398  -1.13356  -1.13346
  Beta  occ. eigenvalues --   -1.13342  -1.13338  -1.12900  -1.12887  -1.12845
  Beta  occ. eigenvalues --   -0.16260  -0.13100  -0.11245
  Beta virt. eigenvalues --   -0.08041  -0.05877  -0.05230  -0.04341  -0.03004
  Beta virt. eigenvalues --   -0.02850  -0.02374  -0.01666  -0.01018  -0.00536
  Beta virt. eigenvalues --   -0.00341  -0.00088   0.00326   0.00380   0.00582

 Mulliken charges and spin densities:
               1          2
     1  Na   0.070365   0.465538
     2  Na  -0.128725  -0.004486
     3  Na  -0.188184  -0.033677
     4  Na   0.367651  -0.082697
     5  Na  -0.404978   0.339676
     6  Na   0.298532   0.264614
     7  Na  -0.014662   0.051032
 Sum of Mulliken charges =  -0.00000   1.00000

 Dipole moment (field-independent basis, Debye):
    X=              0.0234    Y=             -0.3421    Z=             -0.0194  Tot=              0.3434
 Quadrupole moment (field-independent basis, Debye-Ang):
   XX=            -57.6330   YY=            -71.0556   ZZ=            -68.4665
   XY=              1.1069   XZ=              2.9959   YZ=             -1.2864

 Normal termination of Gaussian 16 at Mon Dec  4 03:22:51 2023.
