 Gaussian 16, Revision B.01,
 Gaussian 16:  ES64L-G16RevB.01 20-Dec-2017

 -------------------------
 #P B3LYP/6-311+g(d) force
 -------------------------

 -----
 DPGEN
 -----
 Symbolic Z-matrix:
 Charge =  0 Multiplicity = 2

                         Standard orientation:
 ---------------------------------------------------------------------
 Center     Atomic      Atomic             Coordinates (Angstroms)
 Number     Number       Type             X           Y           Z
 ---------------------------------------------------------------------
      1         11           0        0.503289    1.091413   -0.521885
      2         11           0       -1.154997    3.968915   -0.088548
      3         11           0       -2.677248    0.944392    0.661479
      4         11           0       -4.845710   -2.511908    0.113159
      5         11           0       -1.056423   -1.780187   -0.259506
      6         11           0        3.262422   -1.009752   -0.604787
      7         11           0        5.968665   -0.702873    0.700088
 ---------------------------------------------------------------------

 SCF Done:  E(UB3LYP) =  -1136.12035773     A.U. after   21 cycles

 The electronic state is 2-A.
 Alpha  occ. eigenvalues --  -38.44733 -38.44637 -38.44287 -38.44230 -38.43840
 Alpha  occ. eigenvalues --  -38.43832 -38.43343  -2.20578  -2.20388  -2.20132
 Alpha  occ. eigenvalues --   -2.20058  -2.19755  -2.19655  -2.19179  -1.14312
 Alpha  occ. eigenvalues --   -1.14278  -1.14145  -1.14055  -1.14051  -1.13991
 Alpha  occ. eigenvalues --   -1.13852  -1.13815  -1.13733  -1.13711  -1.13684
 Alpha  occ. eigenvalues --   -1.13682  -1.13452  -1.13434  -1.13382  -1.13311
 Alpha  occ. eigenvalues --   -1.13309  -1.13263  -1.12860  -1.12852  -1.12829
 Alpha  occ. eigenvalues --   -0.17130  -0.13772  -0.12572  -0.11143
 Alpha virt. eigenvalues --   -0.06479  -0.04836  -0.04544  -0.04048  -0.02662
 Alpha virt. eigenvalues --   -0.02246  -0.01959  -0.01905  -0.01314  -0.00888
 Alpha virt. eigenvalues --   -0.00237  -0.00037   0.00066   0.00374   0.00657

  Beta  occ. eigenvalues --  -38.44723 -38.44599 -38.44253 -38.44153 -38.43810
  Beta  occ. eigenvalues --  -38.43806 -38.43345  -2.20561  -2.20316  -2.20074
  Beta  occ. eigenvalues --   -2.19915  -2.19699  -2.19613  -2.19191  -1.14290
  Beta  occ. eigenvalues --   -1.14268  -1.14133  -1.14006  -1.14001  -1.13946
  Beta  occ. eigenvalues --   -1.13814  -1.13780  -1.13641  -1.13640  -1.13586
  Beta  occ. eigenvalues --   -1.13584  -1.13414  -1.13400  -1.13332  -1.13280
  Beta  occ. eigenvalues --   -1.13272  -1.13228  -1.12874  -1.12864  -1.12780
  Beta  occ. eigenvalues --   -0.16533  -0.13068  -0.12233
  Beta virt. eigenvalues --   -0.07835  -0.06124  -0.04510  -0.04141  -0.03883
  Beta virt. eigenvalues --   -0.02478  -0.02005  -0.01726  -0.01430  -0.01098
  Beta virt. eigenvalues --   -0.00594  -0.00033   0.00153   0.00250   0.00434

 Mulliken charges and spin densities:
               1          2
     1  Na  -1.499699   0.040103
     2  Na   1.159275   0.196660
     3  Na  -0.045756   0.266684
     4  Na   0.861660   0.248379
     5  Na  -0.507082   0.166336
     6  Na  -0.604415  -0.299662
     7  Na   0.636017   0.381500
 Sum of Mulliken charges =  -0.00000   1.00000

 Dipole moment (field-independent basis, Debye):
    X=             -1.0394    Y=              0.3576    Z=              0.1781  Tot=              1.1135
 Quadrupole moment (field-independent basis, Debye-Ang):
   XX=            -59.6208   YY=            -62.0064   ZZ=            -71.6076
   XY=              4.0680   XZ=              1.8613   YZ=              0.2900

 Normal termination of Gaussian 16 at Tue Nov 28 22:46:30 2023.
