 Gaussian 16, Revision B.01,
 Gaussian 16:  ES64L-G16RevB.01 20-Dec-2017

 -------------------------
 #P B3LYP/6-311+g(d) force
 -------------------------

 -----
 DPGEN
 -----
 Symbolic Z-matrix:
 Charge =  0 Multiplicity = 2

                         Standard orientation:
 ---------------------------------------------------------------------
 Center     Atomic      Atomic             Coordinates (Angstroms)
 Number     Number       Type             X           Y           Z
 ---------------------------------------------------------------------
      1         11           0       -0.248472   -0.036486   -1.681867
      2         11           0        1.788914    2.964239   -0.446845
      3         11           0       -0.881819    1.457173    1.723191
      4         11           0        1.643870   -0.701959    1.431651
      5         11           0       -3.662481    0.205191   -0.955401
      6         11           0       -1.672270   -2.055139    0.794363
      7         11           0        3.032257   -1.833019   -0.865092
 ---------------------------------------------------------------------

 SCF Done:  E(UB3LYP) =  -1136.12562034     A.U. after   21 cycles

 The electronic state is 2-A.
 Alpha  occ. eigenvalues --  -38.44577 -38.44257 -38.44193 -38.43755 -38.43606
 Alpha  occ. eigenvalues --  -38.43470 -38.43423  -2.20381  -2.20092  -2.20062
 Alpha  occ. eigenvalues --   -2.19590  -2.19459  -2.19359  -2.19232  -1.14051
 Alpha  occ. eigenvalues --   -1.14033  -1.14012  -1.13797  -1.13760  -1.13746
 Alpha  occ. eigenvalues --   -1.13705  -1.13700  -1.13675  -1.13393  -1.13223
 Alpha  occ. eigenvalues --   -1.13213  -1.13177  -1.13110  -1.13056  -1.13026
 Alpha  occ. eigenvalues --   -1.12984  -1.12949  -1.12907  -1.12894  -1.12860
 Alpha  occ. eigenvalues --   -0.18150  -0.13208  -0.11413  -0.11372
 Alpha virt. eigenvalues --   -0.06160  -0.05321  -0.04428  -0.03157  -0.02846
 Alpha virt. eigenvalues --   -0.02724  -0.02003  -0.01236  -0.00800   0.00050
 Alpha virt. eigenvalues --    0.00100   0.00272   0.00419   0.00585   0.00775

  Beta  occ. eigenvalues --  -38.44556 -38.44233 -38.44141 -38.43747 -38.43558
  Beta  occ. eigenvalues --  -38.43465 -38.43391  -2.20343  -2.20051  -2.19966
  Beta  occ. eigenvalues --   -2.19575  -2.19375  -2.19306  -2.19223  -1.14013
  Beta  occ. eigenvalues --   -1.14007  -1.13991  -1.13764  -1.13709  -1.13687
  Beta  occ. eigenvalues --   -1.13671  -1.13632  -1.13601  -1.13377  -1.13206
  Beta  occ. eigenvalues --   -1.13201  -1.13111  -1.13048  -1.12993  -1.12987
  Beta  occ. eigenvalues --   -1.12929  -1.12914  -1.12895  -1.12885  -1.12855
  Beta  occ. eigenvalues --   -0.17343  -0.12998  -0.11251
  Beta virt. eigenvalues --   -0.07512  -0.05956  -0.05132  -0.03948  -0.02935
  Beta virt. eigenvalues --   -0.02373  -0.01961  -0.01744  -0.01078  -0.00505
  Beta virt. eigenvalues --    0.00121   0.00154   0.00322   0.00492   0.00697

 Mulliken charges and spin densities:
               1          2
     1  Na  -0.311851   0.502228
     2  Na  -0.216968   0.035266
     3  Na  -0.036672   0.185880
     4  Na   0.402985  -0.074500
     5  Na   0.161439   0.061555
     6  Na   0.029771   0.172746
     7  Na  -0.028704   0.116827
 Sum of Mulliken charges =  -0.00000   1.00000

 Dipole moment (field-independent basis, Debye):
    X=             -0.9617    Y=             -0.0628    Z=             -0.3025  Tot=              1.0101
 Quadrupole moment (field-independent basis, Debye-Ang):
   XX=            -55.1035   YY=            -70.7263   ZZ=            -68.2966
   XY=             -0.0612   XZ=             -1.8664   YZ=             -1.3315

 Normal termination of Gaussian 16 at Wed Nov 29 16:46:53 2023.
