 Gaussian 16, Revision B.01,
 Gaussian 16:  ES64L-G16RevB.01 20-Dec-2017

 -------------------------
 #P B3LYP/6-311+g(d) force
 -------------------------

 -----
 DPGEN
 -----
 Symbolic Z-matrix:
 Charge =  0 Multiplicity = 2

                         Standard orientation:
 ---------------------------------------------------------------------
 Center     Atomic      Atomic             Coordinates (Angstroms)
 Number     Number       Type             X           Y           Z
 ---------------------------------------------------------------------
      1         11           0       -3.467222    0.441028    1.225624
      2         11           0       -0.680774    3.301051   -0.234945
      3         11           0       -4.591135   -2.032449   -0.026405
      4         11           0       -0.849448   -0.658948   -1.154214
      5         11           0        2.427104    2.104102   -0.118704
      6         11           0        2.861593   -1.629541   -1.354994
      7         11           0        4.299881   -1.525244    1.663638
 ---------------------------------------------------------------------

 SCF Done:  E(UB3LYP) =  -1136.11478551     A.U. after   20 cycles

 The electronic state is 2-A.
 Alpha  occ. eigenvalues --  -38.44986 -38.44860 -38.44838 -38.44265 -38.43988
 Alpha  occ. eigenvalues --  -38.43780 -38.43210  -2.20747  -2.20693  -2.20646
 Alpha  occ. eigenvalues --   -2.20065  -2.19773  -2.19578  -2.18997  -1.14475
 Alpha  occ. eigenvalues --   -1.14443  -1.14415  -1.14359  -1.14358  -1.14339
 Alpha  occ. eigenvalues --   -1.14294  -1.14280  -1.14206  -1.13754  -1.13703
 Alpha  occ. eigenvalues --   -1.13667  -1.13430  -1.13428  -1.13402  -1.13263
 Alpha  occ. eigenvalues --   -1.13242  -1.13202  -1.12667  -1.12657  -1.12646
 Alpha  occ. eigenvalues --   -0.16261  -0.14141  -0.11980  -0.10387
 Alpha virt. eigenvalues --   -0.06806  -0.05501  -0.04817  -0.03671  -0.02723
 Alpha virt. eigenvalues --   -0.02418  -0.02300  -0.01640  -0.01233  -0.00459
 Alpha virt. eigenvalues --   -0.00274   0.00070   0.00086   0.00234   0.00503

  Beta  occ. eigenvalues --  -38.44973 -38.44845 -38.44835 -38.44178 -38.43938
  Beta  occ. eigenvalues --  -38.43766 -38.43207  -2.20724  -2.20667  -2.20641
  Beta  occ. eigenvalues --   -2.19906  -2.19680  -2.19556  -2.18993  -1.14463
  Beta  occ. eigenvalues --   -1.14426  -1.14395  -1.14343  -1.14341  -1.14318
  Beta  occ. eigenvalues --   -1.14291  -1.14269  -1.14198  -1.13648  -1.13592
  Beta  occ. eigenvalues --   -1.13548  -1.13370  -1.13364  -1.13342  -1.13253
  Beta  occ. eigenvalues --   -1.13229  -1.13149  -1.12662  -1.12653  -1.12643
  Beta  occ. eigenvalues --   -0.15741  -0.13843  -0.11729
  Beta virt. eigenvalues --   -0.06779  -0.06666  -0.04945  -0.04694  -0.03471
  Beta virt. eigenvalues --   -0.02480  -0.02161  -0.01705  -0.01416  -0.01182
  Beta virt. eigenvalues --   -0.00281   0.00028   0.00164   0.00299   0.00342

 Mulliken charges and spin densities:
               1          2
     1  Na   0.112272   0.143027
     2  Na   0.279982   0.033382
     3  Na   0.512163   0.004389
     4  Na  -0.880989   0.401263
     5  Na  -0.255533   0.077720
     6  Na   0.175576   0.050093
     7  Na   0.056529   0.290126
 Sum of Mulliken charges =  -0.00000   1.00000

 Dipole moment (field-independent basis, Debye):
    X=             -1.4380    Y=             -0.5068    Z=              0.3372  Tot=              1.5616
 Quadrupole moment (field-independent basis, Debye-Ang):
   XX=            -61.0442   YY=            -67.7353   ZZ=            -68.4310
   XY=              4.0167   XZ=              0.5104   YZ=              0.8701

 Normal termination of Gaussian 16 at Sun Dec  3 20:58:45 2023.
