 Gaussian 16, Revision B.01,
 Gaussian 16:  ES64L-G16RevB.01 20-Dec-2017

 -------------------------
 #P B3LYP/6-311+g(d) force
 -------------------------

 -----
 DPGEN
 -----
 Symbolic Z-matrix:
 Charge =  0 Multiplicity = 2

                         Standard orientation:
 ---------------------------------------------------------------------
 Center     Atomic      Atomic             Coordinates (Angstroms)
 Number     Number       Type             X           Y           Z
 ---------------------------------------------------------------------
      1         11           0        0.468043    1.042681   -0.423465
      2         11           0       -1.347704    3.929248   -0.138176
      3         11           0       -2.677005    0.898180    0.619852
      4         11           0       -4.736876   -2.564990    0.129505
      5         11           0       -1.018097   -1.714190   -0.222248
      6         11           0        3.355944   -1.073835   -0.712700
      7         11           0        5.955695   -0.517093    0.747232
 ---------------------------------------------------------------------

 SCF Done:  E(UB3LYP) =  -1136.11970079     A.U. after   20 cycles

 The electronic state is 2-A.
 Alpha  occ. eigenvalues --  -38.44532 -38.44477 -38.44278 -38.44182 -38.43906
 Alpha  occ. eigenvalues --  -38.43815 -38.43516  -2.20406  -2.20234  -2.20103
 Alpha  occ. eigenvalues --   -2.20053  -2.19829  -2.19638  -2.19341  -1.14157
 Alpha  occ. eigenvalues --   -1.14102  -1.13976  -1.13900  -1.13898  -1.13838
 Alpha  occ. eigenvalues --   -1.13794  -1.13777  -1.13730  -1.13728  -1.13728
 Alpha  occ. eigenvalues --   -1.13644  -1.13515  -1.13502  -1.13421  -1.13300
 Alpha  occ. eigenvalues --   -1.13292  -1.13255  -1.13018  -1.13015  -1.12988
 Alpha  occ. eigenvalues --   -0.17235  -0.13811  -0.12520  -0.11158
 Alpha virt. eigenvalues --   -0.06364  -0.04692  -0.04662  -0.04094  -0.02609
 Alpha virt. eigenvalues --   -0.02366  -0.01940  -0.01815  -0.01267  -0.00894
 Alpha virt. eigenvalues --   -0.00208  -0.00018   0.00118   0.00378   0.00665

  Beta  occ. eigenvalues --  -38.44522 -38.44438 -38.44204 -38.44146 -38.43868
  Beta  occ. eigenvalues --  -38.43791 -38.43519  -2.20388  -2.20161  -2.19994
  Beta  occ. eigenvalues --   -2.19965  -2.19765  -2.19594  -2.19356  -1.14133
  Beta  occ. eigenvalues --   -1.14091  -1.13963  -1.13850  -1.13846  -1.13792
  Beta  occ. eigenvalues --   -1.13750  -1.13692  -1.13689  -1.13636  -1.13634
  Beta  occ. eigenvalues --   -1.13576  -1.13472  -1.13460  -1.13355  -1.13264
  Beta  occ. eigenvalues --   -1.13262  -1.13226  -1.13035  -1.13029  -1.12944
  Beta  occ. eigenvalues --   -0.16632  -0.13116  -0.12173
  Beta virt. eigenvalues --   -0.07844  -0.05988  -0.04389  -0.04258  -0.03920
  Beta virt. eigenvalues --   -0.02420  -0.02103  -0.01662  -0.01423  -0.01051
  Beta virt. eigenvalues --   -0.00579  -0.00023   0.00181   0.00297   0.00430

 Mulliken charges and spin densities:
               1          2
     1  Na  -1.773826  -0.016461
     2  Na   1.190864   0.229175
     3  Na   0.072884   0.314930
     4  Na   0.986602   0.233029
     5  Na  -0.478170   0.133307
     6  Na  -0.524536  -0.261186
     7  Na   0.526183   0.367205
 Sum of Mulliken charges =  -0.00000   1.00000

 Dipole moment (field-independent basis, Debye):
    X=             -0.7857    Y=              0.3946    Z=              0.1370  Tot=              0.8898
 Quadrupole moment (field-independent basis, Debye-Ang):
   XX=            -60.3151   YY=            -62.1958   ZZ=            -71.1876
   XY=              3.9244   XZ=              2.2541   YZ=              0.4456

 Normal termination of Gaussian 16 at Tue Nov 28 18:59:36 2023.
