 Gaussian 16, Revision B.01,
 Gaussian 16:  ES64L-G16RevB.01 20-Dec-2017

 -------------------------
 #P B3LYP/6-311+g(d) force
 -------------------------

 -----
 DPGEN
 -----
 Symbolic Z-matrix:
 Charge =  0 Multiplicity = 2

                         Standard orientation:
 ---------------------------------------------------------------------
 Center     Atomic      Atomic             Coordinates (Angstroms)
 Number     Number       Type             X           Y           Z
 ---------------------------------------------------------------------
      1         11           0       -0.291849    2.695762   -0.371186
      2         11           0       -0.328969    0.659008    2.113741
      3         11           0        0.102357   -1.803200   -0.910100
      4         11           0        2.631783    1.416138   -0.186771
      5         11           0       -2.541177    0.322907   -1.526941
      6         11           0       -2.691482   -1.470748    0.939187
      7         11           0        3.119337   -1.819867   -0.057930
 ---------------------------------------------------------------------

 SCF Done:  E(UB3LYP) =  -1136.12853512     A.U. after   19 cycles

 The electronic state is 2-A.
 Alpha  occ. eigenvalues --  -38.44268 -38.44212 -38.44116 -38.44041 -38.43645
 Alpha  occ. eigenvalues --  -38.43606 -38.42966  -2.20112  -2.20109  -2.20014
 Alpha  occ. eigenvalues --   -2.19922  -2.19523  -2.19446  -2.18852  -1.13853
 Alpha  occ. eigenvalues --   -1.13805  -1.13778  -1.13777  -1.13749  -1.13748
 Alpha  occ. eigenvalues --   -1.13675  -1.13634  -1.13600  -1.13584  -1.13570
 Alpha  occ. eigenvalues --   -1.13531  -1.13239  -1.13200  -1.13198  -1.13098
 Alpha  occ. eigenvalues --   -1.13090  -1.13050  -1.12522  -1.12520  -1.12488
 Alpha  occ. eigenvalues --   -0.18407  -0.13727  -0.12228  -0.11213
 Alpha virt. eigenvalues --   -0.05967  -0.05523  -0.04309  -0.03655  -0.02838
 Alpha virt. eigenvalues --   -0.02818  -0.01769  -0.00961  -0.00433  -0.00132
 Alpha virt. eigenvalues --    0.00018   0.00319   0.00664   0.00689   0.00838

  Beta  occ. eigenvalues --  -38.44268 -38.44187 -38.44059 -38.43955 -38.43632
  Beta  occ. eigenvalues --  -38.43611 -38.42954  -2.20113  -2.20066  -2.19909
  Beta  occ. eigenvalues --   -2.19765  -2.19501  -2.19455  -2.18831  -1.13815
  Beta  occ. eigenvalues --   -1.13802  -1.13776  -1.13751  -1.13741  -1.13697
  Beta  occ. eigenvalues --   -1.13597  -1.13563  -1.13534  -1.13484  -1.13463
  Beta  occ. eigenvalues --   -1.13410  -1.13227  -1.13189  -1.13169  -1.13104
  Beta  occ. eigenvalues --   -1.13092  -1.13048  -1.12511  -1.12504  -1.12454
  Beta  occ. eigenvalues --   -0.17723  -0.13546  -0.12081
  Beta virt. eigenvalues --   -0.07189  -0.05883  -0.05330  -0.04051  -0.03151
  Beta virt. eigenvalues --   -0.02293  -0.01871  -0.01632  -0.00832  -0.00362
  Beta virt. eigenvalues --    0.00025   0.00099   0.00387   0.00765   0.00865

 Mulliken charges and spin densities:
               1          2
     1  Na   0.162000   0.357083
     2  Na  -0.316977   0.335290
     3  Na  -0.710920   0.278275
     4  Na  -0.164129  -0.094131
     5  Na   0.125522   0.028472
     6  Na   0.569156   0.157342
     7  Na   0.335346  -0.062331
 Sum of Mulliken charges =  -0.00000   1.00000

 Dipole moment (field-independent basis, Debye):
    X=             -0.0442    Y=             -0.1077    Z=              0.2033  Tot=              0.2343
 Quadrupole moment (field-independent basis, Debye-Ang):
   XX=            -56.2420   YY=            -69.9232   ZZ=            -70.9477
   XY=              1.7522   XZ=              0.6777   YZ=             -2.6357

 Normal termination of Gaussian 16 at Mon Dec  4 02:57:52 2023.
