 Gaussian 16, Revision B.01,
 Gaussian 16:  ES64L-G16RevB.01 20-Dec-2017

 -------------------------
 #P B3LYP/6-311+g(d) force
 -------------------------

 -----
 DPGEN
 -----
 Symbolic Z-matrix:
 Charge =  0 Multiplicity = 2

                         Standard orientation:
 ---------------------------------------------------------------------
 Center     Atomic      Atomic             Coordinates (Angstroms)
 Number     Number       Type             X           Y           Z
 ---------------------------------------------------------------------
      1         11           0       -0.281248   -0.189429   -1.899737
      2         11           0        2.646967   -1.236159   -0.420600
      3         11           0        0.077378   -2.480332    0.793362
      4         11           0       -2.826316   -1.336193   -0.296261
      5         11           0       -1.784847    2.497951   -0.021573
      6         11           0        1.943289    2.022595   -0.449734
      7         11           0        0.224776    0.721566    2.294542
 ---------------------------------------------------------------------

 SCF Done:  E(UB3LYP) =  -1136.13570781     A.U. after   18 cycles

 The electronic state is 2-A.
 Alpha  occ. eigenvalues --  -38.44387 -38.43778 -38.43748 -38.43582 -38.43572
 Alpha  occ. eigenvalues --  -38.43352 -38.43212  -2.20242  -2.19719  -2.19549
 Alpha  occ. eigenvalues --   -2.19441  -2.19410  -2.19237  -2.19123  -1.13895
 Alpha  occ. eigenvalues --   -1.13878  -1.13860  -1.13399  -1.13380  -1.13350
 Alpha  occ. eigenvalues --   -1.13231  -1.13211  -1.13180  -1.13124  -1.13116
 Alpha  occ. eigenvalues --   -1.13085  -1.13080  -1.13066  -1.13036  -1.12972
 Alpha  occ. eigenvalues --   -1.12896  -1.12869  -1.12788  -1.12758  -1.12734
 Alpha  occ. eigenvalues --   -0.18637  -0.12639  -0.12498  -0.11654
 Alpha virt. eigenvalues --   -0.05374  -0.04904  -0.04381  -0.03556  -0.03338
 Alpha virt. eigenvalues --   -0.03228  -0.01149  -0.01024  -0.00208  -0.00001
 Alpha virt. eigenvalues --    0.00134   0.00395   0.00819   0.00885   0.00948

  Beta  occ. eigenvalues --  -38.44292 -38.43747 -38.43710 -38.43572 -38.43570
  Beta  occ. eigenvalues --  -38.43346 -38.43192  -2.20066  -2.19596  -2.19550
  Beta  occ. eigenvalues --   -2.19427  -2.19408  -2.19230  -2.19087  -1.13779
  Beta  occ. eigenvalues --   -1.13757  -1.13731  -1.13323  -1.13290  -1.13268
  Beta  occ. eigenvalues --   -1.13218  -1.13207  -1.13181  -1.13115  -1.13088
  Beta  occ. eigenvalues --   -1.13079  -1.13061  -1.13054  -1.13037  -1.12966
  Beta  occ. eigenvalues --   -1.12871  -1.12863  -1.12761  -1.12723  -1.12709
  Beta  occ. eigenvalues --   -0.17861  -0.12406  -0.12295
  Beta virt. eigenvalues --   -0.07667  -0.05394  -0.04747  -0.04241  -0.02834
  Beta virt. eigenvalues --   -0.02586  -0.02212  -0.01062  -0.00981  -0.00055
  Beta virt. eigenvalues --   -0.00003   0.00129   0.00425   0.00866   0.00972

 Mulliken charges and spin densities:
               1          2
     1  Na  -0.222119   0.400735
     2  Na   0.168131   0.000280
     3  Na   0.040787   0.247325
     4  Na   0.186539  -0.058052
     5  Na   0.013744  -0.082513
     6  Na   0.208718   0.000351
     7  Na  -0.395799   0.491875
 Sum of Mulliken charges =  -0.00000   1.00000

 Dipole moment (field-independent basis, Debye):
    X=             -0.1615    Y=              0.3858    Z=              0.1323  Tot=              0.4387
 Quadrupole moment (field-independent basis, Debye-Ang):
   XX=            -61.8137   YY=            -65.7364   ZZ=            -68.6576
   XY=             -0.2520   XZ=             -0.8255   YZ=             -1.0706

 Normal termination of Gaussian 16 at Tue Dec  5 18:53:46 2023.
