 Gaussian 16, Revision B.01,
 Gaussian 16:  ES64L-G16RevB.01 20-Dec-2017

 -------------------------
 #P B3LYP/6-311+g(d) force
 -------------------------

 -----
 DPGEN
 -----
 Symbolic Z-matrix:
 Charge =  0 Multiplicity = 2

                         Standard orientation:
 ---------------------------------------------------------------------
 Center     Atomic      Atomic             Coordinates (Angstroms)
 Number     Number       Type             X           Y           Z
 ---------------------------------------------------------------------
      1         11           0        2.240038   -0.908655   -1.107203
      2         11           0        5.419779   -1.195846    1.062928
      3         11           0        3.741304    2.139190    0.060841
      4         11           0       -0.014475    1.440804   -0.365181
      5         11           0       -1.116090   -1.549598    0.042431
      6         11           0       -4.096793   -0.355254   -0.758750
      7         11           0       -6.173763    0.429358    1.064934
 ---------------------------------------------------------------------

 SCF Done:  E(UB3LYP) =  -1136.11392618     A.U. after   20 cycles

 The electronic state is 2-A.
 Alpha  occ. eigenvalues --  -38.44936 -38.44438 -38.44334 -38.44208 -38.43930
 Alpha  occ. eigenvalues --  -38.43867 -38.43714  -2.20764  -2.20297  -2.20127
 Alpha  occ. eigenvalues --   -2.19977  -2.19803  -2.19690  -2.19587  -1.14470
 Alpha  occ. eigenvalues --   -1.14460  -1.14357  -1.13981  -1.13965  -1.13916
 Alpha  occ. eigenvalues --   -1.13811  -1.13785  -1.13737  -1.13640  -1.13633
 Alpha  occ. eigenvalues --   -1.13584  -1.13539  -1.13472  -1.13463  -1.13420
 Alpha  occ. eigenvalues --   -1.13330  -1.13327  -1.13239  -1.13218  -1.13137
 Alpha  occ. eigenvalues --   -0.16937  -0.14295  -0.11806  -0.10866
 Alpha virt. eigenvalues --   -0.06642  -0.05555  -0.04834  -0.03069  -0.02979
 Alpha virt. eigenvalues --   -0.02772  -0.02396  -0.01093  -0.00931  -0.00841
 Alpha virt. eigenvalues --   -0.00351  -0.00315   0.00011   0.00290   0.00593

  Beta  occ. eigenvalues --  -38.44922 -38.44402 -38.44292 -38.44153 -38.43904
  Beta  occ. eigenvalues --  -38.43865 -38.43713  -2.20741  -2.20235  -2.20052
  Beta  occ. eigenvalues --   -2.19874  -2.19752  -2.19688  -2.19586  -1.14450
  Beta  occ. eigenvalues --   -1.14420  -1.14345  -1.13941  -1.13926  -1.13844
  Beta  occ. eigenvalues --   -1.13763  -1.13735  -1.13663  -1.13569  -1.13557
  Beta  occ. eigenvalues --   -1.13535  -1.13520  -1.13439  -1.13428  -1.13388
  Beta  occ. eigenvalues --   -1.13329  -1.13326  -1.13235  -1.13218  -1.13135
  Beta  occ. eigenvalues --   -0.16414  -0.13998  -0.11555
  Beta virt. eigenvalues --   -0.07274  -0.06378  -0.05014  -0.04670  -0.02880
  Beta virt. eigenvalues --   -0.02810  -0.02250  -0.01940  -0.01019  -0.00821
  Beta virt. eigenvalues --   -0.00498  -0.00138   0.00010   0.00176   0.00374

 Mulliken charges and spin densities:
               1          2
     1  Na   0.090659   0.115537
     2  Na   0.078429   0.244603
     3  Na   0.315350  -0.018458
     4  Na  -0.483314   0.428889
     5  Na  -0.097100   0.166222
     6  Na   0.161445   0.049386
     7  Na  -0.065467   0.013821
 Sum of Mulliken charges =  -0.00000   1.00000

 Dipole moment (field-independent basis, Debye):
    X=              0.6034    Y=              0.1550    Z=              0.3086  Tot=              0.6952
 Quadrupole moment (field-independent basis, Debye-Ang):
   XX=            -69.8007   YY=            -67.6397   ZZ=            -66.8090
   XY=             -0.9044   XZ=             -1.5610   YZ=              1.0243

 Normal termination of Gaussian 16 at Tue Nov 28 22:50:51 2023.
