 Gaussian 16, Revision B.01,
 Gaussian 16:  ES64L-G16RevB.01 20-Dec-2017

 -------------------------
 #P B3LYP/6-311+g(d) force
 -------------------------

 -----
 DPGEN
 -----
 Symbolic Z-matrix:
 Charge =  0 Multiplicity = 2

                         Standard orientation:
 ---------------------------------------------------------------------
 Center     Atomic      Atomic             Coordinates (Angstroms)
 Number     Number       Type             X           Y           Z
 ---------------------------------------------------------------------
      1         11           0        0.067347    0.342713   -1.726988
      2         11           0        1.879571   -2.913001   -0.630075
      3         11           0       -1.371528    1.699775    1.408041
      4         11           0       -0.886095   -1.679192    1.496698
      5         11           0        2.258607   -0.051385    0.875603
      6         11           0       -3.603496   -0.400294   -0.938697
      7         11           0        1.655595    3.001385   -0.484582
 ---------------------------------------------------------------------

 SCF Done:  E(UB3LYP) =  -1136.13513104     A.U. after   19 cycles

 The electronic state is 2-A.
 Alpha  occ. eigenvalues --  -38.44093 -38.43990 -38.43771 -38.43708 -38.43620
 Alpha  occ. eigenvalues --  -38.43553 -38.43250  -2.19865  -2.19821  -2.19658
 Alpha  occ. eigenvalues --   -2.19556  -2.19519  -2.19370  -2.19086  -1.13532
 Alpha  occ. eigenvalues --   -1.13528  -1.13522  -1.13490  -1.13478  -1.13422
 Alpha  occ. eigenvalues --   -1.13358  -1.13299  -1.13286  -1.13262  -1.13218
 Alpha  occ. eigenvalues --   -1.13208  -1.13197  -1.13160  -1.13141  -1.13029
 Alpha  occ. eigenvalues --   -1.13025  -1.12995  -1.12756  -1.12744  -1.12721
 Alpha  occ. eigenvalues --   -0.18096  -0.12689  -0.12345  -0.10923
 Alpha virt. eigenvalues --   -0.05577  -0.05153  -0.04795  -0.03413  -0.02965
 Alpha virt. eigenvalues --   -0.02535  -0.01529  -0.01306  -0.00666  -0.00120
 Alpha virt. eigenvalues --    0.00229   0.00325   0.00576   0.00744   0.00775

  Beta  occ. eigenvalues --  -38.44069 -38.43949 -38.43710 -38.43669 -38.43607
  Beta  occ. eigenvalues --  -38.43549 -38.43249  -2.19820  -2.19749  -2.19547
  Beta  occ. eigenvalues --   -2.19500  -2.19487  -2.19364  -2.19085  -1.13502
  Beta  occ. eigenvalues --   -1.13486  -1.13470  -1.13458  -1.13416  -1.13376
  Beta  occ. eigenvalues --   -1.13287  -1.13225  -1.13215  -1.13210  -1.13179
  Beta  occ. eigenvalues --   -1.13161  -1.13150  -1.13140  -1.13106  -1.13024
  Beta  occ. eigenvalues --   -1.13011  -1.12990  -1.12749  -1.12741  -1.12719
  Beta  occ. eigenvalues --   -0.17377  -0.12443  -0.12202
  Beta virt. eigenvalues --   -0.07115  -0.05306  -0.04973  -0.04716  -0.02863
  Beta virt. eigenvalues --   -0.02483  -0.01673  -0.01362  -0.01240  -0.00288
  Beta virt. eigenvalues --   -0.00137   0.00305   0.00372   0.00683   0.00782

 Mulliken charges and spin densities:
               1          2
     1  Na  -0.418454   0.656753
     2  Na   0.124887  -0.159205
     3  Na  -0.177897   0.200817
     4  Na   0.096156   0.247405
     5  Na  -0.049108   0.207693
     6  Na  -0.094820  -0.057627
     7  Na   0.519236  -0.095836
 Sum of Mulliken charges =  -0.00000   1.00000

 Dipole moment (field-independent basis, Debye):
    X=             -0.1975    Y=             -0.0446    Z=              0.0007  Tot=              0.2025
 Quadrupole moment (field-independent basis, Debye-Ang):
   XX=            -61.3384   YY=            -61.5810   ZZ=            -70.4044
   XY=              0.5203   XZ=              0.6294   YZ=              2.0089

 Normal termination of Gaussian 16 at Tue Dec  5 22:25:43 2023.
