 Gaussian 16, Revision B.01,
 Gaussian 16:  ES64L-G16RevB.01 20-Dec-2017

 -------------------------
 #P B3LYP/6-311+g(d) force
 -------------------------

 -----
 DPGEN
 -----
 Symbolic Z-matrix:
 Charge =  0 Multiplicity = 2

                         Standard orientation:
 ---------------------------------------------------------------------
 Center     Atomic      Atomic             Coordinates (Angstroms)
 Number     Number       Type             X           Y           Z
 ---------------------------------------------------------------------
      1         11           0        2.624166   -1.716957   -0.245281
      2         11           0       -0.421041    0.150987    2.147342
      3         11           0        2.443613    1.692748    0.161102
      4         11           0       -0.815687    2.607597   -0.229512
      5         11           0       -0.064791    0.274183   -1.618849
      6         11           0       -3.420569   -0.500003   -0.256191
      7         11           0       -0.345690   -2.508554    0.041389
 ---------------------------------------------------------------------

 SCF Done:  E(UB3LYP) =  -1136.13170524     A.U. after   19 cycles

 The electronic state is 2-A.
 Alpha  occ. eigenvalues --  -38.44484 -38.43783 -38.43772 -38.43504 -38.43498
 Alpha  occ. eigenvalues --  -38.43426 -38.43121  -2.20261  -2.19670  -2.19628
 Alpha  occ. eigenvalues --   -2.19463  -2.19410  -2.19365  -2.19035  -1.13936
 Alpha  occ. eigenvalues --   -1.13917  -1.13899  -1.13415  -1.13336  -1.13313
 Alpha  occ. eigenvalues --   -1.13308  -1.13294  -1.13274  -1.13267  -1.13132
 Alpha  occ. eigenvalues --   -1.13075  -1.13048  -1.13045  -1.13015  -1.13005
 Alpha  occ. eigenvalues --   -1.12982  -1.12958  -1.12721  -1.12701  -1.12637
 Alpha  occ. eigenvalues --   -0.18865  -0.12894  -0.12596  -0.10953
 Alpha virt. eigenvalues --   -0.05940  -0.04934  -0.04378  -0.03138  -0.03002
 Alpha virt. eigenvalues --   -0.02720  -0.01862  -0.00969  -0.00197  -0.00080
 Alpha virt. eigenvalues --    0.00011   0.00318   0.00811   0.00862   0.00950

  Beta  occ. eigenvalues --  -38.44482 -38.43768 -38.43681 -38.43503 -38.43487
  Beta  occ. eigenvalues --  -38.43362 -38.43113  -2.20261  -2.19624  -2.19482
  Beta  occ. eigenvalues --   -2.19410  -2.19365  -2.19332  -2.19024  -1.13925
  Beta  occ. eigenvalues --   -1.13913  -1.13901  -1.13369  -1.13302  -1.13274
  Beta  occ. eigenvalues --   -1.13266  -1.13211  -1.13180  -1.13140  -1.13085
  Beta  occ. eigenvalues --   -1.13051  -1.13014  -1.13002  -1.13000  -1.12995
  Beta  occ. eigenvalues --   -1.12936  -1.12903  -1.12714  -1.12659  -1.12636
  Beta  occ. eigenvalues --   -0.18123  -0.12689  -0.12341
  Beta virt. eigenvalues --   -0.06978  -0.05902  -0.04907  -0.04357  -0.02397
  Beta virt. eigenvalues --   -0.02170  -0.01790  -0.01618  -0.00918  -0.00245
  Beta virt. eigenvalues --   -0.00050   0.00105   0.00342   0.00857   0.00860

 Mulliken charges and spin densities:
               1          2
     1  Na  -0.019045  -0.041790
     2  Na  -0.592423   0.655668
     3  Na   0.240354   0.059095
     4  Na   0.417947  -0.051016
     5  Na  -0.486867   0.411311
     6  Na   0.160160  -0.082391
     7  Na   0.279874   0.049123
 Sum of Mulliken charges =  -0.00000   1.00000

 Dipole moment (field-independent basis, Debye):
    X=             -0.3562    Y=              0.1613    Z=              0.2196  Tot=              0.4485
 Quadrupole moment (field-independent basis, Debye-Ang):
   XX=            -53.8301   YY=            -66.3025   ZZ=            -73.4174
   XY=              0.5443   XZ=              0.8151   YZ=              0.6096

 Normal termination of Gaussian 16 at Thu Dec  7 05:31:58 2023.
