 Gaussian 16, Revision B.01,
 Gaussian 16:  ES64L-G16RevB.01 20-Dec-2017

 -------------------------
 #P B3LYP/6-311+g(d) force
 -------------------------

 -----
 DPGEN
 -----
 Symbolic Z-matrix:
 Charge =  0 Multiplicity = 2

                         Standard orientation:
 ---------------------------------------------------------------------
 Center     Atomic      Atomic             Coordinates (Angstroms)
 Number     Number       Type             X           Y           Z
 ---------------------------------------------------------------------
      1         11           0       -0.218901   -0.874828   -1.664672
      2         11           0       -2.754211   -1.897948    0.088742
      3         11           0       -0.037288    2.651196   -0.083416
      4         11           0        3.491601   -1.813930    0.287063
      5         11           0        3.181811    1.121141   -0.339160
      6         11           0       -0.452603    0.022019    1.975549
      7         11           0       -3.210409    0.792350   -0.264103
 ---------------------------------------------------------------------

 SCF Done:  E(UB3LYP) =  -1136.11368706     A.U. after   24 cycles

 The electronic state is 2-A.
 Alpha  occ. eigenvalues --  -38.45665 -38.44731 -38.44677 -38.44251 -38.44012
 Alpha  occ. eigenvalues --  -38.43953 -38.42085  -2.21566  -2.20561  -2.20521
 Alpha  occ. eigenvalues --   -2.20051  -2.19947  -2.19827  -2.17935  -1.15352
 Alpha  occ. eigenvalues --   -1.15201  -1.15174  -1.14275  -1.14228  -1.14223
 Alpha  occ. eigenvalues --   -1.14194  -1.14164  -1.14133  -1.13726  -1.13699
 Alpha  occ. eigenvalues --   -1.13683  -1.13659  -1.13586  -1.13552  -1.13500
 Alpha  occ. eigenvalues --   -1.13455  -1.13440  -1.11614  -1.11596  -1.11587
 Alpha  occ. eigenvalues --   -0.18401  -0.14222  -0.11423  -0.10562
 Alpha virt. eigenvalues --   -0.07198  -0.05862  -0.03884  -0.03581  -0.02767
 Alpha virt. eigenvalues --   -0.02597  -0.02169  -0.01396  -0.00779  -0.00273
 Alpha virt. eigenvalues --   -0.00140   0.00187   0.00320   0.00558   0.00689

  Beta  occ. eigenvalues --  -38.45657 -38.44732 -38.44614 -38.44255 -38.44003
  Beta  occ. eigenvalues --  -38.43864 -38.42080  -2.21556  -2.20562  -2.20408
  Beta  occ. eigenvalues --   -2.20059  -2.19937  -2.19665  -2.17930  -1.15351
  Beta  occ. eigenvalues --   -1.15178  -1.15150  -1.14276  -1.14221  -1.14198
  Beta  occ. eigenvalues --   -1.14143  -1.14082  -1.14046  -1.13733  -1.13700
  Beta  occ. eigenvalues --   -1.13688  -1.13659  -1.13579  -1.13497  -1.13393
  Beta  occ. eigenvalues --   -1.13339  -1.13323  -1.11612  -1.11586  -1.11570
  Beta  occ. eigenvalues --   -0.17641  -0.14119  -0.11228
  Beta virt. eigenvalues --   -0.07009  -0.06686  -0.05773  -0.03695  -0.03091
  Beta virt. eigenvalues --   -0.02629  -0.01876  -0.01434  -0.01129  -0.00797
  Beta virt. eigenvalues --   -0.00145  -0.00005   0.00216   0.00559   0.00640

 Mulliken charges and spin densities:
               1          2
     1  Na  -0.476266   0.281828
     2  Na   0.674819   0.161325
     3  Na  -0.125278  -0.016966
     4  Na   0.189711  -0.059358
     5  Na  -0.024420  -0.009868
     6  Na  -0.420781   0.513693
     7  Na   0.182214   0.129347
 Sum of Mulliken charges =  -0.00000   1.00000

 Dipole moment (field-independent basis, Debye):
    X=             -0.2835    Y=             -0.0894    Z=             -0.1187  Tot=              0.3201
 Quadrupole moment (field-independent basis, Debye-Ang):
   XX=            -52.4360   YY=            -69.3227   ZZ=            -75.4983
   XY=             -0.9148   XZ=              0.3907   YZ=             -2.3793

 Normal termination of Gaussian 16 at Tue Dec  5 13:40:14 2023.
