 Gaussian 16, Revision B.01,
 Gaussian 16:  ES64L-G16RevB.01 20-Dec-2017

 -------------------------
 #P B3LYP/6-311+g(d) force
 -------------------------

 -----
 DPGEN
 -----
 Symbolic Z-matrix:
 Charge =  0 Multiplicity = 2

                         Standard orientation:
 ---------------------------------------------------------------------
 Center     Atomic      Atomic             Coordinates (Angstroms)
 Number     Number       Type             X           Y           Z
 ---------------------------------------------------------------------
      1         11           0        1.688888    2.162379   -0.640423
      2         11           0       -0.010908    0.032554    2.404402
      3         11           0       -3.168842   -1.191390   -0.705078
      4         11           0       -1.946551    2.407410    0.419915
      5         11           0       -0.000884   -0.250134   -1.816908
      6         11           0        0.111288   -2.417813    0.446401
      7         11           0        3.327011   -0.743006   -0.108310
 ---------------------------------------------------------------------

 SCF Done:  E(UB3LYP) =  -1136.12994718     A.U. after   21 cycles

 The electronic state is 2-A.
 Alpha  occ. eigenvalues --  -38.44674 -38.44295 -38.44250 -38.44030 -38.43449
 Alpha  occ. eigenvalues --  -38.43263 -38.42952  -2.20532  -2.20084  -2.20052
 Alpha  occ. eigenvalues --   -2.19967  -2.19233  -2.19117  -2.18857  -1.14208
 Alpha  occ. eigenvalues --   -1.14150  -1.14137  -1.13766  -1.13728  -1.13727
 Alpha  occ. eigenvalues --   -1.13723  -1.13714  -1.13696  -1.13662  -1.13632
 Alpha  occ. eigenvalues --   -1.13563  -1.12914  -1.12887  -1.12876  -1.12828
 Alpha  occ. eigenvalues --   -1.12775  -1.12721  -1.12567  -1.12549  -1.12438
 Alpha  occ. eigenvalues --   -0.18294  -0.12861  -0.11891  -0.11667
 Alpha virt. eigenvalues --   -0.05929  -0.05050  -0.03975  -0.03433  -0.03294
 Alpha virt. eigenvalues --   -0.03138  -0.01885  -0.00990  -0.00274  -0.00029
 Alpha virt. eigenvalues --    0.00065   0.00303   0.00692   0.00766   0.00899

  Beta  occ. eigenvalues --  -38.44562 -38.44279 -38.44252 -38.43972 -38.43444
  Beta  occ. eigenvalues --  -38.43254 -38.42937  -2.20326  -2.20059  -2.20054
  Beta  occ. eigenvalues --   -2.19862  -2.19225  -2.19103  -2.18836  -1.14068
  Beta  occ. eigenvalues --   -1.14011  -1.13987  -1.13733  -1.13732  -1.13709
  Beta  occ. eigenvalues --   -1.13708  -1.13704  -1.13697  -1.13597  -1.13558
  Beta  occ. eigenvalues --   -1.13485  -1.12896  -1.12880  -1.12873  -1.12809
  Beta  occ. eigenvalues --   -1.12764  -1.12709  -1.12555  -1.12501  -1.12425
  Beta  occ. eigenvalues --   -0.17543  -0.12607  -0.11638
  Beta virt. eigenvalues --   -0.07713  -0.05828  -0.04983  -0.03847  -0.02749
  Beta virt. eigenvalues --   -0.02374  -0.02347  -0.01771  -0.00925  -0.00152
  Beta virt. eigenvalues --    0.00007   0.00054   0.00336   0.00801   0.00883

 Mulliken charges and spin densities:
               1          2
     1  Na   0.196110   0.015007
     2  Na  -0.378550   0.503323
     3  Na   0.196688   0.013608
     4  Na  -0.126454   0.027561
     5  Na  -0.258711   0.416684
     6  Na   0.296177   0.104698
     7  Na   0.074740  -0.080880
 Sum of Mulliken charges =  -0.00000   1.00000

 Dipole moment (field-independent basis, Debye):
    X=              0.0129    Y=             -0.1622    Z=              0.1487  Tot=              0.2205
 Quadrupole moment (field-independent basis, Debye-Ang):
   XX=            -54.6595   YY=            -70.7890   ZZ=            -69.4552
   XY=             -0.3607   XZ=              0.9262   YZ=              0.4775

 Normal termination of Gaussian 16 at Tue Dec  5 22:55:44 2023.
