 Gaussian 16, Revision B.01,
 Gaussian 16:  ES64L-G16RevB.01 20-Dec-2017

 -------------------------
 #P B3LYP/6-311+g(d) force
 -------------------------

 -----
 DPGEN
 -----
 Symbolic Z-matrix:
 Charge =  0 Multiplicity = 2

                         Standard orientation:
 ---------------------------------------------------------------------
 Center     Atomic      Atomic             Coordinates (Angstroms)
 Number     Number       Type             X           Y           Z
 ---------------------------------------------------------------------
      1         11           0        0.011518   -1.127587   -1.604865
      2         11           0       -3.023413   -1.652104   -0.994681
      3         11           0        0.350540    2.403900   -0.710450
      4         11           0       -2.721520    1.644990    0.915770
      5         11           0       -0.182291   -0.387321    2.135471
      6         11           0        2.422602   -1.879202    0.932538
      7         11           0        3.142565    0.997324   -0.673784
 ---------------------------------------------------------------------

 SCF Done:  E(UB3LYP) =  -1136.12573446     A.U. after   21 cycles

 The electronic state is 2-A.
 Alpha  occ. eigenvalues --  -38.44609 -38.44340 -38.44195 -38.44120 -38.44113
 Alpha  occ. eigenvalues --  -38.43664 -38.42831  -2.20469  -2.20152  -2.20043
 Alpha  occ. eigenvalues --   -2.19991  -2.19929  -2.19525  -2.18681  -1.14136
 Alpha  occ. eigenvalues --   -1.14104  -1.14100  -1.13873  -1.13795  -1.13771
 Alpha  occ. eigenvalues --   -1.13726  -1.13704  -1.13680  -1.13660  -1.13637
 Alpha  occ. eigenvalues --   -1.13607  -1.13600  -1.13576  -1.13560  -1.13204
 Alpha  occ. eigenvalues --   -1.13167  -1.13160  -1.12366  -1.12355  -1.12314
 Alpha  occ. eigenvalues --   -0.18106  -0.13529  -0.11806  -0.11734
 Alpha virt. eigenvalues --   -0.06164  -0.05335  -0.04470  -0.03423  -0.03085
 Alpha virt. eigenvalues --   -0.02731  -0.02022  -0.01258  -0.00484   0.00005
 Alpha virt. eigenvalues --    0.00127   0.00219   0.00494   0.00630   0.00638

  Beta  occ. eigenvalues --  -38.44525 -38.44304 -38.44186 -38.44098 -38.44063
  Beta  occ. eigenvalues --  -38.43644 -38.42829  -2.20315  -2.20088  -2.20027
  Beta  occ. eigenvalues --   -2.19901  -2.19890  -2.19491  -2.18680  -1.14033
  Beta  occ. eigenvalues --   -1.14003  -1.13978  -1.13814  -1.13753  -1.13728
  Beta  occ. eigenvalues --   -1.13715  -1.13683  -1.13674  -1.13604  -1.13574
  Beta  occ. eigenvalues --   -1.13564  -1.13554  -1.13537  -1.13527  -1.13166
  Beta  occ. eigenvalues --   -1.13148  -1.13133  -1.12365  -1.12356  -1.12298
  Beta  occ. eigenvalues --   -0.17449  -0.13218  -0.11351
  Beta virt. eigenvalues --   -0.07992  -0.06069  -0.05128  -0.03936  -0.03120
  Beta virt. eigenvalues --   -0.02443  -0.02033  -0.01874  -0.01055  -0.00297
  Beta virt. eigenvalues --    0.00028   0.00155   0.00273   0.00629   0.00731

 Mulliken charges and spin densities:
               1          2
     1  Na  -0.157848   0.417246
     2  Na  -0.173318   0.005485
     3  Na  -0.400086  -0.109370
     4  Na   0.544649   0.167468
     5  Na  -0.481111   0.396968
     6  Na   0.545321   0.076630
     7  Na   0.122392   0.045574
 Sum of Mulliken charges =  -0.00000   1.00000

 Dipole moment (field-independent basis, Debye):
    X=             -0.1998    Y=             -0.3240    Z=              0.2476  Tot=              0.4541
 Quadrupole moment (field-independent basis, Debye-Ang):
   XX=            -52.3069   YY=            -74.0665   ZZ=            -70.1190
   XY=             -1.6272   XZ=             -1.0094   YZ=              0.5564

 Normal termination of Gaussian 16 at Sun Dec  3 20:02:20 2023.
