 Gaussian 16, Revision B.01,
 Gaussian 16:  ES64L-G16RevB.01 20-Dec-2017

 -------------------------
 #P B3LYP/6-311+g(d) force
 -------------------------

 -----
 DPGEN
 -----
 Symbolic Z-matrix:
 Charge =  0 Multiplicity = 2

                         Standard orientation:
 ---------------------------------------------------------------------
 Center     Atomic      Atomic             Coordinates (Angstroms)
 Number     Number       Type             X           Y           Z
 ---------------------------------------------------------------------
      1         11           0       -2.878013    1.289610    0.044108
      2         11           0       -2.551329   -2.125302   -0.008389
      3         11           0        2.917892    0.791043    0.106304
      4         11           0        2.079100   -2.535583   -0.061740
      5         11           0       -0.027839   -0.645423   -1.597345
      6         11           0        0.404748    3.022903   -0.586457
      7         11           0        0.055440    0.202751    2.103518
 ---------------------------------------------------------------------

 SCF Done:  E(UB3LYP) =  -1136.13518946     A.U. after   20 cycles

 The electronic state is 2-A.
 Alpha  occ. eigenvalues --  -38.44231 -38.44176 -38.43987 -38.43862 -38.43737
 Alpha  occ. eigenvalues --  -38.43303 -38.43207  -2.20036  -2.19983  -2.19835
 Alpha  occ. eigenvalues --   -2.19684  -2.19589  -2.19226  -2.19021  -1.13713
 Alpha  occ. eigenvalues --   -1.13709  -1.13686  -1.13661  -1.13637  -1.13607
 Alpha  occ. eigenvalues --   -1.13515  -1.13507  -1.13479  -1.13377  -1.13334
 Alpha  occ. eigenvalues --   -1.13320  -1.13253  -1.13212  -1.13209  -1.12910
 Alpha  occ. eigenvalues --   -1.12860  -1.12854  -1.12690  -1.12676  -1.12668
 Alpha  occ. eigenvalues --   -0.18161  -0.13181  -0.12205  -0.10532
 Alpha virt. eigenvalues --   -0.05817  -0.05590  -0.04704  -0.03277  -0.02846
 Alpha virt. eigenvalues --   -0.02419  -0.01606  -0.01323  -0.00689  -0.00478
 Alpha virt. eigenvalues --   -0.00018   0.00354   0.00725   0.00776   0.00865

  Beta  occ. eigenvalues --  -38.44228 -38.44175 -38.43982 -38.43860 -38.43641
  Beta  occ. eigenvalues --  -38.43249 -38.43192  -2.20034  -2.19984  -2.19829
  Beta  occ. eigenvalues --   -2.19684  -2.19410  -2.19128  -2.18997  -1.13711
  Beta  occ. eigenvalues --   -1.13693  -1.13686  -1.13654  -1.13631  -1.13608
  Beta  occ. eigenvalues --   -1.13510  -1.13482  -1.13475  -1.13370  -1.13329
  Beta  occ. eigenvalues --   -1.13316  -1.13133  -1.13089  -1.13080  -1.12840
  Beta  occ. eigenvalues --   -1.12787  -1.12785  -1.12668  -1.12657  -1.12647
  Beta  occ. eigenvalues --   -0.17461  -0.12993  -0.11979
  Beta virt. eigenvalues --   -0.06679  -0.05828  -0.05472  -0.04617  -0.02505
  Beta virt. eigenvalues --   -0.02149  -0.01515  -0.01434  -0.01231  -0.00732
  Beta virt. eigenvalues --   -0.00495   0.00142   0.00392   0.00767   0.00821

 Mulliken charges and spin densities:
               1          2
     1  Na   0.043608   0.017629
     2  Na   0.062590  -0.098227
     3  Na   0.197300   0.085564
     4  Na   0.101761  -0.087814
     5  Na   0.054077   0.396093
     6  Na  -0.147511   0.039950
     7  Na  -0.311824   0.646806
 Sum of Mulliken charges =   0.00000   1.00000

 Dipole moment (field-independent basis, Debye):
    X=             -0.2441    Y=             -0.3650    Z=              0.1599  Tot=              0.4673
 Quadrupole moment (field-independent basis, Debye-Ang):
   XX=            -55.9498   YY=            -62.0973   ZZ=            -75.5880
   XY=             -0.3946   XZ=             -0.0664   YZ=             -1.7552

 Normal termination of Gaussian 16 at Thu Dec  7 03:55:02 2023.
