 Gaussian 16, Revision B.01,
 Gaussian 16:  ES64L-G16RevB.01 20-Dec-2017

 -------------------------
 #P B3LYP/6-311+g(d) force
 -------------------------

 -----
 DPGEN
 -----
 Symbolic Z-matrix:
 Charge =  0 Multiplicity = 2

                         Standard orientation:
 ---------------------------------------------------------------------
 Center     Atomic      Atomic             Coordinates (Angstroms)
 Number     Number       Type             X           Y           Z
 ---------------------------------------------------------------------
      1         11           0       -1.305105   -2.580973   -0.030130
      2         11           0        2.355988   -1.683775   -0.381117
      3         11           0        2.542926    1.548113    0.310441
      4         11           0        0.353946   -0.310749    1.874782
      5         11           0       -0.649116    2.754375   -0.465433
      6         11           0       -0.310080   -0.233126   -1.794746
      7         11           0       -2.988559    0.506135    0.486204
 ---------------------------------------------------------------------

 SCF Done:  E(UB3LYP) =  -1136.13848228     A.U. after   18 cycles

 The electronic state is 2-A.
 Alpha  occ. eigenvalues --  -38.43912 -38.43695 -38.43556 -38.43525 -38.43401
 Alpha  occ. eigenvalues --  -38.43335 -38.43137  -2.19754  -2.19579  -2.19473
 Alpha  occ. eigenvalues --   -2.19424  -2.19320  -2.19286  -2.18998  -1.13426
 Alpha  occ. eigenvalues --   -1.13415  -1.13396  -1.13290  -1.13261  -1.13216
 Alpha  occ. eigenvalues --   -1.13168  -1.13137  -1.13091  -1.13082  -1.13072
 Alpha  occ. eigenvalues --   -1.13060  -1.13047  -1.12983  -1.12942  -1.12938
 Alpha  occ. eigenvalues --   -1.12895  -1.12889  -1.12679  -1.12650  -1.12630
 Alpha  occ. eigenvalues --   -0.18970  -0.13113  -0.12517  -0.11027
 Alpha virt. eigenvalues --   -0.05398  -0.05091  -0.04547  -0.03383  -0.03003
 Alpha virt. eigenvalues --   -0.02650  -0.01354  -0.01030  -0.00203  -0.00095
 Alpha virt. eigenvalues --    0.00049   0.00378   0.00860   0.00899   0.00933

  Beta  occ. eigenvalues --  -38.43903 -38.43685 -38.43551 -38.43448 -38.43395
  Beta  occ. eigenvalues --  -38.43257 -38.43128  -2.19739  -2.19565  -2.19418
  Beta  occ. eigenvalues --   -2.19331  -2.19279  -2.19177  -2.18986  -1.13414
  Beta  occ. eigenvalues --   -1.13399  -1.13381  -1.13278  -1.13225  -1.13202
  Beta  occ. eigenvalues --   -1.13123  -1.13063  -1.13058  -1.13051  -1.13025
  Beta  occ. eigenvalues --   -1.13001  -1.12975  -1.12917  -1.12892  -1.12885
  Beta  occ. eigenvalues --   -1.12832  -1.12821  -1.12658  -1.12632  -1.12623
  Beta  occ. eigenvalues --   -0.18232  -0.12865  -0.12252
  Beta virt. eigenvalues --   -0.07109  -0.05351  -0.05060  -0.04507  -0.02594
  Beta virt. eigenvalues --   -0.02231  -0.01601  -0.01255  -0.00971  -0.00173
  Beta virt. eigenvalues --   -0.00145   0.00136   0.00405   0.00891   0.00927

 Mulliken charges and spin densities:
               1          2
     1  Na   0.183786  -0.081288
     2  Na   0.220827  -0.064948
     3  Na   0.037069  -0.009289
     4  Na  -0.298075   0.588046
     5  Na   0.048850  -0.040338
     6  Na  -0.153305   0.574800
     7  Na  -0.039152   0.033017
 Sum of Mulliken charges =  -0.00000   1.00000

 Dipole moment (field-independent basis, Debye):
    X=             -0.0357    Y=             -0.1773    Z=              0.1354  Tot=              0.2259
 Quadrupole moment (field-independent basis, Debye-Ang):
   XX=            -58.0878   YY=            -63.4918   ZZ=            -72.6652
   XY=              0.1423   XZ=             -1.7023   YZ=              0.3251

 Normal termination of Gaussian 16 at Fri Dec  8 05:55:53 2023.
