 Gaussian 16, Revision B.01,
 Gaussian 16:  ES64L-G16RevB.01 20-Dec-2017

 -------------------------
 #P B3LYP/6-311+g(d) force
 -------------------------

 -----
 DPGEN
 -----
 Symbolic Z-matrix:
 Charge =  0 Multiplicity = 2

                         Standard orientation:
 ---------------------------------------------------------------------
 Center     Atomic      Atomic             Coordinates (Angstroms)
 Number     Number       Type             X           Y           Z
 ---------------------------------------------------------------------
      1         11           0       -0.836988    3.131383   -0.298526
      2         11           0       -3.641216   -1.556781    1.173352
      3         11           0       -3.718981    1.836283   -0.764315
      4         11           0       -1.084128   -3.103282   -0.223436
      5         11           0        2.923207    2.914583    0.517918
      6         11           0        3.941560   -0.207386    0.263971
      7         11           0        2.416547   -3.014800   -0.668964
 ---------------------------------------------------------------------

 SCF Done:  E(UB3LYP) =  -1136.11117779     A.U. after   22 cycles

 The electronic state is 2-A.
 Alpha  occ. eigenvalues --  -38.44917 -38.44787 -38.44724 -38.44653 -38.44625
 Alpha  occ. eigenvalues --  -38.43966 -38.43772  -2.20708  -2.20562  -2.20498
 Alpha  occ. eigenvalues --   -2.20451  -2.20423  -2.19770  -2.19588  -1.14386
 Alpha  occ. eigenvalues --   -1.14376  -1.14370  -1.14254  -1.14237  -1.14217
 Alpha  occ. eigenvalues --   -1.14197  -1.14178  -1.14163  -1.14104  -1.14082
 Alpha  occ. eigenvalues --   -1.14078  -1.14064  -1.14058  -1.14042  -1.13421
 Alpha  occ. eigenvalues --   -1.13419  -1.13402  -1.13237  -1.13236  -1.13224
 Alpha  occ. eigenvalues --   -0.15655  -0.14070  -0.13496  -0.11001
 Alpha virt. eigenvalues --   -0.07500  -0.04876  -0.04249  -0.03601  -0.03547
 Alpha virt. eigenvalues --   -0.02310  -0.02193  -0.01857  -0.01380  -0.00975
 Alpha virt. eigenvalues --   -0.00613  -0.00152   0.00082   0.00472   0.00698

  Beta  occ. eigenvalues --  -38.44908 -38.44766 -38.44718 -38.44595 -38.44588
  Beta  occ. eigenvalues --  -38.43912 -38.43717  -2.20699  -2.20530  -2.20493
  Beta  occ. eigenvalues --   -2.20361  -2.20345  -2.19670  -2.19486  -1.14386
  Beta  occ. eigenvalues --   -1.14376  -1.14317  -1.14224  -1.14219  -1.14184
  Beta  occ. eigenvalues --   -1.14179  -1.14174  -1.14123  -1.14041  -1.14034
  Beta  occ. eigenvalues --   -1.14023  -1.14010  -1.13993  -1.13981  -1.13353
  Beta  occ. eigenvalues --   -1.13352  -1.13336  -1.13168  -1.13166  -1.13158
  Beta  occ. eigenvalues --   -0.15109  -0.13253  -0.12710
  Beta virt. eigenvalues --   -0.07913  -0.07681  -0.04409  -0.03807  -0.03364
  Beta virt. eigenvalues --   -0.03228  -0.02053  -0.02021  -0.01621  -0.01164
  Beta virt. eigenvalues --   -0.00679  -0.00345   0.00050   0.00258   0.00465

 Mulliken charges and spin densities:
               1          2
     1  Na  -0.321609   0.137209
     2  Na   0.167412   0.150833
     3  Na  -0.074936  -0.022293
     4  Na  -0.475740   0.082008
     5  Na   0.499460   0.298518
     6  Na  -0.374808   0.078452
     7  Na   0.580221   0.275272
 Sum of Mulliken charges =  -0.00000   1.00000

 Dipole moment (field-independent basis, Debye):
    X=             -0.7501    Y=              0.1285    Z=              0.0813  Tot=              0.7654
 Quadrupole moment (field-independent basis, Debye-Ang):
   XX=            -58.5463   YY=            -69.9480   ZZ=            -71.5465
   XY=             -0.4046   XZ=             -0.1148   YZ=              1.1804

 Normal termination of Gaussian 16 at Mon Dec  4 05:43:47 2023.
