 Gaussian 16, Revision B.01,
 Gaussian 16:  ES64L-G16RevB.01 20-Dec-2017

 -------------------------
 #P B3LYP/6-311+g(d) force
 -------------------------

 -----
 DPGEN
 -----
 Symbolic Z-matrix:
 Charge =  0 Multiplicity = 2

                         Standard orientation:
 ---------------------------------------------------------------------
 Center     Atomic      Atomic             Coordinates (Angstroms)
 Number     Number       Type             X           Y           Z
 ---------------------------------------------------------------------
      1         11           0       -1.694763   -2.807657   -0.016520
      2         11           0        2.093314    1.713762    0.356197
      3         11           0       -0.848704    2.887214   -0.487647
      4         11           0        3.349360   -1.348075   -0.117333
      5         11           0       -2.853079    0.485506    0.202455
      6         11           0        0.035100   -0.606822   -1.820512
      7         11           0       -0.081230   -0.323927    1.883359
 ---------------------------------------------------------------------

 SCF Done:  E(UB3LYP) =  -1136.13384086     A.U. after   20 cycles

 The electronic state is 2-A.
 Alpha  occ. eigenvalues --  -38.44439 -38.44120 -38.43725 -38.43654 -38.43608
 Alpha  occ. eigenvalues --  -38.43596 -38.42975  -2.20219  -2.20000  -2.19564
 Alpha  occ. eigenvalues --   -2.19560  -2.19491  -2.19482  -2.18838  -1.13889
 Alpha  occ. eigenvalues --   -1.13883  -1.13861  -1.13694  -1.13671  -1.13629
 Alpha  occ. eigenvalues --   -1.13262  -1.13253  -1.13237  -1.13208  -1.13194
 Alpha  occ. eigenvalues --   -1.13181  -1.13165  -1.13149  -1.13141  -1.13117
 Alpha  occ. eigenvalues --   -1.13108  -1.13094  -1.12515  -1.12492  -1.12478
 Alpha  occ. eigenvalues --   -0.18492  -0.13215  -0.12282  -0.10732
 Alpha virt. eigenvalues --   -0.06095  -0.05251  -0.04415  -0.03359  -0.02875
 Alpha virt. eigenvalues --   -0.02529  -0.01786  -0.01241  -0.00460  -0.00182
 Alpha virt. eigenvalues --    0.00026   0.00341   0.00757   0.00782   0.00845

  Beta  occ. eigenvalues --  -38.44442 -38.44111 -38.43722 -38.43599 -38.43570
  Beta  occ. eigenvalues --  -38.43521 -38.42968  -2.20227  -2.19987  -2.19559
  Beta  occ. eigenvalues --   -2.19477  -2.19410  -2.19345  -2.18827  -1.13897
  Beta  occ. eigenvalues --   -1.13875  -1.13867  -1.13684  -1.13631  -1.13627
  Beta  occ. eigenvalues --   -1.13242  -1.13214  -1.13198  -1.13194  -1.13131
  Beta  occ. eigenvalues --   -1.13123  -1.13115  -1.13078  -1.13061  -1.13057
  Beta  occ. eigenvalues --   -1.13013  -1.12999  -1.12510  -1.12485  -1.12454
  Beta  occ. eigenvalues --   -0.17751  -0.13008  -0.12067
  Beta virt. eigenvalues --   -0.06847  -0.06061  -0.05152  -0.04372  -0.02575
  Beta virt. eigenvalues --   -0.02160  -0.01758  -0.01493  -0.01137  -0.00515
  Beta virt. eigenvalues --   -0.00141   0.00136   0.00367   0.00772   0.00883

 Mulliken charges and spin densities:
               1          2
     1  Na  -0.002490  -0.072928
     2  Na   0.103935   0.128284
     3  Na  -0.173218  -0.018580
     4  Na  -0.026249  -0.087308
     5  Na   0.208623   0.124698
     6  Na  -0.149883   0.562367
     7  Na   0.039283   0.363467
 Sum of Mulliken charges =  -0.00000   1.00000

 Dipole moment (field-independent basis, Debye):
    X=              0.1897    Y=             -0.6680    Z=              0.0223  Tot=              0.6947
 Quadrupole moment (field-independent basis, Debye-Ang):
   XX=            -56.6625   YY=            -62.6629   ZZ=            -74.4524
   XY=             -0.7565   XZ=             -0.0946   YZ=             -0.5287

 Normal termination of Gaussian 16 at Fri Dec  8 05:28:02 2023.
