 Gaussian 16, Revision B.01,
 Gaussian 16:  ES64L-G16RevB.01 20-Dec-2017

 -------------------------
 #P B3LYP/6-311+g(d) force
 -------------------------

 -----
 DPGEN
 -----
 Symbolic Z-matrix:
 Charge =  0 Multiplicity = 2

                         Standard orientation:
 ---------------------------------------------------------------------
 Center     Atomic      Atomic             Coordinates (Angstroms)
 Number     Number       Type             X           Y           Z
 ---------------------------------------------------------------------
      1         11           0       -0.137314    0.140984   -1.758473
      2         11           0       -3.266662    0.817900   -0.118236
      3         11           0        0.288648   -0.179203    2.030555
      4         11           0        2.086229   -2.358663   -0.361192
      5         11           0       -0.343587    3.142468    0.099610
      6         11           0        3.254052    1.129765   -0.043496
      7         11           0       -1.881367   -2.693252    0.151233
 ---------------------------------------------------------------------

 SCF Done:  E(UB3LYP) =  -1136.13393330     A.U. after   19 cycles

 The electronic state is 2-A.
 Alpha  occ. eigenvalues --  -38.44489 -38.44369 -38.43974 -38.43851 -38.43721
 Alpha  occ. eigenvalues --  -38.43620 -38.43538  -2.20253  -2.20147  -2.19771
 Alpha  occ. eigenvalues --   -2.19624  -2.19508  -2.19461  -2.19411  -1.13930
 Alpha  occ. eigenvalues --   -1.13903  -1.13901  -1.13828  -1.13805  -1.13783
 Alpha  occ. eigenvalues --   -1.13450  -1.13437  -1.13400  -1.13301  -1.13284
 Alpha  occ. eigenvalues --   -1.13268  -1.13192  -1.13180  -1.13140  -1.13133
 Alpha  occ. eigenvalues --   -1.13095  -1.13091  -1.13075  -1.13040  -1.13032
 Alpha  occ. eigenvalues --   -0.17736  -0.12771  -0.12156  -0.10351
 Alpha virt. eigenvalues --   -0.05954  -0.05566  -0.05047  -0.03064  -0.02798
 Alpha virt. eigenvalues --   -0.02436  -0.01766  -0.01380  -0.00838  -0.00804
 Alpha virt. eigenvalues --   -0.00048   0.00335   0.00700   0.00776   0.00785

  Beta  occ. eigenvalues --  -38.44489 -38.44368 -38.43965 -38.43849 -38.43719
  Beta  occ. eigenvalues --  -38.43529 -38.43473  -2.20255  -2.20147  -2.19756
  Beta  occ. eigenvalues --   -2.19623  -2.19506  -2.19296  -2.19291  -1.13917
  Beta  occ. eigenvalues --   -1.13906  -1.13901  -1.13814  -1.13805  -1.13786
  Beta  occ. eigenvalues --   -1.13432  -1.13416  -1.13392  -1.13285  -1.13282
  Beta  occ. eigenvalues --   -1.13270  -1.13184  -1.13167  -1.13139  -1.13029
  Beta  occ. eigenvalues --   -1.13005  -1.12974  -1.12959  -1.12953  -1.12944
  Beta  occ. eigenvalues --   -0.17028  -0.12586  -0.11965
  Beta virt. eigenvalues --   -0.06514  -0.05923  -0.05569  -0.04910  -0.02356
  Beta virt. eigenvalues --   -0.02084  -0.01669  -0.01422  -0.01291  -0.00877
  Beta virt. eigenvalues --   -0.00857   0.00106   0.00367   0.00764   0.00774

 Mulliken charges and spin densities:
               1          2
     1  Na   0.085326   0.619851
     2  Na   0.066617  -0.088688
     3  Na  -0.243150   0.854231
     4  Na   0.076197  -0.053738
     5  Na  -0.042201  -0.138584
     6  Na   0.060565  -0.097974
     7  Na  -0.003353  -0.095099
 Sum of Mulliken charges =  -0.00000   1.00000

 Dipole moment (field-independent basis, Debye):
    X=              0.0781    Y=              0.0874    Z=             -0.0200  Tot=              0.1189
 Quadrupole moment (field-independent basis, Debye-Ang):
   XX=            -54.6268   YY=            -61.2202   ZZ=            -76.6310
   XY=              0.5050   XZ=             -0.8278   YZ=              0.7410

 Normal termination of Gaussian 16 at Fri Dec  8 02:02:55 2023.
