 Gaussian 16, Revision B.01,
 Gaussian 16:  ES64L-G16RevB.01 20-Dec-2017

 -------------------------
 #P B3LYP/6-311+g(d) force
 -------------------------

 -----
 DPGEN
 -----
 Symbolic Z-matrix:
 Charge =  0 Multiplicity = 2

                         Standard orientation:
 ---------------------------------------------------------------------
 Center     Atomic      Atomic             Coordinates (Angstroms)
 Number     Number       Type             X           Y           Z
 ---------------------------------------------------------------------
      1         11           0        0.013831   -0.276029    1.811022
      2         11           0       -1.059044   -2.082567   -0.139556
      3         11           0        2.182992   -1.638996   -0.026058
      4         11           0        0.191929    0.022751   -1.731811
      5         11           0        2.134870    1.638610    0.076794
      6         11           0       -0.750712    2.146461    0.040013
      7         11           0       -2.713866    0.189770   -0.030405
 ---------------------------------------------------------------------

 SCF Done:  E(UB3LYP) =  -1136.10834324     A.U. after   18 cycles

 The electronic state is 2-A.
 Alpha  occ. eigenvalues --  -38.43924 -38.43657 -38.43609 -38.43433 -38.43405
 Alpha  occ. eigenvalues --  -38.43356 -38.43227  -2.19974  -2.19786  -2.19785
 Alpha  occ. eigenvalues --   -2.19452  -2.19426  -2.19375  -2.19336  -1.13797
 Alpha  occ. eigenvalues --   -1.13783  -1.13590  -1.13572  -1.13536  -1.13503
 Alpha  occ. eigenvalues --   -1.13443  -1.13419  -1.13390  -1.13200  -1.13087
 Alpha  occ. eigenvalues --   -1.13076  -1.13065  -1.13056  -1.13044  -1.13030
 Alpha  occ. eigenvalues --   -1.12998  -1.12960  -1.12953  -1.12934  -1.12870
 Alpha  occ. eigenvalues --   -0.20901  -0.13695  -0.12885  -0.11753
 Alpha virt. eigenvalues --   -0.05168  -0.04728  -0.04096  -0.03506  -0.03100
 Alpha virt. eigenvalues --   -0.02702  -0.01193  -0.00697  -0.00041   0.00372
 Alpha virt. eigenvalues --    0.00512   0.00626   0.00934   0.01074   0.01088

  Beta  occ. eigenvalues --  -38.43915 -38.43566 -38.43521 -38.43426 -38.43397
  Beta  occ. eigenvalues --  -38.43340 -38.43212  -2.19964  -2.19627  -2.19622
  Beta  occ. eigenvalues --   -2.19430  -2.19417  -2.19366  -2.19317  -1.13791
  Beta  occ. eigenvalues --   -1.13774  -1.13528  -1.13501  -1.13446  -1.13399
  Beta  occ. eigenvalues --   -1.13336  -1.13318  -1.13277  -1.13186  -1.13077
  Beta  occ. eigenvalues --   -1.13048  -1.13040  -1.13019  -1.12995  -1.12984
  Beta  occ. eigenvalues --   -1.12971  -1.12953  -1.12943  -1.12867  -1.12862
  Beta  occ. eigenvalues --   -0.20087  -0.13360  -0.12547
  Beta virt. eigenvalues --   -0.07630  -0.05186  -0.04721  -0.04095  -0.02580
  Beta virt. eigenvalues --   -0.02202  -0.01603  -0.01118  -0.00652   0.00097
  Beta virt. eigenvalues --    0.00397   0.00467   0.00585   0.00980   0.01072

 Mulliken charges and spin densities:
               1          2
     1  Na  -0.414892   0.498863
     2  Na   0.308093   0.068099
     3  Na   0.106736  -0.047833
     4  Na  -0.355123   0.404448
     5  Na   0.061702  -0.029091
     6  Na   0.275124   0.122929
     7  Na   0.018360  -0.017415
 Sum of Mulliken charges =  -0.00000   1.00000

 Dipole moment (field-independent basis, Debye):
    X=              0.3218    Y=             -0.1241    Z=              0.1112  Tot=              0.3623
 Quadrupole moment (field-independent basis, Debye-Ang):
   XX=            -58.4241   YY=            -67.5018   ZZ=            -70.3469
   XY=             -0.2162   XZ=              0.3577   YZ=              0.5630

 Normal termination of Gaussian 16 at Sat Dec  9 05:37:22 2023.
