 Gaussian 16, Revision B.01,
 Gaussian 16:  ES64L-G16RevB.01 20-Dec-2017

 -------------------------
 #P B3LYP/6-311+g(d) force
 -------------------------

 -----
 DPGEN
 -----
 Symbolic Z-matrix:
 Charge =  0 Multiplicity = 2

                         Standard orientation:
 ---------------------------------------------------------------------
 Center     Atomic      Atomic             Coordinates (Angstroms)
 Number     Number       Type             X           Y           Z
 ---------------------------------------------------------------------
      1         11           0       -0.334719   -2.907062   -0.484703
      2         11           0       -1.876166    2.331880    0.150852
      3         11           0        0.490710   -0.293416    2.029947
      4         11           0        1.714413    2.716056   -0.275756
      5         11           0        0.053005    0.162179   -1.596584
      6         11           0       -3.065340   -0.813055    0.139702
      7         11           0        3.018096   -1.196582    0.036542
 ---------------------------------------------------------------------

 SCF Done:  E(UB3LYP) =  -1136.13778374     A.U. after   19 cycles

 The electronic state is 2-A.
 Alpha  occ. eigenvalues --  -38.44168 -38.43869 -38.43653 -38.43644 -38.43623
 Alpha  occ. eigenvalues --  -38.43600 -38.43095  -2.19976  -2.19678  -2.19495
 Alpha  occ. eigenvalues --   -2.19482  -2.19479  -2.19447  -2.19061  -1.13662
 Alpha  occ. eigenvalues --   -1.13635  -1.13612  -1.13366  -1.13335  -1.13310
 Alpha  occ. eigenvalues --   -1.13197  -1.13169  -1.13158  -1.13152  -1.13145
 Alpha  occ. eigenvalues --   -1.13138  -1.13133  -1.13121  -1.13115  -1.13095
 Alpha  occ. eigenvalues --   -1.13087  -1.13057  -1.12745  -1.12694  -1.12685
 Alpha  occ. eigenvalues --   -0.18363  -0.12809  -0.12605  -0.10560
 Alpha virt. eigenvalues --   -0.05721  -0.05238  -0.04870  -0.03104  -0.02900
 Alpha virt. eigenvalues --   -0.02432  -0.01506  -0.01358  -0.00507  -0.00461
 Alpha virt. eigenvalues --   -0.00010   0.00345   0.00795   0.00819   0.00887

  Beta  occ. eigenvalues --  -38.44164 -38.43862 -38.43651 -38.43640 -38.43584
  Beta  occ. eigenvalues --  -38.43534 -38.43033  -2.19973  -2.19668  -2.19479
  Beta  occ. eigenvalues --   -2.19478  -2.19422  -2.19330  -2.18949  -1.13647
  Beta  occ. eigenvalues --   -1.13621  -1.13614  -1.13350  -1.13323  -1.13305
  Beta  occ. eigenvalues --   -1.13197  -1.13154  -1.13140  -1.13134  -1.13125
  Beta  occ. eigenvalues --   -1.13113  -1.13084  -1.13074  -1.13049  -1.13043
  Beta  occ. eigenvalues --   -1.13004  -1.12995  -1.12666  -1.12612  -1.12603
  Beta  occ. eigenvalues --   -0.17670  -0.12575  -0.12357
  Beta virt. eigenvalues --   -0.06719  -0.05664  -0.05190  -0.04815  -0.02342
  Beta virt. eigenvalues --   -0.02187  -0.01459  -0.01371  -0.01270  -0.00531
  Beta virt. eigenvalues --   -0.00507   0.00135   0.00382   0.00807   0.00849

 Mulliken charges and spin densities:
               1          2
     1  Na   0.230810   0.014620
     2  Na   0.041840  -0.007143
     3  Na  -0.450035   0.763328
     4  Na   0.124506  -0.082441
     5  Na  -0.119268   0.413824
     6  Na  -0.012940  -0.006957
     7  Na   0.185087  -0.095232
 Sum of Mulliken charges =  -0.00000   1.00000

 Dipole moment (field-independent basis, Debye):
    X=              0.3543    Y=              0.0053    Z=              0.1175  Tot=              0.3734
 Quadrupole moment (field-independent basis, Debye-Ang):
   XX=            -57.1352   YY=            -60.5566   ZZ=            -75.3332
   XY=              0.1835   XZ=             -1.2988   YZ=              1.0678

 Normal termination of Gaussian 16 at Fri Dec  8 06:05:27 2023.
