 Gaussian 16, Revision B.01,
 Gaussian 16:  ES64L-G16RevB.01 20-Dec-2017

 -------------------------
 #P B3LYP/6-311+g(d) force
 -------------------------

 -----
 DPGEN
 -----
 Symbolic Z-matrix:
 Charge =  0 Multiplicity = 2

                         Standard orientation:
 ---------------------------------------------------------------------
 Center     Atomic      Atomic             Coordinates (Angstroms)
 Number     Number       Type             X           Y           Z
 ---------------------------------------------------------------------
      1         11           0        2.911832   -1.945282   -0.613219
      2         11           0       -3.741136    1.111929   -0.376423
      3         11           0       -2.945043   -1.989882   -0.559385
      4         11           0        1.440082    0.708300    1.454125
      5         11           0       -0.879408    3.504593    0.193451
      6         11           0        3.456542    1.537644   -0.869853
      7         11           0       -0.242869   -2.927302    0.771304
 ---------------------------------------------------------------------

 SCF Done:  E(UB3LYP) =  -1136.11560651     A.U. after   22 cycles

 The electronic state is 2-A.
 Alpha  occ. eigenvalues --  -38.45280 -38.44822 -38.44423 -38.44177 -38.44066
 Alpha  occ. eigenvalues --  -38.43938 -38.43387  -2.21073  -2.20638  -2.20258
 Alpha  occ. eigenvalues --   -2.19969  -2.19821  -2.19773  -2.19218  -1.14761
 Alpha  occ. eigenvalues --   -1.14733  -1.14702  -1.14346  -1.14315  -1.14249
 Alpha  occ. eigenvalues --   -1.13917  -1.13901  -1.13873  -1.13665  -1.13638
 Alpha  occ. eigenvalues --   -1.13598  -1.13493  -1.13471  -1.13455  -1.13448
 Alpha  occ. eigenvalues --   -1.13427  -1.13413  -1.12881  -1.12876  -1.12853
 Alpha  occ. eigenvalues --   -0.16686  -0.13953  -0.12652  -0.10303
 Alpha virt. eigenvalues --   -0.06960  -0.05953  -0.03983  -0.03681  -0.03136
 Alpha virt. eigenvalues --   -0.02133  -0.01743  -0.01622  -0.01260  -0.01171
 Alpha virt. eigenvalues --   -0.00068   0.00052   0.00312   0.00580   0.00599

  Beta  occ. eigenvalues --  -38.45260 -38.44804 -38.44368 -38.44146 -38.44039
  Beta  occ. eigenvalues --  -38.43918 -38.43362  -2.21043  -2.20606  -2.20156
  Beta  occ. eigenvalues --   -2.19916  -2.19771  -2.19739  -2.19171  -1.14745
  Beta  occ. eigenvalues --   -1.14717  -1.14641  -1.14317  -1.14290  -1.14218
  Beta  occ. eigenvalues --   -1.13851  -1.13836  -1.13787  -1.13623  -1.13605
  Beta  occ. eigenvalues --   -1.13551  -1.13459  -1.13439  -1.13423  -1.13419
  Beta  occ. eigenvalues --   -1.13407  -1.13373  -1.12853  -1.12843  -1.12818
  Beta  occ. eigenvalues --   -0.16163  -0.13285  -0.12309
  Beta virt. eigenvalues --   -0.07047  -0.06964  -0.05564  -0.03751  -0.03164
  Beta virt. eigenvalues --   -0.02656  -0.01895  -0.01527  -0.01504  -0.01099
  Beta virt. eigenvalues --   -0.00868   0.00065   0.00302   0.00522   0.00598

 Mulliken charges and spin densities:
               1          2
     1  Na   0.152317   0.140998
     2  Na  -0.101984   0.128119
     3  Na   0.090797   0.153456
     4  Na   0.209112   0.044225
     5  Na  -0.017397   0.094530
     6  Na  -0.059023   0.355895
     7  Na  -0.273821   0.082777
 Sum of Mulliken charges =  -0.00000   1.00000

 Dipole moment (field-independent basis, Debye):
    X=              1.2480    Y=              0.0592    Z=             -0.3417  Tot=              1.2953
 Quadrupole moment (field-independent basis, Debye-Ang):
   XX=            -67.5456   YY=            -62.9458   ZZ=            -70.0982
   XY=             -2.5710   XZ=             -0.9016   YZ=             -0.4652

 Normal termination of Gaussian 16 at Mon Dec  4 04:46:15 2023.
