 Gaussian 16, Revision B.01,
 Gaussian 16:  ES64L-G16RevB.01 20-Dec-2017

 -------------------------
 #P B3LYP/6-311+g(d) force
 -------------------------

 -----
 DPGEN
 -----
 Symbolic Z-matrix:
 Charge =  0 Multiplicity = 2

                         Standard orientation:
 ---------------------------------------------------------------------
 Center     Atomic      Atomic             Coordinates (Angstroms)
 Number     Number       Type             X           Y           Z
 ---------------------------------------------------------------------
      1         11           0        3.263342   -2.005854   -0.813445
      2         11           0        1.558994   -0.564172    1.853524
      3         11           0       -0.222638   -0.221182   -1.664628
      4         11           0       -2.182133   -1.968728    0.856259
      5         11           0        2.124323    2.566506   -0.300270
      6         11           0       -0.899877    2.048210    0.784185
      7         11           0       -3.642011    0.145220   -0.715626
 ---------------------------------------------------------------------

 SCF Done:  E(UB3LYP) =  -1136.12463261     A.U. after   21 cycles

 The electronic state is 2-A.
 Alpha  occ. eigenvalues --  -38.44650 -38.44459 -38.44239 -38.44115 -38.43722
 Alpha  occ. eigenvalues --  -38.43648 -38.43158  -2.20511  -2.20300  -2.20097
 Alpha  occ. eigenvalues --   -2.19913  -2.19488  -2.19476  -2.19033  -1.14251
 Alpha  occ. eigenvalues --   -1.14161  -1.14148  -1.13956  -1.13940  -1.13913
 Alpha  occ. eigenvalues --   -1.13798  -1.13745  -1.13704  -1.13581  -1.13573
 Alpha  occ. eigenvalues --   -1.13558  -1.13166  -1.13157  -1.13151  -1.13138
 Alpha  occ. eigenvalues --   -1.13116  -1.13084  -1.12729  -1.12695  -1.12654
 Alpha  occ. eigenvalues --   -0.17985  -0.13646  -0.11506  -0.10595
 Alpha virt. eigenvalues --   -0.06281  -0.05892  -0.04657  -0.03217  -0.02756
 Alpha virt. eigenvalues --   -0.02434  -0.02044  -0.01437  -0.00761  -0.00234
 Alpha virt. eigenvalues --    0.00039   0.00228   0.00346   0.00586   0.00664

  Beta  occ. eigenvalues --  -38.44642 -38.44434 -38.44182 -38.44116 -38.43712
  Beta  occ. eigenvalues --  -38.43599 -38.43143  -2.20497  -2.20254  -2.19993
  Beta  occ. eigenvalues --   -2.19918  -2.19470  -2.19386  -2.19009  -1.14239
  Beta  occ. eigenvalues --   -1.14147  -1.14131  -1.13925  -1.13903  -1.13877
  Beta  occ. eigenvalues --   -1.13721  -1.13672  -1.13625  -1.13578  -1.13571
  Beta  occ. eigenvalues --   -1.13562  -1.13147  -1.13136  -1.13118  -1.13095
  Beta  occ. eigenvalues --   -1.13053  -1.13022  -1.12716  -1.12647  -1.12642
  Beta  occ. eigenvalues --   -0.17300  -0.13483  -0.11336
  Beta virt. eigenvalues --   -0.06885  -0.06075  -0.05781  -0.04135  -0.02995
  Beta virt. eigenvalues --   -0.02196  -0.02052  -0.01491  -0.01303  -0.00481
  Beta virt. eigenvalues --   -0.00107   0.00067   0.00255   0.00479   0.00670

 Mulliken charges and spin densities:
               1          2
     1  Na  -0.033432   0.047682
     2  Na  -0.016967   0.181495
     3  Na  -0.406904   0.333725
     4  Na  -0.297091   0.247911
     5  Na   0.087280  -0.066086
     6  Na  -0.143083   0.234954
     7  Na   0.810197   0.020320
 Sum of Mulliken charges =  -0.00000   1.00000

 Dipole moment (field-independent basis, Debye):
    X=             -0.7156    Y=              0.3025    Z=             -0.2358  Tot=              0.8120
 Quadrupole moment (field-independent basis, Debye-Ang):
   XX=            -51.7536   YY=            -70.6060   ZZ=            -72.1151
   XY=              2.2607   XZ=             -0.6182   YZ=             -0.7048

 Normal termination of Gaussian 16 at Thu Dec  7 14:20:37 2023.
