 Gaussian 16, Revision B.01,
 Gaussian 16:  ES64L-G16RevB.01 20-Dec-2017

 -------------------------
 #P B3LYP/6-311+g(d) force
 -------------------------

 -----
 DPGEN
 -----
 Symbolic Z-matrix:
 Charge =  0 Multiplicity = 2

                         Standard orientation:
 ---------------------------------------------------------------------
 Center     Atomic      Atomic             Coordinates (Angstroms)
 Number     Number       Type             X           Y           Z
 ---------------------------------------------------------------------
      1         11           0        4.073620    1.812324   -0.013345
      2         11           0        3.069424    4.690961   -0.259505
      3         11           0        1.604535   -3.480562   -0.492378
      4         11           0        4.028942   -2.405495    1.011914
      5         11           0       -6.810140    1.474845    0.205171
      6         11           0       -4.631654   -0.226443    0.498002
      7         11           0       -1.334727   -1.865631   -0.949858
 ---------------------------------------------------------------------

 SCF Done:  E(UB3LYP) =  -1136.10194651     A.U. after   18 cycles

 The electronic state is 2-A.
 Alpha  occ. eigenvalues --  -38.45210 -38.45081 -38.44786 -38.44437 -38.44150
 Alpha  occ. eigenvalues --  -38.44036 -38.43858  -2.21010  -2.20903  -2.20635
 Alpha  occ. eigenvalues --   -2.20257  -2.19987  -2.19833  -2.19642  -1.14651
 Alpha  occ. eigenvalues --   -1.14648  -1.14624  -1.14582  -1.14536  -1.14523
 Alpha  occ. eigenvalues --   -1.14435  -1.14250  -1.14249  -1.13934  -1.13918
 Alpha  occ. eigenvalues --   -1.13916  -1.13639  -1.13625  -1.13620  -1.13543
 Alpha  occ. eigenvalues --   -1.13481  -1.13480  -1.13307  -1.13304  -1.13254
 Alpha  occ. eigenvalues --   -0.15533  -0.14179  -0.12899  -0.11802
 Alpha virt. eigenvalues --   -0.06794  -0.05465  -0.03766  -0.03543  -0.03402
 Alpha virt. eigenvalues --   -0.02471  -0.02459  -0.02051  -0.01640  -0.01352
 Alpha virt. eigenvalues --   -0.01148  -0.00423  -0.00200   0.00456   0.00579

  Beta  occ. eigenvalues --  -38.45105 -38.45004 -38.44745 -38.44443 -38.44153
  Beta  occ. eigenvalues --  -38.44019 -38.43863  -2.20815  -2.20761  -2.20559
  Beta  occ. eigenvalues --   -2.20278  -2.19999  -2.19803  -2.19652  -1.14518
  Beta  occ. eigenvalues --   -1.14516  -1.14500  -1.14490  -1.14438  -1.14426
  Beta  occ. eigenvalues --   -1.14387  -1.14198  -1.14197  -1.13943  -1.13938
  Beta  occ. eigenvalues --   -1.13885  -1.13638  -1.13638  -1.13603  -1.13526
  Beta  occ. eigenvalues --   -1.13460  -1.13460  -1.13315  -1.13312  -1.13246
  Beta  occ. eigenvalues --   -0.14684  -0.13645  -0.12605
  Beta virt. eigenvalues --   -0.08508  -0.06322  -0.05043  -0.03479  -0.03276
  Beta virt. eigenvalues --   -0.03115  -0.02399  -0.02216  -0.01942  -0.01515
  Beta virt. eigenvalues --   -0.00904  -0.00729  -0.00064  -0.00035   0.00518

 Mulliken charges and spin densities:
               1          2
     1  Na  -0.484215  -0.031050
     2  Na   0.353441   0.088927
     3  Na   0.149604  -0.023906
     4  Na   0.215981   0.327645
     5  Na   0.803274   0.149026
     6  Na  -0.537547  -0.038527
     7  Na  -0.500537   0.527884
 Sum of Mulliken charges =  -0.00000   1.00000

 Dipole moment (field-independent basis, Debye):
    X=             -0.6758    Y=              0.0195    Z=              0.0114  Tot=              0.6761
 Quadrupole moment (field-independent basis, Debye-Ang):
   XX=            -61.3938   YY=            -61.2614   ZZ=            -73.0857
   XY=            -11.6175   XZ=              3.3306   YZ=             -0.9698

 Normal termination of Gaussian 16 at Mon Dec  4 02:29:32 2023.
