 Gaussian 16, Revision B.01,
 Gaussian 16:  ES64L-G16RevB.01 20-Dec-2017

 -------------------------
 #P B3LYP/6-311+g(d) force
 -------------------------

 -----
 DPGEN
 -----
 Symbolic Z-matrix:
 Charge =  0 Multiplicity = 2

                         Standard orientation:
 ---------------------------------------------------------------------
 Center     Atomic      Atomic             Coordinates (Angstroms)
 Number     Number       Type             X           Y           Z
 ---------------------------------------------------------------------
      1         11           0       -1.939333   -2.238341   -0.284905
      2         11           0       -3.415334    1.052743   -0.121795
      3         11           0        0.663876    2.958150    0.434666
      4         11           0        3.273867    0.406880   -0.124396
      5         11           0        0.033336    0.672073   -1.760875
      6         11           0        1.711655   -2.450934   -0.089122
      7         11           0       -0.328066   -0.400572    1.946427
 ---------------------------------------------------------------------

 SCF Done:  E(UB3LYP) =  -1136.13329410     A.U. after   20 cycles

 The electronic state is 2-A.
 Alpha  occ. eigenvalues --  -38.44878 -38.44391 -38.43774 -38.43581 -38.43552
 Alpha  occ. eigenvalues --  -38.43418 -38.43244  -2.20635  -2.20207  -2.19609
 Alpha  occ. eigenvalues --   -2.19462  -2.19370  -2.19301  -2.19087  -1.14310
 Alpha  occ. eigenvalues --   -1.14289  -1.14277  -1.13885  -1.13874  -1.13841
 Alpha  occ. eigenvalues --   -1.13305  -1.13282  -1.13230  -1.13176  -1.13128
 Alpha  occ. eigenvalues --   -1.13073  -1.13031  -1.13018  -1.12996  -1.12971
 Alpha  occ. eigenvalues --   -1.12928  -1.12919  -1.12761  -1.12748  -1.12729
 Alpha  occ. eigenvalues --   -0.18099  -0.13097  -0.12200  -0.10405
 Alpha virt. eigenvalues --   -0.06376  -0.05216  -0.04635  -0.03213  -0.02868
 Alpha virt. eigenvalues --   -0.02355  -0.02019  -0.01151  -0.00684  -0.00416
 Alpha virt. eigenvalues --   -0.00051   0.00327   0.00729   0.00746   0.00791

  Beta  occ. eigenvalues --  -38.44876 -38.44388 -38.43767 -38.43541 -38.43525
  Beta  occ. eigenvalues --  -38.43332 -38.43240  -2.20635  -2.20204  -2.19600
  Beta  occ. eigenvalues --   -2.19359  -2.19352  -2.19141  -2.19082  -1.14294
  Beta  occ. eigenvalues --   -1.14290  -1.14278  -1.13883  -1.13856  -1.13841
  Beta  occ. eigenvalues --   -1.13294  -1.13258  -1.13224  -1.13119  -1.13063
  Beta  occ. eigenvalues --   -1.13004  -1.12999  -1.12987  -1.12974  -1.12865
  Beta  occ. eigenvalues --   -1.12818  -1.12806  -1.12757  -1.12736  -1.12713
  Beta  occ. eigenvalues --   -0.17399  -0.12895  -0.11994
  Beta virt. eigenvalues --   -0.06620  -0.06297  -0.05177  -0.04522  -0.02501
  Beta virt. eigenvalues --   -0.02160  -0.01935  -0.01346  -0.01099  -0.00693
  Beta virt. eigenvalues --   -0.00446   0.00110   0.00360   0.00765   0.00827

 Mulliken charges and spin densities:
               1          2
     1  Na   0.093554  -0.029776
     2  Na   0.071087  -0.086336
     3  Na  -0.007950  -0.087689
     4  Na   0.155849  -0.008576
     5  Na  -0.136694   0.551402
     6  Na   0.012366  -0.056287
     7  Na  -0.188213   0.717262
 Sum of Mulliken charges =  -0.00000   1.00000

 Dipole moment (field-independent basis, Debye):
    X=             -0.3814    Y=              0.3045    Z=             -0.0162  Tot=              0.4883
 Quadrupole moment (field-independent basis, Debye-Ang):
   XX=            -53.0929   YY=            -64.4414   ZZ=            -75.4710
   XY=             -0.5054   XZ=              0.5020   YZ=              2.2332

 Normal termination of Gaussian 16 at Tue Dec  5 10:31:34 2023.
