 Gaussian 16, Revision B.01,
 Gaussian 16:  ES64L-G16RevB.01 20-Dec-2017

 -------------------------
 #P B3LYP/6-311+g(d) force
 -------------------------

 -----
 DPGEN
 -----
 Symbolic Z-matrix:
 Charge =  0 Multiplicity = 2

                         Standard orientation:
 ---------------------------------------------------------------------
 Center     Atomic      Atomic             Coordinates (Angstroms)
 Number     Number       Type             X           Y           Z
 ---------------------------------------------------------------------
      1         11           0        2.390193    2.277158    0.426083
      2         11           0        1.781207   -0.553606   -1.570262
      3         11           0        0.259984   -0.091760    1.787085
      4         11           0        1.875412   -2.496684    0.523403
      5         11           0       -3.639050   -0.436471    0.562029
      6         11           0       -1.453510   -1.008165   -1.165914
      7         11           0       -1.214236    2.309528   -0.562424
 ---------------------------------------------------------------------

 SCF Done:  E(UB3LYP) =  -1136.12384846     A.U. after   21 cycles

 The electronic state is 2-A.
 Alpha  occ. eigenvalues --  -38.44704 -38.44082 -38.43639 -38.43593 -38.43589
 Alpha  occ. eigenvalues --  -38.43561 -38.43502  -2.20551  -2.19899  -2.19573
 Alpha  occ. eigenvalues --   -2.19532  -2.19485  -2.19478  -2.19402  -1.14320
 Alpha  occ. eigenvalues --   -1.14179  -1.14165  -1.13605  -1.13580  -1.13495
 Alpha  occ. eigenvalues --   -1.13411  -1.13289  -1.13247  -1.13234  -1.13198
 Alpha  occ. eigenvalues --   -1.13143  -1.13139  -1.13130  -1.13099  -1.13089
 Alpha  occ. eigenvalues --   -1.13071  -1.13066  -1.13055  -1.13029  -1.13007
 Alpha  occ. eigenvalues --   -0.18699  -0.13618  -0.11912  -0.10992
 Alpha virt. eigenvalues --   -0.06165  -0.05209  -0.04156  -0.03525  -0.02770
 Alpha virt. eigenvalues --   -0.02600  -0.01892  -0.01070  -0.00615   0.00041
 Alpha virt. eigenvalues --    0.00263   0.00305   0.00631   0.00775   0.00793

  Beta  occ. eigenvalues --  -38.44701 -38.44072 -38.43590 -38.43579 -38.43562
  Beta  occ. eigenvalues --  -38.43510 -38.43469  -2.20546  -2.19883  -2.19484
  Beta  occ. eigenvalues --   -2.19433  -2.19425  -2.19421  -2.19399  -1.14316
  Beta  occ. eigenvalues --   -1.14166  -1.14162  -1.13592  -1.13553  -1.13488
  Beta  occ. eigenvalues --   -1.13376  -1.13217  -1.13174  -1.13145  -1.13115
  Beta  occ. eigenvalues --   -1.13099  -1.13085  -1.13078  -1.13063  -1.13049
  Beta  occ. eigenvalues --   -1.13039  -1.13029  -1.13028  -1.13021  -1.12966
  Beta  occ. eigenvalues --   -0.17950  -0.13454  -0.11711
  Beta virt. eigenvalues --   -0.07033  -0.06021  -0.05129  -0.03890  -0.03094
  Beta virt. eigenvalues --   -0.02131  -0.01790  -0.01579  -0.01021  -0.00358
  Beta virt. eigenvalues --    0.00105   0.00298   0.00333   0.00710   0.00817

 Mulliken charges and spin densities:
               1          2
     1  Na   0.106613  -0.091667
     2  Na   0.277879   0.306267
     3  Na  -0.356086   0.701426
     4  Na   0.074665  -0.064444
     5  Na   0.618371  -0.009268
     6  Na  -0.436551   0.125062
     7  Na  -0.284891   0.032625
 Sum of Mulliken charges =  -0.00000   1.00000

 Dipole moment (field-independent basis, Debye):
    X=             -0.6283    Y=              0.2608    Z=              0.2738  Tot=              0.7333
 Quadrupole moment (field-independent basis, Debye-Ang):
   XX=            -53.8811   YY=            -68.3224   ZZ=            -71.6415
   XY=             -0.6266   XZ=             -1.8891   YZ=             -1.7143

 Normal termination of Gaussian 16 at Wed Dec  6 00:44:04 2023.
