 Gaussian 16, Revision B.01,
 Gaussian 16:  ES64L-G16RevB.01 20-Dec-2017

 -------------------------
 #P B3LYP/6-311+g(d) force
 -------------------------

 -----
 DPGEN
 -----
 Symbolic Z-matrix:
 Charge =  0 Multiplicity = 2

                         Standard orientation:
 ---------------------------------------------------------------------
 Center     Atomic      Atomic             Coordinates (Angstroms)
 Number     Number       Type             X           Y           Z
 ---------------------------------------------------------------------
      1         11           0       -3.006607   -0.828942   -0.784541
      2         11           0        1.977895    1.951963   -0.823235
      3         11           0        2.814562   -1.553314    0.031398
      4         11           0       -1.818386    2.039426    0.372332
      5         11           0        0.143569   -0.649001   -1.739026
      6         11           0        0.616719    0.834323    1.673247
      7         11           0       -0.727751   -1.794455    1.269825
 ---------------------------------------------------------------------

 SCF Done:  E(UB3LYP) =  -1136.12891029     A.U. after   20 cycles

 The electronic state is 2-A.
 Alpha  occ. eigenvalues --  -38.43938 -38.43829 -38.43686 -38.43588 -38.43517
 Alpha  occ. eigenvalues --  -38.43368 -38.43323  -2.19768  -2.19716  -2.19571
 Alpha  occ. eigenvalues --   -2.19556  -2.19470  -2.19369  -2.19246  -1.13458
 Alpha  occ. eigenvalues --   -1.13430  -1.13409  -1.13405  -1.13387  -1.13360
 Alpha  occ. eigenvalues --   -1.13320  -1.13296  -1.13270  -1.13227  -1.13178
 Alpha  occ. eigenvalues --   -1.13172  -1.13150  -1.13114  -1.13092  -1.13046
 Alpha  occ. eigenvalues --   -1.12971  -1.12963  -1.12896  -1.12872  -1.12840
 Alpha  occ. eigenvalues --   -0.19259  -0.13463  -0.11821  -0.11697
 Alpha virt. eigenvalues --   -0.05601  -0.05076  -0.03991  -0.03422  -0.03021
 Alpha virt. eigenvalues --   -0.02902  -0.01627  -0.00865  -0.00321   0.00268
 Alpha virt. eigenvalues --    0.00316   0.00385   0.00793   0.00862   0.00898

  Beta  occ. eigenvalues --  -38.43937 -38.43813 -38.43665 -38.43528 -38.43467
  Beta  occ. eigenvalues --  -38.43362 -38.43256  -2.19771  -2.19689  -2.19534
  Beta  occ. eigenvalues --   -2.19446  -2.19384  -2.19254  -2.19235  -1.13451
  Beta  occ. eigenvalues --   -1.13429  -1.13401  -1.13383  -1.13355  -1.13341
  Beta  occ. eigenvalues --   -1.13282  -1.13236  -1.13210  -1.13154  -1.13140
  Beta  occ. eigenvalues --   -1.13104  -1.13081  -1.13061  -1.13022  -1.12993
  Beta  occ. eigenvalues --   -1.12904  -1.12878  -1.12874  -1.12853  -1.12798
  Beta  occ. eigenvalues --   -0.18479  -0.13206  -0.11619
  Beta virt. eigenvalues --   -0.07618  -0.05501  -0.05042  -0.03523  -0.03097
  Beta virt. eigenvalues --   -0.02335  -0.01823  -0.01521  -0.00811  -0.00098
  Beta virt. eigenvalues --    0.00269   0.00335   0.00400   0.00853   0.00897

 Mulliken charges and spin densities:
               1          2
     1  Na   0.466058   0.100682
     2  Na   0.045062   0.037243
     3  Na   0.133048  -0.086491
     4  Na  -0.393712  -0.010318
     5  Na  -0.364419   0.567266
     6  Na   0.334089   0.344602
     7  Na  -0.220126   0.047017
 Sum of Mulliken charges =  -0.00000   1.00000

 Dipole moment (field-independent basis, Debye):
    X=              0.2147    Y=             -0.1646    Z=             -0.3527  Tot=              0.4445
 Quadrupole moment (field-independent basis, Debye-Ang):
   XX=            -54.6799   YY=            -70.4584   ZZ=            -69.1032
   XY=             -0.6099   XZ=              0.3989   YZ=             -2.4466

 Normal termination of Gaussian 16 at Thu Dec  7 20:27:01 2023.
