 Gaussian 16, Revision B.01,
 Gaussian 16:  ES64L-G16RevB.01 20-Dec-2017

 -------------------------
 #P B3LYP/6-311+g(d) force
 -------------------------

 -----
 DPGEN
 -----
 Symbolic Z-matrix:
 Charge =  0 Multiplicity = 2

                         Standard orientation:
 ---------------------------------------------------------------------
 Center     Atomic      Atomic             Coordinates (Angstroms)
 Number     Number       Type             X           Y           Z
 ---------------------------------------------------------------------
      1         11           0        3.148858   -0.316725   -0.062010
      2         11           0       -2.425282   -1.691709   -0.422052
      3         11           0        0.063105    0.044147   -1.686566
      4         11           0       -0.876434   -0.274275    2.197049
      5         11           0        1.294115    2.380857    0.348537
      6         11           0        0.768827   -2.447322    0.004652
      7         11           0       -1.973189    2.305027   -0.379609
 ---------------------------------------------------------------------

 SCF Done:  E(UB3LYP) =  -1136.13643895     A.U. after   18 cycles

 The electronic state is 2-A.
 Alpha  occ. eigenvalues --  -38.43954 -38.43675 -38.43587 -38.43482 -38.43438
 Alpha  occ. eigenvalues --  -38.43311 -38.43255  -2.19827  -2.19556  -2.19431
 Alpha  occ. eigenvalues --   -2.19347  -2.19332  -2.19313  -2.19195  -1.13485
 Alpha  occ. eigenvalues --   -1.13468  -1.13442  -1.13257  -1.13212  -1.13191
 Alpha  occ. eigenvalues --   -1.13141  -1.13098  -1.13085  -1.13069  -1.13056
 Alpha  occ. eigenvalues --   -1.13026  -1.13006  -1.12995  -1.12971  -1.12948
 Alpha  occ. eigenvalues --   -1.12926  -1.12913  -1.12850  -1.12841  -1.12791
 Alpha  occ. eigenvalues --   -0.18935  -0.12940  -0.12703  -0.11163
 Alpha virt. eigenvalues --   -0.05279  -0.05086  -0.04565  -0.03357  -0.03145
 Alpha virt. eigenvalues --   -0.02807  -0.01266  -0.01061  -0.00137  -0.00024
 Alpha virt. eigenvalues --    0.00029   0.00361   0.00832   0.00918   0.00965

  Beta  occ. eigenvalues --  -38.43859 -38.43666 -38.43580 -38.43483 -38.43432
  Beta  occ. eigenvalues --  -38.43246 -38.43244  -2.19650  -2.19544  -2.19422
  Beta  occ. eigenvalues --   -2.19350  -2.19304  -2.19211  -2.19182  -1.13372
  Beta  occ. eigenvalues --   -1.13347  -1.13317  -1.13239  -1.13186  -1.13173
  Beta  occ. eigenvalues --   -1.13125  -1.13077  -1.13065  -1.13061  -1.13053
  Beta  occ. eigenvalues --   -1.12995  -1.12987  -1.12977  -1.12948  -1.12913
  Beta  occ. eigenvalues --   -1.12884  -1.12845  -1.12826  -1.12795  -1.12782
  Beta  occ. eigenvalues --   -0.18196  -0.12715  -0.12473
  Beta virt. eigenvalues --   -0.07186  -0.05256  -0.05022  -0.04502  -0.02589
  Beta virt. eigenvalues --   -0.02342  -0.01756  -0.01206  -0.01010  -0.00091
  Beta virt. eigenvalues --   -0.00029   0.00116   0.00395   0.00883   0.00916

 Mulliken charges and spin densities:
               1          2
     1  Na  -0.018949  -0.024734
     2  Na   0.453328  -0.032454
     3  Na  -0.384248   0.264714
     4  Na  -0.727939   0.561330
     5  Na   0.108292   0.111088
     6  Na   0.396711   0.154373
     7  Na   0.172804  -0.034319
 Sum of Mulliken charges =  -0.00000   1.00000

 Dipole moment (field-independent basis, Debye):
    X=             -0.2906    Y=              0.0762    Z=              0.2199  Tot=              0.3723
 Quadrupole moment (field-independent basis, Debye-Ang):
   XX=            -58.7822   YY=            -64.7136   ZZ=            -71.5536
   XY=              0.0642   XZ=              1.6189   YZ=              0.6508

 Normal termination of Gaussian 16 at Tue Dec  5 19:45:52 2023.
