 Gaussian 16, Revision B.01,
 Gaussian 16:  ES64L-G16RevB.01 20-Dec-2017

 -------------------------
 #P B3LYP/6-311+g(d) force
 -------------------------

 -----
 DPGEN
 -----
 Symbolic Z-matrix:
 Charge =  0 Multiplicity = 2

                         Standard orientation:
 ---------------------------------------------------------------------
 Center     Atomic      Atomic             Coordinates (Angstroms)
 Number     Number       Type             X           Y           Z
 ---------------------------------------------------------------------
      1         11           0        3.518879   -1.095345   -0.542007
      2         11           0       -2.600197    0.565280    1.706906
      3         11           0       -3.142360   -1.324605   -0.322186
      4         11           0        0.878636    0.024895   -1.379598
      5         11           0       -0.212614   -2.140883    0.541838
      6         11           0        3.983605    1.609691    1.037276
      7         11           0       -2.425948    2.360968   -1.042229
 ---------------------------------------------------------------------

 SCF Done:  E(UB3LYP) =  -1136.10826189     A.U. after   22 cycles

 The electronic state is 2-A.
 Alpha  occ. eigenvalues --  -38.44950 -38.44725 -38.44643 -38.44254 -38.44056
 Alpha  occ. eigenvalues --  -38.43036 -38.42774  -2.20871  -2.20631  -2.20521
 Alpha  occ. eigenvalues --   -2.20069  -2.19975  -2.18861  -2.18667  -1.14737
 Alpha  occ. eigenvalues --   -1.14510  -1.14470  -1.14280  -1.14261  -1.14241
 Alpha  occ. eigenvalues --   -1.14211  -1.14189  -1.14148  -1.13715  -1.13711
 Alpha  occ. eigenvalues --   -1.13685  -1.13661  -1.13603  -1.13588  -1.12529
 Alpha  occ. eigenvalues --   -1.12514  -1.12494  -1.12373  -1.12336  -1.12288
 Alpha  occ. eigenvalues --   -0.17740  -0.14862  -0.11248  -0.10744
 Alpha virt. eigenvalues --   -0.06200  -0.05984  -0.04763  -0.03203  -0.02799
 Alpha virt. eigenvalues --   -0.02620  -0.01794  -0.01233  -0.00714  -0.00377
 Alpha virt. eigenvalues --   -0.00259   0.00015   0.00336   0.00369   0.00517

  Beta  occ. eigenvalues --  -38.44931 -38.44703 -38.44641 -38.44186 -38.43995
  Beta  occ. eigenvalues --  -38.43003 -38.42777  -2.20839  -2.20593  -2.20521
  Beta  occ. eigenvalues --   -2.19942  -2.19863  -2.18799  -2.18677  -1.14704
  Beta  occ. eigenvalues --   -1.14492  -1.14438  -1.14254  -1.14250  -1.14222
  Beta  occ. eigenvalues --   -1.14183  -1.14175  -1.14125  -1.13626  -1.13622
  Beta  occ. eigenvalues --   -1.13605  -1.13590  -1.13523  -1.13507  -1.12490
  Beta  occ. eigenvalues --   -1.12471  -1.12446  -1.12379  -1.12352  -1.12267
  Beta  occ. eigenvalues --   -0.17221  -0.14394  -0.10906
  Beta virt. eigenvalues --   -0.07218  -0.06058  -0.05644  -0.04353  -0.02988
  Beta virt. eigenvalues --   -0.02522  -0.02154  -0.01306  -0.01121  -0.00539
  Beta virt. eigenvalues --   -0.00152  -0.00053   0.00193   0.00406   0.00484

 Mulliken charges and spin densities:
               1          2
     1  Na   1.080261   0.288747
     2  Na  -0.181554   0.087766
     3  Na   0.537235   0.158136
     4  Na  -1.240198   0.157025
     5  Na   0.040636  -0.031659
     6  Na  -0.129708   0.258361
     7  Na  -0.106673   0.081624
 Sum of Mulliken charges =  -0.00000   1.00000

 Dipole moment (field-independent basis, Debye):
    X=             -0.0082    Y=             -0.5311    Z=              0.2233  Tot=              0.5762
 Quadrupole moment (field-independent basis, Debye-Ang):
   XX=            -64.8743   YY=            -72.1504   ZZ=            -65.6647
   XY=             -0.5725   XZ=              1.2251   YZ=              4.1796

 Normal termination of Gaussian 16 at Tue Dec  5 11:28:54 2023.
