 Gaussian 16, Revision B.01,
 Gaussian 16:  ES64L-G16RevB.01 20-Dec-2017

 -------------------------
 #P B3LYP/6-311+g(d) force
 -------------------------

 -----
 DPGEN
 -----
 Symbolic Z-matrix:
 Charge =  0 Multiplicity = 2

                         Standard orientation:
 ---------------------------------------------------------------------
 Center     Atomic      Atomic             Coordinates (Angstroms)
 Number     Number       Type             X           Y           Z
 ---------------------------------------------------------------------
      1         11           0       -0.158812    0.278828    2.315158
      2         11           0        2.796969   -1.381737   -0.357993
      3         11           0       -1.397947    2.900160   -0.323853
      4         11           0       -0.097465   -0.139487   -1.326718
      5         11           0        2.330212    1.926791   -0.101789
      6         11           0       -3.024555   -0.719088   -0.361890
      7         11           0       -0.448401   -2.865468    0.157086
 ---------------------------------------------------------------------

 SCF Done:  E(UB3LYP) =  -1136.13572432     A.U. after   19 cycles

 The electronic state is 2-A.
 Alpha  occ. eigenvalues --  -38.43967 -38.43839 -38.43837 -38.43830 -38.43540
 Alpha  occ. eigenvalues --  -38.43482 -38.42872  -2.19814  -2.19673  -2.19668
 Alpha  occ. eigenvalues --   -2.19628  -2.19388  -2.19356  -2.18922  -1.13526
 Alpha  occ. eigenvalues --   -1.13466  -1.13436  -1.13358  -1.13342  -1.13322
 Alpha  occ. eigenvalues --   -1.13312  -1.13304  -1.13296  -1.13287  -1.13276
 Alpha  occ. eigenvalues --   -1.13264  -1.13090  -1.13066  -1.13039  -1.13026
 Alpha  occ. eigenvalues --   -1.13009  -1.12971  -1.12609  -1.12564  -1.12547
 Alpha  occ. eigenvalues --   -0.18480  -0.12902  -0.12485  -0.10733
 Alpha virt. eigenvalues --   -0.05597  -0.05098  -0.04922  -0.03031  -0.02879
 Alpha virt. eigenvalues --   -0.02606  -0.01431  -0.01303  -0.00490  -0.00420
 Alpha virt. eigenvalues --   -0.00023   0.00332   0.00800   0.00834   0.00884

  Beta  occ. eigenvalues --  -38.43959 -38.43835 -38.43833 -38.43715 -38.43535
  Beta  occ. eigenvalues --  -38.43476 -38.42830  -2.19802  -2.19666  -2.19624
  Beta  occ. eigenvalues --   -2.19459  -2.19381  -2.19349  -2.18848  -1.13513
  Beta  occ. eigenvalues --   -1.13443  -1.13431  -1.13355  -1.13323  -1.13305
  Beta  occ. eigenvalues --   -1.13293  -1.13279  -1.13261  -1.13181  -1.13148
  Beta  occ. eigenvalues --   -1.13133  -1.13083  -1.13056  -1.13027  -1.13023
  Beta  occ. eigenvalues --   -1.12980  -1.12971  -1.12549  -1.12509  -1.12494
  Beta  occ. eigenvalues --   -0.17791  -0.12682  -0.12284
  Beta virt. eigenvalues --   -0.06727  -0.05600  -0.05057  -0.04853  -0.02248
  Beta virt. eigenvalues --   -0.02144  -0.01527  -0.01349  -0.01242  -0.00524
  Beta virt. eigenvalues --   -0.00448   0.00152   0.00380   0.00829   0.00863

 Mulliken charges and spin densities:
               1          2
     1  Na  -0.613475   0.740190
     2  Na   0.236023   0.059063
     3  Na   0.110054  -0.001964
     4  Na  -0.627826  -0.015415
     5  Na   0.235358   0.035304
     6  Na   0.316770   0.034889
     7  Na   0.343096   0.147932
 Sum of Mulliken charges =  -0.00000   1.00000

 Dipole moment (field-independent basis, Debye):
    X=             -0.1482    Y=              0.1518    Z=              0.2020  Tot=              0.2929
 Quadrupole moment (field-independent basis, Debye-Ang):
   XX=            -57.9258   YY=            -60.0301   ZZ=            -75.0462
   XY=             -0.1454   XZ=              0.2064   YZ=             -0.8041

 Normal termination of Gaussian 16 at Sat Dec  9 06:05:10 2023.
