 Gaussian 16, Revision B.01,
 Gaussian 16:  ES64L-G16RevB.01 20-Dec-2017

 -------------------------
 #P B3LYP/6-311+g(d) force
 -------------------------

 -----
 DPGEN
 -----
 Symbolic Z-matrix:
 Charge =  0 Multiplicity = 2

                         Standard orientation:
 ---------------------------------------------------------------------
 Center     Atomic      Atomic             Coordinates (Angstroms)
 Number     Number       Type             X           Y           Z
 ---------------------------------------------------------------------
      1         11           0       -0.042091   -0.023085    1.896237
      2         11           0        1.338068    2.591726    0.250581
      3         11           0        3.062799   -0.495819   -0.041796
      4         11           0        0.263228   -0.101195   -1.859231
      5         11           0       -2.124931    2.064725   -0.360425
      6         11           0       -2.692975   -1.126557    0.147602
      7         11           0        0.195903   -2.909796   -0.032968
 ---------------------------------------------------------------------

 SCF Done:  E(UB3LYP) =  -1136.14175817     A.U. after   19 cycles

 The electronic state is 2-A.
 Alpha  occ. eigenvalues --  -38.43877 -38.43501 -38.43476 -38.43432 -38.43410
 Alpha  occ. eigenvalues --  -38.43394 -38.43371  -2.19712  -2.19381  -2.19372
 Alpha  occ. eigenvalues --   -2.19337  -2.19329  -2.19266  -2.19236  -1.13399
 Alpha  occ. eigenvalues --   -1.13376  -1.13347  -1.13105  -1.13068  -1.13057
 Alpha  occ. eigenvalues --   -1.13047  -1.13020  -1.13012  -1.13008  -1.12988
 Alpha  occ. eigenvalues --   -1.12974  -1.12965  -1.12964  -1.12954  -1.12923
 Alpha  occ. eigenvalues --   -1.12912  -1.12897  -1.12894  -1.12888  -1.12856
 Alpha  occ. eigenvalues --   -0.18859  -0.12940  -0.12606  -0.10917
 Alpha virt. eigenvalues --   -0.05418  -0.04953  -0.04819  -0.03201  -0.03035
 Alpha virt. eigenvalues --   -0.02645  -0.01341  -0.01094  -0.00243  -0.00214
 Alpha virt. eigenvalues --   -0.00001   0.00381   0.00860   0.00911   0.00928

  Beta  occ. eigenvalues --  -38.43874 -38.43495 -38.43469 -38.43402 -38.43366
  Beta  occ. eigenvalues --  -38.43349 -38.43315  -2.19710  -2.19376  -2.19320
  Beta  occ. eigenvalues --   -2.19255  -2.19231  -2.19218  -2.19192  -1.13389
  Beta  occ. eigenvalues --   -1.13361  -1.13345  -1.13084  -1.13049  -1.13025
  Beta  occ. eigenvalues --   -1.13018  -1.12974  -1.12963  -1.12955  -1.12926
  Beta  occ. eigenvalues --   -1.12921  -1.12905  -1.12897  -1.12888  -1.12887
  Beta  occ. eigenvalues --   -1.12873  -1.12861  -1.12854  -1.12850  -1.12829
  Beta  occ. eigenvalues --   -0.18111  -0.12693  -0.12351
  Beta virt. eigenvalues --   -0.07002  -0.05413  -0.04943  -0.04763  -0.02393
  Beta virt. eigenvalues --   -0.02234  -0.01592  -0.01261  -0.01017  -0.00288
  Beta virt. eigenvalues --   -0.00271   0.00117   0.00393   0.00879   0.00916

 Mulliken charges and spin densities:
               1          2
     1  Na  -0.291157   0.680013
     2  Na   0.099614  -0.062690
     3  Na   0.122731  -0.135484
     4  Na  -0.305549   0.714432
     5  Na   0.061583  -0.029216
     6  Na   0.175298  -0.034899
     7  Na   0.137481  -0.132155
 Sum of Mulliken charges =  -0.00000   1.00000

 Dipole moment (field-independent basis, Debye):
    X=              0.2450    Y=             -0.0412    Z=              0.0132  Tot=              0.2488
 Quadrupole moment (field-independent basis, Debye-Ang):
   XX=            -58.6863   YY=            -61.8923   ZZ=            -73.3433
   XY=             -0.2148   XZ=              0.6579   YZ=             -0.2678

 Normal termination of Gaussian 16 at Thu Dec  7 12:15:19 2023.
