 Gaussian 16, Revision B.01,
 Gaussian 16:  ES64L-G16RevB.01 20-Dec-2017

 -------------------------
 #P B3LYP/6-311+g(d) force
 -------------------------

 -----
 DPGEN
 -----
 Symbolic Z-matrix:
 Charge =  0 Multiplicity = 2

                         Standard orientation:
 ---------------------------------------------------------------------
 Center     Atomic      Atomic             Coordinates (Angstroms)
 Number     Number       Type             X           Y           Z
 ---------------------------------------------------------------------
      1         11           0       -2.145673   -2.133872   -0.531643
      2         11           0        3.890584   -0.576728    0.974027
      3         11           0       -1.271524    2.055267   -0.421596
      4         11           0        2.030547    1.970948   -0.689530
      5         11           0        0.336802   -0.571183    1.747138
      6         11           0        1.091593   -1.285558   -1.770581
      7         11           0       -3.932330    0.541126    0.692185
 ---------------------------------------------------------------------

 SCF Done:  E(UB3LYP) =  -1136.12317316     A.U. after   23 cycles

 The electronic state is 2-A.
 Alpha  occ. eigenvalues --  -38.45632 -38.44945 -38.44710 -38.43893 -38.43386
 Alpha  occ. eigenvalues --  -38.43332 -38.42748  -2.21425  -2.20749  -2.20526
 Alpha  occ. eigenvalues --   -2.19736  -2.19202  -2.19189  -2.18596  -1.15120
 Alpha  occ. eigenvalues --   -1.15082  -1.15045  -1.14406  -1.14399  -1.14367
 Alpha  occ. eigenvalues --   -1.14193  -1.14179  -1.14157  -1.13408  -1.13375
 Alpha  occ. eigenvalues --   -1.13359  -1.12880  -1.12871  -1.12867  -1.12856
 Alpha  occ. eigenvalues --   -1.12845  -1.12818  -1.12288  -1.12261  -1.12238
 Alpha  occ. eigenvalues --   -0.17925  -0.14069  -0.11281  -0.11036
 Alpha virt. eigenvalues --   -0.07213  -0.05295  -0.04577  -0.03182  -0.02981
 Alpha virt. eigenvalues --   -0.02525  -0.02317  -0.01243  -0.01023  -0.00300
 Alpha virt. eigenvalues --   -0.00055   0.00159   0.00287   0.00581   0.00681

  Beta  occ. eigenvalues --  -38.45612 -38.44889 -38.44688 -38.43826 -38.43379
  Beta  occ. eigenvalues --  -38.43313 -38.42744  -2.21388  -2.20646  -2.20483
  Beta  occ. eigenvalues --   -2.19613  -2.19194  -2.19156  -2.18594  -1.15088
  Beta  occ. eigenvalues --   -1.15060  -1.15011  -1.14329  -1.14324  -1.14302
  Beta  occ. eigenvalues --   -1.14166  -1.14151  -1.14129  -1.13323  -1.13287
  Beta  occ. eigenvalues --   -1.13269  -1.12873  -1.12864  -1.12846  -1.12824
  Beta  occ. eigenvalues --   -1.12821  -1.12791  -1.12290  -1.12255  -1.12219
  Beta  occ. eigenvalues --   -0.17342  -0.13693  -0.10959
  Beta virt. eigenvalues --   -0.07469  -0.06912  -0.05247  -0.03982  -0.03009
  Beta virt. eigenvalues --   -0.02668  -0.01982  -0.01649  -0.01177  -0.00677
  Beta virt. eigenvalues --   -0.00218   0.00035   0.00202   0.00418   0.00714

 Mulliken charges and spin densities:
               1          2
     1  Na  -0.061154   0.034357
     2  Na   0.419586   0.273792
     3  Na  -0.581150  -0.039534
     4  Na   0.007123   0.117525
     5  Na  -0.393128   0.173750
     6  Na  -0.048944   0.307933
     7  Na   0.657667   0.132177
 Sum of Mulliken charges =  -0.00000   1.00000

 Dipole moment (field-independent basis, Debye):
    X=              0.3566    Y=             -0.5224    Z=              0.3978  Tot=              0.7472
 Quadrupole moment (field-independent basis, Debye-Ang):
   XX=            -48.3677   YY=            -78.7428   ZZ=            -68.9629
   XY=              0.8682   XZ=             -2.6867   YZ=              0.5702

 Normal termination of Gaussian 16 at Thu Dec  7 23:02:38 2023.
