 Gaussian 16, Revision B.01,
 Gaussian 16:  ES64L-G16RevB.01 20-Dec-2017

 -------------------------
 #P B3LYP/6-311+g(d) force
 -------------------------

 -----
 DPGEN
 -----
 Symbolic Z-matrix:
 Charge =  0 Multiplicity = 2

                         Standard orientation:
 ---------------------------------------------------------------------
 Center     Atomic      Atomic             Coordinates (Angstroms)
 Number     Number       Type             X           Y           Z
 ---------------------------------------------------------------------
      1         11           0        0.147375   -0.396277    2.036550
      2         11           0       -0.823249   -2.895599   -0.375020
      3         11           0        2.720439   -1.385523    0.214379
      4         11           0       -2.986809   -0.533686   -0.194108
      5         11           0        0.474225    0.204139   -1.724083
      6         11           0        2.297149    2.159662   -0.212515
      7         11           0       -1.829131    2.847285    0.254797
 ---------------------------------------------------------------------

 SCF Done:  E(UB3LYP) =  -1136.13428618     A.U. after   20 cycles

 The electronic state is 2-A.
 Alpha  occ. eigenvalues --  -38.44117 -38.43945 -38.43861 -38.43778 -38.43766
 Alpha  occ. eigenvalues --  -38.43508 -38.43417  -2.19949  -2.19802  -2.19654
 Alpha  occ. eigenvalues --   -2.19622  -2.19599  -2.19443  -2.19271  -1.13682
 Alpha  occ. eigenvalues --   -1.13600  -1.13568  -1.13500  -1.13477  -1.13421
 Alpha  occ. eigenvalues --   -1.13316  -1.13299  -1.13290  -1.13290  -1.13278
 Alpha  occ. eigenvalues --   -1.13271  -1.13266  -1.13264  -1.13231  -1.13115
 Alpha  occ. eigenvalues --   -1.13080  -1.13059  -1.12934  -1.12930  -1.12905
 Alpha  occ. eigenvalues --   -0.18312  -0.13075  -0.12281  -0.10737
 Alpha virt. eigenvalues --   -0.05719  -0.05266  -0.04903  -0.03250  -0.02926
 Alpha virt. eigenvalues --   -0.02545  -0.01437  -0.01285  -0.00615  -0.00444
 Alpha virt. eigenvalues --   -0.00030   0.00350   0.00792   0.00827   0.00873

  Beta  occ. eigenvalues --  -38.44110 -38.43934 -38.43860 -38.43763 -38.43687
  Beta  occ. eigenvalues --  -38.43444 -38.43407  -2.19939  -2.19787  -2.19622
  Beta  occ. eigenvalues --   -2.19596  -2.19487  -2.19326  -2.19255  -1.13664
  Beta  occ. eigenvalues --   -1.13580  -1.13565  -1.13482  -1.13439  -1.13413
  Beta  occ. eigenvalues --   -1.13296  -1.13285  -1.13284  -1.13267  -1.13254
  Beta  occ. eigenvalues --   -1.13227  -1.13205  -1.13164  -1.13147  -1.13037
  Beta  occ. eigenvalues --   -1.12994  -1.12977  -1.12925  -1.12906  -1.12886
  Beta  occ. eigenvalues --   -0.17600  -0.12823  -0.12064
  Beta virt. eigenvalues --   -0.06886  -0.05658  -0.05184  -0.04844  -0.02483
  Beta virt. eigenvalues --   -0.02218  -0.01559  -0.01336  -0.01186  -0.00650
  Beta virt. eigenvalues --   -0.00492   0.00119   0.00392   0.00803   0.00878

 Mulliken charges and spin densities:
               1          2
     1  Na  -0.333968   0.760050
     2  Na   0.166734  -0.020115
     3  Na   0.310679  -0.025562
     4  Na  -0.095644  -0.055457
     5  Na   0.015110   0.493111
     6  Na   0.085488  -0.099342
     7  Na  -0.148400  -0.052685
 Sum of Mulliken charges =  -0.00000   1.00000

 Dipole moment (field-independent basis, Debye):
    X=              0.3777    Y=              0.0690    Z=              0.1053  Tot=              0.3981
 Quadrupole moment (field-independent basis, Debye-Ang):
   XX=            -59.0497   YY=            -61.0244   ZZ=            -74.4001
   XY=              0.1553   XZ=              0.5408   YZ=              1.5076

 Normal termination of Gaussian 16 at Tue Dec  5 16:57:59 2023.
