 Gaussian 16, Revision B.01,
 Gaussian 16:  ES64L-G16RevB.01 20-Dec-2017

 -------------------------
 #P B3LYP/6-311+g(d) force
 -------------------------

 -----
 DPGEN
 -----
 Symbolic Z-matrix:
 Charge =  0 Multiplicity = 2

                         Standard orientation:
 ---------------------------------------------------------------------
 Center     Atomic      Atomic             Coordinates (Angstroms)
 Number     Number       Type             X           Y           Z
 ---------------------------------------------------------------------
      1         11           0        0.218466    2.898215   -0.192726
      2         11           0       -5.653221   -0.752476    0.776596
      3         11           0       -2.621741    1.321505    0.165207
      4         11           0       -3.394787   -1.752766   -1.088999
      5         11           0        0.377650   -0.217196   -0.216423
      6         11           0        4.317001   -1.158333    1.028313
      7         11           0        6.756632   -0.338949   -0.471968
 ---------------------------------------------------------------------

 SCF Done:  E(UB3LYP) =  -1136.11417362     A.U. after   19 cycles

 The electronic state is 2-A.
 Alpha  occ. eigenvalues --  -38.44407 -38.44374 -38.44234 -38.44161 -38.43946
 Alpha  occ. eigenvalues --  -38.43926 -38.43696  -2.20233  -2.20222  -2.20119
 Alpha  occ. eigenvalues --   -2.19966  -2.19808  -2.19729  -2.19561  -1.13980
 Alpha  occ. eigenvalues --   -1.13916  -1.13893  -1.13872  -1.13867  -1.13821
 Alpha  occ. eigenvalues --   -1.13811  -1.13775  -1.13719  -1.13705  -1.13611
 Alpha  occ. eigenvalues --   -1.13609  -1.13494  -1.13452  -1.13440  -1.13383
 Alpha  occ. eigenvalues --   -1.13376  -1.13347  -1.13234  -1.13203  -1.13176
 Alpha  occ. eigenvalues --   -0.16857  -0.13829  -0.12773  -0.10167
 Alpha virt. eigenvalues --   -0.06658  -0.05621  -0.04460  -0.03738  -0.02807
 Alpha virt. eigenvalues --   -0.02368  -0.02020  -0.01887  -0.01323  -0.00848
 Alpha virt. eigenvalues --   -0.00344  -0.00053   0.00390   0.00397   0.00574

  Beta  occ. eigenvalues --  -38.44391 -38.44344 -38.44205 -38.44148 -38.43928
  Beta  occ. eigenvalues --  -38.43917 -38.43650  -2.20200  -2.20170  -2.20069
  Beta  occ. eigenvalues --   -2.19942  -2.19754  -2.19734  -2.19476  -1.13950
  Beta  occ. eigenvalues --   -1.13880  -1.13868  -1.13843  -1.13830  -1.13792
  Beta  occ. eigenvalues --   -1.13752  -1.13734  -1.13692  -1.13679  -1.13594
  Beta  occ. eigenvalues --   -1.13592  -1.13455  -1.13416  -1.13395  -1.13388
  Beta  occ. eigenvalues --   -1.13379  -1.13338  -1.13178  -1.13142  -1.13107
  Beta  occ. eigenvalues --   -0.16247  -0.13688  -0.12568
  Beta virt. eigenvalues --   -0.06754  -0.06137  -0.05278  -0.04150  -0.03458
  Beta virt. eigenvalues --   -0.02600  -0.02200  -0.01876  -0.01439  -0.01142
  Beta virt. eigenvalues --   -0.00525  -0.00038   0.00145   0.00494   0.00550

 Mulliken charges and spin densities:
               1          2
     1  Na   0.645092   0.181216
     2  Na   0.828151   0.045501
     3  Na  -0.744845   0.237052
     4  Na   0.086622   0.039939
     5  Na  -0.741406   0.469835
     6  Na  -0.252757  -0.028401
     7  Na   0.179143   0.054858
 Sum of Mulliken charges =  -0.00000   1.00000

 Dipole moment (field-independent basis, Debye):
    X=             -0.8693    Y=              0.2086    Z=             -0.1485  Tot=              0.9063
 Quadrupole moment (field-independent basis, Debye-Ang):
   XX=            -54.9452   YY=            -69.7922   ZZ=            -68.7083
   XY=              8.5939   XZ=             -6.3120   YZ=             -1.6036

 Normal termination of Gaussian 16 at Wed Nov 29 04:08:36 2023.
