 Gaussian 16, Revision B.01,
 Gaussian 16:  ES64L-G16RevB.01 20-Dec-2017

 -------------------------
 #P B3LYP/6-311+g(d) force
 -------------------------

 -----
 DPGEN
 -----
 Symbolic Z-matrix:
 Charge =  0 Multiplicity = 2

                         Standard orientation:
 ---------------------------------------------------------------------
 Center     Atomic      Atomic             Coordinates (Angstroms)
 Number     Number       Type             X           Y           Z
 ---------------------------------------------------------------------
      1         11           0        2.365033    2.456728    0.121594
      2         11           0       -2.011967    3.149566   -0.210676
      3         11           0       -3.765243   -0.105633   -0.772095
      4         11           0       -1.718222   -3.032240    0.364004
      5         11           0        1.567646   -2.120816   -0.593580
      6         11           0       -0.896250    0.038571    1.293361
      7         11           0        4.459002   -0.386176   -0.202609
 ---------------------------------------------------------------------

 SCF Done:  E(UB3LYP) =  -1136.12188336     A.U. after   21 cycles

 The electronic state is 2-A.
 Alpha  occ. eigenvalues --  -38.45043 -38.44645 -38.44417 -38.44176 -38.43940
 Alpha  occ. eigenvalues --  -38.43732 -38.43482  -2.20781  -2.20439  -2.20168
 Alpha  occ. eigenvalues --   -2.20033  -2.19768  -2.19559  -2.19305  -1.14476
 Alpha  occ. eigenvalues --   -1.14445  -1.14403  -1.14136  -1.14120  -1.14057
 Alpha  occ. eigenvalues --   -1.13859  -1.13833  -1.13807  -1.13732  -1.13705
 Alpha  occ. eigenvalues --   -1.13652  -1.13443  -1.13419  -1.13406  -1.13219
 Alpha  occ. eigenvalues --   -1.13195  -1.13172  -1.12960  -1.12955  -1.12929
 Alpha  occ. eigenvalues --   -0.16887  -0.13847  -0.12557  -0.09973
 Alpha virt. eigenvalues --   -0.06843  -0.05764  -0.04772  -0.03304  -0.02852
 Alpha virt. eigenvalues --   -0.02328  -0.01987  -0.01603  -0.01296  -0.00979
 Alpha virt. eigenvalues --   -0.00154   0.00244   0.00471   0.00539   0.00626

  Beta  occ. eigenvalues --  -38.45033 -38.44634 -38.44424 -38.44148 -38.43935
  Beta  occ. eigenvalues --  -38.43648 -38.43429  -2.20764  -2.20423  -2.20185
  Beta  occ. eigenvalues --   -2.19982  -2.19762  -2.19402  -2.19205  -1.14466
  Beta  occ. eigenvalues --   -1.14435  -1.14373  -1.14129  -1.14111  -1.14017
  Beta  occ. eigenvalues --   -1.13874  -1.13848  -1.13792  -1.13700  -1.13658
  Beta  occ. eigenvalues --   -1.13615  -1.13439  -1.13415  -1.13381  -1.13112
  Beta  occ. eigenvalues --   -1.13091  -1.13066  -1.12891  -1.12885  -1.12867
  Beta  occ. eigenvalues --   -0.16386  -0.13255  -0.12242
  Beta virt. eigenvalues --   -0.06794  -0.06626  -0.05553  -0.04443  -0.02715
  Beta virt. eigenvalues --   -0.02348  -0.02058  -0.01900  -0.01444  -0.01222
  Beta virt. eigenvalues --   -0.00600   0.00149   0.00419   0.00547   0.00609

 Mulliken charges and spin densities:
               1          2
     1  Na  -0.071417   0.039480
     2  Na   0.088554  -0.039253
     3  Na  -0.114771   0.491551
     4  Na   0.564653   0.055066
     5  Na  -0.252980   0.083050
     6  Na  -0.363559   0.079492
     7  Na   0.149520   0.290614
 Sum of Mulliken charges =  -0.00000   1.00000

 Dipole moment (field-independent basis, Debye):
    X=              0.0564    Y=              0.0236    Z=              0.0347  Tot=              0.0703
 Quadrupole moment (field-independent basis, Debye-Ang):
   XX=            -70.5781   YY=            -58.8652   ZZ=            -71.1839
   XY=              4.3661   XZ=             -0.0662   YZ=             -0.4037

 Normal termination of Gaussian 16 at Sun Dec  3 23:41:57 2023.
