 Gaussian 16, Revision B.01,
 Gaussian 16:  ES64L-G16RevB.01 20-Dec-2017

 -------------------------
 #P B3LYP/6-311+g(d) force
 -------------------------

 -----
 DPGEN
 -----
 Symbolic Z-matrix:
 Charge =  0 Multiplicity = 2

                         Standard orientation:
 ---------------------------------------------------------------------
 Center     Atomic      Atomic             Coordinates (Angstroms)
 Number     Number       Type             X           Y           Z
 ---------------------------------------------------------------------
      1         11           0        1.789901    2.806141    0.037751
      2         11           0       -2.080280    2.449069   -0.290747
      3         11           0       -0.035558   -0.305303    1.774235
      4         11           0       -0.064156   -3.234517   -0.415065
      5         11           0       -3.160903   -0.820720    0.167307
      6         11           0        3.182122   -0.856850    0.128907
      7         11           0        0.368874   -0.037819   -1.402389
 ---------------------------------------------------------------------

 SCF Done:  E(UB3LYP) =  -1136.13347667     A.U. after   21 cycles

 The electronic state is 2-A.
 Alpha  occ. eigenvalues --  -38.44514 -38.44142 -38.44084 -38.43889 -38.43860
 Alpha  occ. eigenvalues --  -38.43071 -38.42910  -2.20318  -2.19923  -2.19887
 Alpha  occ. eigenvalues --   -2.19698  -2.19657  -2.18983  -2.18885  -1.14003
 Alpha  occ. eigenvalues --   -1.13980  -1.13942  -1.13603  -1.13584  -1.13561
 Alpha  occ. eigenvalues --   -1.13559  -1.13550  -1.13529  -1.13378  -1.13353
 Alpha  occ. eigenvalues --   -1.13335  -1.13329  -1.13315  -1.13292  -1.12732
 Alpha  occ. eigenvalues --   -1.12600  -1.12589  -1.12570  -1.12516  -1.12495
 Alpha  occ. eigenvalues --   -0.18169  -0.12880  -0.12490  -0.09842
 Alpha virt. eigenvalues --   -0.05971  -0.05482  -0.05231  -0.02829  -0.02620
 Alpha virt. eigenvalues --   -0.01824  -0.01762  -0.01606  -0.00872  -0.00799
 Alpha virt. eigenvalues --    0.00020   0.00316   0.00723   0.00771   0.00794

  Beta  occ. eigenvalues --  -38.44508 -38.44142 -38.44080 -38.43873 -38.43855
  Beta  occ. eigenvalues --  -38.42989 -38.42859  -2.20310  -2.19925  -2.19882
  Beta  occ. eigenvalues --   -2.19671  -2.19650  -2.18832  -2.18793  -1.13992
  Beta  occ. eigenvalues --   -1.13961  -1.13936  -1.13594  -1.13585  -1.13557
  Beta  occ. eigenvalues --   -1.13550  -1.13537  -1.13528  -1.13352  -1.13325
  Beta  occ. eigenvalues --   -1.13321  -1.13312  -1.13308  -1.13287  -1.12636
  Beta  occ. eigenvalues --   -1.12498  -1.12488  -1.12475  -1.12451  -1.12423
  Beta  occ. eigenvalues --   -0.17507  -0.12669  -0.12227
  Beta virt. eigenvalues --   -0.06121  -0.05923  -0.05438  -0.05123  -0.02126
  Beta virt. eigenvalues --   -0.01961  -0.01664  -0.01508  -0.00916  -0.00876
  Beta virt. eigenvalues --   -0.00821   0.00173   0.00375   0.00736   0.00805

 Mulliken charges and spin densities:
               1          2
     1  Na   0.006474  -0.061317
     2  Na  -0.044269  -0.044411
     3  Na  -0.134388   0.700110
     4  Na   0.071264  -0.018419
     5  Na   0.144030  -0.008690
     6  Na   0.198935  -0.050473
     7  Na  -0.242045   0.483200
 Sum of Mulliken charges =  -0.00000   1.00000

 Dipole moment (field-independent basis, Debye):
    X=              0.3028    Y=             -0.0604    Z=              0.1111  Tot=              0.3281
 Quadrupole moment (field-independent basis, Debye-Ang):
   XX=            -53.7136   YY=            -57.2618   ZZ=            -79.0132
   XY=              0.4842   XZ=              0.9131   YZ=              0.5008

 Normal termination of Gaussian 16 at Thu Dec  7 02:39:34 2023.
