 Gaussian 16, Revision B.01,
 Gaussian 16:  ES64L-G16RevB.01 20-Dec-2017

 -------------------------
 #P B3LYP/6-311+g(d) force
 -------------------------

 -----
 DPGEN
 -----
 Symbolic Z-matrix:
 Charge =  0 Multiplicity = 2

                         Standard orientation:
 ---------------------------------------------------------------------
 Center     Atomic      Atomic             Coordinates (Angstroms)
 Number     Number       Type             X           Y           Z
 ---------------------------------------------------------------------
      1         11           0        1.239529    0.297840    1.798774
      2         11           0       -1.742626   -1.958171    1.174524
      3         11           0        3.334866   -1.910829   -0.581596
      4         11           0        0.181194   -0.563210   -1.465979
      5         11           0        2.070898    2.374222   -0.447979
      6         11           0       -3.762290   -0.041895   -0.949982
      7         11           0       -1.321570    1.802043    0.472236
 ---------------------------------------------------------------------

 SCF Done:  E(UB3LYP) =  -1136.12741954     A.U. after   21 cycles

 The electronic state is 2-A.
 Alpha  occ. eigenvalues --  -38.44527 -38.44154 -38.43975 -38.43823 -38.43662
 Alpha  occ. eigenvalues --  -38.43575 -38.43094  -2.20344  -2.19982  -2.19861
 Alpha  occ. eigenvalues --   -2.19667  -2.19510  -2.19428  -2.19007  -1.14013
 Alpha  occ. eigenvalues --   -1.14000  -1.13970  -1.13661  -1.13638  -1.13599
 Alpha  occ. eigenvalues --   -1.13574  -1.13523  -1.13465  -1.13380  -1.13332
 Alpha  occ. eigenvalues --   -1.13282  -1.13211  -1.13139  -1.13107  -1.13100
 Alpha  occ. eigenvalues --   -1.13087  -1.13062  -1.12717  -1.12694  -1.12595
 Alpha  occ. eigenvalues --   -0.18401  -0.13618  -0.11339  -0.10887
 Alpha virt. eigenvalues --   -0.06392  -0.05582  -0.04413  -0.03060  -0.02630
 Alpha virt. eigenvalues --   -0.02401  -0.02069  -0.01319  -0.00897  -0.00101
 Alpha virt. eigenvalues --    0.00084   0.00197   0.00431   0.00609   0.00700

  Beta  occ. eigenvalues --  -38.44501 -38.44109 -38.43943 -38.43817 -38.43660
  Beta  occ. eigenvalues --  -38.43516 -38.43080  -2.20297  -2.19902  -2.19804
  Beta  occ. eigenvalues --   -2.19657  -2.19426  -2.19405  -2.18987  -1.13980
  Beta  occ. eigenvalues --   -1.13959  -1.13941  -1.13609  -1.13571  -1.13536
  Beta  occ. eigenvalues --   -1.13530  -1.13475  -1.13423  -1.13365  -1.13318
  Beta  occ. eigenvalues --   -1.13272  -1.13139  -1.13099  -1.13083  -1.13067
  Beta  occ. eigenvalues --   -1.13050  -1.13032  -1.12709  -1.12636  -1.12588
  Beta  occ. eigenvalues --   -0.17681  -0.13396  -0.11132
  Beta virt. eigenvalues --   -0.07105  -0.06142  -0.05422  -0.04005  -0.02852
  Beta virt. eigenvalues --   -0.02150  -0.01965  -0.01495  -0.01198  -0.00479
  Beta virt. eigenvalues --    0.00007   0.00123   0.00224   0.00539   0.00682

 Mulliken charges and spin densities:
               1          2
     1  Na   0.275549   0.224849
     2  Na  -0.147520   0.192897
     3  Na  -0.086044  -0.005567
     4  Na  -0.493099   0.319498
     5  Na   0.137348   0.028358
     6  Na   0.444653   0.091015
     7  Na  -0.130887   0.148951
 Sum of Mulliken charges =  -0.00000   1.00000

 Dipole moment (field-independent basis, Debye):
    X=             -0.4786    Y=              0.1292    Z=             -0.0252  Tot=              0.4963
 Quadrupole moment (field-independent basis, Debye-Ang):
   XX=            -51.6097   YY=            -71.1082   ZZ=            -70.4040
   XY=              3.3286   XZ=              1.6301   YZ=             -2.8548

 Normal termination of Gaussian 16 at Thu Dec  7 11:50:26 2023.
