 Gaussian 16, Revision B.01,
 Gaussian 16:  ES64L-G16RevB.01 20-Dec-2017

 -------------------------
 #P B3LYP/6-311+g(d) force
 -------------------------

 -----
 DPGEN
 -----
 Symbolic Z-matrix:
 Charge =  0 Multiplicity = 2

                         Standard orientation:
 ---------------------------------------------------------------------
 Center     Atomic      Atomic             Coordinates (Angstroms)
 Number     Number       Type             X           Y           Z
 ---------------------------------------------------------------------
      1         11           0        1.811525    2.316246   -0.090418
      2         11           0        3.037622   -1.196684    0.046083
      3         11           0       -1.517534    2.416822   -0.218105
      4         11           0       -0.485194   -2.787316    0.049443
      5         11           0       -0.116036    0.152642    2.201720
      6         11           0       -2.929559   -0.623788   -0.117748
      7         11           0        0.199176   -0.277922   -1.870976
 ---------------------------------------------------------------------

 SCF Done:  E(UB3LYP) =  -1136.13965987     A.U. after   18 cycles

 The electronic state is 2-A.
 Alpha  occ. eigenvalues --  -38.44023 -38.43972 -38.43590 -38.43570 -38.43561
 Alpha  occ. eigenvalues --  -38.43409 -38.43204  -2.19885  -2.19761  -2.19519
 Alpha  occ. eigenvalues --   -2.19437  -2.19402  -2.19278  -2.19076  -1.13543
 Alpha  occ. eigenvalues --   -1.13512  -1.13507  -1.13438  -1.13417  -1.13407
 Alpha  occ. eigenvalues --   -1.13215  -1.13178  -1.13144  -1.13113  -1.13099
 Alpha  occ. eigenvalues --   -1.13091  -1.13076  -1.13070  -1.13036  -1.12950
 Alpha  occ. eigenvalues --   -1.12938  -1.12892  -1.12744  -1.12735  -1.12717
 Alpha  occ. eigenvalues --   -0.18600  -0.12776  -0.12512  -0.11127
 Alpha virt. eigenvalues --   -0.05513  -0.05043  -0.04649  -0.03238  -0.03166
 Alpha virt. eigenvalues --   -0.02946  -0.01375  -0.01018  -0.00246  -0.00199
 Alpha virt. eigenvalues --   -0.00076   0.00382   0.00808   0.00897   0.00927

  Beta  occ. eigenvalues --  -38.43973 -38.43924 -38.43566 -38.43558 -38.43520
  Beta  occ. eigenvalues --  -38.43403 -38.43198  -2.19764  -2.19703  -2.19433
  Beta  occ. eigenvalues --   -2.19399  -2.19391  -2.19271  -2.19068  -1.13428
  Beta  occ. eigenvalues --   -1.13424  -1.13417  -1.13412  -1.13382  -1.13377
  Beta  occ. eigenvalues --   -1.13148  -1.13113  -1.13105  -1.13099  -1.13068
  Beta  occ. eigenvalues --   -1.13062  -1.13046  -1.13042  -1.13026  -1.12938
  Beta  occ. eigenvalues --   -1.12907  -1.12892  -1.12740  -1.12716  -1.12704
  Beta  occ. eigenvalues --   -0.17829  -0.12568  -0.12296
  Beta virt. eigenvalues --   -0.07176  -0.05508  -0.05002  -0.04575  -0.02440
  Beta virt. eigenvalues --   -0.02358  -0.01899  -0.01293  -0.00946  -0.00304
  Beta virt. eigenvalues --   -0.00263   0.00083   0.00397   0.00866   0.00907

 Mulliken charges and spin densities:
               1          2
     1  Na   0.122731  -0.077606
     2  Na   0.083335  -0.110076
     3  Na   0.173560  -0.014122
     4  Na   0.233769  -0.052713
     5  Na  -0.594200   0.739574
     6  Na   0.221140  -0.009079
     7  Na  -0.240335   0.524022
 Sum of Mulliken charges =  -0.00000   1.00000

 Dipole moment (field-independent basis, Debye):
    X=              0.2530    Y=             -0.1109    Z=              0.1458  Tot=              0.3124
 Quadrupole moment (field-independent basis, Debye-Ang):
   XX=            -59.0948   YY=            -64.1750   ZZ=            -71.7698
   XY=             -0.2239   XZ=              0.7875   YZ=             -0.9084

 Normal termination of Gaussian 16 at Fri Dec  8 07:18:41 2023.
