 Gaussian 16, Revision B.01,
 Gaussian 16:  ES64L-G16RevB.01 20-Dec-2017

 -------------------------
 #P B3LYP/6-311+g(d) force
 -------------------------

 -----
 DPGEN
 -----
 Symbolic Z-matrix:
 Charge =  0 Multiplicity = 2

                         Standard orientation:
 ---------------------------------------------------------------------
 Center     Atomic      Atomic             Coordinates (Angstroms)
 Number     Number       Type             X           Y           Z
 ---------------------------------------------------------------------
      1         11           0        0.793126   -2.480809    0.273544
      2         11           0       -0.534700   -0.056458    1.914336
      3         11           0       -2.231018    1.738200   -0.442075
      4         11           0       -2.278937   -1.607386   -0.261095
      5         11           0        0.319251   -0.031343   -1.732172
      6         11           0        3.059337    0.015636   -0.200182
      7         11           0        0.872941    2.422158    0.447643
 ---------------------------------------------------------------------

 SCF Done:  E(UB3LYP) =  -1136.13614595     A.U. after   18 cycles

 The electronic state is 2-A.
 Alpha  occ. eigenvalues --  -38.43682 -38.43532 -38.43393 -38.43375 -38.43309
 Alpha  occ. eigenvalues --  -38.43106 -38.43092  -2.19565  -2.19533  -2.19349
 Alpha  occ. eigenvalues --   -2.19328  -2.19285  -2.19039  -2.19035  -1.13288
 Alpha  occ. eigenvalues --   -1.13232  -1.13217  -1.13209  -1.13195  -1.13167
 Alpha  occ. eigenvalues --   -1.13061  -1.13024  -1.13006  -1.12984  -1.12980
 Alpha  occ. eigenvalues --   -1.12948  -1.12936  -1.12924  -1.12902  -1.12722
 Alpha  occ. eigenvalues --   -1.12714  -1.12697  -1.12691  -1.12651  -1.12640
 Alpha  occ. eigenvalues --   -0.19609  -0.13186  -0.12716  -0.11322
 Alpha virt. eigenvalues --   -0.05231  -0.04810  -0.04408  -0.03336  -0.03158
 Alpha virt. eigenvalues --   -0.02732  -0.01274  -0.00856  -0.00099   0.00179
 Alpha virt. eigenvalues --    0.00233   0.00372   0.00901   0.00979   0.00993

  Beta  occ. eigenvalues --  -38.43679 -38.43444 -38.43383 -38.43363 -38.43237
  Beta  occ. eigenvalues --  -38.43092 -38.43082  -2.19563  -2.19373  -2.19315
  Beta  occ. eigenvalues --   -2.19267  -2.19218  -2.19021  -2.19018  -1.13274
  Beta  occ. eigenvalues --   -1.13213  -1.13200  -1.13144  -1.13088  -1.13061
  Beta  occ. eigenvalues --   -1.13008  -1.12986  -1.12967  -1.12935  -1.12931
  Beta  occ. eigenvalues --   -1.12903  -1.12894  -1.12882  -1.12849  -1.12704
  Beta  occ. eigenvalues --   -1.12700  -1.12657  -1.12651  -1.12641  -1.12629
  Beta  occ. eigenvalues --   -0.18844  -0.12924  -0.12432
  Beta virt. eigenvalues --   -0.07308  -0.05180  -0.04811  -0.04399  -0.02551
  Beta virt. eigenvalues --   -0.02308  -0.01641  -0.01188  -0.00804   0.00030
  Beta virt. eigenvalues --    0.00166   0.00192   0.00394   0.00963   0.00971

 Mulliken charges and spin densities:
               1          2
     1  Na   0.291826  -0.022381
     2  Na  -0.516132   0.542977
     3  Na   0.160095  -0.003476
     4  Na   0.246347  -0.032227
     5  Na  -0.589163   0.538472
     6  Na   0.139587  -0.051022
     7  Na   0.267439   0.027657
 Sum of Mulliken charges =  -0.00000   1.00000

 Dipole moment (field-independent basis, Debye):
    X=              0.0186    Y=              0.0055    Z=              0.0273  Tot=              0.0335
 Quadrupole moment (field-independent basis, Debye-Ang):
   XX=            -58.1450   YY=            -65.2680   ZZ=            -71.3066
   XY=             -0.1568   XZ=              1.6212   YZ=             -0.0424

 Normal termination of Gaussian 16 at Sat Dec  9 07:20:09 2023.
