 Gaussian 16, Revision B.01,
 Gaussian 16:  ES64L-G16RevB.01 20-Dec-2017

 -------------------------
 #P B3LYP/6-311+g(d) force
 -------------------------

 -----
 DPGEN
 -----
 Symbolic Z-matrix:
 Charge =  0 Multiplicity = 2

                         Standard orientation:
 ---------------------------------------------------------------------
 Center     Atomic      Atomic             Coordinates (Angstroms)
 Number     Number       Type             X           Y           Z
 ---------------------------------------------------------------------
      1         11           0       -4.145245    1.064001   -0.191022
      2         11           0       -1.446705    3.078924   -0.322761
      3         11           0        4.188747    0.573737    0.397245
      4         11           0        2.568723    3.005356    0.087855
      5         11           0       -0.265932   -2.725186   -0.842830
      6         11           0        2.831428   -3.143082   -0.018425
      7         11           0       -3.731015   -1.853750    0.889938
 ---------------------------------------------------------------------

 SCF Done:  E(UB3LYP) =  -1136.10715098     A.U. after   20 cycles

 The electronic state is 2-A.
 Alpha  occ. eigenvalues --  -38.44979 -38.44729 -38.44672 -38.44425 -38.44422
 Alpha  occ. eigenvalues --  -38.44184 -38.44175  -2.20741  -2.20544  -2.20496
 Alpha  occ. eigenvalues --   -2.20248  -2.20216  -2.19996  -2.19967  -1.14420
 Alpha  occ. eigenvalues --   -1.14414  -1.14378  -1.14245  -1.14234  -1.14212
 Alpha  occ. eigenvalues --   -1.14209  -1.14141  -1.14113  -1.13886  -1.13883
 Alpha  occ. eigenvalues --   -1.13870  -1.13866  -1.13856  -1.13831  -1.13659
 Alpha  occ. eigenvalues --   -1.13647  -1.13628  -1.13624  -1.13618  -1.13609
 Alpha  occ. eigenvalues --   -0.15688  -0.14216  -0.13238  -0.11021
 Alpha virt. eigenvalues --   -0.07429  -0.04975  -0.04299  -0.03506  -0.03476
 Alpha virt. eigenvalues --   -0.02680  -0.02215  -0.02025  -0.01216  -0.00757
 Alpha virt. eigenvalues --   -0.00356  -0.00178   0.00071   0.00362   0.00643

  Beta  occ. eigenvalues --  -38.44973 -38.44725 -38.44634 -38.44353 -38.44336
  Beta  occ. eigenvalues --  -38.44178 -38.44151  -2.20732  -2.20544  -2.20427
  Beta  occ. eigenvalues --   -2.20115  -2.20057  -2.19990  -2.19924  -1.14416
  Beta  occ. eigenvalues --   -1.14410  -1.14351  -1.14231  -1.14218  -1.14183
  Beta  occ. eigenvalues --   -1.14171  -1.14096  -1.14064  -1.13799  -1.13794
  Beta  occ. eigenvalues --   -1.13782  -1.13759  -1.13751  -1.13725  -1.13650
  Beta  occ. eigenvalues --   -1.13647  -1.13602  -1.13596  -1.13586  -1.13578
  Beta  occ. eigenvalues --   -0.15109  -0.13548  -0.12512
  Beta virt. eigenvalues --   -0.07829  -0.07506  -0.04525  -0.04009  -0.03195
  Beta virt. eigenvalues --   -0.03070  -0.02453  -0.02037  -0.01817  -0.01065
  Beta virt. eigenvalues --   -0.00387  -0.00176   0.00053   0.00296   0.00369

 Mulliken charges and spin densities:
               1          2
     1  Na  -0.149340  -0.006094
     2  Na   0.202158   0.385059
     3  Na  -0.154607   0.193672
     4  Na   0.356533  -0.016016
     5  Na  -0.675263   0.044591
     6  Na   0.356737   0.092320
     7  Na   0.063781   0.306467
 Sum of Mulliken charges =  -0.00000   1.00000

 Dipole moment (field-independent basis, Debye):
    X=             -0.0240    Y=             -0.4932    Z=              0.1011  Tot=              0.5041
 Quadrupole moment (field-independent basis, Debye-Ang):
   XX=            -59.8469   YY=            -69.3032   ZZ=            -72.4815
   XY=             -3.5696   XZ=              1.5803   YZ=             -1.8457

 Normal termination of Gaussian 16 at Mon Dec  4 01:41:08 2023.
