 Gaussian 16, Revision B.01,
 Gaussian 16:  ES64L-G16RevB.01 20-Dec-2017

 -------------------------
 #P B3LYP/6-311+g(d) force
 -------------------------

 -----
 DPGEN
 -----
 Symbolic Z-matrix:
 Charge =  0 Multiplicity = 2

                         Standard orientation:
 ---------------------------------------------------------------------
 Center     Atomic      Atomic             Coordinates (Angstroms)
 Number     Number       Type             X           Y           Z
 ---------------------------------------------------------------------
      1         11           0        0.144216    2.954791   -0.747971
      2         11           0       -0.084731   -0.244613   -1.311447
      3         11           0       -3.436046   -0.979904   -0.507424
      4         11           0        3.137410   -1.649463   -0.378099
      5         11           0        2.042726    1.120882    0.829817
      6         11           0       -0.339770   -2.390943    0.747761
      7         11           0       -1.463805    1.189251    1.367363
 ---------------------------------------------------------------------

 SCF Done:  E(UB3LYP) =  -1136.12978100     A.U. after   19 cycles

 The electronic state is 2-A.
 Alpha  occ. eigenvalues --  -38.44406 -38.44092 -38.43905 -38.43509 -38.43239
 Alpha  occ. eigenvalues --  -38.43139 -38.42881  -2.20216  -2.19955  -2.19728
 Alpha  occ. eigenvalues --   -2.19453  -2.19163  -2.19075  -2.18930  -1.13886
 Alpha  occ. eigenvalues --   -1.13878  -1.13849  -1.13723  -1.13613  -1.13529
 Alpha  occ. eigenvalues --   -1.13428  -1.13385  -1.13357  -1.13177  -1.13118
 Alpha  occ. eigenvalues --   -1.13085  -1.12870  -1.12822  -1.12794  -1.12767
 Alpha  occ. eigenvalues --   -1.12721  -1.12659  -1.12635  -1.12571  -1.12515
 Alpha  occ. eigenvalues --   -0.18817  -0.13238  -0.12732  -0.10039
 Alpha virt. eigenvalues --   -0.06120  -0.05031  -0.04756  -0.03094  -0.02807
 Alpha virt. eigenvalues --   -0.02001  -0.01714  -0.01195  -0.00497  -0.00168
 Alpha virt. eigenvalues --    0.00168   0.00325   0.00747   0.00798   0.00825

  Beta  occ. eigenvalues --  -38.44400 -38.44076 -38.43905 -38.43490 -38.43222
  Beta  occ. eigenvalues --  -38.43091 -38.42823  -2.20207  -2.19929  -2.19729
  Beta  occ. eigenvalues --   -2.19423  -2.19135  -2.18988  -2.18829  -1.13879
  Beta  occ. eigenvalues --   -1.13857  -1.13844  -1.13705  -1.13570  -1.13515
  Beta  occ. eigenvalues --   -1.13429  -1.13374  -1.13359  -1.13158  -1.13088
  Beta  occ. eigenvalues --   -1.13047  -1.12844  -1.12793  -1.12754  -1.12713
  Beta  occ. eigenvalues --   -1.12641  -1.12604  -1.12545  -1.12501  -1.12442
  Beta  occ. eigenvalues --   -0.18106  -0.13040  -0.12522
  Beta virt. eigenvalues --   -0.06195  -0.06034  -0.04964  -0.04666  -0.02439
  Beta virt. eigenvalues --   -0.02178  -0.01922  -0.01185  -0.00838  -0.00207
  Beta virt. eigenvalues --   -0.00202   0.00257   0.00390   0.00788   0.00810

 Mulliken charges and spin densities:
               1          2
     1  Na   0.493599   0.051464
     2  Na  -0.709814   0.286567
     3  Na   0.261495   0.011017
     4  Na   0.510174  -0.057308
     5  Na  -0.240356   0.246730
     6  Na  -0.153661   0.156433
     7  Na  -0.161436   0.305097
 Sum of Mulliken charges =  -0.00000   1.00000

 Dipole moment (field-independent basis, Debye):
    X=             -0.3314    Y=             -0.4382    Z=              0.0565  Tot=              0.5523
 Quadrupole moment (field-independent basis, Debye-Ang):
   XX=            -52.4325   YY=            -62.3830   ZZ=            -75.4641
   XY=             -0.2209   XZ=              0.5244   YZ=             -1.0800

 Normal termination of Gaussian 16 at Tue Dec  5 14:44:00 2023.
