 Gaussian 16, Revision B.01,
 Gaussian 16:  ES64L-G16RevB.01 20-Dec-2017

 -------------------------
 #P B3LYP/6-311+g(d) force
 -------------------------

 -----
 DPGEN
 -----
 Symbolic Z-matrix:
 Charge =  0 Multiplicity = 2

                         Standard orientation:
 ---------------------------------------------------------------------
 Center     Atomic      Atomic             Coordinates (Angstroms)
 Number     Number       Type             X           Y           Z
 ---------------------------------------------------------------------
      1         11           0       -0.242963    0.036862    2.224683
      2         11           0       -2.808587   -2.202832   -0.149985
      3         11           0       -2.708410    1.213538   -0.371211
      4         11           0        0.280910    3.321034   -0.106700
      5         11           0        1.829211   -2.397744   -0.096751
      6         11           0        0.130216   -0.135532   -1.357284
      7         11           0        3.519623    0.164673   -0.142752
 ---------------------------------------------------------------------

 SCF Done:  E(UB3LYP) =  -1136.12784504     A.U. after   19 cycles

 The electronic state is 2-A.
 Alpha  occ. eigenvalues --  -38.44906 -38.44003 -38.43990 -38.43930 -38.43608
 Alpha  occ. eigenvalues --  -38.43536 -38.43303  -2.20720  -2.19867  -2.19857
 Alpha  occ. eigenvalues --   -2.19712  -2.19488  -2.19448  -2.19082  -1.14408
 Alpha  occ. eigenvalues --   -1.14378  -1.14355  -1.13597  -1.13564  -1.13528
 Alpha  occ. eigenvalues --   -1.13512  -1.13489  -1.13472  -1.13378  -1.13370
 Alpha  occ. eigenvalues --   -1.13348  -1.13195  -1.13140  -1.13101  -1.13094
 Alpha  occ. eigenvalues --   -1.13072  -1.13054  -1.12753  -1.12741  -1.12727
 Alpha  occ. eigenvalues --   -0.18041  -0.13496  -0.11811  -0.10386
 Alpha virt. eigenvalues --   -0.06182  -0.05320  -0.04909  -0.03245  -0.02478
 Alpha virt. eigenvalues --   -0.02412  -0.02028  -0.01401  -0.00745  -0.00558
 Alpha virt. eigenvalues --   -0.00065   0.00266   0.00649   0.00761   0.00799

  Beta  occ. eigenvalues --  -38.44904 -38.43991 -38.43985 -38.43929 -38.43498
  Beta  occ. eigenvalues --  -38.43492 -38.43304  -2.20718  -2.19860  -2.19837
  Beta  occ. eigenvalues --   -2.19713  -2.19422  -2.19233  -2.19085  -1.14409
  Beta  occ. eigenvalues --   -1.14365  -1.14353  -1.13588  -1.13548  -1.13506
  Beta  occ. eigenvalues --   -1.13498  -1.13467  -1.13462  -1.13376  -1.13359
  Beta  occ. eigenvalues --   -1.13350  -1.13134  -1.13093  -1.13046  -1.12959
  Beta  occ. eigenvalues --   -1.12924  -1.12903  -1.12748  -1.12739  -1.12731
  Beta  occ. eigenvalues --   -0.17360  -0.13282  -0.11666
  Beta virt. eigenvalues --   -0.06415  -0.06097  -0.05312  -0.04868  -0.02525
  Beta virt. eigenvalues --   -0.01938  -0.01788  -0.01375  -0.01334  -0.00763
  Beta virt. eigenvalues --   -0.00564   0.00128   0.00323   0.00716   0.00779

 Mulliken charges and spin densities:
               1          2
     1  Na  -0.537886   0.754832
     2  Na   0.140488   0.017273
     3  Na   0.259817   0.074540
     4  Na  -0.067064  -0.022573
     5  Na   0.354376   0.072963
     6  Na  -0.255065   0.103931
     7  Na   0.105334  -0.000966
 Sum of Mulliken charges =  -0.00000   1.00000

 Dipole moment (field-independent basis, Debye):
    X=              0.5799    Y=             -0.2043    Z=              0.0745  Tot=              0.6194
 Quadrupole moment (field-independent basis, Debye-Ang):
   XX=            -53.5442   YY=            -62.4732   ZZ=            -77.1092
   XY=              1.8421   XZ=              0.4870   YZ=             -0.1106

 Normal termination of Gaussian 16 at Fri Dec  8 02:50:37 2023.
