 Gaussian 16, Revision B.01,
 Gaussian 16:  ES64L-G16RevB.01 20-Dec-2017

 -------------------------
 #P B3LYP/6-311+g(d) force
 -------------------------

 -----
 DPGEN
 -----
 Symbolic Z-matrix:
 Charge =  0 Multiplicity = 2

                         Standard orientation:
 ---------------------------------------------------------------------
 Center     Atomic      Atomic             Coordinates (Angstroms)
 Number     Number       Type             X           Y           Z
 ---------------------------------------------------------------------
      1         11           0        0.903316    2.889372   -0.631628
      2         11           0        1.255841    0.489362    1.552260
      3         11           0       -2.320084    1.662910    0.891950
      4         11           0        3.221475   -1.197669   -0.431484
      5         11           0        0.016933   -2.315884    0.949318
      6         11           0        0.252696   -0.155693   -1.589837
      7         11           0       -3.330177   -1.372399   -0.740578
 ---------------------------------------------------------------------

 SCF Done:  E(UB3LYP) =  -1136.13053057     A.U. after   20 cycles

 The electronic state is 2-A.
 Alpha  occ. eigenvalues --  -38.44538 -38.44335 -38.43809 -38.43666 -38.43367
 Alpha  occ. eigenvalues --  -38.43153 -38.43150  -2.20376  -2.20117  -2.19587
 Alpha  occ. eigenvalues --   -2.19542  -2.19330  -2.19144  -2.19006  -1.14056
 Alpha  occ. eigenvalues --   -1.14041  -1.14000  -1.13801  -1.13779  -1.13740
 Alpha  occ. eigenvalues --   -1.13289  -1.13257  -1.13248  -1.13226  -1.13214
 Alpha  occ. eigenvalues --   -1.13123  -1.13036  -1.12984  -1.12940  -1.12833
 Alpha  occ. eigenvalues --   -1.12807  -1.12750  -1.12681  -1.12649  -1.12621
 Alpha  occ. eigenvalues --   -0.18495  -0.13009  -0.12163  -0.10706
 Alpha virt. eigenvalues --   -0.06111  -0.05230  -0.04345  -0.03203  -0.02895
 Alpha virt. eigenvalues --   -0.02336  -0.01939  -0.01095  -0.00581  -0.00065
 Alpha virt. eigenvalues --    0.00106   0.00301   0.00606   0.00773   0.00815

  Beta  occ. eigenvalues --  -38.44530 -38.44322 -38.43801 -38.43639 -38.43304
  Beta  occ. eigenvalues --  -38.43145 -38.43091  -2.20364  -2.20096  -2.19573
  Beta  occ. eigenvalues --   -2.19495  -2.19215  -2.19039  -2.18995  -1.14043
  Beta  occ. eigenvalues --   -1.14025  -1.13984  -1.13773  -1.13766  -1.13727
  Beta  occ. eigenvalues --   -1.13254  -1.13241  -1.13239  -1.13215  -1.13157
  Beta  occ. eigenvalues --   -1.13095  -1.12957  -1.12904  -1.12851  -1.12763
  Beta  occ. eigenvalues --   -1.12735  -1.12680  -1.12659  -1.12622  -1.12599
  Beta  occ. eigenvalues --   -0.17771  -0.12817  -0.11927
  Beta virt. eigenvalues --   -0.06842  -0.05998  -0.05055  -0.04289  -0.02658
  Beta virt. eigenvalues --   -0.02263  -0.01848  -0.01366  -0.01010  -0.00342
  Beta virt. eigenvalues --   -0.00064   0.00165   0.00337   0.00710   0.00799

 Mulliken charges and spin densities:
               1          2
     1  Na   0.280181  -0.015753
     2  Na   0.104778   0.439745
     3  Na  -0.240176  -0.002765
     4  Na   0.409028   0.004305
     5  Na  -0.166942   0.004345
     6  Na  -0.608332   0.567260
     7  Na   0.221462   0.002863
 Sum of Mulliken charges =  -0.00000   1.00000

 Dipole moment (field-independent basis, Debye):
    X=              0.2979    Y=             -0.1170    Z=              0.0005  Tot=              0.3201
 Quadrupole moment (field-independent basis, Debye-Ang):
   XX=            -53.6206   YY=            -65.5133   ZZ=            -72.8271
   XY=             -1.6261   XZ=             -1.4178   YZ=              0.2894

 Normal termination of Gaussian 16 at Tue Dec  5 20:37:39 2023.
