 Gaussian 16, Revision B.01,
 Gaussian 16:  ES64L-G16RevB.01 20-Dec-2017

 -------------------------
 #P B3LYP/6-311+g(d) force
 -------------------------

 -----
 DPGEN
 -----
 Symbolic Z-matrix:
 Charge =  0 Multiplicity = 2

                         Standard orientation:
 ---------------------------------------------------------------------
 Center     Atomic      Atomic             Coordinates (Angstroms)
 Number     Number       Type             X           Y           Z
 ---------------------------------------------------------------------
      1         11           0        1.625959    0.442090    1.907216
      2         11           0       -3.602917   -1.851112   -0.377109
      3         11           0        1.904177    0.806676   -1.981061
      4         11           0       -2.794462    1.011747    1.287127
      5         11           0       -0.368922   -1.622775   -0.960187
      6         11           0       -0.263656    2.907487   -0.563604
      7         11           0        3.499821   -1.694112    0.687618
 ---------------------------------------------------------------------

 SCF Done:  E(UB3LYP) =  -1136.12404083     A.U. after   21 cycles

 The electronic state is 2-A.
 Alpha  occ. eigenvalues --  -38.44734 -38.44582 -38.44329 -38.44287 -38.44120
 Alpha  occ. eigenvalues --  -38.43677 -38.42836  -2.20575  -2.20371  -2.20181
 Alpha  occ. eigenvalues --   -2.20107  -2.19936  -2.19489  -2.18641  -1.14247
 Alpha  occ. eigenvalues --   -1.14239  -1.14195  -1.14054  -1.14026  -1.13990
 Alpha  occ. eigenvalues --   -1.13870  -1.13817  -1.13794  -1.13788  -1.13771
 Alpha  occ. eigenvalues --   -1.13721  -1.13616  -1.13591  -1.13557  -1.13156
 Alpha  occ. eigenvalues --   -1.13146  -1.13133  -1.12317  -1.12310  -1.12295
 Alpha  occ. eigenvalues --   -0.17472  -0.13638  -0.11756  -0.11422
 Alpha virt. eigenvalues --   -0.06109  -0.05657  -0.04713  -0.03186  -0.03034
 Alpha virt. eigenvalues --   -0.02844  -0.02049  -0.01262  -0.00714  -0.00316
 Alpha virt. eigenvalues --   -0.00041   0.00216   0.00266   0.00332   0.00709

  Beta  occ. eigenvalues --  -38.44674 -38.44551 -38.44260 -38.44245 -38.44107
  Beta  occ. eigenvalues --  -38.43678 -38.42841  -2.20466  -2.20312  -2.20055
  Beta  occ. eigenvalues --   -2.20031  -2.19916  -2.19493  -2.18654  -1.14174
  Beta  occ. eigenvalues --   -1.14166  -1.14110  -1.14012  -1.13989  -1.13949
  Beta  occ. eigenvalues --   -1.13778  -1.13734  -1.13729  -1.13716  -1.13708
  Beta  occ. eigenvalues --   -1.13668  -1.13586  -1.13579  -1.13543  -1.13151
  Beta  occ. eigenvalues --   -1.13148  -1.13137  -1.12325  -1.12319  -1.12285
  Beta  occ. eigenvalues --   -0.16791  -0.13367  -0.11487
  Beta virt. eigenvalues --   -0.07786  -0.05800  -0.05235  -0.04448  -0.02912
  Beta virt. eigenvalues --   -0.02449  -0.02243  -0.01940  -0.01065  -0.00368
  Beta virt. eigenvalues --   -0.00242   0.00113   0.00296   0.00390   0.00498

 Mulliken charges and spin densities:
               1          2
     1  Na  -0.267723   0.311088
     2  Na   0.275189  -0.059607
     3  Na   0.450537   0.235388
     4  Na  -0.011809   0.189798
     5  Na  -0.789267   0.344051
     6  Na  -0.109140  -0.047028
     7  Na   0.452213   0.026309
 Sum of Mulliken charges =  -0.00000   1.00000

 Dipole moment (field-independent basis, Debye):
    X=              0.2886    Y=             -0.2733    Z=              0.0961  Tot=              0.4090
 Quadrupole moment (field-independent basis, Debye-Ang):
   XX=            -56.4042   YY=            -71.5550   ZZ=            -69.0255
   XY=             -1.7336   XZ=             -3.6161   YZ=              1.5543

 Normal termination of Gaussian 16 at Sun Dec  3 22:08:02 2023.
