 Gaussian 16, Revision B.01,
 Gaussian 16:  ES64L-G16RevB.01 20-Dec-2017

 -------------------------
 #P B3LYP/6-311+g(d) force
 -------------------------

 -----
 DPGEN
 -----
 Symbolic Z-matrix:
 Charge =  0 Multiplicity = 2

                         Standard orientation:
 ---------------------------------------------------------------------
 Center     Atomic      Atomic             Coordinates (Angstroms)
 Number     Number       Type             X           Y           Z
 ---------------------------------------------------------------------
      1         11           0        0.639519   -2.825062    0.098805
      2         11           0       -0.348245   -0.094712    1.921736
      3         11           0        3.201783   -0.176560   -0.016985
      4         11           0       -2.567159   -1.473874   -0.162491
      5         11           0        1.132818    2.726818    0.049660
      6         11           0       -2.156263    2.091334   -0.164818
      7         11           0        0.097547   -0.247944   -1.725906
 ---------------------------------------------------------------------

 SCF Done:  E(UB3LYP) =  -1136.14093709     A.U. after   19 cycles

 The electronic state is 2-A.
 Alpha  occ. eigenvalues --  -38.43824 -38.43616 -38.43583 -38.43536 -38.43519
 Alpha  occ. eigenvalues --  -38.43352 -38.43164  -2.19631  -2.19498  -2.19460
 Alpha  occ. eigenvalues --   -2.19376  -2.19374  -2.19280  -2.19136  -1.13306
 Alpha  occ. eigenvalues --   -1.13291  -1.13279  -1.13205  -1.13175  -1.13163
 Alpha  occ. eigenvalues --   -1.13138  -1.13128  -1.13087  -1.13066  -1.13052
 Alpha  occ. eigenvalues --   -1.13038  -1.13032  -1.13026  -1.12978  -1.12945
 Alpha  occ. eigenvalues --   -1.12899  -1.12894  -1.12811  -1.12764  -1.12750
 Alpha  occ. eigenvalues --   -0.18815  -0.12835  -0.12757  -0.10687
 Alpha virt. eigenvalues --   -0.05410  -0.05134  -0.04954  -0.03040  -0.02983
 Alpha virt. eigenvalues --   -0.02469  -0.01357  -0.01182  -0.00380  -0.00320
 Alpha virt. eigenvalues --    0.00001   0.00369   0.00856   0.00883   0.00909

  Beta  occ. eigenvalues --  -38.43824 -38.43608 -38.43575 -38.43534 -38.43515
  Beta  occ. eigenvalues --  -38.43264 -38.43092  -2.19633  -2.19486  -2.19450
  Beta  occ. eigenvalues --   -2.19374  -2.19368  -2.19119  -2.19004  -1.13298
  Beta  occ. eigenvalues --   -1.13286  -1.13283  -1.13197  -1.13156  -1.13131
  Beta  occ. eigenvalues --   -1.13126  -1.13096  -1.13086  -1.13064  -1.13033
  Beta  occ. eigenvalues --   -1.13028  -1.13023  -1.13009  -1.12980  -1.12843
  Beta  occ. eigenvalues --   -1.12787  -1.12779  -1.12724  -1.12670  -1.12652
  Beta  occ. eigenvalues --   -0.18071  -0.12591  -0.12530
  Beta virt. eigenvalues --   -0.06757  -0.05408  -0.05148  -0.04878  -0.02225
  Beta virt. eigenvalues --   -0.02221  -0.01421  -0.01272  -0.01108  -0.00431
  Beta virt. eigenvalues --   -0.00386   0.00137   0.00390   0.00876   0.00890

 Mulliken charges and spin densities:
               1          2
     1  Na   0.233948  -0.095835
     2  Na  -0.398096   0.779246
     3  Na  -0.020929  -0.111777
     4  Na   0.375823  -0.053415
     5  Na  -0.015208  -0.103312
     6  Na   0.095871  -0.072657
     7  Na  -0.271410   0.657751
 Sum of Mulliken charges =  -0.00000   1.00000

 Dipole moment (field-independent basis, Debye):
    X=              0.0508    Y=             -0.0798    Z=              0.0659  Tot=              0.1153
 Quadrupole moment (field-independent basis, Debye-Ang):
   XX=            -57.9522   YY=            -60.6776   ZZ=            -74.6616
   XY=             -0.0923   XZ=              1.0530   YZ=             -0.3189

 Normal termination of Gaussian 16 at Thu Dec  7 08:41:59 2023.
