 Gaussian 16, Revision B.01,
 Gaussian 16:  ES64L-G16RevB.01 20-Dec-2017

 -------------------------
 #P B3LYP/6-311+g(d) force
 -------------------------

 -----
 DPGEN
 -----
 Symbolic Z-matrix:
 Charge =  0 Multiplicity = 2

                         Standard orientation:
 ---------------------------------------------------------------------
 Center     Atomic      Atomic             Coordinates (Angstroms)
 Number     Number       Type             X           Y           Z
 ---------------------------------------------------------------------
      1         11           0       -4.326538    1.304915   -0.661628
      2         11           0       -1.060051    2.661780    0.534032
      3         11           0        3.575929   -0.234339   -1.338952
      4         11           0        0.344167   -2.590620   -0.480847
      5         11           0        1.380424   -1.197363    1.841066
      6         11           0       -2.756465   -2.088180    0.033339
      7         11           0        2.842533    2.143808    0.072990
 ---------------------------------------------------------------------

 SCF Done:  E(UB3LYP) =  -1136.10849495     A.U. after   21 cycles

 The electronic state is 2-A.
 Alpha  occ. eigenvalues --  -38.45163 -38.44792 -38.44450 -38.44347 -38.44201
 Alpha  occ. eigenvalues --  -38.44174 -38.43994  -2.21007  -2.20574  -2.20291
 Alpha  occ. eigenvalues --   -2.20095  -2.20048  -2.19948  -2.19872  -1.14745
 Alpha  occ. eigenvalues --   -1.14643  -1.14602  -1.14272  -1.14239  -1.14193
 Alpha  occ. eigenvalues --   -1.14122  -1.13944  -1.13915  -1.13773  -1.13745
 Alpha  occ. eigenvalues --   -1.13741  -1.13676  -1.13653  -1.13637  -1.13630
 Alpha  occ. eigenvalues --   -1.13614  -1.13569  -1.13556  -1.13519  -1.13491
 Alpha  occ. eigenvalues --   -0.16952  -0.13757  -0.12573  -0.10458
 Alpha virt. eigenvalues --   -0.06894  -0.06222  -0.03940  -0.03898  -0.03101
 Alpha virt. eigenvalues --   -0.02190  -0.02050  -0.01704  -0.01289  -0.00640
 Alpha virt. eigenvalues --   -0.00444   0.00154   0.00264   0.00354   0.00487

  Beta  occ. eigenvalues --  -38.45110 -38.44775 -38.44438 -38.44342 -38.44160
  Beta  occ. eigenvalues --  -38.44102 -38.43998  -2.20908  -2.20544  -2.20275
  Beta  occ. eigenvalues --   -2.20086  -2.19916  -2.19880  -2.19872  -1.14678
  Beta  occ. eigenvalues --   -1.14568  -1.14538  -1.14255  -1.14214  -1.14170
  Beta  occ. eigenvalues --   -1.14076  -1.13940  -1.13883  -1.13768  -1.13738
  Beta  occ. eigenvalues --   -1.13730  -1.13587  -1.13579  -1.13572  -1.13562
  Beta  occ. eigenvalues --   -1.13556  -1.13544  -1.13527  -1.13501  -1.13499
  Beta  occ. eigenvalues --   -0.16430  -0.13275  -0.12299
  Beta virt. eigenvalues --   -0.07129  -0.06755  -0.05736  -0.03796  -0.03396
  Beta virt. eigenvalues --   -0.02572  -0.02003  -0.01801  -0.01382  -0.01125
  Beta virt. eigenvalues --   -0.00536  -0.00143   0.00321   0.00441   0.00454

 Mulliken charges and spin densities:
               1          2
     1  Na   0.234705   0.115064
     2  Na  -0.273379   0.098465
     3  Na   0.192507   0.310752
     4  Na  -0.123994   0.002783
     5  Na   0.052445   0.310685
     6  Na   0.016726   0.067217
     7  Na  -0.099010   0.095034
 Sum of Mulliken charges =  -0.00000   1.00000

 Dipole moment (field-independent basis, Debye):
    X=              0.0219    Y=             -0.5651    Z=              0.3089  Tot=              0.6444
 Quadrupole moment (field-independent basis, Debye-Ang):
   XX=            -65.2116   YY=            -68.0818   ZZ=            -69.2278
   XY=             -1.0530   XZ=              3.0872   YZ=              0.6950

 Normal termination of Gaussian 16 at Sun Dec  3 22:09:24 2023.
