 Gaussian 16, Revision B.01,
 Gaussian 16:  ES64L-G16RevB.01 20-Dec-2017

 -------------------------
 #P B3LYP/6-311+g(d) force
 -------------------------

 -----
 DPGEN
 -----
 Symbolic Z-matrix:
 Charge =  0 Multiplicity = 2

                         Standard orientation:
 ---------------------------------------------------------------------
 Center     Atomic      Atomic             Coordinates (Angstroms)
 Number     Number       Type             X           Y           Z
 ---------------------------------------------------------------------
      1         11           0        3.551512    1.963799   -0.751680
      2         11           0       -3.060531   -0.166547   -1.620733
      3         11           0        0.345815    1.200086   -0.199920
      4         11           0       -0.442401   -2.158533   -1.270897
      5         11           0       -0.147823   -1.252654    2.413213
      6         11           0       -2.783030    1.896611    1.138129
      7         11           0        2.536458   -1.482763    0.291888
 ---------------------------------------------------------------------

 SCF Done:  E(UB3LYP) =  -1136.12716417     A.U. after   21 cycles

 The electronic state is 2-A.
 Alpha  occ. eigenvalues --  -38.44577 -38.44489 -38.44151 -38.44100 -38.43583
 Alpha  occ. eigenvalues --  -38.43310 -38.43102  -2.20408  -2.20319  -2.19960
 Alpha  occ. eigenvalues --   -2.19954  -2.19448  -2.19207  -2.18896  -1.14079
 Alpha  occ. eigenvalues --   -1.14048  -1.14006  -1.13993  -1.13980  -1.13938
 Alpha  occ. eigenvalues --   -1.13657  -1.13640  -1.13627  -1.13608  -1.13590
 Alpha  occ. eigenvalues --   -1.13544  -1.13134  -1.13113  -1.13055  -1.12929
 Alpha  occ. eigenvalues --   -1.12892  -1.12816  -1.12562  -1.12558  -1.12530
 Alpha  occ. eigenvalues --   -0.17951  -0.13455  -0.11816  -0.11411
 Alpha virt. eigenvalues --   -0.05867  -0.05684  -0.04631  -0.03277  -0.03003
 Alpha virt. eigenvalues --   -0.02552  -0.01964  -0.01101  -0.00788  -0.00067
 Alpha virt. eigenvalues --   -0.00018   0.00158   0.00293   0.00587   0.00701

  Beta  occ. eigenvalues --  -38.44496 -38.44448 -38.44123 -38.44100 -38.43544
  Beta  occ. eigenvalues --  -38.43300 -38.43101  -2.20258  -2.20245  -2.19955
  Beta  occ. eigenvalues --   -2.19908  -2.19378  -2.19193  -2.18895  -1.13974
  Beta  occ. eigenvalues --   -1.13946  -1.13933  -1.13931  -1.13902  -1.13882
  Beta  occ. eigenvalues --   -1.13650  -1.13637  -1.13590  -1.13566  -1.13558
  Beta  occ. eigenvalues --   -1.13544  -1.13088  -1.13067  -1.12991  -1.12889
  Beta  occ. eigenvalues --   -1.12887  -1.12809  -1.12560  -1.12557  -1.12528
  Beta  occ. eigenvalues --   -0.17279  -0.13185  -0.11312
  Beta virt. eigenvalues --   -0.07880  -0.05749  -0.05153  -0.04197  -0.02994
  Beta virt. eigenvalues --   -0.02430  -0.01987  -0.01873  -0.00969  -0.00404
  Beta virt. eigenvalues --    0.00002   0.00086   0.00252   0.00438   0.00767

 Mulliken charges and spin densities:
               1          2
     1  Na   0.268760  -0.120417
     2  Na   0.066823   0.040900
     3  Na  -1.740738   0.414183
     4  Na  -0.009607   0.201201
     5  Na  -0.196642   0.244951
     6  Na   0.938582   0.108563
     7  Na   0.672823   0.110619
 Sum of Mulliken charges =  -0.00000   1.00000

 Dipole moment (field-independent basis, Debye):
    X=             -0.6782    Y=             -0.6833    Z=              0.5097  Tot=              1.0894
 Quadrupole moment (field-independent basis, Debye-Ang):
   XX=            -56.9714   YY=            -71.8156   ZZ=            -66.2848
   XY=             -3.9716   XZ=             -0.0765   YZ=              1.0970

 Normal termination of Gaussian 16 at Tue Dec  5 22:32:01 2023.
