 Gaussian 16, Revision B.01,
 Gaussian 16:  ES64L-G16RevB.01 20-Dec-2017

 -------------------------
 #P B3LYP/6-311+g(d) force
 -------------------------

 -----
 DPGEN
 -----
 Symbolic Z-matrix:
 Charge =  0 Multiplicity = 2

                         Standard orientation:
 ---------------------------------------------------------------------
 Center     Atomic      Atomic             Coordinates (Angstroms)
 Number     Number       Type             X           Y           Z
 ---------------------------------------------------------------------
      1         11           0        0.932408   -2.522682    0.278923
      2         11           0       -2.794362   -1.573853   -0.097335
      3         11           0       -0.497110    0.098593    2.058995
      4         11           0       -0.008512   -0.250479   -1.810460
      5         11           0        3.365141   -0.227691   -0.246891
      6         11           0        1.067171    2.557336    0.296488
      7         11           0       -2.064736    1.918776   -0.479720
 ---------------------------------------------------------------------

 SCF Done:  E(UB3LYP) =  -1136.13837428     A.U. after   19 cycles

 The electronic state is 2-A.
 Alpha  occ. eigenvalues --  -38.44115 -38.43877 -38.43706 -38.43590 -38.43444
 Alpha  occ. eigenvalues --  -38.43341 -38.43057  -2.19918  -2.19701  -2.19615
 Alpha  occ. eigenvalues --   -2.19537  -2.19339  -2.19212  -2.18921  -1.13589
 Alpha  occ. eigenvalues --   -1.13574  -1.13566  -1.13377  -1.13369  -1.13344
 Alpha  occ. eigenvalues --   -1.13283  -1.13251  -1.13231  -1.13224  -1.13215
 Alpha  occ. eigenvalues --   -1.13143  -1.13016  -1.12995  -1.12965  -1.12896
 Alpha  occ. eigenvalues --   -1.12887  -1.12816  -1.12601  -1.12584  -1.12550
 Alpha  occ. eigenvalues --   -0.18718  -0.12992  -0.12336  -0.11100
 Alpha virt. eigenvalues --   -0.05748  -0.05019  -0.04365  -0.03274  -0.03031
 Alpha virt. eigenvalues --   -0.02842  -0.01641  -0.00986  -0.00265  -0.00069
 Alpha virt. eigenvalues --   -0.00006   0.00349   0.00789   0.00894   0.00920

  Beta  occ. eigenvalues --  -38.44115 -38.43874 -38.43612 -38.43520 -38.43430
  Beta  occ. eigenvalues --  -38.43333 -38.43050  -2.19920  -2.19699  -2.19444
  Beta  occ. eigenvalues --   -2.19409  -2.19318  -2.19200  -2.18913  -1.13584
  Beta  occ. eigenvalues --   -1.13573  -1.13569  -1.13368  -1.13356  -1.13337
  Beta  occ. eigenvalues --   -1.13175  -1.13140  -1.13135  -1.13125  -1.13106
  Beta  occ. eigenvalues --   -1.13051  -1.12993  -1.12962  -1.12944  -1.12886
  Beta  occ. eigenvalues --   -1.12852  -1.12809  -1.12593  -1.12560  -1.12546
  Beta  occ. eigenvalues --   -0.17958  -0.12778  -0.12093
  Beta virt. eigenvalues --   -0.07140  -0.05694  -0.05017  -0.04308  -0.02540
  Beta virt. eigenvalues --   -0.02227  -0.01764  -0.01570  -0.00924  -0.00258
  Beta virt. eigenvalues --   -0.00086   0.00090   0.00374   0.00874   0.00895

 Mulliken charges and spin densities:
               1          2
     1  Na   0.127205  -0.053972
     2  Na   0.185908  -0.097209
     3  Na  -0.335079   0.671022
     4  Na  -0.260877   0.557521
     5  Na  -0.014660  -0.066870
     6  Na   0.063345  -0.016640
     7  Na   0.234159   0.006148
 Sum of Mulliken charges =  -0.00000   1.00000

 Dipole moment (field-independent basis, Debye):
    X=             -0.0264    Y=             -0.1787    Z=              0.0194  Tot=              0.1817
 Quadrupole moment (field-independent basis, Debye-Ang):
   XX=            -55.4732   YY=            -66.4151   ZZ=            -72.2240
   XY=              1.0086   XZ=              0.5858   YZ=             -0.7064

 Normal termination of Gaussian 16 at Wed Dec  6 01:10:28 2023.
