 Gaussian 16, Revision B.01,
 Gaussian 16:  ES64L-G16RevB.01 20-Dec-2017

 -------------------------
 #P B3LYP/6-311+g(d) force
 -------------------------

 -----
 DPGEN
 -----
 Symbolic Z-matrix:
 Charge =  0 Multiplicity = 2

                         Standard orientation:
 ---------------------------------------------------------------------
 Center     Atomic      Atomic             Coordinates (Angstroms)
 Number     Number       Type             X           Y           Z
 ---------------------------------------------------------------------
      1         11           0        0.669378    0.012343    2.121286
      2         11           0        1.708853    2.003214   -0.931065
      3         11           0        4.028846   -0.405993    0.375182
      4         11           0        1.562850   -1.609510   -1.056018
      5         11           0       -4.667143   -0.190425    0.178949
      6         11           0       -1.611835    1.931581   -0.237658
      7         11           0       -1.690950   -1.741210   -0.450676
 ---------------------------------------------------------------------

 SCF Done:  E(UB3LYP) =  -1136.11567448     A.U. after   25 cycles

 The electronic state is 2-A.
 Alpha  occ. eigenvalues --  -38.45774 -38.44563 -38.44445 -38.43898 -38.43492
 Alpha  occ. eigenvalues --  -38.43251 -38.43103  -2.21588  -2.20424  -2.20252
 Alpha  occ. eigenvalues --   -2.19788  -2.19335  -2.19092  -2.18926  -1.15251
 Alpha  occ. eigenvalues --   -1.15230  -1.15200  -1.14107  -1.14070  -1.14045
 Alpha  occ. eigenvalues --   -1.13902  -1.13896  -1.13869  -1.13482  -1.13437
 Alpha  occ. eigenvalues --   -1.13432  -1.13046  -1.12984  -1.12955  -1.12805
 Alpha  occ. eigenvalues --   -1.12757  -1.12721  -1.12636  -1.12603  -1.12533
 Alpha  occ. eigenvalues --   -0.18077  -0.14267  -0.11153  -0.10737
 Alpha virt. eigenvalues --   -0.07984  -0.05059  -0.04261  -0.03372  -0.03196
 Alpha virt. eigenvalues --   -0.02286  -0.02125  -0.01630  -0.01135  -0.00635
 Alpha virt. eigenvalues --   -0.00228   0.00132   0.00239   0.00602   0.00752

  Beta  occ. eigenvalues --  -38.45710 -38.44515 -38.44374 -38.43889 -38.43479
  Beta  occ. eigenvalues --  -38.43249 -38.43105  -2.21470  -2.20337  -2.20118
  Beta  occ. eigenvalues --   -2.19779  -2.19313  -2.19094  -2.18932  -1.15170
  Beta  occ. eigenvalues --   -1.15149  -1.15112  -1.14049  -1.14008  -1.13981
  Beta  occ. eigenvalues --   -1.13809  -1.13805  -1.13782  -1.13477  -1.13435
  Beta  occ. eigenvalues --   -1.13388  -1.13033  -1.12972  -1.12923  -1.12808
  Beta  occ. eigenvalues --   -1.12755  -1.12695  -1.12643  -1.12599  -1.12529
  Beta  occ. eigenvalues --   -0.17509  -0.13569  -0.11006
  Beta virt. eigenvalues --   -0.07690  -0.07246  -0.04844  -0.03779  -0.03108
  Beta virt. eigenvalues --   -0.02916  -0.02053  -0.01806  -0.01116  -0.00814
  Beta virt. eigenvalues --   -0.00229  -0.00100   0.00186   0.00339   0.00697

 Mulliken charges and spin densities:
               1          2
     1  Na  -0.201880   0.168497
     2  Na  -0.120249   0.091995
     3  Na   0.796805   0.332371
     4  Na  -0.282935  -0.070625
     5  Na   0.350075   0.378240
     6  Na  -0.277880   0.021658
     7  Na  -0.263936   0.077863
 Sum of Mulliken charges =  -0.00000   1.00000

 Dipole moment (field-independent basis, Debye):
    X=              0.6070    Y=              0.0068    Z=              1.5430  Tot=              1.6581
 Quadrupole moment (field-independent basis, Debye-Ang):
   XX=            -59.7700   YY=            -80.6377   ZZ=            -61.1453
   XY=             -0.3462   XZ=              1.9887   YZ=             -0.5885

 Normal termination of Gaussian 16 at Thu Dec  7 01:47:38 2023.
