 Gaussian 16, Revision B.01,
 Gaussian 16:  ES64L-G16RevB.01 20-Dec-2017

 -------------------------
 #P B3LYP/6-311+g(d) force
 -------------------------

 -----
 DPGEN
 -----
 Symbolic Z-matrix:
 Charge =  0 Multiplicity = 2

                         Standard orientation:
 ---------------------------------------------------------------------
 Center     Atomic      Atomic             Coordinates (Angstroms)
 Number     Number       Type             X           Y           Z
 ---------------------------------------------------------------------
      1         11           0       -1.596209   -0.836593    1.953695
      2         11           0        0.137149    0.845636   -0.939701
      3         11           0        2.144610    0.816654    1.767032
      4         11           0        1.209532   -1.696698    0.162579
      5         11           0       -2.664350   -1.573357   -1.345563
      6         11           0       -2.873090    2.186458   -0.229721
      7         11           0        3.642357    0.257901   -1.368321
 ---------------------------------------------------------------------

 SCF Done:  E(UB3LYP) =  -1136.12004939     A.U. after   27 cycles

 The electronic state is 2-A.
 Alpha  occ. eigenvalues --  -38.44954 -38.44600 -38.44198 -38.43533 -38.43457
 Alpha  occ. eigenvalues --  -38.43348 -38.43315  -2.20752  -2.20485  -2.20027
 Alpha  occ. eigenvalues --   -2.19488  -2.19427  -2.19156  -2.19146  -1.14430
 Alpha  occ. eigenvalues --   -1.14389  -1.14363  -1.14178  -1.14156  -1.14070
 Alpha  occ. eigenvalues --   -1.13698  -1.13685  -1.13655  -1.13349  -1.13192
 Alpha  occ. eigenvalues --   -1.13087  -1.13078  -1.13060  -1.12994  -1.12825
 Alpha  occ. eigenvalues --   -1.12818  -1.12814  -1.12811  -1.12780  -1.12773
 Alpha  occ. eigenvalues --   -0.18487  -0.14108  -0.11084  -0.10703
 Alpha virt. eigenvalues --   -0.06318  -0.05777  -0.04847  -0.02950  -0.02502
 Alpha virt. eigenvalues --   -0.02282  -0.02068  -0.01343  -0.00902  -0.00176
 Alpha virt. eigenvalues --    0.00138   0.00235   0.00369   0.00465   0.00614

  Beta  occ. eigenvalues --  -38.44903 -38.44556 -38.44184 -38.43515 -38.43440
  Beta  occ. eigenvalues --  -38.43316 -38.43312  -2.20658  -2.20402  -2.20002
  Beta  occ. eigenvalues --   -2.19463  -2.19400  -2.19145  -2.19096  -1.14362
  Beta  occ. eigenvalues --   -1.14328  -1.14295  -1.14124  -1.14095  -1.14009
  Beta  occ. eigenvalues --   -1.13674  -1.13666  -1.13640  -1.13331  -1.13130
  Beta  occ. eigenvalues --   -1.13077  -1.13045  -1.13030  -1.12976  -1.12822
  Beta  occ. eigenvalues --   -1.12791  -1.12779  -1.12774  -1.12765  -1.12739
  Beta  occ. eigenvalues --   -0.17835  -0.13831  -0.10464
  Beta virt. eigenvalues --   -0.07471  -0.06098  -0.05035  -0.04710  -0.02666
  Beta virt. eigenvalues --   -0.02325  -0.01858  -0.01552  -0.00934  -0.00639
  Beta virt. eigenvalues --    0.00018   0.00201   0.00379   0.00413   0.00533

 Mulliken charges and spin densities:
               1          2
     1  Na   0.154421   0.263317
     2  Na  -1.016111   0.584507
     3  Na  -0.122779   0.020612
     4  Na   0.217272   0.162833
     5  Na  -0.000464   0.034660
     6  Na   0.052034  -0.035503
     7  Na   0.715628  -0.030427
 Sum of Mulliken charges =  -0.00000   1.00000

 Dipole moment (field-independent basis, Debye):
    X=              0.5239    Y=             -0.4709    Z=              0.3125  Tot=              0.7706
 Quadrupole moment (field-independent basis, Debye-Ang):
   XX=            -50.3756   YY=            -72.1281   ZZ=            -70.5425
   XY=              3.6458   XZ=             -0.4013   YZ=              7.7813

 Normal termination of Gaussian 16 at Thu Dec  7 10:54:22 2023.
