 Gaussian 16, Revision B.01,
 Gaussian 16:  ES64L-G16RevB.01 20-Dec-2017

 -------------------------
 #P B3LYP/6-311+g(d) force
 -------------------------

 -----
 DPGEN
 -----
 Symbolic Z-matrix:
 Charge =  0 Multiplicity = 2

                         Standard orientation:
 ---------------------------------------------------------------------
 Center     Atomic      Atomic             Coordinates (Angstroms)
 Number     Number       Type             X           Y           Z
 ---------------------------------------------------------------------
      1         11           0       -3.643815   -0.135466    0.101713
      2         11           0        0.219593    0.201959   -1.726460
      3         11           0       -1.198305    2.518982   -0.054375
      4         11           0        2.230086    2.156866    0.155051
      5         11           0        3.299284   -1.384359    0.062208
      6         11           0       -0.128943   -0.576666    1.958143
      7         11           0       -0.777900   -2.781317   -0.496280
 ---------------------------------------------------------------------

 SCF Done:  E(UB3LYP) =  -1136.13040425     A.U. after   20 cycles

 The electronic state is 2-A.
 Alpha  occ. eigenvalues --  -38.45041 -38.44819 -38.43774 -38.43710 -38.43554
 Alpha  occ. eigenvalues --  -38.43198 -38.43080  -2.20794  -2.20569  -2.19624
 Alpha  occ. eigenvalues --   -2.19540  -2.19378  -2.19136  -2.18942  -1.14469
 Alpha  occ. eigenvalues --   -1.14455  -1.14428  -1.14246  -1.14226  -1.14208
 Alpha  occ. eigenvalues --   -1.13309  -1.13276  -1.13228  -1.13225  -1.13208
 Alpha  occ. eigenvalues --   -1.13172  -1.13072  -1.13046  -1.12990  -1.12840
 Alpha  occ. eigenvalues --   -1.12780  -1.12754  -1.12618  -1.12606  -1.12557
 Alpha  occ. eigenvalues --   -0.18062  -0.12893  -0.12164  -0.10382
 Alpha virt. eigenvalues --   -0.06640  -0.05266  -0.04399  -0.03095  -0.02814
 Alpha virt. eigenvalues --   -0.02364  -0.02259  -0.01287  -0.00662  -0.00312
 Alpha virt. eigenvalues --   -0.00098   0.00269   0.00677   0.00703   0.00757

  Beta  occ. eigenvalues --  -38.45042 -38.44820 -38.43707 -38.43700 -38.43536
  Beta  occ. eigenvalues --  -38.43123 -38.43074  -2.20797  -2.20572  -2.19536
  Beta  occ. eigenvalues --   -2.19485  -2.19350  -2.18999  -2.18935  -1.14459
  Beta  occ. eigenvalues --   -1.14456  -1.14432  -1.14236  -1.14228  -1.14212
  Beta  occ. eigenvalues --   -1.13221  -1.13214  -1.13197  -1.13179  -1.13167
  Beta  occ. eigenvalues --   -1.13127  -1.13045  -1.13003  -1.12974  -1.12757
  Beta  occ. eigenvalues --   -1.12690  -1.12656  -1.12597  -1.12578  -1.12550
  Beta  occ. eigenvalues --   -0.17351  -0.12730  -0.11919
  Beta virt. eigenvalues --   -0.06668  -0.06439  -0.05262  -0.04325  -0.02434
  Beta virt. eigenvalues --   -0.02157  -0.02067  -0.01350  -0.01233  -0.00666
  Beta virt. eigenvalues --   -0.00340   0.00062   0.00287   0.00739   0.00779

 Mulliken charges and spin densities:
               1          2
     1  Na   0.099165  -0.033735
     2  Na   0.107300   0.563193
     3  Na   0.064634  -0.058414
     4  Na   0.034991  -0.033993
     5  Na   0.076632  -0.084311
     6  Na  -0.415048   0.778260
     7  Na   0.032326  -0.131000
 Sum of Mulliken charges =  -0.00000   1.00000

 Dipole moment (field-independent basis, Debye):
    X=             -0.0332    Y=             -0.3122    Z=              0.1202  Tot=              0.3362
 Quadrupole moment (field-independent basis, Debye-Ang):
   XX=            -49.5698   YY=            -65.8735   ZZ=            -76.1170
   XY=             -0.2146   XZ=              0.5126   YZ=              1.5373

 Normal termination of Gaussian 16 at Tue Dec  5 11:52:19 2023.
