 Gaussian 16, Revision B.01,
 Gaussian 16:  ES64L-G16RevB.01 20-Dec-2017

 -------------------------
 #P B3LYP/6-311+g(d) force
 -------------------------

 -----
 DPGEN
 -----
 Symbolic Z-matrix:
 Charge =  0 Multiplicity = 2

                         Standard orientation:
 ---------------------------------------------------------------------
 Center     Atomic      Atomic             Coordinates (Angstroms)
 Number     Number       Type             X           Y           Z
 ---------------------------------------------------------------------
      1         11           0        2.079113   -1.237014    1.418829
      2         11           0        0.892084    0.402959   -1.154450
      3         11           0       -2.377727    1.392384   -0.077979
      4         11           0       -1.028348   -2.024565    0.567296
      5         11           0       -4.237851   -1.106063   -0.599903
      6         11           0        0.223721    3.003427    0.799981
      7         11           0        4.449007   -0.431128   -0.953774
 ---------------------------------------------------------------------

 SCF Done:  E(UB3LYP) =  -1136.12585576     A.U. after   20 cycles

 The electronic state is 2-A.
 Alpha  occ. eigenvalues --  -38.44698 -38.44143 -38.44108 -38.43559 -38.43494
 Alpha  occ. eigenvalues --  -38.43424 -38.43145  -2.20594  -2.20017  -2.19932
 Alpha  occ. eigenvalues --   -2.19404  -2.19365  -2.19335  -2.18990  -1.14303
 Alpha  occ. eigenvalues --   -1.14282  -1.14194  -1.13702  -1.13672  -1.13663
 Alpha  occ. eigenvalues --   -1.13580  -1.13569  -1.13532  -1.13126  -1.13060
 Alpha  occ. eigenvalues --   -1.13052  -1.13042  -1.13039  -1.13024  -1.13009
 Alpha  occ. eigenvalues --   -1.12953  -1.12925  -1.12652  -1.12640  -1.12626
 Alpha  occ. eigenvalues --   -0.17841  -0.14137  -0.12044  -0.10928
 Alpha virt. eigenvalues --   -0.06496  -0.04832  -0.04621  -0.03645  -0.02849
 Alpha virt. eigenvalues --   -0.02382  -0.01623  -0.01409  -0.00972  -0.00427
 Alpha virt. eigenvalues --   -0.00205   0.00098   0.00398   0.00568   0.00835

  Beta  occ. eigenvalues --  -38.44692 -38.44115 -38.44021 -38.43518 -38.43451
  Beta  occ. eigenvalues --  -38.43413 -38.43148  -2.20585  -2.19973  -2.19769
  Beta  occ. eigenvalues --   -2.19328  -2.19317  -2.19291  -2.18995  -1.14293
  Beta  occ. eigenvalues --   -1.14260  -1.14191  -1.13667  -1.13648  -1.13588
  Beta  occ. eigenvalues --   -1.13468  -1.13457  -1.13431  -1.13078  -1.13022
  Beta  occ. eigenvalues --   -1.13016  -1.13006  -1.12991  -1.12984  -1.12976
  Beta  occ. eigenvalues --   -1.12900  -1.12878  -1.12657  -1.12641  -1.12628
  Beta  occ. eigenvalues --   -0.17306  -0.13487  -0.11807
  Beta virt. eigenvalues --   -0.07267  -0.06333  -0.04736  -0.04002  -0.03414
  Beta virt. eigenvalues --   -0.02591  -0.02033  -0.01227  -0.01109  -0.00591
  Beta virt. eigenvalues --   -0.00292  -0.00017   0.00235   0.00556   0.00714

 Mulliken charges and spin densities:
               1          2
     1  Na   0.304233  -0.039484
     2  Na  -0.243151  -0.079689
     3  Na  -0.103006   0.169183
     4  Na  -0.531128   0.186779
     5  Na   0.512852   0.205629
     6  Na  -0.011515   0.104454
     7  Na   0.071715   0.453128
 Sum of Mulliken charges =  -0.00000   1.00000

 Dipole moment (field-independent basis, Debye):
    X=              0.5097    Y=             -0.0415    Z=              0.4296  Tot=              0.6678
 Quadrupole moment (field-independent basis, Debye-Ang):
   XX=            -63.3106   YY=            -71.8193   ZZ=            -65.0230
   XY=              1.5769   XZ=              2.9653   YZ=              2.1469

 Normal termination of Gaussian 16 at Wed Nov 29 00:41:40 2023.
