 Gaussian 16, Revision B.01,
 Gaussian 16:  ES64L-G16RevB.01 20-Dec-2017

 -------------------------
 #P B3LYP/6-311+g(d) force
 -------------------------

 -----
 DPGEN
 -----
 Symbolic Z-matrix:
 Charge =  0 Multiplicity = 2

                         Standard orientation:
 ---------------------------------------------------------------------
 Center     Atomic      Atomic             Coordinates (Angstroms)
 Number     Number       Type             X           Y           Z
 ---------------------------------------------------------------------
      1         11           0       -4.208026    0.777259    0.644454
      2         11           0        3.974403    1.236344   -0.413968
      3         11           0        1.628450    3.443125   -0.038929
      4         11           0       -3.095972   -3.190259   -0.459263
      5         11           0       -0.019832   -3.396575   -0.241095
      6         11           0       -2.232721    3.501601   -0.158777
      7         11           0        3.953698   -2.371495    0.667578
 ---------------------------------------------------------------------

 SCF Done:  E(UB3LYP) =  -1136.10443194     A.U. after   20 cycles

 The electronic state is 2-A.
 Alpha  occ. eigenvalues --  -38.45351 -38.44907 -38.44734 -38.44673 -38.44613
 Alpha  occ. eigenvalues --  -38.44368 -38.44172  -2.21103  -2.20679  -2.20502
 Alpha  occ. eigenvalues --   -2.20422  -2.20389  -2.20166  -2.19979  -1.14771
 Alpha  occ. eigenvalues --   -1.14756  -1.14727  -1.14357  -1.14352  -1.14335
 Alpha  occ. eigenvalues --   -1.14194  -1.14183  -1.14150  -1.14103  -1.14094
 Alpha  occ. eigenvalues --   -1.14062  -1.14038  -1.14022  -1.14008  -1.13821
 Alpha  occ. eigenvalues --   -1.13816  -1.13785  -1.13637  -1.13626  -1.13610
 Alpha  occ. eigenvalues --   -0.15155  -0.13782  -0.13487  -0.11249
 Alpha virt. eigenvalues --   -0.07636  -0.04965  -0.04645  -0.03485  -0.03375
 Alpha virt. eigenvalues --   -0.02453  -0.02292  -0.02083  -0.01706  -0.00885
 Alpha virt. eigenvalues --   -0.00691  -0.00295  -0.00114   0.00300   0.00359

  Beta  occ. eigenvalues --  -38.45308 -38.44897 -38.44738 -38.44678 -38.44521
  Beta  occ. eigenvalues --  -38.44310 -38.44138  -2.21026  -2.20666  -2.20515
  Beta  occ. eigenvalues --   -2.20435  -2.20217  -2.20059  -2.19918  -1.14720
  Beta  occ. eigenvalues --   -1.14705  -1.14666  -1.14348  -1.14345  -1.14301
  Beta  occ. eigenvalues --   -1.14199  -1.14197  -1.14125  -1.14115  -1.14105
  Beta  occ. eigenvalues --   -1.14050  -1.13921  -1.13905  -1.13896  -1.13748
  Beta  occ. eigenvalues --   -1.13746  -1.13715  -1.13592  -1.13586  -1.13568
  Beta  occ. eigenvalues --   -0.14608  -0.13083  -0.12701
  Beta virt. eigenvalues --   -0.08138  -0.07751  -0.04473  -0.04211  -0.03281
  Beta virt. eigenvalues --   -0.03083  -0.02258  -0.02086  -0.01859  -0.01528
  Beta virt. eigenvalues --   -0.00488  -0.00424  -0.00056   0.00135   0.00286

 Mulliken charges and spin densities:
               1          2
     1  Na  -0.012462   0.203827
     2  Na  -0.034310  -0.040393
     3  Na  -0.077495   0.251950
     4  Na   0.411508   0.073593
     5  Na  -0.392291   0.130251
     6  Na  -0.010060  -0.040684
     7  Na   0.115111   0.421456
 Sum of Mulliken charges =  -0.00000   1.00000

 Dipole moment (field-independent basis, Debye):
    X=             -0.6832    Y=              0.0174    Z=              0.0810  Tot=              0.6882
 Quadrupole moment (field-independent basis, Debye-Ang):
   XX=            -58.6879   YY=            -67.2573   ZZ=            -73.8631
   XY=              0.8545   XZ=             -0.8917   YZ=             -1.3566

 Normal termination of Gaussian 16 at Sun Dec  3 12:12:20 2023.
