 Gaussian 16, Revision B.01,
 Gaussian 16:  ES64L-G16RevB.01 20-Dec-2017

 -------------------------
 #P B3LYP/6-311+g(d) force
 -------------------------

 -----
 DPGEN
 -----
 Symbolic Z-matrix:
 Charge =  0 Multiplicity = 2

                         Standard orientation:
 ---------------------------------------------------------------------
 Center     Atomic      Atomic             Coordinates (Angstroms)
 Number     Number       Type             X           Y           Z
 ---------------------------------------------------------------------
      1         11           0        1.704176   -2.264246    0.244959
      2         11           0       -0.648892   -2.557085   -1.140296
      3         11           0       -3.190455    0.791711    2.006914
      4         11           0       -3.101556   -0.858929   -0.617923
      5         11           0        4.101203   -0.072196    0.994333
      6         11           0        0.742856    1.169279   -0.470068
      7         11           0        0.392668    3.791466   -1.017919
 ---------------------------------------------------------------------

 SCF Done:  E(UB3LYP) =  -1136.10301670     A.U. after   19 cycles

 The electronic state is 2-A.
 Alpha  occ. eigenvalues --  -38.44991 -38.44896 -38.44418 -38.44122 -38.44033
 Alpha  occ. eigenvalues --  -38.43830 -38.43367  -2.20803  -2.20699  -2.20275
 Alpha  occ. eigenvalues --   -2.20039  -2.19960  -2.19696  -2.19273  -1.14476
 Alpha  occ. eigenvalues --   -1.14437  -1.14417  -1.14347  -1.14340  -1.14320
 Alpha  occ. eigenvalues --   -1.14059  -1.13965  -1.13935  -1.13916  -1.13678
 Alpha  occ. eigenvalues --   -1.13667  -1.13612  -1.13554  -1.13552  -1.13461
 Alpha  occ. eigenvalues --   -1.13300  -1.13290  -1.12927  -1.12882  -1.12853
 Alpha  occ. eigenvalues --   -0.17182  -0.13900  -0.12724  -0.11204
 Alpha virt. eigenvalues --   -0.06432  -0.05275  -0.04028  -0.03778  -0.03231
 Alpha virt. eigenvalues --   -0.02219  -0.01733  -0.01382  -0.01062  -0.00404
 Alpha virt. eigenvalues --   -0.00227  -0.00021   0.00159   0.00620   0.00657

  Beta  occ. eigenvalues --  -38.44905 -38.44822 -38.44422 -38.44125 -38.43995
  Beta  occ. eigenvalues --  -38.43793 -38.43359  -2.20645  -2.20562  -2.20290
  Beta  occ. eigenvalues --   -2.20045  -2.19894  -2.19628  -2.19260  -1.14370
  Beta  occ. eigenvalues --   -1.14329  -1.14309  -1.14253  -1.14244  -1.14230
  Beta  occ. eigenvalues --   -1.14029  -1.13951  -1.13933  -1.13913  -1.13688
  Beta  occ. eigenvalues --   -1.13675  -1.13569  -1.13514  -1.13506  -1.13422
  Beta  occ. eigenvalues --   -1.13254  -1.13245  -1.12915  -1.12876  -1.12831
  Beta  occ. eigenvalues --   -0.16831  -0.13031  -0.12193
  Beta virt. eigenvalues --   -0.07998  -0.06073  -0.05032  -0.03864  -0.03361
  Beta virt. eigenvalues --   -0.02804  -0.01983  -0.01371  -0.01185  -0.00702
  Beta virt. eigenvalues --   -0.00257  -0.00010   0.00213   0.00264   0.00678

 Mulliken charges and spin densities:
               1          2
     1  Na  -0.171376   0.025419
     2  Na   1.217455   0.029115
     3  Na   0.328258   0.309608
     4  Na  -0.573878   0.114082
     5  Na   0.856687   0.282582
     6  Na  -1.489380   0.054680
     7  Na  -0.167765   0.184515
 Sum of Mulliken charges =  -0.00000   1.00000

 Dipole moment (field-independent basis, Debye):
    X=              0.1026    Y=              0.1105    Z=              0.7034  Tot=              0.7194
 Quadrupole moment (field-independent basis, Debye-Ang):
   XX=            -62.6191   YY=            -67.2673   ZZ=            -67.1353
   XY=              0.4178   XZ=              2.8120   YZ=              2.1925

 Normal termination of Gaussian 16 at Thu Dec  7 10:55:25 2023.
