 Gaussian 16, Revision B.01,
 Gaussian 16:  ES64L-G16RevB.01 20-Dec-2017

 -------------------------
 #P B3LYP/6-311+g(d) force
 -------------------------

 -----
 DPGEN
 -----
 Symbolic Z-matrix:
 Charge =  0 Multiplicity = 2

                         Standard orientation:
 ---------------------------------------------------------------------
 Center     Atomic      Atomic             Coordinates (Angstroms)
 Number     Number       Type             X           Y           Z
 ---------------------------------------------------------------------
      1         11           0       -3.909674   -1.240888   -0.104598
      2         11           0       -1.945049    2.070434   -0.385357
      3         11           0       -0.382344   -1.042130   -1.581599
      4         11           0       -0.593120   -0.430587    2.134807
      5         11           0        3.125549   -1.236948   -1.140814
      6         11           0        2.338382   -0.185981    1.642224
      7         11           0        1.366256    2.066101   -0.564665
 ---------------------------------------------------------------------

 SCF Done:  E(UB3LYP) =  -1136.11791222     A.U. after   91 cycles

 The electronic state is 2-A.
 Alpha  occ. eigenvalues --  -38.45486 -38.44824 -38.44707 -38.44289 -38.44098
 Alpha  occ. eigenvalues --  -38.42783 -38.42434  -2.21249  -2.20660  -2.20584
 Alpha  occ. eigenvalues --   -2.20143  -2.19919  -2.18730  -2.18291  -1.14919
 Alpha  occ. eigenvalues --   -1.14896  -1.14861  -1.14374  -1.14301  -1.14279
 Alpha  occ. eigenvalues --   -1.14248  -1.14227  -1.14193  -1.13832  -1.13798
 Alpha  occ. eigenvalues --   -1.13754  -1.13619  -1.13601  -1.13516  -1.12451
 Alpha  occ. eigenvalues --   -1.12397  -1.12368  -1.11986  -1.11954  -1.11900
 Alpha  occ. eigenvalues --   -0.18344  -0.13956  -0.12152  -0.10680
 Alpha virt. eigenvalues --   -0.06750  -0.05624  -0.04283  -0.03525  -0.02579
 Alpha virt. eigenvalues --   -0.02515  -0.02439  -0.01394  -0.00544  -0.00389
 Alpha virt. eigenvalues --    0.00118   0.00240   0.00361   0.00553   0.00695

  Beta  occ. eigenvalues --  -38.45447 -38.44767 -38.44642 -38.44257 -38.44078
  Beta  occ. eigenvalues --  -38.42779 -38.42438  -2.21176  -2.20561  -2.20470
  Beta  occ. eigenvalues --   -2.20084  -2.19884  -2.18724  -2.18301  -1.14865
  Beta  occ. eigenvalues --   -1.14846  -1.14815  -1.14286  -1.14237  -1.14200
  Beta  occ. eigenvalues --   -1.14171  -1.14141  -1.14099  -1.13790  -1.13752
  Beta  occ. eigenvalues --   -1.13719  -1.13598  -1.13564  -1.13490  -1.12451
  Beta  occ. eigenvalues --   -1.12381  -1.12364  -1.11993  -1.11949  -1.11907
  Beta  occ. eigenvalues --   -0.17664  -0.13616  -0.10522
  Beta virt. eigenvalues --   -0.08234  -0.06476  -0.05050  -0.04176  -0.03006
  Beta virt. eigenvalues --   -0.02334  -0.02067  -0.01901  -0.00953  -0.00470
  Beta virt. eigenvalues --   -0.00151   0.00171   0.00322   0.00441   0.00619

 Mulliken charges and spin densities:
               1          2
     1  Na   0.629553   0.161653
     2  Na   0.318326   0.108520
     3  Na  -0.780365   0.307967
     4  Na  -0.668955   0.116689
     5  Na   0.371129   0.041357
     6  Na   0.366826  -0.003346
     7  Na  -0.236514   0.267161
 Sum of Mulliken charges =  -0.00000   1.00000

 Dipole moment (field-independent basis, Debye):
    X=             -1.1773    Y=              0.0899    Z=             -0.7051  Tot=              1.3752
 Quadrupole moment (field-independent basis, Debye-Ang):
   XX=            -47.0083   YY=            -63.5100   ZZ=            -83.8813
   XY=              1.2644   XZ=             -1.1887   YZ=              1.5834

 Normal termination of Gaussian 16 at Thu Dec  7 03:11:02 2023.
