 Gaussian 16, Revision B.01,
 Gaussian 16:  ES64L-G16RevB.01 20-Dec-2017

 -------------------------
 #P B3LYP/6-311+g(d) force
 -------------------------

 -----
 DPGEN
 -----
 Symbolic Z-matrix:
 Charge =  0 Multiplicity = 2

                         Standard orientation:
 ---------------------------------------------------------------------
 Center     Atomic      Atomic             Coordinates (Angstroms)
 Number     Number       Type             X           Y           Z
 ---------------------------------------------------------------------
      1         11           0       -0.159230   -0.126446   -1.277383
      2         11           0        3.054751   -1.355671   -0.878750
      3         11           0       -3.352041   -1.556175   -0.750778
      4         11           0       -2.595354    2.038618   -0.094405
      5         11           0        2.293281    2.170225   -0.697271
      6         11           0        0.482075   -2.226056    1.438140
      7         11           0        0.276519    1.055505    2.260447
 ---------------------------------------------------------------------

 SCF Done:  E(UB3LYP) =  -1136.12637692     A.U. after   23 cycles

 The electronic state is 2-A.
 Alpha  occ. eigenvalues --  -38.44316 -38.44308 -38.44212 -38.44195 -38.43704
 Alpha  occ. eigenvalues --  -38.43445 -38.43330  -2.20094  -2.20077  -2.20044
 Alpha  occ. eigenvalues --   -2.20026  -2.19511  -2.19381  -2.19174  -1.13782
 Alpha  occ. eigenvalues --   -1.13764  -1.13755  -1.13726  -1.13722  -1.13713
 Alpha  occ. eigenvalues --   -1.13707  -1.13697  -1.13677  -1.13673  -1.13657
 Alpha  occ. eigenvalues --   -1.13647  -1.13203  -1.13172  -1.13139  -1.13099
 Alpha  occ. eigenvalues --   -1.13029  -1.13002  -1.12861  -1.12808  -1.12797
 Alpha  occ. eigenvalues --   -0.17840  -0.13144  -0.11626  -0.11309
 Alpha virt. eigenvalues --   -0.05911  -0.05657  -0.03988  -0.03310  -0.03128
 Alpha virt. eigenvalues --   -0.02892  -0.01943  -0.01301  -0.00443  -0.00312
 Alpha virt. eigenvalues --    0.00127   0.00260   0.00409   0.00631   0.00726

  Beta  occ. eigenvalues --  -38.44315 -38.44294 -38.44193 -38.44098 -38.43694
  Beta  occ. eigenvalues --  -38.43423 -38.43285  -2.20094  -2.20052  -2.19993
  Beta  occ. eigenvalues --   -2.19865  -2.19494  -2.19342  -2.19093  -1.13778
  Beta  occ. eigenvalues --   -1.13763  -1.13735  -1.13717  -1.13707  -1.13684
  Beta  occ. eigenvalues --   -1.13679  -1.13655  -1.13627  -1.13589  -1.13560
  Beta  occ. eigenvalues --   -1.13512  -1.13186  -1.13163  -1.13116  -1.13059
  Beta  occ. eigenvalues --   -1.13007  -1.12970  -1.12800  -1.12749  -1.12735
  Beta  occ. eigenvalues --   -0.17128  -0.12796  -0.11204
  Beta virt. eigenvalues --   -0.07645  -0.05869  -0.05444  -0.03580  -0.02818
  Beta virt. eigenvalues --   -0.02714  -0.01978  -0.01752  -0.01285  -0.00293
  Beta virt. eigenvalues --   -0.00141   0.00130   0.00314   0.00501   0.00717

 Mulliken charges and spin densities:
               1          2
     1  Na   0.054468  -0.093687
     2  Na   0.249512   0.018407
     3  Na   0.176839   0.073281
     4  Na  -0.166332   0.116465
     5  Na  -0.178225   0.162227
     6  Na  -0.366602   0.409437
     7  Na   0.230340   0.313869
 Sum of Mulliken charges =  -0.00000   1.00000

 Dipole moment (field-independent basis, Debye):
    X=             -0.1779    Y=              0.1409    Z=              0.0132  Tot=              0.2273
 Quadrupole moment (field-independent basis, Debye-Ang):
   XX=            -54.9737   YY=            -68.2845   ZZ=            -69.9283
   XY=             -0.3403   XZ=             -1.4491   YZ=              0.2352

 Normal termination of Gaussian 16 at Fri Dec  8 19:34:35 2023.
