 Gaussian 16, Revision B.01,
 Gaussian 16:  ES64L-G16RevB.01 20-Dec-2017

 -------------------------
 #P B3LYP/6-311+g(d) force
 -------------------------

 -----
 DPGEN
 -----
 Symbolic Z-matrix:
 Charge =  0 Multiplicity = 2

                         Standard orientation:
 ---------------------------------------------------------------------
 Center     Atomic      Atomic             Coordinates (Angstroms)
 Number     Number       Type             X           Y           Z
 ---------------------------------------------------------------------
      1         11           0       -1.944903    2.605702    0.097669
      2         11           0        2.155298   -1.925260    0.670543
      3         11           0       -0.346162   -0.389387   -1.460897
      4         11           0        3.801946    0.507775   -1.104121
      5         11           0        1.171666    1.305140    0.977452
      6         11           0       -1.226869   -0.828216    1.782745
      7         11           0       -3.610976   -1.275755   -0.963392
 ---------------------------------------------------------------------

 SCF Done:  E(UB3LYP) =  -1136.12500789     A.U. after   25 cycles

 The electronic state is 2-A.
 Alpha  occ. eigenvalues --  -38.44779 -38.44526 -38.44096 -38.43959 -38.43840
 Alpha  occ. eigenvalues --  -38.43066 -38.42712  -2.20597  -2.20413  -2.19990
 Alpha  occ. eigenvalues --   -2.19817  -2.19638  -2.18865  -2.18666  -1.14256
 Alpha  occ. eigenvalues --   -1.14245  -1.14218  -1.14140  -1.14054  -1.14033
 Alpha  occ. eigenvalues --   -1.13695  -1.13617  -1.13602  -1.13496  -1.13487
 Alpha  occ. eigenvalues --   -1.13437  -1.13309  -1.13285  -1.13268  -1.12545
 Alpha  occ. eigenvalues --   -1.12516  -1.12510  -1.12388  -1.12351  -1.12247
 Alpha  occ. eigenvalues --   -0.18459  -0.13874  -0.11299  -0.10881
 Alpha virt. eigenvalues --   -0.06580  -0.05311  -0.04686  -0.02976  -0.02704
 Alpha virt. eigenvalues --   -0.02281  -0.02175  -0.01229  -0.01086  -0.00182
 Alpha virt. eigenvalues --    0.00081   0.00212   0.00341   0.00564   0.00739

  Beta  occ. eigenvalues --  -38.44732 -38.44505 -38.44035 -38.43935 -38.43816
  Beta  occ. eigenvalues --  -38.43067 -38.42692  -2.20509  -2.20376  -2.19881
  Beta  occ. eigenvalues --   -2.19777  -2.19594  -2.18867  -2.18635  -1.14195
  Beta  occ. eigenvalues --   -1.14182  -1.14162  -1.14100  -1.14028  -1.14007
  Beta  occ. eigenvalues --   -1.13618  -1.13531  -1.13519  -1.13469  -1.13461
  Beta  occ. eigenvalues --   -1.13382  -1.13273  -1.13253  -1.13243  -1.12543
  Beta  occ. eigenvalues --   -1.12518  -1.12509  -1.12371  -1.12282  -1.12236
  Beta  occ. eigenvalues --   -0.17727  -0.13516  -0.10724
  Beta virt. eigenvalues --   -0.07527  -0.06289  -0.05164  -0.04177  -0.02761
  Beta virt. eigenvalues --   -0.02338  -0.01797  -0.01602  -0.01125  -0.00691
  Beta virt. eigenvalues --   -0.00068   0.00138   0.00268   0.00436   0.00650

 Mulliken charges and spin densities:
               1          2
     1  Na  -0.279993  -0.062424
     2  Na   0.257011   0.174412
     3  Na  -0.591910   0.247213
     4  Na   0.357558   0.175937
     5  Na  -0.071659   0.170994
     6  Na   0.112114   0.187903
     7  Na   0.216881   0.105966
 Sum of Mulliken charges =  -0.00000   1.00000

 Dipole moment (field-independent basis, Debye):
    X=              0.4855    Y=             -0.1761    Z=             -0.0930  Tot=              0.5248
 Quadrupole moment (field-independent basis, Debye-Ang):
   XX=            -51.2752   YY=            -75.2186   ZZ=            -67.6013
   XY=             -1.6843   XZ=             -2.6465   YZ=             -3.6313

 Normal termination of Gaussian 16 at Tue Dec  5 22:57:40 2023.
