 Gaussian 16, Revision B.01,
 Gaussian 16:  ES64L-G16RevB.01 20-Dec-2017

 -------------------------
 #P B3LYP/6-311+g(d) force
 -------------------------

 -----
 DPGEN
 -----
 Symbolic Z-matrix:
 Charge =  0 Multiplicity = 2

                         Standard orientation:
 ---------------------------------------------------------------------
 Center     Atomic      Atomic             Coordinates (Angstroms)
 Number     Number       Type             X           Y           Z
 ---------------------------------------------------------------------
      1         11           0       -1.432884    2.249109   -0.367378
      2         11           0        1.681979    1.895357   -1.152123
      3         11           0        3.222988    0.193103    1.429982
      4         11           0        2.093209   -2.353356   -0.856771
      5         11           0       -1.853288   -1.146536   -1.479025
      6         11           0       -0.088910   -0.232410    1.313487
      7         11           0       -3.623093   -0.605266    1.111828
 ---------------------------------------------------------------------

 SCF Done:  E(UB3LYP) =  -1136.12632770     A.U. after   22 cycles

 The electronic state is 2-A.
 Alpha  occ. eigenvalues --  -38.44458 -38.44319 -38.44235 -38.43992 -38.43858
 Alpha  occ. eigenvalues --  -38.43327 -38.42962  -2.20297  -2.20163  -2.20098
 Alpha  occ. eigenvalues --   -2.19924  -2.19642  -2.19173  -2.18839  -1.13984
 Alpha  occ. eigenvalues --   -1.13951  -1.13930  -1.13847  -1.13813  -1.13785
 Alpha  occ. eigenvalues --   -1.13776  -1.13738  -1.13713  -1.13631  -1.13581
 Alpha  occ. eigenvalues --   -1.13539  -1.13314  -1.13301  -1.13270  -1.12855
 Alpha  occ. eigenvalues --   -1.12833  -1.12816  -1.12533  -1.12508  -1.12446
 Alpha  occ. eigenvalues --   -0.18191  -0.14077  -0.11361  -0.10720
 Alpha virt. eigenvalues --   -0.06329  -0.05469  -0.04962  -0.03297  -0.02582
 Alpha virt. eigenvalues --   -0.02322  -0.02145  -0.01006  -0.00869  -0.00253
 Alpha virt. eigenvalues --    0.00180   0.00242   0.00305   0.00539   0.00656

  Beta  occ. eigenvalues --  -38.44432 -38.44283 -38.44200 -38.43961 -38.43832
  Beta  occ. eigenvalues --  -38.43317 -38.42956  -2.20248  -2.20095  -2.20034
  Beta  occ. eigenvalues --   -2.19870  -2.19594  -2.19157  -2.18832  -1.13951
  Beta  occ. eigenvalues --   -1.13914  -1.13895  -1.13792  -1.13770  -1.13742
  Beta  occ. eigenvalues --   -1.13733  -1.13689  -1.13657  -1.13573  -1.13545
  Beta  occ. eigenvalues --   -1.13498  -1.13281  -1.13266  -1.13229  -1.12842
  Beta  occ. eigenvalues --   -1.12809  -1.12806  -1.12531  -1.12486  -1.12440
  Beta  occ. eigenvalues --   -0.17582  -0.13836  -0.11077
  Beta virt. eigenvalues --   -0.07169  -0.06146  -0.05113  -0.04491  -0.03088
  Beta virt. eigenvalues --   -0.02215  -0.02011  -0.01459  -0.00785  -0.00533
  Beta virt. eigenvalues --   -0.00160   0.00245   0.00313   0.00404   0.00700

 Mulliken charges and spin densities:
               1          2
     1  Na  -0.046006   0.045116
     2  Na  -0.211670   0.158338
     3  Na   1.152045  -0.033412
     4  Na  -0.218381   0.186605
     5  Na  -0.290826   0.269194
     6  Na  -1.537094   0.258473
     7  Na   1.151931   0.115686
 Sum of Mulliken charges =  -0.00000   1.00000

 Dipole moment (field-independent basis, Debye):
    X=             -0.2788    Y=             -0.0841    Z=              0.0483  Tot=              0.2952
 Quadrupole moment (field-independent basis, Debye-Ang):
   XX=            -50.0201   YY=            -75.4176   ZZ=            -68.7688
   XY=              0.5874   XZ=             -1.0246   YZ=              1.9391

 Normal termination of Gaussian 16 at Fri Dec  8 01:25:16 2023.
