 Gaussian 16, Revision B.01,
 Gaussian 16:  ES64L-G16RevB.01 20-Dec-2017

 -------------------------
 #P B3LYP/6-311+g(d) force
 -------------------------

 -----
 DPGEN
 -----
 Symbolic Z-matrix:
 Charge =  0 Multiplicity = 2

                         Standard orientation:
 ---------------------------------------------------------------------
 Center     Atomic      Atomic             Coordinates (Angstroms)
 Number     Number       Type             X           Y           Z
 ---------------------------------------------------------------------
      1         11           0       -2.813009    1.190606    0.131126
      2         11           0       -0.121049   -0.243997    1.996448
      3         11           0        3.270928    0.621578    0.217610
      4         11           0       -2.515271   -2.194558   -0.123163
      5         11           0        0.368112    3.014349   -0.185415
      6         11           0       -0.202045    0.242780   -1.695978
      7         11           0        2.012334   -2.630757   -0.340628
 ---------------------------------------------------------------------

 SCF Done:  E(UB3LYP) =  -1136.13405510     A.U. after   19 cycles

 The electronic state is 2-A.
 Alpha  occ. eigenvalues --  -38.44484 -38.44085 -38.44057 -38.43975 -38.43669
 Alpha  occ. eigenvalues --  -38.43338 -38.43149  -2.20264  -2.19944  -2.19854
 Alpha  occ. eigenvalues --   -2.19747  -2.19524  -2.19264  -2.18986  -1.13943
 Alpha  occ. eigenvalues --   -1.13919  -1.13906  -1.13636  -1.13616  -1.13581
 Alpha  occ. eigenvalues --   -1.13522  -1.13506  -1.13492  -1.13421  -1.13402
 Alpha  occ. eigenvalues --   -1.13391  -1.13199  -1.13154  -1.13138  -1.12959
 Alpha  occ. eigenvalues --   -1.12907  -1.12890  -1.12663  -1.12639  -1.12618
 Alpha  occ. eigenvalues --   -0.18117  -0.13114  -0.12081  -0.10429
 Alpha virt. eigenvalues --   -0.05922  -0.05610  -0.04750  -0.03226  -0.02728
 Alpha virt. eigenvalues --   -0.02379  -0.01723  -0.01294  -0.00809  -0.00566
 Alpha virt. eigenvalues --   -0.00022   0.00346   0.00728   0.00781   0.00829

  Beta  occ. eigenvalues --  -38.44483 -38.44077 -38.44055 -38.43970 -38.43580
  Beta  occ. eigenvalues --  -38.43272 -38.43146  -2.20263  -2.19934  -2.19854
  Beta  occ. eigenvalues --   -2.19741  -2.19361  -2.19143  -2.18982  -1.13926
  Beta  occ. eigenvalues --   -1.13920  -1.13909  -1.13630  -1.13587  -1.13573
  Beta  occ. eigenvalues --   -1.13508  -1.13504  -1.13491  -1.13405  -1.13398
  Beta  occ. eigenvalues --   -1.13388  -1.13090  -1.13037  -1.13020  -1.12877
  Beta  occ. eigenvalues --   -1.12822  -1.12802  -1.12647  -1.12625  -1.12614
  Beta  occ. eigenvalues --   -0.17397  -0.12936  -0.11864
  Beta virt. eigenvalues --   -0.06581  -0.05864  -0.05555  -0.04694  -0.02490
  Beta virt. eigenvalues --   -0.02009  -0.01622  -0.01401  -0.01187  -0.00856
  Beta virt. eigenvalues --   -0.00599   0.00129   0.00375   0.00776   0.00792

 Mulliken charges and spin densities:
               1          2
     1  Na   0.315956   0.012399
     2  Na  -0.272646   0.687065
     3  Na   0.029596  -0.034106
     4  Na  -0.024929  -0.123744
     5  Na   0.080694  -0.068472
     6  Na  -0.026375   0.621608
     7  Na  -0.102297  -0.094751
 Sum of Mulliken charges =  -0.00000   1.00000

 Dipole moment (field-independent basis, Debye):
    X=              0.0139    Y=             -0.1608    Z=              0.1071  Tot=              0.1937
 Quadrupole moment (field-independent basis, Debye-Ang):
   XX=            -54.9658   YY=            -61.7810   ZZ=            -76.2178
   XY=              1.0707   XZ=              0.1200   YZ=              1.4590

 Normal termination of Gaussian 16 at Thu Dec  7 23:51:33 2023.
