 Gaussian 16, Revision B.01,
 Gaussian 16:  ES64L-G16RevB.01 20-Dec-2017

 -------------------------
 #P B3LYP/6-311+g(d) force
 -------------------------

 -----
 DPGEN
 -----
 Symbolic Z-matrix:
 Charge =  0 Multiplicity = 2

                         Standard orientation:
 ---------------------------------------------------------------------
 Center     Atomic      Atomic             Coordinates (Angstroms)
 Number     Number       Type             X           Y           Z
 ---------------------------------------------------------------------
      1         11           0        0.388522   -0.638365   -0.445727
      2         11           0       -2.575685    1.452426   -1.605064
      3         11           0       -3.215232   -1.987003   -0.607333
      4         11           0       -0.091588    2.495256    1.069542
      5         11           0       -1.839894   -0.780955    2.128121
      6         11           0        4.117391   -2.072060   -0.182912
      7         11           0        3.216486    1.530701   -0.356628
 ---------------------------------------------------------------------

 SCF Done:  E(UB3LYP) =  -1136.12080432     A.U. after   21 cycles

 The electronic state is 2-A.
 Alpha  occ. eigenvalues --  -38.44990 -38.44527 -38.44512 -38.44163 -38.44115
 Alpha  occ. eigenvalues --  -38.44017 -38.42664  -2.20762  -2.20374  -2.20326
 Alpha  occ. eigenvalues --   -2.20025  -2.19857  -2.19835  -2.18487  -1.14459
 Alpha  occ. eigenvalues --   -1.14434  -1.14362  -1.14116  -1.14035  -1.13998
 Alpha  occ. eigenvalues --   -1.13983  -1.13952  -1.13934  -1.13694  -1.13666
 Alpha  occ. eigenvalues --   -1.13643  -1.13536  -1.13529  -1.13508  -1.13484
 Alpha  occ. eigenvalues --   -1.13484  -1.13470  -1.12161  -1.12144  -1.12137
 Alpha  occ. eigenvalues --   -0.17527  -0.13678  -0.11307  -0.10991
 Alpha virt. eigenvalues --   -0.06479  -0.06166  -0.04177  -0.03293  -0.03066
 Alpha virt. eigenvalues --   -0.02444  -0.02204  -0.01528  -0.00998  -0.00656
 Alpha virt. eigenvalues --   -0.00083   0.00115   0.00256   0.00483   0.00600

  Beta  occ. eigenvalues --  -38.44991 -38.44520 -38.44419 -38.44124 -38.44081
  Beta  occ. eigenvalues --  -38.44006 -38.42655  -2.20763  -2.20365  -2.20154
  Beta  occ. eigenvalues --   -2.19875  -2.19874  -2.19818  -2.18472  -1.14458
  Beta  occ. eigenvalues --   -1.14434  -1.14368  -1.14076  -1.14033  -1.13985
  Beta  occ. eigenvalues --   -1.13876  -1.13842  -1.13806  -1.13589  -1.13580
  Beta  occ. eigenvalues --   -1.13548  -1.13542  -1.13535  -1.13496  -1.13495
  Beta  occ. eigenvalues --   -1.13460  -1.13431  -1.12149  -1.12134  -1.12115
  Beta  occ. eigenvalues --   -0.16847  -0.13464  -0.11151
  Beta virt. eigenvalues --   -0.07047  -0.06378  -0.05940  -0.03935  -0.02827
  Beta virt. eigenvalues --   -0.02474  -0.02216  -0.01758  -0.01274  -0.00916
  Beta virt. eigenvalues --   -0.00259   0.00007   0.00175   0.00325   0.00605

 Mulliken charges and spin densities:
               1          2
     1  Na  -1.770654   0.366302
     2  Na   0.204238   0.375887
     3  Na   0.607143   0.121157
     4  Na   0.124184   0.072285
     5  Na   0.052089   0.229104
     6  Na   0.346498  -0.094170
     7  Na   0.436503  -0.070565
 Sum of Mulliken charges =  -0.00000   1.00000

 Dipole moment (field-independent basis, Debye):
    X=              0.1623    Y=              0.1309    Z=              0.1880  Tot=              0.2807
 Quadrupole moment (field-independent basis, Debye-Ang):
   XX=            -57.9316   YY=            -66.7838   ZZ=            -71.0208
   XY=              2.7349   XZ=             -0.1750   YZ=              0.0346

 Normal termination of Gaussian 16 at Tue Dec  5 15:23:11 2023.
