 Gaussian 16, Revision B.01,
 Gaussian 16:  ES64L-G16RevB.01 20-Dec-2017

 -------------------------
 #P B3LYP/6-311+g(d) force
 -------------------------

 -----
 DPGEN
 -----
 Symbolic Z-matrix:
 Charge =  0 Multiplicity = 2

                         Standard orientation:
 ---------------------------------------------------------------------
 Center     Atomic      Atomic             Coordinates (Angstroms)
 Number     Number       Type             X           Y           Z
 ---------------------------------------------------------------------
      1         11           0       -0.311814    0.258042    1.949862
      2         11           0        0.776879   -2.500992    0.193126
      3         11           0       -2.198827   -1.820819   -0.031398
      4         11           0       -2.700242    1.570881   -0.258854
      5         11           0        3.323444   -0.272091   -0.172909
      6         11           0       -0.056907    0.050819   -1.817864
      7         11           0        1.167467    2.714161    0.138037
 ---------------------------------------------------------------------

 SCF Done:  E(UB3LYP) =  -1136.13705256     A.U. after   19 cycles

 The electronic state is 2-A.
 Alpha  occ. eigenvalues --  -38.44240 -38.43941 -38.43617 -38.43480 -38.43463
 Alpha  occ. eigenvalues --  -38.43407 -38.42902  -2.20037  -2.19780  -2.19439
 Alpha  occ. eigenvalues --   -2.19414  -2.19408  -2.19333  -2.18828  -1.13709
 Alpha  occ. eigenvalues --   -1.13701  -1.13677  -1.13458  -1.13450  -1.13415
 Alpha  occ. eigenvalues --   -1.13146  -1.13127  -1.13121  -1.13078  -1.13060
 Alpha  occ. eigenvalues --   -1.13050  -1.13040  -1.13034  -1.13029  -1.13011
 Alpha  occ. eigenvalues --   -1.12971  -1.12961  -1.12507  -1.12481  -1.12459
 Alpha  occ. eigenvalues --   -0.18873  -0.13027  -0.12441  -0.10928
 Alpha virt. eigenvalues --   -0.05860  -0.05066  -0.04387  -0.03187  -0.02987
 Alpha virt. eigenvalues --   -0.02652  -0.01648  -0.01036  -0.00366  -0.00059
 Alpha virt. eigenvalues --   -0.00020   0.00351   0.00812   0.00862   0.00947

  Beta  occ. eigenvalues --  -38.44241 -38.43934 -38.43613 -38.43399 -38.43392
  Beta  occ. eigenvalues --  -38.43388 -38.42894  -2.20040  -2.19770  -2.19433
  Beta  occ. eigenvalues --   -2.19324  -2.19276  -2.19247  -2.18817  -1.13707
  Beta  occ. eigenvalues --   -1.13695  -1.13681  -1.13449  -1.13424  -1.13406
  Beta  occ. eigenvalues --   -1.13127  -1.13096  -1.13072  -1.13059  -1.13001
  Beta  occ. eigenvalues --   -1.12985  -1.12967  -1.12950  -1.12939  -1.12916
  Beta  occ. eigenvalues --   -1.12908  -1.12897  -1.12503  -1.12462  -1.12434
  Beta  occ. eigenvalues --   -0.18111  -0.12803  -0.12176
  Beta virt. eigenvalues --   -0.06989  -0.05828  -0.05044  -0.04368  -0.02431
  Beta virt. eigenvalues --   -0.02164  -0.01601  -0.01550  -0.00966  -0.00418
  Beta virt. eigenvalues --   -0.00091   0.00104   0.00372   0.00852   0.00877

 Mulliken charges and spin densities:
               1          2
     1  Na  -0.350528   0.661803
     2  Na   0.098962  -0.011336
     3  Na   0.368923   0.024369
     4  Na   0.245904  -0.097999
     5  Na  -0.006727  -0.068734
     6  Na  -0.375315   0.650078
     7  Na   0.018781  -0.158182
 Sum of Mulliken charges =  -0.00000   1.00000

 Dipole moment (field-independent basis, Debye):
    X=              0.0921    Y=              0.3991    Z=             -0.0185  Tot=              0.4100
 Quadrupole moment (field-independent basis, Debye-Ang):
   XX=            -55.2732   YY=            -65.0610   ZZ=            -73.3586
   XY=             -0.3035   XZ=              0.3230   YZ=             -0.4649

 Normal termination of Gaussian 16 at Thu Dec  7 19:54:14 2023.
