 Gaussian 16, Revision B.01,
 Gaussian 16:  ES64L-G16RevB.01 20-Dec-2017

 -------------------------
 #P B3LYP/6-311+g(d) force
 -------------------------

 -----
 DPGEN
 -----
 Symbolic Z-matrix:
 Charge =  0 Multiplicity = 2

                         Standard orientation:
 ---------------------------------------------------------------------
 Center     Atomic      Atomic             Coordinates (Angstroms)
 Number     Number       Type             X           Y           Z
 ---------------------------------------------------------------------
      1         11           0       -0.041886   -0.016839    1.861221
      2         11           0       -1.952827    2.063698   -0.187314
      3         11           0       -3.798790   -1.133150    0.276739
      4         11           0        4.063570   -0.096372    0.093519
      5         11           0        1.514503   -2.165182   -0.305591
      6         11           0        1.266662    2.076206   -0.423406
      7         11           0       -1.051233   -0.728362   -1.315169
 ---------------------------------------------------------------------

 SCF Done:  E(UB3LYP) =  -1136.11720526     A.U. after   30 cycles

 The electronic state is 2-A.
 Alpha  occ. eigenvalues --  -38.44789 -38.44675 -38.44375 -38.43755 -38.43491
 Alpha  occ. eigenvalues --  -38.43386 -38.42927  -2.20594  -2.20489  -2.20345
 Alpha  occ. eigenvalues --   -2.19691  -2.19367  -2.19301  -2.18810  -1.14274
 Alpha  occ. eigenvalues --   -1.14247  -1.14235  -1.14142  -1.14140  -1.14117
 Alpha  occ. eigenvalues --   -1.14037  -1.14019  -1.13974  -1.13361  -1.13329
 Alpha  occ. eigenvalues --   -1.13294  -1.13085  -1.13017  -1.13015  -1.12982
 Alpha  occ. eigenvalues --   -1.12960  -1.12910  -1.12503  -1.12485  -1.12423
 Alpha  occ. eigenvalues --   -0.18748  -0.14083  -0.11701  -0.10257
 Alpha virt. eigenvalues --   -0.07700  -0.05266  -0.03922  -0.03293  -0.03109
 Alpha virt. eigenvalues --   -0.02218  -0.01991  -0.01594  -0.00683  -0.00355
 Alpha virt. eigenvalues --   -0.00172   0.00071   0.00452   0.00641   0.00720

  Beta  occ. eigenvalues --  -38.44768 -38.44622 -38.44367 -38.43657 -38.43488
  Beta  occ. eigenvalues --  -38.43378 -38.42922  -2.20556  -2.20391  -2.20335
  Beta  occ. eigenvalues --   -2.19510  -2.19366  -2.19288  -2.18802  -1.14249
  Beta  occ. eigenvalues --   -1.14222  -1.14199  -1.14075  -1.14066  -1.14054
  Beta  occ. eigenvalues --   -1.14025  -1.13989  -1.13969  -1.13241  -1.13214
  Beta  occ. eigenvalues --   -1.13160  -1.13089  -1.13008  -1.13004  -1.12962
  Beta  occ. eigenvalues --   -1.12943  -1.12889  -1.12501  -1.12468  -1.12408
  Beta  occ. eigenvalues --   -0.18185  -0.13515  -0.11528
  Beta virt. eigenvalues --   -0.07404  -0.06711  -0.05096  -0.03749  -0.02987
  Beta virt. eigenvalues --   -0.02653  -0.01893  -0.01387  -0.01246  -0.00500
  Beta virt. eigenvalues --   -0.00174   0.00027   0.00153   0.00562   0.00744

 Mulliken charges and spin densities:
               1          2
     1  Na  -0.143944   0.159494
     2  Na   0.174991   0.041144
     3  Na   0.231472   0.029519
     4  Na   0.175726   0.165817
     5  Na  -0.121586   0.143696
     6  Na  -0.437076   0.133450
     7  Na   0.120418   0.326879
 Sum of Mulliken charges =  -0.00000   1.00000

 Dipole moment (field-independent basis, Debye):
    X=             -0.5309    Y=             -0.1624    Z=              1.1149  Tot=              1.2455
 Quadrupole moment (field-independent basis, Debye-Ang):
   XX=            -57.2100   YY=            -73.6881   ZZ=            -68.0378
   XY=             -0.6520   XZ=             -2.0879   YZ=             -0.4256

 Normal termination of Gaussian 16 at Wed Dec  6 01:01:26 2023.
