 Gaussian 16, Revision B.01,
 Gaussian 16:  ES64L-G16RevB.01 20-Dec-2017

 -------------------------
 #P B3LYP/6-311+g(d) force
 -------------------------

 -----
 DPGEN
 -----
 Symbolic Z-matrix:
 Charge =  0 Multiplicity = 2

                         Standard orientation:
 ---------------------------------------------------------------------
 Center     Atomic      Atomic             Coordinates (Angstroms)
 Number     Number       Type             X           Y           Z
 ---------------------------------------------------------------------
      1         11           0        1.480058    2.561968    0.403360
      2         11           0       -3.248674    1.396910   -0.944859
      3         11           0       -2.463281   -1.881559   -0.125073
      4         11           0       -0.893869    0.191096    2.056602
      5         11           0        0.965218   -2.324880    0.059614
      6         11           0        4.087230   -0.368187   -0.520078
      7         11           0        0.073318    0.424651   -0.929567
 ---------------------------------------------------------------------

 SCF Done:  E(UB3LYP) =  -1136.12053015     A.U. after   22 cycles

 The electronic state is 2-A.
 Alpha  occ. eigenvalues --  -38.44841 -38.44149 -38.44051 -38.43772 -38.43745
 Alpha  occ. eigenvalues --  -38.43614 -38.42934  -2.20598  -2.20057  -2.19877
 Alpha  occ. eigenvalues --   -2.19800  -2.19649  -2.19459  -2.18806  -1.14271
 Alpha  occ. eigenvalues --   -1.14245  -1.14213  -1.13780  -1.13693  -1.13653
 Alpha  occ. eigenvalues --   -1.13594  -1.13547  -1.13520  -1.13508  -1.13499
 Alpha  occ. eigenvalues --   -1.13387  -1.13332  -1.13311  -1.13269  -1.13126
 Alpha  occ. eigenvalues --   -1.13097  -1.13050  -1.12541  -1.12471  -1.12394
 Alpha  occ. eigenvalues --   -0.18454  -0.13520  -0.11750  -0.10719
 Alpha virt. eigenvalues --   -0.06706  -0.05346  -0.04118  -0.03134  -0.02625
 Alpha virt. eigenvalues --   -0.02411  -0.02093  -0.01288  -0.00781  -0.00300
 Alpha virt. eigenvalues --   -0.00026   0.00108   0.00535   0.00692   0.00737

  Beta  occ. eigenvalues --  -38.44805 -38.44066 -38.43994 -38.43763 -38.43740
  Beta  occ. eigenvalues --  -38.43608 -38.42936  -2.20530  -2.19905  -2.19793
  Beta  occ. eigenvalues --   -2.19771  -2.19636  -2.19450  -2.18811  -1.14223
  Beta  occ. eigenvalues --   -1.14199  -1.14170  -1.13686  -1.13598  -1.13586
  Beta  occ. eigenvalues --   -1.13532  -1.13483  -1.13460  -1.13453  -1.13427
  Beta  occ. eigenvalues --   -1.13383  -1.13320  -1.13305  -1.13235  -1.13122
  Beta  occ. eigenvalues --   -1.13079  -1.13039  -1.12548  -1.12465  -1.12384
  Beta  occ. eigenvalues --   -0.17867  -0.13033  -0.11511
  Beta virt. eigenvalues --   -0.07177  -0.06267  -0.05246  -0.03911  -0.02743
  Beta virt. eigenvalues --   -0.02313  -0.01856  -0.01391  -0.01250  -0.00533
  Beta virt. eigenvalues --   -0.00080   0.00010   0.00210   0.00655   0.00740

 Mulliken charges and spin densities:
               1          2
     1  Na  -0.118187   0.145226
     2  Na   0.259429   0.442763
     3  Na   0.341584   0.119115
     4  Na  -0.124364   0.288994
     5  Na  -0.381377   0.087833
     6  Na   0.394287   0.173743
     7  Na  -0.371373  -0.257674
 Sum of Mulliken charges =  -0.00000   1.00000

 Dipole moment (field-independent basis, Debye):
    X=              0.0673    Y=              0.1458    Z=              0.7762  Tot=              0.7926
 Quadrupole moment (field-independent basis, Debye-Ang):
   XX=            -53.5091   YY=            -69.4253   ZZ=            -70.4648
   XY=              2.2609   XZ=             -0.8152   YZ=              0.1223

 Normal termination of Gaussian 16 at Tue Dec  5 23:09:51 2023.
