 Gaussian 16, Revision B.01,
 Gaussian 16:  ES64L-G16RevB.01 20-Dec-2017

 -------------------------
 #P B3LYP/6-311+g(d) force
 -------------------------

 -----
 DPGEN
 -----
 Symbolic Z-matrix:
 Charge =  0 Multiplicity = 2

                         Standard orientation:
 ---------------------------------------------------------------------
 Center     Atomic      Atomic             Coordinates (Angstroms)
 Number     Number       Type             X           Y           Z
 ---------------------------------------------------------------------
      1         11           0       -3.698013    0.234808    0.121520
      2         11           0        2.422267   -2.283359    0.331140
      3         11           0        2.743177    0.905277   -0.482450
      4         11           0       -0.127925    0.282137   -1.672735
      5         11           0        0.186840    3.159166    0.191771
      6         11           0       -1.501143   -2.238447   -0.514235
      7         11           0       -0.025202   -0.059582    2.024989
 ---------------------------------------------------------------------

 SCF Done:  E(UB3LYP) =  -1136.13077198     A.U. after   21 cycles

 The electronic state is 2-A.
 Alpha  occ. eigenvalues --  -38.45026 -38.43912 -38.43826 -38.43696 -38.43512
 Alpha  occ. eigenvalues --  -38.43418 -38.43197  -2.20789  -2.19798  -2.19685
 Alpha  occ. eigenvalues --   -2.19568  -2.19467  -2.19228  -2.19017  -1.14459
 Alpha  occ. eigenvalues --   -1.14450  -1.14426  -1.13522  -1.13456  -1.13417
 Alpha  occ. eigenvalues --   -1.13366  -1.13338  -1.13317  -1.13296  -1.13223
 Alpha  occ. eigenvalues --   -1.13165  -1.13131  -1.13081  -1.13081  -1.12903
 Alpha  occ. eigenvalues --   -1.12889  -1.12865  -1.12686  -1.12678  -1.12660
 Alpha  occ. eigenvalues --   -0.18296  -0.13188  -0.11983  -0.10738
 Alpha virt. eigenvalues --   -0.06345  -0.04770  -0.04673  -0.03307  -0.02765
 Alpha virt. eigenvalues --   -0.02623  -0.02057  -0.01144  -0.00411  -0.00301
 Alpha virt. eigenvalues --   -0.00025   0.00303   0.00703   0.00734   0.00822

  Beta  occ. eigenvalues --  -38.45030 -38.43899 -38.43735 -38.43680 -38.43446
  Beta  occ. eigenvalues --  -38.43416 -38.43196  -2.20797  -2.19777  -2.19542
  Beta  occ. eigenvalues --   -2.19516  -2.19347  -2.19227  -2.19017  -1.14465
  Beta  occ. eigenvalues --   -1.14446  -1.14433  -1.13497  -1.13424  -1.13409
  Beta  occ. eigenvalues --   -1.13309  -1.13248  -1.13205  -1.13180  -1.13172
  Beta  occ. eigenvalues --   -1.13149  -1.13052  -1.12998  -1.12994  -1.12905
  Beta  occ. eigenvalues --   -1.12871  -1.12866  -1.12683  -1.12674  -1.12651
  Beta  occ. eigenvalues --   -0.17555  -0.12995  -0.11779
  Beta virt. eigenvalues --   -0.06831  -0.06264  -0.04705  -0.04640  -0.02598
  Beta virt. eigenvalues --   -0.02071  -0.01961  -0.01563  -0.01051  -0.00445
  Beta virt. eigenvalues --   -0.00265   0.00091   0.00328   0.00763   0.00828

 Mulliken charges and spin densities:
               1          2
     1  Na  -0.070742  -0.074773
     2  Na   0.000021  -0.041472
     3  Na   0.297284   0.034523
     4  Na   0.162799   0.334415
     5  Na  -0.143666  -0.084051
     6  Na   0.197361  -0.000626
     7  Na  -0.443058   0.831986
 Sum of Mulliken charges =  -0.00000   1.00000

 Dipole moment (field-independent basis, Debye):
    X=             -0.7913    Y=              0.1522    Z=              0.1727  Tot=              0.8241
 Quadrupole moment (field-independent basis, Debye-Ang):
   XX=            -53.6421   YY=            -64.4985   ZZ=            -74.7507
   XY=             -1.8715   XZ=             -0.9397   YZ=              0.7196

 Normal termination of Gaussian 16 at Thu Dec  7 16:19:41 2023.
