 Gaussian 16, Revision B.01,
 Gaussian 16:  ES64L-G16RevB.01 20-Dec-2017

 -------------------------
 #P B3LYP/6-311+g(d) force
 -------------------------

 -----
 DPGEN
 -----
 Symbolic Z-matrix:
 Charge =  0 Multiplicity = 2

                         Standard orientation:
 ---------------------------------------------------------------------
 Center     Atomic      Atomic             Coordinates (Angstroms)
 Number     Number       Type             X           Y           Z
 ---------------------------------------------------------------------
      1         11           0        0.024041   -0.322074   -1.157511
      2         11           0        1.483384   -0.467973    1.724569
      3         11           0        3.268937   -1.235275   -1.042541
      4         11           0        2.159622    1.969944   -0.030496
      5         11           0       -1.539596    2.006819    0.507609
      6         11           0       -1.802863   -1.919533    0.960061
      7         11           0       -3.593526   -0.031908   -0.961691
 ---------------------------------------------------------------------

 SCF Done:  E(UB3LYP) =  -1136.12386848     A.U. after   25 cycles

 The electronic state is 2-A.
 Alpha  occ. eigenvalues --  -38.44623 -38.44030 -38.43965 -38.43804 -38.43515
 Alpha  occ. eigenvalues --  -38.43406 -38.42987  -2.20493  -2.19977  -2.19890
 Alpha  occ. eigenvalues --   -2.19759  -2.19415  -2.19286  -2.18855  -1.14159
 Alpha  occ. eigenvalues --   -1.14139  -1.14130  -1.13733  -1.13644  -1.13624
 Alpha  occ. eigenvalues --   -1.13553  -1.13524  -1.13516  -1.13450  -1.13420
 Alpha  occ. eigenvalues --   -1.13358  -1.13096  -1.13085  -1.13006  -1.12971
 Alpha  occ. eigenvalues --   -1.12934  -1.12915  -1.12559  -1.12519  -1.12477
 Alpha  occ. eigenvalues --   -0.18909  -0.14610  -0.11101  -0.10891
 Alpha virt. eigenvalues --   -0.06539  -0.05357  -0.04699  -0.03033  -0.02577
 Alpha virt. eigenvalues --   -0.02228  -0.02060  -0.01019  -0.00811  -0.00109
 Alpha virt. eigenvalues --    0.00168   0.00270   0.00424   0.00665   0.00702

  Beta  occ. eigenvalues --  -38.44596 -38.43988 -38.43945 -38.43744 -38.43506
  Beta  occ. eigenvalues --  -38.43379 -38.42986  -2.20442  -2.19944  -2.19812
  Beta  occ. eigenvalues --   -2.19651  -2.19401  -2.19239  -2.18856  -1.14125
  Beta  occ. eigenvalues --   -1.14101  -1.14098  -1.13677  -1.13618  -1.13602
  Beta  occ. eigenvalues --   -1.13497  -1.13473  -1.13465  -1.13384  -1.13333
  Beta  occ. eigenvalues --   -1.13275  -1.13078  -1.13069  -1.12985  -1.12942
  Beta  occ. eigenvalues --   -1.12899  -1.12862  -1.12563  -1.12507  -1.12469
  Beta  occ. eigenvalues --   -0.18245  -0.14294  -0.10828
  Beta virt. eigenvalues --   -0.07142  -0.06291  -0.05285  -0.04107  -0.02878
  Beta virt. eigenvalues --   -0.02344  -0.01677  -0.01290  -0.00962  -0.00416
  Beta virt. eigenvalues --   -0.00010   0.00235   0.00299   0.00555   0.00721

 Mulliken charges and spin densities:
               1          2
     1  Na  -1.285348   0.061885
     2  Na   0.113946   0.256902
     3  Na   0.360146   0.221582
     4  Na   0.092243   0.122131
     5  Na  -0.342401   0.029190
     6  Na  -0.314851   0.193397
     7  Na   1.376264   0.114913
 Sum of Mulliken charges =  -0.00000   1.00000

 Dipole moment (field-independent basis, Debye):
    X=             -0.1661    Y=             -0.0500    Z=              0.0401  Tot=              0.1780
 Quadrupole moment (field-independent basis, Debye-Ang):
   XX=            -49.0832   YY=            -75.5541   ZZ=            -68.8754
   XY=              0.7899   XZ=              1.2954   YZ=              0.0767

 Normal termination of Gaussian 16 at Fri Dec  8 04:21:26 2023.
