 Gaussian 16, Revision B.01,
 Gaussian 16:  ES64L-G16RevB.01 20-Dec-2017

 -------------------------
 #P B3LYP/6-311+g(d) force
 -------------------------

 -----
 DPGEN
 -----
 Symbolic Z-matrix:
 Charge =  0 Multiplicity = 2

                         Standard orientation:
 ---------------------------------------------------------------------
 Center     Atomic      Atomic             Coordinates (Angstroms)
 Number     Number       Type             X           Y           Z
 ---------------------------------------------------------------------
      1         11           0        3.320200   -1.716488    0.570864
      2         11           0        3.959443    1.058318   -0.354638
      3         11           0        0.583189   -3.766056   -0.316814
      4         11           0       -2.133159    2.826553    0.177647
      5         11           0        1.050614    4.109013   -0.060890
      6         11           0       -4.461327    0.189577   -0.046199
      7         11           0       -2.318960   -2.700917    0.030030
 ---------------------------------------------------------------------

 SCF Done:  E(UB3LYP) =  -1136.10958482     A.U. after   21 cycles

 The electronic state is 2-A.
 Alpha  occ. eigenvalues --  -38.44852 -38.44842 -38.44830 -38.44617 -38.44443
 Alpha  occ. eigenvalues --  -38.44092 -38.44088  -2.20637  -2.20634  -2.20611
 Alpha  occ. eigenvalues --   -2.20442  -2.20224  -2.19918  -2.19897  -1.14395
 Alpha  occ. eigenvalues --   -1.14328  -1.14308  -1.14302  -1.14293  -1.14286
 Alpha  occ. eigenvalues --   -1.14282  -1.14262  -1.14251  -1.14094  -1.14084
 Alpha  occ. eigenvalues --   -1.14059  -1.13878  -1.13866  -1.13851  -1.13578
 Alpha  occ. eigenvalues --   -1.13561  -1.13548  -1.13546  -1.13534  -1.13531
 Alpha  occ. eigenvalues --   -0.15653  -0.14048  -0.13684  -0.11198
 Alpha virt. eigenvalues --   -0.07450  -0.04604  -0.04377  -0.03626  -0.03528
 Alpha virt. eigenvalues --   -0.02495  -0.02310  -0.01905  -0.01725  -0.00594
 Alpha virt. eigenvalues --   -0.00248  -0.00062   0.00122   0.00328   0.00505

  Beta  occ. eigenvalues --  -38.44845 -38.44830 -38.44797 -38.44596 -38.44379
  Beta  occ. eigenvalues --  -38.44044 -38.44027  -2.20620  -2.20605  -2.20580
  Beta  occ. eigenvalues --   -2.20408  -2.20107  -2.19839  -2.19777  -1.14342
  Beta  occ. eigenvalues --   -1.14309  -1.14304  -1.14303  -1.14294  -1.14250
  Beta  occ. eigenvalues --   -1.14243  -1.14222  -1.14200  -1.14075  -1.14065
  Beta  occ. eigenvalues --   -1.14009  -1.13799  -1.13788  -1.13767  -1.13520
  Beta  occ. eigenvalues --   -1.13509  -1.13495  -1.13464  -1.13454  -1.13452
  Beta  occ. eigenvalues --   -0.15121  -0.13271  -0.12765
  Beta virt. eigenvalues --   -0.08118  -0.07650  -0.04095  -0.04000  -0.03360
  Beta virt. eigenvalues --   -0.03177  -0.02262  -0.02077  -0.01731  -0.01515
  Beta virt. eigenvalues --   -0.00177  -0.00000   0.00118   0.00332   0.00381

 Mulliken charges and spin densities:
               1          2
     1  Na  -0.458472   0.054922
     2  Na   0.210102   0.101686
     3  Na  -0.237151   0.131705
     4  Na  -0.301013   0.093060
     5  Na   0.170069   0.207898
     6  Na   0.602015   0.332634
     7  Na   0.014449   0.078095
 Sum of Mulliken charges =  -0.00000   1.00000

 Dipole moment (field-independent basis, Debye):
    X=              0.3942    Y=             -0.0274    Z=             -0.0543  Tot=              0.3988
 Quadrupole moment (field-independent basis, Debye-Ang):
   XX=            -61.4523   YY=            -65.1182   ZZ=            -73.2958
   XY=              2.3485   XZ=             -0.7843   YZ=             -0.9895

 Normal termination of Gaussian 16 at Mon Dec  4 05:18:00 2023.
