 Gaussian 16, Revision B.01,
 Gaussian 16:  ES64L-G16RevB.01 20-Dec-2017

 -------------------------
 #P B3LYP/6-311+g(d) force
 -------------------------

 -----
 DPGEN
 -----
 Symbolic Z-matrix:
 Charge =  0 Multiplicity = 2

                         Standard orientation:
 ---------------------------------------------------------------------
 Center     Atomic      Atomic             Coordinates (Angstroms)
 Number     Number       Type             X           Y           Z
 ---------------------------------------------------------------------
      1         11           0        0.306231   -3.480311    0.028944
      2         11           0        3.429831   -2.298792    0.136749
      3         11           0        4.096757    1.207199   -0.139541
      4         11           0        1.319140    3.328678   -0.042202
      5         11           0       -4.018927    0.444735   -0.040332
      6         11           0       -3.129249   -2.666459   -0.089148
      7         11           0       -2.003782    3.464949    0.145529
 ---------------------------------------------------------------------

 SCF Done:  E(UB3LYP) =  -1136.11061884     A.U. after   24 cycles

 The electronic state is 2-A.
 Alpha  occ. eigenvalues --  -38.45402 -38.45124 -38.44874 -38.44646 -38.44279
 Alpha  occ. eigenvalues --  -38.44058 -38.43720  -2.21182  -2.20899  -2.20656
 Alpha  occ. eigenvalues --   -2.20435  -2.20088  -2.19860  -2.19529  -1.14856
 Alpha  occ. eigenvalues --   -1.14852  -1.14823  -1.14582  -1.14573  -1.14542
 Alpha  occ. eigenvalues --   -1.14332  -1.14329  -1.14299  -1.14104  -1.14096
 Alpha  occ. eigenvalues --   -1.14061  -1.13749  -1.13746  -1.13730  -1.13514
 Alpha  occ. eigenvalues --   -1.13506  -1.13490  -1.13180  -1.13179  -1.13167
 Alpha  occ. eigenvalues --   -0.15664  -0.14072  -0.13805  -0.10952
 Alpha virt. eigenvalues --   -0.07994  -0.04498  -0.04427  -0.03716  -0.03601
 Alpha virt. eigenvalues --   -0.02448  -0.02229  -0.01965  -0.01589  -0.00393
 Alpha virt. eigenvalues --   -0.00297  -0.00090   0.00106   0.00298   0.00420

  Beta  occ. eigenvalues --  -38.45379 -38.45107 -38.44857 -38.44612 -38.44254
  Beta  occ. eigenvalues --  -38.43997 -38.43669  -2.21145  -2.20874  -2.20630
  Beta  occ. eigenvalues --   -2.20375  -2.20043  -2.19747  -2.19434  -1.14835
  Beta  occ. eigenvalues --   -1.14828  -1.14767  -1.14572  -1.14564  -1.14475
  Beta  occ. eigenvalues --   -1.14316  -1.14311  -1.14255  -1.14065  -1.14058
  Beta  occ. eigenvalues --   -1.14007  -1.13717  -1.13716  -1.13691  -1.13437
  Beta  occ. eigenvalues --   -1.13429  -1.13414  -1.13116  -1.13115  -1.13104
  Beta  occ. eigenvalues --   -0.15122  -0.13303  -0.13037
  Beta virt. eigenvalues --   -0.08261  -0.07754  -0.03932  -0.03864  -0.03553
  Beta virt. eigenvalues --   -0.03310  -0.02255  -0.02041  -0.01814  -0.01435
  Beta virt. eigenvalues --   -0.00066   0.00023   0.00175   0.00281   0.00371

 Mulliken charges and spin densities:
               1          2
     1  Na  -0.261588   0.085998
     2  Na   0.068406  -0.182151
     3  Na   0.032244   0.253453
     4  Na  -0.284930   0.166714
     5  Na  -0.246163   0.264278
     6  Na   0.424931   0.184637
     7  Na   0.267100   0.227070
 Sum of Mulliken charges =  -0.00000   1.00000

 Dipole moment (field-independent basis, Debye):
    X=             -0.2448    Y=             -0.3656    Z=             -0.0028  Tot=              0.4400
 Quadrupole moment (field-independent basis, Debye-Ang):
   XX=            -59.0024   YY=            -66.3625   ZZ=            -74.3103
   XY=             -1.4966   XZ=              0.1242   YZ=             -0.0244

 Normal termination of Gaussian 16 at Sun Dec  3 12:26:05 2023.
