 Gaussian 16, Revision B.01,
 Gaussian 16:  ES64L-G16RevB.01 20-Dec-2017

 -------------------------
 #P B3LYP/6-311+g(d) force
 -------------------------

 -----
 DPGEN
 -----
 Symbolic Z-matrix:
 Charge =  0 Multiplicity = 2

                         Standard orientation:
 ---------------------------------------------------------------------
 Center     Atomic      Atomic             Coordinates (Angstroms)
 Number     Number       Type             X           Y           Z
 ---------------------------------------------------------------------
      1         11           0        1.667354   -2.644733    0.037662
      2         11           0       -1.710879    2.388292   -0.451262
      3         11           0       -3.394030   -0.851599   -0.106152
      4         11           0       -0.558827   -1.644916    1.573045
      5         11           0        1.156347    2.398512    1.486393
      6         11           0        2.826991    0.678076   -0.711362
      7         11           0        0.013042   -0.323632   -1.828324
 ---------------------------------------------------------------------

 SCF Done:  E(UB3LYP) =  -1136.12665651     A.U. after   20 cycles

 The electronic state is 2-A.
 Alpha  occ. eigenvalues --  -38.44352 -38.44176 -38.44124 -38.43846 -38.43732
 Alpha  occ. eigenvalues --  -38.43659 -38.43551  -2.20142  -2.19984  -2.19978
 Alpha  occ. eigenvalues --   -2.19733  -2.19657  -2.19561  -2.19384  -1.13823
 Alpha  occ. eigenvalues --   -1.13804  -1.13780  -1.13694  -1.13669  -1.13654
 Alpha  occ. eigenvalues --   -1.13652  -1.13608  -1.13599  -1.13576  -1.13391
 Alpha  occ. eigenvalues --   -1.13352  -1.13324  -1.13291  -1.13263  -1.13188
 Alpha  occ. eigenvalues --   -1.13174  -1.13155  -1.13039  -1.13030  -1.13012
 Alpha  occ. eigenvalues --   -0.18154  -0.12999  -0.12696  -0.10919
 Alpha virt. eigenvalues --   -0.06151  -0.05169  -0.04209  -0.03722  -0.03407
 Alpha virt. eigenvalues --   -0.02538  -0.01611  -0.01163  -0.00269  -0.00122
 Alpha virt. eigenvalues --    0.00057   0.00334   0.00364   0.00718   0.00881

  Beta  occ. eigenvalues --  -38.44354 -38.44173 -38.44110 -38.43841 -38.43656
  Beta  occ. eigenvalues --  -38.43609 -38.43502  -2.20148  -2.19975  -2.19963
  Beta  occ. eigenvalues --   -2.19728  -2.19520  -2.19468  -2.19293  -1.13819
  Beta  occ. eigenvalues --   -1.13810  -1.13779  -1.13667  -1.13659  -1.13641
  Beta  occ. eigenvalues --   -1.13621  -1.13596  -1.13594  -1.13550  -1.13369
  Beta  occ. eigenvalues --   -1.13342  -1.13238  -1.13201  -1.13160  -1.13127
  Beta  occ. eigenvalues --   -1.13108  -1.13100  -1.12978  -1.12966  -1.12951
  Beta  occ. eigenvalues --   -0.17496  -0.12767  -0.12342
  Beta virt. eigenvalues --   -0.07238  -0.06120  -0.05074  -0.03857  -0.03145
  Beta virt. eigenvalues --   -0.02680  -0.01700  -0.01529  -0.01141  -0.00230
  Beta virt. eigenvalues --   -0.00002   0.00152   0.00424   0.00496   0.00747

 Mulliken charges and spin densities:
               1          2
     1  Na   0.331523   0.119090
     2  Na  -0.305351   0.093963
     3  Na   0.328353   0.009919
     4  Na  -0.561650   0.353000
     5  Na   0.146305   0.135904
     6  Na  -0.127038   0.083317
     7  Na   0.187859   0.204808
 Sum of Mulliken charges =  -0.00000   1.00000

 Dipole moment (field-independent basis, Debye):
    X=             -0.3338    Y=             -0.1103    Z=             -0.1844  Tot=              0.3970
 Quadrupole moment (field-independent basis, Debye-Ang):
   XX=            -57.3027   YY=            -67.1110   ZZ=            -71.6922
   XY=             -1.3915   XZ=              0.0155   YZ=              0.7095

 Normal termination of Gaussian 16 at Wed Nov 29 17:06:59 2023.
