 Gaussian 16, Revision B.01,
 Gaussian 16:  ES64L-G16RevB.01 20-Dec-2017

 -------------------------
 #P B3LYP/6-311+g(d) force
 -------------------------

 -----
 DPGEN
 -----
 Symbolic Z-matrix:
 Charge =  0 Multiplicity = 2

                         Standard orientation:
 ---------------------------------------------------------------------
 Center     Atomic      Atomic             Coordinates (Angstroms)
 Number     Number       Type             X           Y           Z
 ---------------------------------------------------------------------
      1         11           0        0.607364    0.524479    1.202757
      2         11           0       -1.750755   -1.750621    1.553183
      3         11           0       -0.850499   -1.644861   -1.192047
      4         11           0        2.740957   -1.546203   -0.951318
      5         11           0        3.789622    1.047186    0.371746
      6         11           0       -3.385679    0.283642   -0.465697
      7         11           0       -1.151010    3.086379   -0.518623
 ---------------------------------------------------------------------

 SCF Done:  E(UB3LYP) =  -1136.11619336     A.U. after   23 cycles

 The electronic state is 2-A.
 Alpha  occ. eigenvalues --  -38.45254 -38.44739 -38.44167 -38.43811 -38.43772
 Alpha  occ. eigenvalues --  -38.43431 -38.43289  -2.21079  -2.20596  -2.20016
 Alpha  occ. eigenvalues --   -2.19767  -2.19705  -2.19355  -2.19057  -1.14757
 Alpha  occ. eigenvalues --   -1.14738  -1.14719  -1.14287  -1.14262  -1.14202
 Alpha  occ. eigenvalues --   -1.13676  -1.13666  -1.13658  -1.13612  -1.13414
 Alpha  occ. eigenvalues --   -1.13394  -1.13355  -1.13324  -1.13245  -1.13051
 Alpha  occ. eigenvalues --   -1.13007  -1.12972  -1.12734  -1.12725  -1.12702
 Alpha  occ. eigenvalues --   -0.18263  -0.14331  -0.11639  -0.10555
 Alpha virt. eigenvalues --   -0.07179  -0.05430  -0.04300  -0.03568  -0.02749
 Alpha virt. eigenvalues --   -0.02426  -0.01935  -0.01399  -0.00548  -0.00409
 Alpha virt. eigenvalues --   -0.00167   0.00166   0.00322   0.00706   0.00760

  Beta  occ. eigenvalues --  -38.45250 -38.44710 -38.44136 -38.43760 -38.43742
  Beta  occ. eigenvalues --  -38.43378 -38.43304  -2.21072  -2.20543  -2.19958
  Beta  occ. eigenvalues --   -2.19680  -2.19646  -2.19260  -2.19085  -1.14752
  Beta  occ. eigenvalues --   -1.14724  -1.14714  -1.14242  -1.14219  -1.14173
  Beta  occ. eigenvalues --   -1.13635  -1.13623  -1.13614  -1.13558  -1.13351
  Beta  occ. eigenvalues --   -1.13333  -1.13303  -1.13273  -1.13189  -1.12982
  Beta  occ. eigenvalues --   -1.12923  -1.12917  -1.12754  -1.12743  -1.12713
  Beta  occ. eigenvalues --   -0.17622  -0.14119  -0.11454
  Beta virt. eigenvalues --   -0.06988  -0.06858  -0.04873  -0.04195  -0.03187
  Beta virt. eigenvalues --   -0.02507  -0.02067  -0.01313  -0.01087  -0.00319
  Beta virt. eigenvalues --   -0.00244  -0.00037   0.00234   0.00480   0.00788

 Mulliken charges and spin densities:
               1          2
     1  Na  -0.119581   0.296812
     2  Na   0.364739   0.019220
     3  Na   0.017961   0.421801
     4  Na  -0.412564   0.072067
     5  Na   0.282817   0.052624
     6  Na   0.056530   0.183986
     7  Na  -0.189902  -0.046509
 Sum of Mulliken charges =  -0.00000   1.00000

 Dipole moment (field-independent basis, Debye):
    X=              0.7799    Y=             -0.1122    Z=              0.1422  Tot=              0.8006
 Quadrupole moment (field-independent basis, Debye-Ang):
   XX=            -49.0559   YY=            -71.3759   ZZ=            -73.7226
   XY=              5.4689   XZ=             -1.2049   YZ=             -0.9663

 Normal termination of Gaussian 16 at Wed Nov 29 00:07:53 2023.
