 Gaussian 16, Revision B.01,
 Gaussian 16:  ES64L-G16RevB.01 20-Dec-2017

 -------------------------
 #P B3LYP/6-311+g(d) force
 -------------------------

 -----
 DPGEN
 -----
 Symbolic Z-matrix:
 Charge =  0 Multiplicity = 2

                         Standard orientation:
 ---------------------------------------------------------------------
 Center     Atomic      Atomic             Coordinates (Angstroms)
 Number     Number       Type             X           Y           Z
 ---------------------------------------------------------------------
      1         11           0       -0.463719   -0.765363    1.077096
      2         11           0        2.015756    1.396280   -1.311337
      3         11           0       -3.979841   -0.101309    0.968471
      4         11           0        2.277548   -2.194688   -0.292024
      5         11           0       -1.418918   -1.276522   -1.566869
      6         11           0       -1.210453    2.145819   -0.579653
      7         11           0        2.779628    0.795782    1.704316
 ---------------------------------------------------------------------

 SCF Done:  E(UB3LYP) =  -1136.12295808     A.U. after   23 cycles

 The electronic state is 2-A.
 Alpha  occ. eigenvalues --  -38.44999 -38.44312 -38.44194 -38.43770 -38.43506
 Alpha  occ. eigenvalues --  -38.43367 -38.43065  -2.20793  -2.20163  -2.20089
 Alpha  occ. eigenvalues --   -2.19739  -2.19369  -2.19188  -2.18913  -1.14461
 Alpha  occ. eigenvalues --   -1.14440  -1.14400  -1.13937  -1.13838  -1.13818
 Alpha  occ. eigenvalues --   -1.13769  -1.13716  -1.13664  -1.13436  -1.13384
 Alpha  occ. eigenvalues --   -1.13323  -1.13041  -1.13033  -1.13009  -1.12869
 Alpha  occ. eigenvalues --   -1.12851  -1.12821  -1.12614  -1.12589  -1.12515
 Alpha  occ. eigenvalues --   -0.18343  -0.14038  -0.11108  -0.10935
 Alpha virt. eigenvalues --   -0.06513  -0.05270  -0.04707  -0.03113  -0.02689
 Alpha virt. eigenvalues --   -0.02411  -0.02154  -0.00922  -0.00886  -0.00224
 Alpha virt. eigenvalues --    0.00144   0.00224   0.00359   0.00553   0.00671

  Beta  occ. eigenvalues --  -38.44952 -38.44259 -38.44148 -38.43756 -38.43494
  Beta  occ. eigenvalues --  -38.43368 -38.43052  -2.20705  -2.20064  -2.20006
  Beta  occ. eigenvalues --   -2.19718  -2.19351  -2.19192  -2.18892  -1.14395
  Beta  occ. eigenvalues --   -1.14380  -1.14346  -1.13886  -1.13772  -1.13751
  Beta  occ. eigenvalues --   -1.13701  -1.13645  -1.13601  -1.13395  -1.13366
  Beta  occ. eigenvalues --   -1.13310  -1.13028  -1.13001  -1.12996  -1.12870
  Beta  occ. eigenvalues --   -1.12856  -1.12807  -1.12603  -1.12555  -1.12499
  Beta  occ. eigenvalues --   -0.17697  -0.13664  -0.10865
  Beta virt. eigenvalues --   -0.07393  -0.06159  -0.05026  -0.04249  -0.03011
  Beta virt. eigenvalues --   -0.02329  -0.01916  -0.01527  -0.00808  -0.00503
  Beta virt. eigenvalues --   -0.00047   0.00255   0.00279   0.00468   0.00648

 Mulliken charges and spin densities:
               1          2
     1  Na  -0.469396   0.133693
     2  Na   0.122239   0.105103
     3  Na   0.517248   0.177678
     4  Na   0.093868   0.073910
     5  Na  -0.064667   0.335516
     6  Na  -0.322709   0.006830
     7  Na   0.123417   0.167270
 Sum of Mulliken charges =  -0.00000   1.00000

 Dipole moment (field-independent basis, Debye):
    X=             -0.7085    Y=             -0.1695    Z=             -0.0223  Tot=              0.7288
 Quadrupole moment (field-independent basis, Debye-Ang):
   XX=            -50.0483   YY=            -77.4027   ZZ=            -65.9452
   XY=             -0.9342   XZ=             -0.7552   YZ=              3.2189

 Normal termination of Gaussian 16 at Tue Dec  5 18:44:11 2023.
