 Gaussian 16, Revision B.01,
 Gaussian 16:  ES64L-G16RevB.01 20-Dec-2017

 -------------------------
 #P B3LYP/6-311+g(d) force
 -------------------------

 -----
 DPGEN
 -----
 Symbolic Z-matrix:
 Charge =  0 Multiplicity = 2

                         Standard orientation:
 ---------------------------------------------------------------------
 Center     Atomic      Atomic             Coordinates (Angstroms)
 Number     Number       Type             X           Y           Z
 ---------------------------------------------------------------------
      1         11           0        3.109245    0.533361   -0.274110
      2         11           0        0.142051    3.102627   -0.322287
      3         11           0        2.046290   -2.180242   -0.130093
      4         11           0       -3.027798    0.880084   -0.263241
      5         11           0        0.045182    0.419368    2.083961
      6         11           0       -1.995328   -2.463122    0.045771
      7         11           0       -0.319644   -0.292076   -1.140001
 ---------------------------------------------------------------------

 SCF Done:  E(UB3LYP) =  -1136.12903825     A.U. after   20 cycles

 The electronic state is 2-A.
 Alpha  occ. eigenvalues --  -38.44423 -38.44187 -38.43869 -38.43707 -38.43518
 Alpha  occ. eigenvalues --  -38.43214 -38.42903  -2.20270  -2.20052  -2.19720
 Alpha  occ. eigenvalues --   -2.19601  -2.19325  -2.19102  -2.18994  -1.13988
 Alpha  occ. eigenvalues --   -1.13925  -1.13878  -1.13815  -1.13702  -1.13674
 Alpha  occ. eigenvalues --   -1.13460  -1.13363  -1.13340  -1.13286  -1.13237
 Alpha  occ. eigenvalues --   -1.13223  -1.13004  -1.12988  -1.12964  -1.12802
 Alpha  occ. eigenvalues --   -1.12719  -1.12705  -1.12668  -1.12640  -1.12615
 Alpha  occ. eigenvalues --   -0.18667  -0.13455  -0.12343  -0.10254
 Alpha virt. eigenvalues --   -0.05915  -0.05315  -0.04802  -0.03056  -0.02636
 Alpha virt. eigenvalues --   -0.02090  -0.01749  -0.01299  -0.00632  -0.00475
 Alpha virt. eigenvalues --    0.00004   0.00323   0.00750   0.00820   0.00860

  Beta  occ. eigenvalues --  -38.44412 -38.44178 -38.43866 -38.43702 -38.43513
  Beta  occ. eigenvalues --  -38.43107 -38.42869  -2.20253  -2.20040  -2.19719
  Beta  occ. eigenvalues --   -2.19595  -2.19318  -2.18935  -2.18905  -1.13974
  Beta  occ. eigenvalues --   -1.13896  -1.13870  -1.13810  -1.13680  -1.13660
  Beta  occ. eigenvalues --   -1.13457  -1.13350  -1.13336  -1.13281  -1.13234
  Beta  occ. eigenvalues --   -1.13197  -1.12994  -1.12970  -1.12961  -1.12686
  Beta  occ. eigenvalues --   -1.12600  -1.12588  -1.12579  -1.12574  -1.12563
  Beta  occ. eigenvalues --   -0.17977  -0.13193  -0.12141
  Beta virt. eigenvalues --   -0.06378  -0.05834  -0.05277  -0.04754  -0.02320
  Beta virt. eigenvalues --   -0.01913  -0.01652  -0.01247  -0.01078  -0.00645
  Beta virt. eigenvalues --   -0.00492   0.00183   0.00391   0.00792   0.00851

 Mulliken charges and spin densities:
               1          2
     1  Na   0.196862   0.042340
     2  Na   0.121473   0.025206
     3  Na   0.413568   0.099906
     4  Na   0.376588   0.031619
     5  Na  -0.488254   0.670043
     6  Na   0.443535   0.079189
     7  Na  -1.063773   0.051697
 Sum of Mulliken charges =  -0.00000   1.00000

 Dipole moment (field-independent basis, Debye):
    X=             -0.2892    Y=              0.0778    Z=              0.2368  Tot=              0.3817
 Quadrupole moment (field-independent basis, Debye-Ang):
   XX=            -54.8179   YY=            -60.3537   ZZ=            -76.9432
   XY=              0.8340   XZ=             -0.7394   YZ=             -1.6470

 Normal termination of Gaussian 16 at Fri Dec  8 01:07:07 2023.
