 Gaussian 16, Revision B.01,
 Gaussian 16:  ES64L-G16RevB.01 20-Dec-2017

 -------------------------
 #P B3LYP/6-311+g(d) force
 -------------------------

 -----
 DPGEN
 -----
 Symbolic Z-matrix:
 Charge =  0 Multiplicity = 2

                         Standard orientation:
 ---------------------------------------------------------------------
 Center     Atomic      Atomic             Coordinates (Angstroms)
 Number     Number       Type             X           Y           Z
 ---------------------------------------------------------------------
      1         11           0       -3.792431    0.402533   -0.309323
      2         11           0        3.288006   -0.292408    0.622702
      3         11           0       -1.228053    2.918515    1.443960
      4         11           0        0.974758   -2.256778    1.781410
      5         11           0       -2.434693   -2.196694   -0.591278
      6         11           0        1.426049   -1.195593   -1.713146
      7         11           0        1.766364    2.620425   -1.234325
 ---------------------------------------------------------------------

 SCF Done:  E(UB3LYP) =  -1136.11132042     A.U. after   21 cycles

 The electronic state is 2-A.
 Alpha  occ. eigenvalues --  -38.44942 -38.44816 -38.44640 -38.44277 -38.44148
 Alpha  occ. eigenvalues --  -38.44104 -38.43885  -2.20800  -2.20649  -2.20435
 Alpha  occ. eigenvalues --   -2.20019  -2.19976  -2.19857  -2.19709  -1.14534
 Alpha  occ. eigenvalues --   -1.14477  -1.14418  -1.14315  -1.14291  -1.14259
 Alpha  occ. eigenvalues --   -1.14173  -1.14094  -1.14064  -1.13684  -1.13663
 Alpha  occ. eigenvalues --   -1.13645  -1.13638  -1.13611  -1.13601  -1.13544
 Alpha  occ. eigenvalues --   -1.13520  -1.13489  -1.13379  -1.13357  -1.13333
 Alpha  occ. eigenvalues --   -0.16883  -0.13591  -0.12209  -0.10696
 Alpha virt. eigenvalues --   -0.06662  -0.06025  -0.04267  -0.03722  -0.03428
 Alpha virt. eigenvalues --   -0.02430  -0.01756  -0.01166  -0.00942  -0.00694
 Alpha virt. eigenvalues --   -0.00379  -0.00155   0.00014   0.00429   0.00651

  Beta  occ. eigenvalues --  -38.44927 -38.44780 -38.44645 -38.44222 -38.44099
  Beta  occ. eigenvalues --  -38.44086 -38.43868  -2.20779  -2.20583  -2.20448
  Beta  occ. eigenvalues --   -2.19916  -2.19862  -2.19848  -2.19676  -1.14520
  Beta  occ. eigenvalues --   -1.14453  -1.14376  -1.14271  -1.14249  -1.14200
  Beta  occ. eigenvalues --   -1.14176  -1.14104  -1.14065  -1.13613  -1.13594
  Beta  occ. eigenvalues --   -1.13576  -1.13559  -1.13539  -1.13534  -1.13518
  Beta  occ. eigenvalues --   -1.13517  -1.13468  -1.13362  -1.13329  -1.13313
  Beta  occ. eigenvalues --   -0.16338  -0.13314  -0.11773
  Beta virt. eigenvalues --   -0.07308  -0.06513  -0.05693  -0.03741  -0.03528
  Beta virt. eigenvalues --   -0.02976  -0.01812  -0.01638  -0.01133  -0.00859
  Beta virt. eigenvalues --   -0.00578  -0.00111   0.00067   0.00244   0.00550

 Mulliken charges and spin densities:
               1          2
     1  Na   0.042621  -0.008915
     2  Na   0.327581   0.096305
     3  Na  -0.109070   0.310847
     4  Na  -0.206864   0.320730
     5  Na  -0.112747   0.075580
     6  Na   0.382024   0.274045
     7  Na  -0.323545  -0.068593
 Sum of Mulliken charges =  -0.00000   1.00000

 Dipole moment (field-independent basis, Debye):
    X=              0.6166    Y=             -0.4109    Z=             -0.0941  Tot=              0.7470
 Quadrupole moment (field-independent basis, Debye-Ang):
   XX=            -60.9685   YY=            -70.5495   ZZ=            -69.9304
   XY=              0.7590   XZ=              0.3262   YZ=              0.1742

 Normal termination of Gaussian 16 at Sun Dec  3 20:39:48 2023.
