 Gaussian 16, Revision B.01,
 Gaussian 16:  ES64L-G16RevB.01 20-Dec-2017

 -------------------------
 #P B3LYP/6-311+g(d) force
 -------------------------

 -----
 DPGEN
 -----
 Symbolic Z-matrix:
 Charge =  0 Multiplicity = 2

                         Standard orientation:
 ---------------------------------------------------------------------
 Center     Atomic      Atomic             Coordinates (Angstroms)
 Number     Number       Type             X           Y           Z
 ---------------------------------------------------------------------
      1         11           0       -4.511598   -0.244524    1.775952
      2         11           0       -3.914168   -1.822227   -0.777333
      3         11           0        0.573481    1.976568   -1.129024
      4         11           0       -2.394445    2.519791    0.132710
      5         11           0        0.292565   -1.883423   -0.617053
      6         11           0        3.846998   -0.243762   -1.044685
      7         11           0        6.107167   -0.302422    1.659434
 ---------------------------------------------------------------------

 SCF Done:  E(UB3LYP) =  -1136.10764106     A.U. after   21 cycles

 The electronic state is 2-A.
 Alpha  occ. eigenvalues --  -38.45713 -38.44689 -38.44668 -38.44509 -38.44189
 Alpha  occ. eigenvalues --  -38.44028 -38.43417  -2.21473  -2.20487  -2.20471
 Alpha  occ. eigenvalues --   -2.20276  -2.19945  -2.19824  -2.19207  -1.15140
 Alpha  occ. eigenvalues --   -1.15109  -1.15072  -1.14260  -1.14148  -1.14140
 Alpha  occ. eigenvalues --   -1.14119  -1.14107  -1.14044  -1.13927  -1.13926
 Alpha  occ. eigenvalues --   -1.13894  -1.13643  -1.13629  -1.13570  -1.13496
 Alpha  occ. eigenvalues --   -1.13481  -1.13447  -1.12889  -1.12881  -1.12841
 Alpha  occ. eigenvalues --   -0.16011  -0.13878  -0.11727  -0.11554
 Alpha virt. eigenvalues --   -0.06750  -0.06136  -0.04480  -0.03354  -0.03139
 Alpha virt. eigenvalues --   -0.02808  -0.02213  -0.01413  -0.01014  -0.00983
 Alpha virt. eigenvalues --   -0.00469  -0.00301  -0.00146   0.00011   0.00396

  Beta  occ. eigenvalues --  -38.45618 -38.44678 -38.44664 -38.44444 -38.44206
  Beta  occ. eigenvalues --  -38.43987 -38.43426  -2.21296  -2.20471  -2.20460
  Beta  occ. eigenvalues --   -2.20154  -2.19980  -2.19747  -2.19224  -1.15019
  Beta  occ. eigenvalues --   -1.14993  -1.14946  -1.14254  -1.14136  -1.14130
  Beta  occ. eigenvalues --   -1.14103  -1.14095  -1.14034  -1.13844  -1.13843
  Beta  occ. eigenvalues --   -1.13814  -1.13669  -1.13656  -1.13569  -1.13443
  Beta  occ. eigenvalues --   -1.13435  -1.13394  -1.12901  -1.12897  -1.12843
  Beta  occ. eigenvalues --   -0.15418  -0.13649  -0.11272
  Beta virt. eigenvalues --   -0.08222  -0.06183  -0.05587  -0.04315  -0.02967
  Beta virt. eigenvalues --   -0.02886  -0.02604  -0.01951  -0.01093  -0.00851
  Beta virt. eigenvalues --   -0.00776  -0.00298  -0.00037   0.00003   0.00126

 Mulliken charges and spin densities:
               1          2
     1  Na   0.190628  -0.018607
     2  Na  -0.017369   0.027665
     3  Na   0.036999  -0.102427
     4  Na  -0.120681   0.280807
     5  Na  -0.178510   0.532228
     6  Na  -0.095978  -0.034917
     7  Na   0.184912   0.315251
 Sum of Mulliken charges =  -0.00000   1.00000

 Dipole moment (field-independent basis, Debye):
    X=             -0.9675    Y=             -0.6397    Z=              0.5402  Tot=              1.2795
 Quadrupole moment (field-independent basis, Debye-Ang):
   XX=            -65.3429   YY=            -73.0427   ZZ=            -62.8221
   XY=              0.2009   XZ=              0.3611   YZ=              2.0528

 Normal termination of Gaussian 16 at Sun Dec  3 20:36:33 2023.
