 Gaussian 16, Revision B.01,
 Gaussian 16:  ES64L-G16RevB.01 20-Dec-2017

 -------------------------
 #P B3LYP/6-311+g(d) force
 -------------------------

 -----
 DPGEN
 -----
 Symbolic Z-matrix:
 Charge =  0 Multiplicity = 2

                         Standard orientation:
 ---------------------------------------------------------------------
 Center     Atomic      Atomic             Coordinates (Angstroms)
 Number     Number       Type             X           Y           Z
 ---------------------------------------------------------------------
      1         11           0        0.892367    1.802031    1.739987
      2         11           0        0.447692    2.734057   -1.577535
      3         11           0       -2.481486    0.004336   -1.580728
      4         11           0       -0.051778   -2.212792   -1.773626
      5         11           0       -2.771879    0.243120    1.878530
      6         11           0        0.526267   -2.258618    1.431818
      7         11           0        3.438816   -0.312133   -0.118445
 ---------------------------------------------------------------------

 SCF Done:  E(UB3LYP) =  -1136.11957198     A.U. after   21 cycles

 The electronic state is 2-A.
 Alpha  occ. eigenvalues --  -38.44752 -38.44622 -38.44442 -38.44238 -38.43997
 Alpha  occ. eigenvalues --  -38.43785 -38.43760  -2.20490  -2.20405  -2.20209
 Alpha  occ. eigenvalues --   -2.20038  -2.19778  -2.19613  -2.19572  -1.14178
 Alpha  occ. eigenvalues --   -1.14142  -1.14122  -1.14057  -1.14045  -1.14042
 Alpha  occ. eigenvalues --   -1.13871  -1.13859  -1.13837  -1.13724  -1.13701
 Alpha  occ. eigenvalues --   -1.13660  -1.13456  -1.13442  -1.13415  -1.13321
 Alpha  occ. eigenvalues --   -1.13274  -1.13253  -1.13226  -1.13219  -1.13191
 Alpha  occ. eigenvalues --   -0.17091  -0.12379  -0.11957  -0.11852
 Alpha virt. eigenvalues --   -0.06088  -0.05282  -0.04689  -0.03624  -0.03442
 Alpha virt. eigenvalues --   -0.03322  -0.01505  -0.00749  -0.00604  -0.00300
 Alpha virt. eigenvalues --   -0.00021   0.00241   0.00316   0.00510   0.00581

  Beta  occ. eigenvalues --  -38.44752 -38.44563 -38.44398 -38.44219 -38.43988
  Beta  occ. eigenvalues --  -38.43755 -38.43739  -2.20490  -2.20295  -2.20126
  Beta  occ. eigenvalues --   -2.20003  -2.19763  -2.19560  -2.19536  -1.14173
  Beta  occ. eigenvalues --   -1.14143  -1.14124  -1.13974  -1.13973  -1.13968
  Beta  occ. eigenvalues --   -1.13811  -1.13806  -1.13779  -1.13702  -1.13670
  Beta  occ. eigenvalues --   -1.13632  -1.13448  -1.13422  -1.13395  -1.13282
  Beta  occ. eigenvalues --   -1.13234  -1.13218  -1.13197  -1.13186  -1.13157
  Beta  occ. eigenvalues --   -0.16380  -0.12199  -0.11713
  Beta virt. eigenvalues --   -0.08174  -0.06014  -0.04668  -0.04106  -0.03425
  Beta virt. eigenvalues --   -0.03222  -0.02505  -0.01363  -0.00624  -0.00342
  Beta virt. eigenvalues --   -0.00197   0.00065   0.00251   0.00517   0.00583

 Mulliken charges and spin densities:
               1          2
     1  Na  -0.047592  -0.042423
     2  Na  -0.018037   0.340055
     3  Na  -0.113068  -0.185136
     4  Na   0.075939   0.367631
     5  Na   0.029634   0.516940
     6  Na  -0.090722   0.127351
     7  Na   0.163846  -0.124417
 Sum of Mulliken charges =  -0.00000   1.00000

 Dipole moment (field-independent basis, Debye):
    X=              0.5014    Y=              0.0203    Z=              0.0582  Tot=              0.5052
 Quadrupole moment (field-independent basis, Debye-Ang):
   XX=            -63.2334   YY=            -73.2120   ZZ=            -62.0973
   XY=             -0.6253   XZ=             -3.2262   YZ=             -2.3584

 Normal termination of Gaussian 16 at Mon Dec  4 00:18:21 2023.
