 Gaussian 16, Revision B.01,
 Gaussian 16:  ES64L-G16RevB.01 20-Dec-2017

 -------------------------
 #P B3LYP/6-311+g(d) force
 -------------------------

 -----
 DPGEN
 -----
 Symbolic Z-matrix:
 Charge =  0 Multiplicity = 2

                         Standard orientation:
 ---------------------------------------------------------------------
 Center     Atomic      Atomic             Coordinates (Angstroms)
 Number     Number       Type             X           Y           Z
 ---------------------------------------------------------------------
      1         11           0       -1.914895   -2.326388   -0.292714
      2         11           0       -0.017090    0.142305   -1.587827
      3         11           0        2.214806   -2.101426   -0.262583
      4         11           0        0.670932   -0.486605    1.958947
      5         11           0       -2.928749    0.425194    0.314260
      6         11           0       -0.904625    2.839093    0.006719
      7         11           0        2.879621    1.507828   -0.136801
 ---------------------------------------------------------------------

 SCF Done:  E(UB3LYP) =  -1136.13227947     A.U. after   19 cycles

 The electronic state is 2-A.
 Alpha  occ. eigenvalues --  -38.44538 -38.44070 -38.43820 -38.43614 -38.43519
 Alpha  occ. eigenvalues --  -38.43321 -38.43021  -2.20338  -2.19922  -2.19730
 Alpha  occ. eigenvalues --   -2.19482  -2.19414  -2.19173  -2.19008  -1.14017
 Alpha  occ. eigenvalues --   -1.13998  -1.13971  -1.13629  -1.13591  -1.13538
 Alpha  occ. eigenvalues --   -1.13484  -1.13401  -1.13369  -1.13146  -1.13126
 Alpha  occ. eigenvalues --   -1.13102  -1.13077  -1.13050  -1.13023  -1.12877
 Alpha  occ. eigenvalues --   -1.12832  -1.12804  -1.12689  -1.12637  -1.12628
 Alpha  occ. eigenvalues --   -0.18664  -0.13492  -0.12254  -0.10511
 Alpha virt. eigenvalues --   -0.05985  -0.05437  -0.04410  -0.03438  -0.02698
 Alpha virt. eigenvalues --   -0.02315  -0.01694  -0.01219  -0.00420  -0.00327
 Alpha virt. eigenvalues --   -0.00001   0.00353   0.00777   0.00808   0.00915

  Beta  occ. eigenvalues --  -38.44533 -38.44063 -38.43814 -38.43608 -38.43435
  Beta  occ. eigenvalues --  -38.43320 -38.42955  -2.20331  -2.19912  -2.19722
  Beta  occ. eigenvalues --   -2.19474  -2.19259  -2.19173  -2.18889  -1.13996
  Beta  occ. eigenvalues --   -1.13989  -1.13970  -1.13616  -1.13558  -1.13536
  Beta  occ. eigenvalues --   -1.13482  -1.13398  -1.13342  -1.13135  -1.13109
  Beta  occ. eigenvalues --   -1.13094  -1.12976  -1.12938  -1.12913  -1.12871
  Beta  occ. eigenvalues --   -1.12815  -1.12805  -1.12608  -1.12553  -1.12540
  Beta  occ. eigenvalues --   -0.17963  -0.13258  -0.12026
  Beta virt. eigenvalues --   -0.06652  -0.05973  -0.05326  -0.04400  -0.02629
  Beta virt. eigenvalues --   -0.01982  -0.01612  -0.01297  -0.01148  -0.00460
  Beta virt. eigenvalues --   -0.00359   0.00153   0.00387   0.00792   0.00864

 Mulliken charges and spin densities:
               1          2
     1  Na   0.255446  -0.007783
     2  Na  -0.197206   0.447735
     3  Na   0.285275  -0.102381
     4  Na  -0.490149   0.715509
     5  Na   0.004313   0.059624
     6  Na   0.077455  -0.029333
     7  Na   0.064865  -0.083371
 Sum of Mulliken charges =  -0.00000   1.00000

 Dipole moment (field-independent basis, Debye):
    X=              0.6581    Y=             -0.0342    Z=              0.0718  Tot=              0.6629
 Quadrupole moment (field-independent basis, Debye-Ang):
   XX=            -55.4471   YY=            -62.6381   ZZ=            -75.4298
   XY=              0.8786   XZ=             -1.6183   YZ=              1.5891

 Normal termination of Gaussian 16 at Thu Dec  7 17:15:34 2023.
