 Gaussian 16, Revision B.01,
 Gaussian 16:  ES64L-G16RevB.01 20-Dec-2017

 -------------------------
 #P B3LYP/6-311+g(d) force
 -------------------------

 -----
 DPGEN
 -----
 Symbolic Z-matrix:
 Charge =  0 Multiplicity = 2

                         Standard orientation:
 ---------------------------------------------------------------------
 Center     Atomic      Atomic             Coordinates (Angstroms)
 Number     Number       Type             X           Y           Z
 ---------------------------------------------------------------------
      1         11           0       -3.609715   -0.353407   -0.998207
      2         11           0       -0.318358   -0.282234   -1.602844
      3         11           0        3.323404   -1.323345   -0.914739
      4         11           0        1.756164   -0.812020    1.488154
      5         11           0        1.755581    2.345304   -0.181611
      6         11           0       -1.750872   -1.401337    1.368397
      7         11           0       -1.156204    1.827038    0.840850
 ---------------------------------------------------------------------

 SCF Done:  E(UB3LYP) =  -1136.12556524     A.U. after   22 cycles

 The electronic state is 2-A.
 Alpha  occ. eigenvalues --  -38.44621 -38.44460 -38.43932 -38.43877 -38.43781
 Alpha  occ. eigenvalues --  -38.42944 -38.42771  -2.20481  -2.20370  -2.19849
 Alpha  occ. eigenvalues --   -2.19729  -2.19696  -2.18810  -2.18703  -1.14154
 Alpha  occ. eigenvalues --   -1.14143  -1.14120  -1.14075  -1.14012  -1.13973
 Alpha  occ. eigenvalues --   -1.13582  -1.13529  -1.13500  -1.13467  -1.13383
 Alpha  occ. eigenvalues --   -1.13361  -1.13342  -1.13310  -1.13242  -1.12526
 Alpha  occ. eigenvalues --   -1.12479  -1.12447  -1.12386  -1.12360  -1.12294
 Alpha  occ. eigenvalues --   -0.18836  -0.14163  -0.11462  -0.11188
 Alpha virt. eigenvalues --   -0.06419  -0.05024  -0.04836  -0.03242  -0.02604
 Alpha virt. eigenvalues --   -0.02406  -0.02245  -0.00972  -0.00754   0.00025
 Alpha virt. eigenvalues --    0.00198   0.00269   0.00492   0.00653   0.00752

  Beta  occ. eigenvalues --  -38.44598 -38.44411 -38.43879 -38.43871 -38.43746
  Beta  occ. eigenvalues --  -38.42941 -38.42755  -2.20438  -2.20281  -2.19754
  Beta  occ. eigenvalues --   -2.19715  -2.19639  -2.18806  -2.18676  -1.14119
  Beta  occ. eigenvalues --   -1.14107  -1.14091  -1.14009  -1.13949  -1.13906
  Beta  occ. eigenvalues --   -1.13557  -1.13464  -1.13434  -1.13381  -1.13361
  Beta  occ. eigenvalues --   -1.13345  -1.13309  -1.13275  -1.13202  -1.12522
  Beta  occ. eigenvalues --   -1.12467  -1.12444  -1.12372  -1.12309  -1.12285
  Beta  occ. eigenvalues --   -0.18070  -0.13996  -0.11079
  Beta virt. eigenvalues --   -0.07439  -0.06207  -0.04874  -0.04227  -0.03021
  Beta virt. eigenvalues --   -0.02209  -0.01924  -0.01653  -0.00759  -0.00494
  Beta virt. eigenvalues --    0.00099   0.00218   0.00433   0.00529   0.00758

 Mulliken charges and spin densities:
               1          2
     1  Na   0.872160   0.099398
     2  Na  -0.676823   0.390807
     3  Na   0.281177   0.089869
     4  Na  -0.040453  -0.010767
     5  Na  -0.165584   0.015486
     6  Na  -0.077767   0.236672
     7  Na  -0.192710   0.178535
 Sum of Mulliken charges =  -0.00000   1.00000

 Dipole moment (field-independent basis, Debye):
    X=             -0.7392    Y=              0.0008    Z=             -0.4202  Tot=              0.8503
 Quadrupole moment (field-independent basis, Debye-Ang):
   XX=            -51.5301   YY=            -76.4928   ZZ=            -67.5806
   XY=              1.3193   XZ=             -0.9149   YZ=             -0.2365

 Normal termination of Gaussian 16 at Tue Dec  5 18:58:28 2023.
