 Gaussian 16, Revision B.01,
 Gaussian 16:  ES64L-G16RevB.01 20-Dec-2017

 -------------------------
 #P B3LYP/6-311+g(d) force
 -------------------------

 -----
 DPGEN
 -----
 Symbolic Z-matrix:
 Charge =  0 Multiplicity = 2

                         Standard orientation:
 ---------------------------------------------------------------------
 Center     Atomic      Atomic             Coordinates (Angstroms)
 Number     Number       Type             X           Y           Z
 ---------------------------------------------------------------------
      1         11           0        0.759553    2.589057    0.567405
      2         11           0       -0.724728   -1.164517    2.072181
      3         11           0        2.286670   -2.283891    0.244928
      4         11           0        3.487616    0.764863   -0.588950
      5         11           0       -2.914287    1.870255    0.105725
      6         11           0       -2.898085   -1.792521   -0.992884
      7         11           0        0.003261    0.016753   -1.408406
 ---------------------------------------------------------------------

 SCF Done:  E(UB3LYP) =  -1136.12792912     A.U. after   21 cycles

 The electronic state is 2-A.
 Alpha  occ. eigenvalues --  -38.44815 -38.44270 -38.44076 -38.43973 -38.43907
 Alpha  occ. eigenvalues --  -38.43731 -38.43151  -2.20578  -2.20093  -2.19882
 Alpha  occ. eigenvalues --   -2.19806  -2.19773  -2.19550  -2.18975  -1.14260
 Alpha  occ. eigenvalues --   -1.14228  -1.14217  -1.13765  -1.13745  -1.13737
 Alpha  occ. eigenvalues --   -1.13561  -1.13525  -1.13518  -1.13516  -1.13467
 Alpha  occ. eigenvalues --   -1.13444  -1.13433  -1.13417  -1.13411  -1.13214
 Alpha  occ. eigenvalues --   -1.13180  -1.13167  -1.12670  -1.12641  -1.12596
 Alpha  occ. eigenvalues --   -0.17723  -0.13513  -0.11773  -0.10510
 Alpha virt. eigenvalues --   -0.06284  -0.06002  -0.04305  -0.03262  -0.02860
 Alpha virt. eigenvalues --   -0.02249  -0.02163  -0.01570  -0.00789  -0.00226
 Alpha virt. eigenvalues --   -0.00152   0.00225   0.00459   0.00667   0.00681

  Beta  occ. eigenvalues --  -38.44811 -38.44258 -38.44036 -38.43972 -38.43877
  Beta  occ. eigenvalues --  -38.43647 -38.43145  -2.20574  -2.20072  -2.19810
  Beta  occ. eigenvalues --   -2.19774  -2.19752  -2.19394  -2.18965  -1.14251
  Beta  occ. eigenvalues --   -1.14227  -1.14204  -1.13746  -1.13732  -1.13725
  Beta  occ. eigenvalues --   -1.13505  -1.13476  -1.13468  -1.13463  -1.13452
  Beta  occ. eigenvalues --   -1.13440  -1.13417  -1.13400  -1.13372  -1.13108
  Beta  occ. eigenvalues --   -1.13073  -1.13055  -1.12665  -1.12628  -1.12582
  Beta  occ. eigenvalues --   -0.17150  -0.13228  -0.11497
  Beta virt. eigenvalues --   -0.06840  -0.06233  -0.05837  -0.03956  -0.02865
  Beta virt. eigenvalues --   -0.02209  -0.02059  -0.01487  -0.01382  -0.00724
  Beta virt. eigenvalues --   -0.00137   0.00028   0.00288   0.00593   0.00683

 Mulliken charges and spin densities:
               1          2
     1  Na  -0.375076   0.069085
     2  Na  -0.171693   0.529736
     3  Na  -0.219134   0.072928
     4  Na   0.658134   0.082261
     5  Na  -0.000110   0.059397
     6  Na   0.077441   0.150122
     7  Na   0.030438   0.036471
 Sum of Mulliken charges =  -0.00000   1.00000

 Dipole moment (field-independent basis, Debye):
    X=             -0.1979    Y=              0.0657    Z=              0.0571  Tot=              0.2162
 Quadrupole moment (field-independent basis, Debye-Ang):
   XX=            -50.8895   YY=            -68.7907   ZZ=            -73.9869
   XY=             -1.1436   XZ=             -0.8927   YZ=              1.5056

 Normal termination of Gaussian 16 at Thu Dec  7 18:38:09 2023.
