 Gaussian 16, Revision B.01,
 Gaussian 16:  ES64L-G16RevB.01 20-Dec-2017

 -------------------------
 #P B3LYP/6-311+g(d) force
 -------------------------

 -----
 DPGEN
 -----
 Symbolic Z-matrix:
 Charge =  0 Multiplicity = 2

                         Standard orientation:
 ---------------------------------------------------------------------
 Center     Atomic      Atomic             Coordinates (Angstroms)
 Number     Number       Type             X           Y           Z
 ---------------------------------------------------------------------
      1         11           0       -2.446583   -1.725435    0.699609
      2         11           0        2.834517    1.455927    0.243866
      3         11           0       -4.028271    0.419718   -0.630831
      4         11           0        3.378352   -1.541649   -0.917401
      5         11           0        0.078439   -0.364171   -1.561472
      6         11           0       -0.563440    2.084933   -0.063255
      7         11           0        0.746986   -0.329323    2.229484
 ---------------------------------------------------------------------

 SCF Done:  E(UB3LYP) =  -1136.11325754     A.U. after   30 cycles

 The electronic state is 2-A.
 Alpha  occ. eigenvalues --  -38.45633 -38.45185 -38.44735 -38.44254 -38.44239
 Alpha  occ. eigenvalues --  -38.42686 -38.42344  -2.21446  -2.21070  -2.20605
 Alpha  occ. eigenvalues --   -2.20115  -2.20099  -2.18513  -2.18267  -1.15160
 Alpha  occ. eigenvalues --   -1.15094  -1.15063  -1.14795  -1.14759  -1.14654
 Alpha  occ. eigenvalues --   -1.14309  -1.14269  -1.14220  -1.13792  -1.13770
 Alpha  occ. eigenvalues --   -1.13761  -1.13742  -1.13732  -1.13701  -1.12192
 Alpha  occ. eigenvalues --   -1.12168  -1.12155  -1.12023  -1.11903  -1.11850
 Alpha  occ. eigenvalues --   -0.18444  -0.14331  -0.11438  -0.10684
 Alpha virt. eigenvalues --   -0.07472  -0.05311  -0.04345  -0.03176  -0.03147
 Alpha virt. eigenvalues --   -0.02435  -0.02248  -0.01353  -0.00828  -0.00211
 Alpha virt. eigenvalues --   -0.00072   0.00179   0.00275   0.00647   0.00742

  Beta  occ. eigenvalues --  -38.45623 -38.45155 -38.44736 -38.44221 -38.44145
  Beta  occ. eigenvalues --  -38.42680 -38.42320  -2.21429  -2.21019  -2.20610
  Beta  occ. eigenvalues --   -2.20055  -2.19925  -2.18503  -2.18225  -1.15146
  Beta  occ. eigenvalues --   -1.15083  -1.15044  -1.14761  -1.14702  -1.14618
  Beta  occ. eigenvalues --   -1.14299  -1.14270  -1.14224  -1.13749  -1.13725
  Beta  occ. eigenvalues --   -1.13687  -1.13641  -1.13612  -1.13583  -1.12185
  Beta  occ. eigenvalues --   -1.12155  -1.12151  -1.11990  -1.11862  -1.11819
  Beta  occ. eigenvalues --   -0.17748  -0.14104  -0.10570
  Beta virt. eigenvalues --   -0.07459  -0.07248  -0.04995  -0.03897  -0.02987
  Beta virt. eigenvalues --   -0.02773  -0.01822  -0.01744  -0.01128  -0.00527
  Beta virt. eigenvalues --   -0.00121   0.00006   0.00202   0.00420   0.00718

 Mulliken charges and spin densities:
               1          2
     1  Na  -0.108133   0.093509
     2  Na   0.558838   0.148196
     3  Na   0.437922   0.048843
     4  Na   0.100993  -0.017393
     5  Na  -0.483691   0.259634
     6  Na  -0.268579   0.034386
     7  Na  -0.237349   0.432824
 Sum of Mulliken charges =  -0.00000   1.00000

 Dipole moment (field-independent basis, Debye):
    X=             -1.1866    Y=              0.8301    Z=              0.3335  Tot=              1.4861
 Quadrupole moment (field-independent basis, Debye-Ang):
   XX=            -52.2911   YY=            -73.7737   ZZ=            -71.4414
   XY=              1.4025   XZ=              5.0381   YZ=             -2.8383

 Normal termination of Gaussian 16 at Fri Dec  8 00:13:58 2023.
