 Gaussian 16, Revision B.01,
 Gaussian 16:  ES64L-G16RevB.01 20-Dec-2017

 -------------------------
 #P B3LYP/6-311+g(d) force
 -------------------------

 -----
 DPGEN
 -----
 Symbolic Z-matrix:
 Charge =  0 Multiplicity = 2

                         Standard orientation:
 ---------------------------------------------------------------------
 Center     Atomic      Atomic             Coordinates (Angstroms)
 Number     Number       Type             X           Y           Z
 ---------------------------------------------------------------------
      1         11           0        0.159085   -0.055376    2.358333
      2         11           0       -0.095853   -2.756525   -0.167757
      3         11           0       -2.752199   -1.155714   -0.190396
      4         11           0        2.644418   -1.059810   -0.475491
      5         11           0       -2.379900    2.453720   -0.137122
      6         11           0       -0.076541    0.477505   -1.352492
      7         11           0        2.500989    2.096200   -0.035075
 ---------------------------------------------------------------------

 SCF Done:  E(UB3LYP) =  -1136.13149299     A.U. after   20 cycles

 The electronic state is 2-A.
 Alpha  occ. eigenvalues --  -38.44134 -38.44098 -38.44032 -38.43899 -38.43752
 Alpha  occ. eigenvalues --  -38.43035 -38.42825  -2.19969  -2.19964  -2.19870
 Alpha  occ. eigenvalues --   -2.19696  -2.19663  -2.19045  -2.18740  -1.13669
 Alpha  occ. eigenvalues --   -1.13660  -1.13630  -1.13623  -1.13613  -1.13594
 Alpha  occ. eigenvalues --   -1.13517  -1.13493  -1.13485  -1.13381  -1.13359
 Alpha  occ. eigenvalues --   -1.13348  -1.13334  -1.13307  -1.13294  -1.12736
 Alpha  occ. eigenvalues --   -1.12695  -1.12680  -1.12415  -1.12404  -1.12375
 Alpha  occ. eigenvalues --   -0.18648  -0.13302  -0.12211  -0.10903
 Alpha virt. eigenvalues --   -0.05916  -0.05339  -0.04355  -0.03227  -0.02872
 Alpha virt. eigenvalues --   -0.02688  -0.01594  -0.01282  -0.00530  -0.00150
 Alpha virt. eigenvalues --   -0.00028   0.00320   0.00748   0.00802   0.00924

  Beta  occ. eigenvalues --  -38.44133 -38.44094 -38.43913 -38.43901 -38.43739
  Beta  occ. eigenvalues --  -38.42995 -38.42818  -2.19969  -2.19959  -2.19700
  Beta  occ. eigenvalues --   -2.19651  -2.19641  -2.18975  -2.18731  -1.13665
  Beta  occ. eigenvalues --   -1.13659  -1.13629  -1.13601  -1.13598  -1.13595
  Beta  occ. eigenvalues --   -1.13379  -1.13371  -1.13348  -1.13343  -1.13339
  Beta  occ. eigenvalues --   -1.13337  -1.13330  -1.13286  -1.13269  -1.12685
  Beta  occ. eigenvalues --   -1.12640  -1.12626  -1.12412  -1.12400  -1.12340
  Beta  occ. eigenvalues --   -0.17932  -0.13100  -0.12029
  Beta virt. eigenvalues --   -0.06832  -0.05906  -0.05257  -0.04352  -0.02478
  Beta virt. eigenvalues --   -0.01984  -0.01707  -0.01510  -0.01180  -0.00565
  Beta virt. eigenvalues --   -0.00169   0.00155   0.00371   0.00798   0.00854

 Mulliken charges and spin densities:
               1          2
     1  Na  -0.711875   0.710728
     2  Na   0.125951   0.122263
     3  Na   0.218758   0.036496
     4  Na   0.433166   0.120357
     5  Na   0.153216   0.036459
     6  Na  -0.408250  -0.106702
     7  Na   0.189033   0.080398
 Sum of Mulliken charges =  -0.00000   1.00000

 Dipole moment (field-independent basis, Debye):
    X=             -0.0098    Y=              0.4709    Z=              0.2810  Tot=              0.5485
 Quadrupole moment (field-independent basis, Debye-Ang):
   XX=            -56.8697   YY=            -62.8654   ZZ=            -74.3969
   XY=              0.7931   XZ=             -0.6377   YZ=              1.3094

 Normal termination of Gaussian 16 at Thu Dec  7 13:59:02 2023.
