 Gaussian 16, Revision B.01,
 Gaussian 16:  ES64L-G16RevB.01 20-Dec-2017

 -------------------------
 #P B3LYP/6-311+g(d) force
 -------------------------

 -----
 DPGEN
 -----
 Symbolic Z-matrix:
 Charge =  0 Multiplicity = 2

                         Standard orientation:
 ---------------------------------------------------------------------
 Center     Atomic      Atomic             Coordinates (Angstroms)
 Number     Number       Type             X           Y           Z
 ---------------------------------------------------------------------
      1         11           0       -2.000256   -2.224698    0.304219
      2         11           0       -3.186174    0.862237   -0.708323
      3         11           0        0.230307    2.970891    0.659489
      4         11           0        0.020571   -0.191729   -1.492304
      5         11           0        2.901261    0.791288   -0.665004
      6         11           0       -0.120482   -0.034714    1.730959
      7         11           0        2.154774   -2.173275    0.170964
 ---------------------------------------------------------------------

 SCF Done:  E(UB3LYP) =  -1136.13278264     A.U. after   20 cycles

 The electronic state is 2-A.
 Alpha  occ. eigenvalues --  -38.44371 -38.43895 -38.43666 -38.43574 -38.43408
 Alpha  occ. eigenvalues --  -38.43159 -38.42987  -2.20182  -2.19784  -2.19532
 Alpha  occ. eigenvalues --   -2.19444  -2.19415  -2.19149  -2.18819  -1.13858
 Alpha  occ. eigenvalues --   -1.13825  -1.13814  -1.13504  -1.13457  -1.13396
 Alpha  occ. eigenvalues --   -1.13245  -1.13212  -1.13151  -1.13145  -1.13115
 Alpha  occ. eigenvalues --   -1.13108  -1.13074  -1.13039  -1.13011  -1.12831
 Alpha  occ. eigenvalues --   -1.12785  -1.12761  -1.12500  -1.12460  -1.12452
 Alpha  occ. eigenvalues --   -0.18779  -0.13460  -0.12090  -0.10750
 Alpha virt. eigenvalues --   -0.05764  -0.05207  -0.04415  -0.03310  -0.02756
 Alpha virt. eigenvalues --   -0.02251  -0.01822  -0.01177  -0.00335  -0.00218
 Alpha virt. eigenvalues --    0.00070   0.00313   0.00753   0.00840   0.00892

  Beta  occ. eigenvalues --  -38.44345 -38.43877 -38.43658 -38.43572 -38.43361
  Beta  occ. eigenvalues --  -38.43075 -38.42972  -2.20134  -2.19753  -2.19522
  Beta  occ. eigenvalues --   -2.19445  -2.19330  -2.18997  -2.18794  -1.13814
  Beta  occ. eigenvalues --   -1.13797  -1.13780  -1.13476  -1.13437  -1.13366
  Beta  occ. eigenvalues --   -1.13231  -1.13192  -1.13132  -1.13126  -1.13110
  Beta  occ. eigenvalues --   -1.13062  -1.13053  -1.12984  -1.12953  -1.12731
  Beta  occ. eigenvalues --   -1.12673  -1.12659  -1.12462  -1.12440  -1.12437
  Beta  occ. eigenvalues --   -0.18118  -0.13113  -0.11796
  Beta virt. eigenvalues --   -0.06985  -0.05595  -0.05141  -0.04364  -0.02645
  Beta virt. eigenvalues --   -0.02072  -0.01654  -0.01318  -0.01091  -0.00259
  Beta virt. eigenvalues --   -0.00219   0.00149   0.00376   0.00817   0.00863

 Mulliken charges and spin densities:
               1          2
     1  Na   0.039995   0.023723
     2  Na  -0.013218   0.112570
     3  Na  -0.069910   0.029703
     4  Na  -0.196133   0.253808
     5  Na   0.250570   0.090158
     6  Na   0.022323   0.466120
     7  Na  -0.033627   0.023917
 Sum of Mulliken charges =  -0.00000   1.00000

 Dipole moment (field-independent basis, Debye):
    X=             -0.2578    Y=             -0.1651    Z=             -0.0633  Tot=              0.3126
 Quadrupole moment (field-independent basis, Debye-Ang):
   XX=            -54.8194   YY=            -63.4981   ZZ=            -74.1583
   XY=             -0.5199   XZ=              0.3389   YZ=             -1.4621

 Normal termination of Gaussian 16 at Tue Nov 28 21:01:53 2023.
