 Gaussian 16, Revision B.01,
 Gaussian 16:  ES64L-G16RevB.01 20-Dec-2017

 -------------------------
 #P B3LYP/6-311+g(d) force
 -------------------------

 -----
 DPGEN
 -----
 Symbolic Z-matrix:
 Charge =  0 Multiplicity = 2

                         Standard orientation:
 ---------------------------------------------------------------------
 Center     Atomic      Atomic             Coordinates (Angstroms)
 Number     Number       Type             X           Y           Z
 ---------------------------------------------------------------------
      1         11           0       -1.122049    3.116242   -0.443204
      2         11           0       -1.141043   -2.900786   -0.154563
      3         11           0        2.094461    0.457978   -2.036930
      4         11           0       -2.374166   -0.005215    1.571115
      5         11           0        3.814635   -0.574379    0.258412
      6         11           0       -2.131985   -0.496909   -1.886409
      7         11           0        0.860147    0.403068    2.691579
 ---------------------------------------------------------------------

 SCF Done:  E(UB3LYP) =  -1136.11455184     A.U. after   22 cycles

 The electronic state is 2-A.
 Alpha  occ. eigenvalues --  -38.44978 -38.44391 -38.44153 -38.44150 -38.44006
 Alpha  occ. eigenvalues --  -38.43981 -38.43972  -2.20743  -2.20183  -2.19971
 Alpha  occ. eigenvalues --   -2.19924  -2.19836  -2.19811  -2.19783  -1.14397
 Alpha  occ. eigenvalues --   -1.14392  -1.14351  -1.13887  -1.13835  -1.13825
 Alpha  occ. eigenvalues --   -1.13675  -1.13626  -1.13610  -1.13609  -1.13572
 Alpha  occ. eigenvalues --   -1.13559  -1.13520  -1.13513  -1.13471  -1.13462
 Alpha  occ. eigenvalues --   -1.13442  -1.13437  -1.13436  -1.13429  -1.13419
 Alpha  occ. eigenvalues --   -0.17038  -0.13079  -0.12118  -0.11415
 Alpha virt. eigenvalues --   -0.05633  -0.05568  -0.05279  -0.03548  -0.03280
 Alpha virt. eigenvalues --   -0.03086  -0.01279  -0.01105  -0.00732  -0.00567
 Alpha virt. eigenvalues --   -0.00146  -0.00054   0.00349   0.00623   0.00671

  Beta  occ. eigenvalues --  -38.44897 -38.44372 -38.44129 -38.44110 -38.43997
  Beta  occ. eigenvalues --  -38.43982 -38.43962  -2.20594  -2.20148  -2.19931
  Beta  occ. eigenvalues --   -2.19845  -2.19822  -2.19794  -2.19785  -1.14295
  Beta  occ. eigenvalues --   -1.14282  -1.14254  -1.13863  -1.13809  -1.13802
  Beta  occ. eigenvalues --   -1.13653  -1.13592  -1.13582  -1.13556  -1.13521
  Beta  occ. eigenvalues --   -1.13512  -1.13508  -1.13478  -1.13460  -1.13452
  Beta  occ. eigenvalues --   -1.13441  -1.13437  -1.13429  -1.13416  -1.13396
  Beta  occ. eigenvalues --   -0.16313  -0.12973  -0.11194
  Beta virt. eigenvalues --   -0.08356  -0.05416  -0.05046  -0.04602  -0.03352
  Beta virt. eigenvalues --   -0.03037  -0.02461  -0.01211  -0.00778  -0.00513
  Beta virt. eigenvalues --   -0.00372  -0.00020   0.00049   0.00435   0.00695

 Mulliken charges and spin densities:
               1          2
     1  Na  -0.149137   0.519649
     2  Na  -0.049286   0.140079
     3  Na  -0.222489  -0.017164
     4  Na   0.306058   0.010361
     5  Na   0.278093   0.020830
     6  Na   0.100124   0.124486
     7  Na  -0.263362   0.201760
 Sum of Mulliken charges =  -0.00000   1.00000

 Dipole moment (field-independent basis, Debye):
    X=             -0.0113    Y=             -0.0675    Z=             -0.0241  Tot=              0.0725
 Quadrupole moment (field-independent basis, Debye-Ang):
   XX=            -65.5135   YY=            -65.9360   ZZ=            -69.5550
   XY=             -2.7447   XZ=              2.7667   YZ=             -7.4723

 Normal termination of Gaussian 16 at Mon Dec  4 00:35:02 2023.
