 Gaussian 16, Revision B.01,
 Gaussian 16:  ES64L-G16RevB.01 20-Dec-2017

 -------------------------
 #P B3LYP/6-311+g(d) force
 -------------------------

 -----
 DPGEN
 -----
 Symbolic Z-matrix:
 Charge =  0 Multiplicity = 2

                         Standard orientation:
 ---------------------------------------------------------------------
 Center     Atomic      Atomic             Coordinates (Angstroms)
 Number     Number       Type             X           Y           Z
 ---------------------------------------------------------------------
      1         11           0        3.638499    0.489927   -1.200516
      2         11           0       -1.533284   -0.108071    1.660014
      3         11           0       -0.107288   -1.232899   -1.535671
      4         11           0        2.256588   -1.798307    1.198418
      5         11           0       -1.902799    2.352151   -0.356955
      6         11           0       -3.774363   -1.160345   -0.583245
      7         11           0        1.422647    1.457544    0.817955
 ---------------------------------------------------------------------

 SCF Done:  E(UB3LYP) =  -1136.12136654     A.U. after   26 cycles

 The electronic state is 2-A.
 Alpha  occ. eigenvalues --  -38.44708 -38.44657 -38.44262 -38.44228 -38.43889
 Alpha  occ. eigenvalues --  -38.43544 -38.42790  -2.20500  -2.20494  -2.20069
 Alpha  occ. eigenvalues --   -2.20053  -2.19806  -2.19368  -2.18710  -1.14195
 Alpha  occ. eigenvalues --   -1.14181  -1.14177  -1.14143  -1.14106  -1.14088
 Alpha  occ. eigenvalues --   -1.13748  -1.13736  -1.13722  -1.13705  -1.13690
 Alpha  occ. eigenvalues --   -1.13689  -1.13502  -1.13465  -1.13418  -1.13048
 Alpha  occ. eigenvalues --   -1.13032  -1.12986  -1.12408  -1.12400  -1.12322
 Alpha  occ. eigenvalues --   -0.18193  -0.14244  -0.10920  -0.10848
 Alpha virt. eigenvalues --   -0.06935  -0.05504  -0.04831  -0.03027  -0.02736
 Alpha virt. eigenvalues --   -0.02369  -0.02123  -0.01156  -0.01137  -0.00346
 Alpha virt. eigenvalues --    0.00082   0.00129   0.00256   0.00519   0.00651

  Beta  occ. eigenvalues --  -38.44686 -38.44598 -38.44266 -38.44180 -38.43853
  Beta  occ. eigenvalues --  -38.43546 -38.42773  -2.20457  -2.20389  -2.20061
  Beta  occ. eigenvalues --   -2.19983  -2.19741  -2.19371  -2.18684  -1.14168
  Beta  occ. eigenvalues --   -1.14137  -1.14102  -1.14068  -1.14062  -1.14031
  Beta  occ. eigenvalues --   -1.13753  -1.13708  -1.13692  -1.13674  -1.13663
  Beta  occ. eigenvalues --   -1.13618  -1.13463  -1.13397  -1.13377  -1.13047
  Beta  occ. eigenvalues --   -1.13034  -1.12987  -1.12391  -1.12330  -1.12318
  Beta  occ. eigenvalues --   -0.17523  -0.13984  -0.10749
  Beta virt. eigenvalues --   -0.07153  -0.06723  -0.05191  -0.04349  -0.02857
  Beta virt. eigenvalues --   -0.02517  -0.01891  -0.01435  -0.01083  -0.00661
  Beta virt. eigenvalues --   -0.00215   0.00160   0.00197   0.00352   0.00615

 Mulliken charges and spin densities:
               1          2
     1  Na   0.341458   0.130232
     2  Na   0.104779   0.169142
     3  Na  -0.450907   0.208590
     4  Na   0.177172   0.198839
     5  Na  -0.034421  -0.013117
     6  Na   0.225010   0.004472
     7  Na  -0.363091   0.301841
 Sum of Mulliken charges =  -0.00000   1.00000

 Dipole moment (field-independent basis, Debye):
    X=              0.0244    Y=             -0.3391    Z=             -0.2254  Tot=              0.4079
 Quadrupole moment (field-independent basis, Debye-Ang):
   XX=            -50.8593   YY=            -76.3439   ZZ=            -68.2734
   XY=             -2.4709   XZ=             -0.1951   YZ=             -5.1049

 Normal termination of Gaussian 16 at Tue Dec  5 17:22:31 2023.
