 Gaussian 16, Revision B.01,
 Gaussian 16:  ES64L-G16RevB.01 20-Dec-2017

 -------------------------
 #P B3LYP/6-311+g(d) force
 -------------------------

 -----
 DPGEN
 -----
 Symbolic Z-matrix:
 Charge =  0 Multiplicity = 2

                         Standard orientation:
 ---------------------------------------------------------------------
 Center     Atomic      Atomic             Coordinates (Angstroms)
 Number     Number       Type             X           Y           Z
 ---------------------------------------------------------------------
      1         11           0        1.066789    0.762800    1.671777
      2         11           0       -3.632375   -0.791765   -0.901777
      3         11           0        1.950964    1.388280   -1.024726
      4         11           0        0.058432   -1.607016   -0.879514
      5         11           0        3.682252   -1.195506   -0.160775
      6         11           0       -1.413617    1.904940   -0.665183
      7         11           0       -1.712445   -0.461733    1.960197
 ---------------------------------------------------------------------

 SCF Done:  E(UB3LYP) =  -1136.12254889     A.U. after   25 cycles

 The electronic state is 2-A.
 Alpha  occ. eigenvalues --  -38.44331 -38.44161 -38.44131 -38.44021 -38.43857
 Alpha  occ. eigenvalues --  -38.43292 -38.43176  -2.20161  -2.20090  -2.19950
 Alpha  occ. eigenvalues --   -2.19845  -2.19827  -2.19189  -2.19171  -1.13886
 Alpha  occ. eigenvalues --   -1.13872  -1.13805  -1.13743  -1.13717  -1.13699
 Alpha  occ. eigenvalues --   -1.13619  -1.13609  -1.13596  -1.13570  -1.13542
 Alpha  occ. eigenvalues --   -1.13507  -1.13496  -1.13477  -1.13374  -1.12883
 Alpha  occ. eigenvalues --   -1.12870  -1.12844  -1.12827  -1.12795  -1.12735
 Alpha  occ. eigenvalues --   -0.18946  -0.14209  -0.11683  -0.10995
 Alpha virt. eigenvalues --   -0.06788  -0.04918  -0.04680  -0.03257  -0.02661
 Alpha virt. eigenvalues --   -0.02367  -0.02322  -0.01127  -0.00774  -0.00036
 Alpha virt. eigenvalues --    0.00107   0.00308   0.00432   0.00722   0.00781

  Beta  occ. eigenvalues --  -38.44323 -38.44117 -38.44087 -38.44021 -38.43824
  Beta  occ. eigenvalues --  -38.43249 -38.43138  -2.20150  -2.19958  -2.19925
  Beta  occ. eigenvalues --   -2.19846  -2.19768  -2.19112  -2.19105  -1.13871
  Beta  occ. eigenvalues --   -1.13843  -1.13740  -1.13701  -1.13633  -1.13621
  Beta  occ. eigenvalues --   -1.13591  -1.13581  -1.13568  -1.13546  -1.13529
  Beta  occ. eigenvalues --   -1.13503  -1.13477  -1.13450  -1.13331  -1.12829
  Beta  occ. eigenvalues --   -1.12808  -1.12780  -1.12770  -1.12739  -1.12691
  Beta  occ. eigenvalues --   -0.18230  -0.14029  -0.10777
  Beta virt. eigenvalues --   -0.07581  -0.06603  -0.04837  -0.04085  -0.02866
  Beta virt. eigenvalues --   -0.02497  -0.01859  -0.01682  -0.00978  -0.00324
  Beta virt. eigenvalues --    0.00039   0.00148   0.00343   0.00574   0.00794

 Mulliken charges and spin densities:
               1          2
     1  Na  -0.255261   0.315730
     2  Na   0.833681   0.058732
     3  Na   0.629631   0.122544
     4  Na  -1.082680   0.240485
     5  Na   0.425519  -0.090165
     6  Na  -0.688548   0.325646
     7  Na   0.137658   0.027027
 Sum of Mulliken charges =  -0.00000   1.00000

 Dipole moment (field-independent basis, Debye):
    X=             -0.1380    Y=              0.0919    Z=              0.0404  Tot=              0.1707
 Quadrupole moment (field-independent basis, Debye-Ang):
   XX=            -51.2165   YY=            -75.5453   ZZ=            -69.1341
   XY=             -0.3618   XZ=              0.9452   YZ=             -3.6959

 Normal termination of Gaussian 16 at Thu Dec  7 18:54:28 2023.
