 Gaussian 16, Revision B.01,
 Gaussian 16:  ES64L-G16RevB.01 20-Dec-2017

 -------------------------
 #P B3LYP/6-311+g(d) force
 -------------------------

 -----
 DPGEN
 -----
 Symbolic Z-matrix:
 Charge =  0 Multiplicity = 2

                         Standard orientation:
 ---------------------------------------------------------------------
 Center     Atomic      Atomic             Coordinates (Angstroms)
 Number     Number       Type             X           Y           Z
 ---------------------------------------------------------------------
      1         11           0        1.930820    2.578901   -0.051908
      2         11           0        3.285965   -0.819109    0.447327
      3         11           0       -0.510900    0.237782    1.778207
      4         11           0        0.354195   -0.429681   -1.771873
      5         11           0       -2.003793    2.509815   -0.411745
      6         11           0       -3.200641   -1.077319    0.197338
      7         11           0        0.144355   -3.000390   -0.187346
 ---------------------------------------------------------------------

 SCF Done:  E(UB3LYP) =  -1136.13258407     A.U. after   20 cycles

 The electronic state is 2-A.
 Alpha  occ. eigenvalues --  -38.44387 -38.44355 -38.43999 -38.43941 -38.43569
 Alpha  occ. eigenvalues --  -38.43558 -38.43301  -2.20179  -2.20134  -2.19788
 Alpha  occ. eigenvalues --   -2.19719  -2.19447  -2.19403  -2.19211  -1.13862
 Alpha  occ. eigenvalues --   -1.13833  -1.13815  -1.13809  -1.13784  -1.13775
 Alpha  occ. eigenvalues --   -1.13466  -1.13452  -1.13421  -1.13401  -1.13383
 Alpha  occ. eigenvalues --   -1.13354  -1.13178  -1.13133  -1.13083  -1.13067
 Alpha  occ. eigenvalues --   -1.13052  -1.13013  -1.12876  -1.12826  -1.12818
 Alpha  occ. eigenvalues --   -0.17939  -0.12888  -0.12367  -0.10198
 Alpha virt. eigenvalues --   -0.05906  -0.05646  -0.04902  -0.03155  -0.02807
 Alpha virt. eigenvalues --   -0.02163  -0.01795  -0.01359  -0.00748  -0.00733
 Alpha virt. eigenvalues --   -0.00024   0.00323   0.00723   0.00773   0.00794

  Beta  occ. eigenvalues --  -38.44382 -38.44342 -38.43990 -38.43940 -38.43549
  Beta  occ. eigenvalues --  -38.43507 -38.43227  -2.20171  -2.20112  -2.19772
  Beta  occ. eigenvalues --   -2.19720  -2.19391  -2.19333  -2.19077  -1.13842
  Beta  occ. eigenvalues --   -1.13826  -1.13811  -1.13785  -1.13770  -1.13758
  Beta  occ. eigenvalues --   -1.13448  -1.13438  -1.13407  -1.13390  -1.13385
  Beta  occ. eigenvalues --   -1.13349  -1.13149  -1.13055  -1.13030  -1.13010
  Beta  occ. eigenvalues --   -1.12999  -1.12982  -1.12788  -1.12731  -1.12725
  Beta  occ. eigenvalues --   -0.17279  -0.12655  -0.12116
  Beta virt. eigenvalues --   -0.06524  -0.05756  -0.05635  -0.04789  -0.02468
  Beta virt. eigenvalues --   -0.02112  -0.01667  -0.01282  -0.01236  -0.00779
  Beta virt. eigenvalues --   -0.00740   0.00121   0.00373   0.00782   0.00790

 Mulliken charges and spin densities:
               1          2
     1  Na  -0.053403  -0.071340
     2  Na  -0.069055   0.035896
     3  Na  -0.076499   0.645380
     4  Na   0.008191   0.605237
     5  Na  -0.102153  -0.042166
     6  Na   0.135150  -0.079702
     7  Na   0.157769  -0.093305
 Sum of Mulliken charges =  -0.00000   1.00000

 Dipole moment (field-independent basis, Debye):
    X=             -0.1464    Y=             -0.0003    Z=              0.0627  Tot=              0.1592
 Quadrupole moment (field-independent basis, Debye-Ang):
   XX=            -54.4622   YY=            -61.4918   ZZ=            -76.4928
   XY=              0.1234   XZ=              2.0440   YZ=             -1.8075

 Normal termination of Gaussian 16 at Thu Dec  7 06:14:52 2023.
