 Gaussian 16, Revision B.01,
 Gaussian 16:  ES64L-G16RevB.01 20-Dec-2017

 -------------------------
 #P B3LYP/6-311+g(d) force
 -------------------------

 -----
 DPGEN
 -----
 Symbolic Z-matrix:
 Charge =  0 Multiplicity = 2

                         Standard orientation:
 ---------------------------------------------------------------------
 Center     Atomic      Atomic             Coordinates (Angstroms)
 Number     Number       Type             X           Y           Z
 ---------------------------------------------------------------------
      1         11           0       -0.952606    0.856515    1.654807
      2         11           0       -0.862930   -2.027926    0.021980
      3         11           0       -3.449172   -0.154523   -0.174246
      4         11           0       -0.899553    1.294673   -1.375747
      5         11           0        1.928963    1.960327    0.029551
      6         11           0        2.128417   -0.904288    1.355114
      7         11           0        2.106882   -1.024777   -1.511460
 ---------------------------------------------------------------------

 SCF Done:  E(UB3LYP) =  -1136.12610931     A.U. after   19 cycles

 The electronic state is 2-A.
 Alpha  occ. eigenvalues --  -38.44670 -38.43913 -38.43858 -38.43673 -38.43316
 Alpha  occ. eigenvalues --  -38.42887 -38.42754  -2.20569  -2.19861  -2.19822
 Alpha  occ. eigenvalues --   -2.19664  -2.19295  -2.18820  -2.18681  -1.14245
 Alpha  occ. eigenvalues --   -1.14231  -1.14209  -1.13746  -1.13516  -1.13477
 Alpha  occ. eigenvalues --   -1.13464  -1.13430  -1.13396  -1.13355  -1.13308
 Alpha  occ. eigenvalues --   -1.13265  -1.12980  -1.12932  -1.12917  -1.12496
 Alpha  occ. eigenvalues --   -1.12484  -1.12449  -1.12387  -1.12356  -1.12293
 Alpha  occ. eigenvalues --   -0.19568  -0.14268  -0.11558  -0.11464
 Alpha virt. eigenvalues --   -0.06199  -0.04640  -0.04599  -0.03277  -0.02684
 Alpha virt. eigenvalues --   -0.02641  -0.01876  -0.00480  -0.00468   0.00154
 Alpha virt. eigenvalues --    0.00356   0.00466   0.00528   0.00896   0.00960

  Beta  occ. eigenvalues --  -38.44668 -38.43873 -38.43827 -38.43614 -38.43277
  Beta  occ. eigenvalues --  -38.42879 -38.42742  -2.20566  -2.19793  -2.19760
  Beta  occ. eigenvalues --   -2.19558  -2.19225  -2.18810  -2.18664  -1.14242
  Beta  occ. eigenvalues --   -1.14216  -1.14211  -1.13702  -1.13460  -1.13432
  Beta  occ. eigenvalues --   -1.13409  -1.13383  -1.13332  -1.13302  -1.13217
  Beta  occ. eigenvalues --   -1.13190  -1.12936  -1.12877  -1.12856  -1.12493
  Beta  occ. eigenvalues --   -1.12462  -1.12425  -1.12378  -1.12307  -1.12288
  Beta  occ. eigenvalues --   -0.18780  -0.14077  -0.11269
  Beta virt. eigenvalues --   -0.07495  -0.06042  -0.04639  -0.03850  -0.03175
  Beta virt. eigenvalues --   -0.01989  -0.01822  -0.01644  -0.00469  -0.00101
  Beta virt. eigenvalues --    0.00197   0.00403   0.00449   0.00739   0.00943

 Mulliken charges and spin densities:
               1          2
     1  Na  -0.295715   0.243132
     2  Na  -0.610560   0.073463
     3  Na   0.854925  -0.007402
     4  Na  -0.439418   0.328940
     5  Na   0.171135   0.003026
     6  Na   0.335331   0.156629
     7  Na  -0.015699   0.202213
 Sum of Mulliken charges =  -0.00000   1.00000

 Dipole moment (field-independent basis, Debye):
    X=             -0.7343    Y=              0.0435    Z=             -0.0531  Tot=              0.7375
 Quadrupole moment (field-independent basis, Debye-Ang):
   XX=            -51.3892   YY=            -76.5834   ZZ=            -66.7199
   XY=              0.5752   XZ=              0.4261   YZ=              0.5132

 Normal termination of Gaussian 16 at Thu Dec  7 10:05:55 2023.
