 Gaussian 16, Revision B.01,
 Gaussian 16:  ES64L-G16RevB.01 20-Dec-2017

 -------------------------
 #P B3LYP/6-311+g(d) force
 -------------------------

 -----
 DPGEN
 -----
 Symbolic Z-matrix:
 Charge =  0 Multiplicity = 2

                         Standard orientation:
 ---------------------------------------------------------------------
 Center     Atomic      Atomic             Coordinates (Angstroms)
 Number     Number       Type             X           Y           Z
 ---------------------------------------------------------------------
      1         11           0       -1.486812   -1.718271   -0.895532
      2         11           0       -1.165989   -0.777412    1.985681
      3         11           0       -0.450341    2.193093    0.260583
      4         11           0       -3.675570    0.845868   -0.600476
      5         11           0        2.152948   -0.904657    1.473638
      6         11           0        2.984308    1.481902   -0.467801
      7         11           0        1.641457   -1.120522   -1.756093
 ---------------------------------------------------------------------

 SCF Done:  E(UB3LYP) =  -1136.12298385     A.U. after   24 cycles

 The electronic state is 2-A.
 Alpha  occ. eigenvalues --  -38.44779 -38.44507 -38.44274 -38.43940 -38.43698
 Alpha  occ. eigenvalues --  -38.43365 -38.43224  -2.20579  -2.20401  -2.20185
 Alpha  occ. eigenvalues --   -2.19842  -2.19576  -2.19170  -2.19128  -1.14256
 Alpha  occ. eigenvalues --   -1.14231  -1.14204  -1.14081  -1.14074  -1.14035
 Alpha  occ. eigenvalues --   -1.13872  -1.13848  -1.13774  -1.13511  -1.13502
 Alpha  occ. eigenvalues --   -1.13475  -1.13249  -1.13228  -1.13198  -1.12873
 Alpha  occ. eigenvalues --   -1.12862  -1.12818  -1.12803  -1.12774  -1.12732
 Alpha  occ. eigenvalues --   -0.18517  -0.14131  -0.11719  -0.11208
 Alpha virt. eigenvalues --   -0.06494  -0.05140  -0.04760  -0.03427  -0.02816
 Alpha virt. eigenvalues --   -0.02619  -0.02073  -0.00904  -0.00498  -0.00140
 Alpha virt. eigenvalues --    0.00208   0.00258   0.00352   0.00615   0.00766

  Beta  occ. eigenvalues --  -38.44763 -38.44469 -38.44205 -38.43887 -38.43689
  Beta  occ. eigenvalues --  -38.43365 -38.43204  -2.20550  -2.20335  -2.20061
  Beta  occ. eigenvalues --   -2.19744  -2.19561  -2.19172  -2.19093  -1.14228
  Beta  occ. eigenvalues --   -1.14213  -1.14187  -1.14036  -1.13999  -1.13993
  Beta  occ. eigenvalues --   -1.13797  -1.13753  -1.13678  -1.13446  -1.13433
  Beta  occ. eigenvalues --   -1.13409  -1.13233  -1.13212  -1.13184  -1.12870
  Beta  occ. eigenvalues --   -1.12852  -1.12786  -1.12779  -1.12772  -1.12705
  Beta  occ. eigenvalues --   -0.17818  -0.13925  -0.10996
  Beta virt. eigenvalues --   -0.07752  -0.06238  -0.05103  -0.04085  -0.03127
  Beta virt. eigenvalues --   -0.02241  -0.01961  -0.01873  -0.00792  -0.00158
  Beta virt. eigenvalues --   -0.00045   0.00228   0.00317   0.00514   0.00753

 Mulliken charges and spin densities:
               1          2
     1  Na  -0.452177   0.342169
     2  Na   0.208406   0.305920
     3  Na  -0.757150   0.078699
     4  Na   0.627040  -0.104449
     5  Na  -0.198837   0.113238
     6  Na   0.434912   0.051448
     7  Na   0.137805   0.212974
 Sum of Mulliken charges =  -0.00000   1.00000

 Dipole moment (field-independent basis, Debye):
    X=             -0.3436    Y=             -0.0791    Z=              0.0543  Tot=              0.3568
 Quadrupole moment (field-independent basis, Debye-Ang):
   XX=            -51.3887   YY=            -77.8858   ZZ=            -66.9007
   XY=             -0.2186   XZ=              1.4132   YZ=             -1.5178

 Normal termination of Gaussian 16 at Tue Dec  5 11:11:06 2023.
