 Gaussian 16, Revision B.01,
 Gaussian 16:  ES64L-G16RevB.01 20-Dec-2017

 -------------------------
 #P B3LYP/6-311+g(d) force
 -------------------------

 -----
 DPGEN
 -----
 Symbolic Z-matrix:
 Charge =  0 Multiplicity = 2

                         Standard orientation:
 ---------------------------------------------------------------------
 Center     Atomic      Atomic             Coordinates (Angstroms)
 Number     Number       Type             X           Y           Z
 ---------------------------------------------------------------------
      1         11           0        1.357782   -1.864772   -0.028073
      2         11           0        4.642473   -0.890667   -0.502610
      3         11           0        2.352483    1.347482   -0.908056
      4         11           0       -0.679055    2.478869   -0.125895
      5         11           0       -2.134258   -0.871414    0.464813
      6         11           0       -0.021648    0.403848    2.089246
      7         11           0       -5.517777   -0.603346   -0.989424
 ---------------------------------------------------------------------

 SCF Done:  E(UB3LYP) =  -1136.11545916     A.U. after   22 cycles

 The electronic state is 2-A.
 Alpha  occ. eigenvalues --  -38.44921 -38.44405 -38.44374 -38.44325 -38.43798
 Alpha  occ. eigenvalues --  -38.43373 -38.43318  -2.20873  -2.20196  -2.20185
 Alpha  occ. eigenvalues --   -2.20181  -2.19684  -2.19243  -2.19201  -1.14591
 Alpha  occ. eigenvalues --   -1.14526  -1.14482  -1.13882  -1.13880  -1.13870
 Alpha  occ. eigenvalues --   -1.13851  -1.13843  -1.13822  -1.13821  -1.13790
 Alpha  occ. eigenvalues --   -1.13754  -1.13385  -1.13354  -1.13285  -1.12953
 Alpha  occ. eigenvalues --   -1.12913  -1.12887  -1.12868  -1.12854  -1.12822
 Alpha  occ. eigenvalues --   -0.18109  -0.13919  -0.11871  -0.11470
 Alpha virt. eigenvalues --   -0.06403  -0.05588  -0.04783  -0.03287  -0.02830
 Alpha virt. eigenvalues --   -0.02200  -0.02073  -0.01612  -0.01169  -0.00528
 Alpha virt. eigenvalues --   -0.00209   0.00013   0.00419   0.00460   0.00518

  Beta  occ. eigenvalues --  -38.44889 -38.44366 -38.44306 -38.44291 -38.43773
  Beta  occ. eigenvalues --  -38.43378 -38.43300  -2.20817  -2.20181  -2.20127
  Beta  occ. eigenvalues --   -2.19998  -2.19637  -2.19261  -2.19165  -1.14560
  Beta  occ. eigenvalues --   -1.14482  -1.14428  -1.13860  -1.13846  -1.13841
  Beta  occ. eigenvalues --   -1.13838  -1.13821  -1.13706  -1.13697  -1.13696
  Beta  occ. eigenvalues --   -1.13669  -1.13353  -1.13324  -1.13249  -1.12968
  Beta  occ. eigenvalues --   -1.12932  -1.12843  -1.12841  -1.12832  -1.12800
  Beta  occ. eigenvalues --   -0.17624  -0.13586  -0.11073
  Beta virt. eigenvalues --   -0.08068  -0.06241  -0.05159  -0.04431  -0.02988
  Beta virt. eigenvalues --   -0.02741  -0.01890  -0.01656  -0.01256  -0.00813
  Beta virt. eigenvalues --   -0.00289  -0.00104   0.00150   0.00504   0.00567

 Mulliken charges and spin densities:
               1          2
     1  Na   0.012885   0.061943
     2  Na   0.345492   0.042895
     3  Na  -0.303761   0.178514
     4  Na   0.195224   0.110825
     5  Na  -0.512922  -0.036100
     6  Na   0.189022   0.175157
     7  Na   0.074060   0.466766
 Sum of Mulliken charges =  -0.00000   1.00000

 Dipole moment (field-independent basis, Debye):
    X=              1.6362    Y=              0.2692    Z=              0.4591  Tot=              1.7206
 Quadrupole moment (field-independent basis, Debye-Ang):
   XX=            -58.4140   YY=            -74.7000   ZZ=            -65.9917
   XY=             -5.5102   XZ=              2.1394   YZ=              0.8226

 Normal termination of Gaussian 16 at Tue Nov 28 20:14:09 2023.
