 Gaussian 16, Revision B.01,
 Gaussian 16:  ES64L-G16RevB.01 20-Dec-2017

 -------------------------
 #P B3LYP/6-311+g(d) force
 -------------------------

 -----
 DPGEN
 -----
 Symbolic Z-matrix:
 Charge =  0 Multiplicity = 2

                         Standard orientation:
 ---------------------------------------------------------------------
 Center     Atomic      Atomic             Coordinates (Angstroms)
 Number     Number       Type             X           Y           Z
 ---------------------------------------------------------------------
      1         11           0       -1.503676    1.928884   -1.140019
      2         11           0        1.608902    1.735063   -0.063612
      3         11           0        1.177004   -1.047194    1.452591
      4         11           0       -0.282789   -1.536519   -1.109817
      5         11           0       -3.247007   -1.320456   -0.341567
      6         11           0        3.820687   -0.556698   -0.528928
      7         11           0       -1.573120    0.796920    1.731351
 ---------------------------------------------------------------------

 SCF Done:  E(UB3LYP) =  -1136.12196987     A.U. after   22 cycles

 The electronic state is 2-A.
 Alpha  occ. eigenvalues --  -38.45057 -38.44201 -38.43813 -38.43787 -38.43671
 Alpha  occ. eigenvalues --  -38.43061 -38.43024  -2.20886  -2.20056  -2.19773
 Alpha  occ. eigenvalues --   -2.19731  -2.19616  -2.18967  -2.18949  -1.14558
 Alpha  occ. eigenvalues --   -1.14546  -1.14510  -1.13767  -1.13717  -1.13686
 Alpha  occ. eigenvalues --   -1.13611  -1.13443  -1.13382  -1.13373  -1.13344
 Alpha  occ. eigenvalues --   -1.13312  -1.13292  -1.13272  -1.13218  -1.12679
 Alpha  occ. eigenvalues --   -1.12644  -1.12630  -1.12613  -1.12587  -1.12530
 Alpha  occ. eigenvalues --   -0.19054  -0.14203  -0.11334  -0.11182
 Alpha virt. eigenvalues --   -0.06911  -0.04929  -0.04228  -0.03217  -0.02665
 Alpha virt. eigenvalues --   -0.02512  -0.02202  -0.01116  -0.00532   0.00044
 Alpha virt. eigenvalues --    0.00134   0.00303   0.00436   0.00803   0.00847

  Beta  occ. eigenvalues --  -38.45044 -38.44194 -38.43793 -38.43727 -38.43614
  Beta  occ. eigenvalues --  -38.43034 -38.43014  -2.20861  -2.20045  -2.19701
  Beta  occ. eigenvalues --   -2.19663  -2.19514  -2.18934  -2.18917  -1.14540
  Beta  occ. eigenvalues --   -1.14524  -1.14494  -1.13754  -1.13708  -1.13672
  Beta  occ. eigenvalues --   -1.13557  -1.13370  -1.13347  -1.13316  -1.13284
  Beta  occ. eigenvalues --   -1.13258  -1.13223  -1.13179  -1.13152  -1.12660
  Beta  occ. eigenvalues --   -1.12619  -1.12597  -1.12576  -1.12556  -1.12506
  Beta  occ. eigenvalues --   -0.18320  -0.13988  -0.11155
  Beta virt. eigenvalues --   -0.07195  -0.06700  -0.04860  -0.03656  -0.03049
  Beta virt. eigenvalues --   -0.02410  -0.01960  -0.01393  -0.00960  -0.00190
  Beta virt. eigenvalues --    0.00098   0.00171   0.00331   0.00596   0.00824

 Mulliken charges and spin densities:
               1          2
     1  Na  -0.205337   0.276562
     2  Na  -0.801750   0.133848
     3  Na   0.147942   0.146711
     4  Na  -0.352893   0.296495
     5  Na   0.060978  -0.041348
     6  Na   0.698704   0.028639
     7  Na   0.452357   0.159093
 Sum of Mulliken charges =  -0.00000   1.00000

 Dipole moment (field-independent basis, Debye):
    X=              0.5749    Y=             -0.2240    Z=             -0.0932  Tot=              0.6240
 Quadrupole moment (field-independent basis, Debye-Ang):
   XX=            -46.3917   YY=            -77.3641   ZZ=            -69.3486
   XY=             -1.6466   XZ=             -2.8179   YZ=             -0.4067

 Normal termination of Gaussian 16 at Tue Dec  5 17:59:45 2023.
