 Gaussian 16, Revision B.01,
 Gaussian 16:  ES64L-G16RevB.01 20-Dec-2017

 -------------------------
 #P B3LYP/6-311+g(d) force
 -------------------------

 -----
 DPGEN
 -----
 Symbolic Z-matrix:
 Charge =  0 Multiplicity = 2

                         Standard orientation:
 ---------------------------------------------------------------------
 Center     Atomic      Atomic             Coordinates (Angstroms)
 Number     Number       Type             X           Y           Z
 ---------------------------------------------------------------------
      1         11           0        4.029004   -1.574681   -0.508027
      2         11           0       -4.524276    0.044933   -0.455991
      3         11           0        2.808079    2.315139   -0.012464
      4         11           0       -0.614632   -1.061491   -1.732974
      5         11           0       -1.851911   -0.909669    1.434791
      6         11           0        1.016415   -0.674537    1.442399
      7         11           0       -0.862679    1.860306   -0.167734
 ---------------------------------------------------------------------

 SCF Done:  E(UB3LYP) =  -1136.10232260     A.U. after   33 cycles

 The electronic state is 2-A.
 Alpha  occ. eigenvalues --  -38.47400 -38.45231 -38.44500 -38.44047 -38.43485
 Alpha  occ. eigenvalues --  -38.43276 -38.42987  -2.23182  -2.21025  -2.20265
 Alpha  occ. eigenvalues --   -2.20032  -2.19256  -2.19230  -2.18859  -1.16887
 Alpha  occ. eigenvalues --   -1.16836  -1.16785  -1.14696  -1.14667  -1.14630
 Alpha  occ. eigenvalues --   -1.13927  -1.13905  -1.13886  -1.13814  -1.13657
 Alpha  occ. eigenvalues --   -1.13646  -1.12942  -1.12934  -1.12908  -1.12885
 Alpha  occ. eigenvalues --   -1.12876  -1.12827  -1.12594  -1.12554  -1.12432
 Alpha  occ. eigenvalues --   -0.18425  -0.13904  -0.11184  -0.10601
 Alpha virt. eigenvalues --   -0.08149  -0.05534  -0.04473  -0.03342  -0.03025
 Alpha virt. eigenvalues --   -0.02216  -0.02069  -0.01742  -0.01441  -0.00562
 Alpha virt. eigenvalues --   -0.00241   0.00171   0.00244   0.00468   0.00533

  Beta  occ. eigenvalues --  -38.47397 -38.45168 -38.44438 -38.44005 -38.43472
  Beta  occ. eigenvalues --  -38.43235 -38.42989  -2.23173  -2.20906  -2.20149
  Beta  occ. eigenvalues --   -2.19964  -2.19232  -2.19165  -2.18866  -1.16880
  Beta  occ. eigenvalues --   -1.16829  -1.16779  -1.14616  -1.14585  -1.14552
  Beta  occ. eigenvalues --   -1.13849  -1.13822  -1.13812  -1.13717  -1.13612
  Beta  occ. eigenvalues --   -1.13605  -1.12925  -1.12893  -1.12870  -1.12862
  Beta  occ. eigenvalues --   -1.12809  -1.12783  -1.12604  -1.12537  -1.12439
  Beta  occ. eigenvalues --   -0.17880  -0.13251  -0.10440
  Beta virt. eigenvalues --   -0.07831  -0.07673  -0.05202  -0.04016  -0.03058
  Beta virt. eigenvalues --   -0.02796  -0.01864  -0.01757  -0.01425  -0.01078
  Beta virt. eigenvalues --   -0.00365  -0.00090   0.00261   0.00357   0.00570

 Mulliken charges and spin densities:
               1          2
     1  Na   0.173712   0.415431
     2  Na   0.588705   0.494779
     3  Na   0.027269   0.025330
     4  Na  -0.114774   0.057701
     5  Na   0.016441  -0.030897
     6  Na  -0.020065   0.082417
     7  Na  -0.671288  -0.044762
 Sum of Mulliken charges =  -0.00000   1.00000

 Dipole moment (field-independent basis, Debye):
    X=             -1.2269    Y=             -0.7636    Z=             -0.7289  Tot=              1.6186
 Quadrupole moment (field-independent basis, Debye-Ang):
   XX=            -54.2999   YY=            -81.4507   ZZ=            -64.1172
   XY=              1.1348   XZ=             -1.3853   YZ=              4.0839

 Normal termination of Gaussian 16 at Fri Dec  8 00:33:09 2023.
