 Gaussian 16, Revision B.01,
 Gaussian 16:  ES64L-G16RevB.01 20-Dec-2017

 -------------------------
 #P B3LYP/6-311+g(d) force
 -------------------------

 -----
 DPGEN
 -----
 Symbolic Z-matrix:
 Charge =  0 Multiplicity = 2

                         Standard orientation:
 ---------------------------------------------------------------------
 Center     Atomic      Atomic             Coordinates (Angstroms)
 Number     Number       Type             X           Y           Z
 ---------------------------------------------------------------------
      1         11           0       -1.604579   -0.349197    1.704081
      2         11           0       -3.530816   -1.335587   -0.755913
      3         11           0        3.822918   -0.105548   -1.231521
      4         11           0        1.507747    1.763859    0.910144
      5         11           0        1.868892   -1.472613    1.105845
      6         11           0       -0.060618   -0.914260   -1.099905
      7         11           0       -2.003544    2.413345   -0.632730
 ---------------------------------------------------------------------

 SCF Done:  E(UB3LYP) =  -1136.12181395     A.U. after   25 cycles

 The electronic state is 2-A.
 Alpha  occ. eigenvalues --  -38.44682 -38.44393 -38.44099 -38.44009 -38.43854
 Alpha  occ. eigenvalues --  -38.43296 -38.43139  -2.20507  -2.20316  -2.20011
 Alpha  occ. eigenvalues --   -2.19832  -2.19805  -2.19087  -2.18991  -1.14167
 Alpha  occ. eigenvalues --   -1.14148  -1.14128  -1.14109  -1.13971  -1.13926
 Alpha  occ. eigenvalues --   -1.13707  -1.13676  -1.13619  -1.13506  -1.13502
 Alpha  occ. eigenvalues --   -1.13465  -1.13461  -1.13453  -1.13401  -1.12775
 Alpha  occ. eigenvalues --   -1.12739  -1.12711  -1.12688  -1.12670  -1.12598
 Alpha  occ. eigenvalues --   -0.18545  -0.14269  -0.11077  -0.10779
 Alpha virt. eigenvalues --   -0.06630  -0.05287  -0.04970  -0.03006  -0.02697
 Alpha virt. eigenvalues --   -0.02234  -0.02122  -0.01205  -0.00832  -0.00244
 Alpha virt. eigenvalues --    0.00100   0.00231   0.00316   0.00534   0.00672

  Beta  occ. eigenvalues --  -38.44625 -38.44383 -38.44057 -38.43994 -38.43817
  Beta  occ. eigenvalues --  -38.43280 -38.43129  -2.20400  -2.20302  -2.19939
  Beta  occ. eigenvalues --   -2.19804  -2.19743  -2.19056  -2.18977  -1.14094
  Beta  occ. eigenvalues --   -1.14073  -1.14069  -1.14056  -1.13967  -1.13918
  Beta  occ. eigenvalues --   -1.13661  -1.13604  -1.13570  -1.13481  -1.13466
  Beta  occ. eigenvalues --   -1.13443  -1.13439  -1.13412  -1.13316  -1.12752
  Beta  occ. eigenvalues --   -1.12721  -1.12687  -1.12676  -1.12638  -1.12591
  Beta  occ. eigenvalues --   -0.17816  -0.13913  -0.10655
  Beta virt. eigenvalues --   -0.07322  -0.06382  -0.05093  -0.04389  -0.02853
  Beta virt. eigenvalues --   -0.02432  -0.01804  -0.01456  -0.00950  -0.00597
  Beta virt. eigenvalues --   -0.00084   0.00157   0.00347   0.00412   0.00615

 Mulliken charges and spin densities:
               1          2
     1  Na   0.250292   0.068502
     2  Na   0.525107   0.172545
     3  Na   0.342185   0.241482
     4  Na  -0.530221   0.057856
     5  Na   0.737329   0.238281
     6  Na  -0.996263   0.114418
     7  Na  -0.328430   0.106916
 Sum of Mulliken charges =  -0.00000   1.00000

 Dipole moment (field-independent basis, Debye):
    X=              0.2548    Y=             -0.2380    Z=              0.0201  Tot=              0.3493
 Quadrupole moment (field-independent basis, Debye-Ang):
   XX=            -51.0682   YY=            -77.9019   ZZ=            -65.6879
   XY=              0.5612   XZ=             -0.4415   YZ=             -2.5050

 Normal termination of Gaussian 16 at Thu Dec  7 11:11:04 2023.
