 Gaussian 16, Revision B.01,
 Gaussian 16:  ES64L-G16RevB.01 20-Dec-2017

 -------------------------
 #P B3LYP/6-311+g(d) force
 -------------------------

 -----
 DPGEN
 -----
 Symbolic Z-matrix:
 Charge =  0 Multiplicity = 2

                         Standard orientation:
 ---------------------------------------------------------------------
 Center     Atomic      Atomic             Coordinates (Angstroms)
 Number     Number       Type             X           Y           Z
 ---------------------------------------------------------------------
      1         11           0       -2.846722    1.339826   -0.070599
      2         11           0        0.341014    2.900496    0.055180
      3         11           0        3.278661    0.268067   -0.290825
      4         11           0       -0.008049   -0.052944   -1.525904
      5         11           0        1.467564   -2.447461    0.147461
      6         11           0        0.291446    0.166763    1.689673
      7         11           0       -2.523914   -2.174748   -0.004987
 ---------------------------------------------------------------------

 SCF Done:  E(UB3LYP) =  -1136.13528990     A.U. after   21 cycles

 The electronic state is 2-A.
 Alpha  occ. eigenvalues --  -38.44390 -38.44184 -38.43889 -38.43532 -38.43189
 Alpha  occ. eigenvalues --  -38.42983 -38.42858  -2.20230  -2.20011  -2.19680
 Alpha  occ. eigenvalues --   -2.19421  -2.19062  -2.18983  -2.18848  -1.13894
 Alpha  occ. eigenvalues --   -1.13892  -1.13871  -1.13691  -1.13677  -1.13644
 Alpha  occ. eigenvalues --   -1.13354  -1.13336  -1.13325  -1.13130  -1.13093
 Alpha  occ. eigenvalues --   -1.13036  -1.12794  -1.12741  -1.12706  -1.12682
 Alpha  occ. eigenvalues --   -1.12608  -1.12582  -1.12523  -1.12464  -1.12446
 Alpha  occ. eigenvalues --   -0.18796  -0.13323  -0.12363  -0.10125
 Alpha virt. eigenvalues --   -0.05957  -0.05426  -0.04657  -0.03040  -0.02530
 Alpha virt. eigenvalues --   -0.01955  -0.01869  -0.01274  -0.00515  -0.00466
 Alpha virt. eigenvalues --    0.00027   0.00321   0.00745   0.00839   0.00849

  Beta  occ. eigenvalues --  -38.44379 -38.44181 -38.43891 -38.43521 -38.43182
  Beta  occ. eigenvalues --  -38.42922 -38.42775  -2.20213  -2.20008  -2.19685
  Beta  occ. eigenvalues --   -2.19407  -2.19053  -2.18873  -2.18696  -1.13886
  Beta  occ. eigenvalues --   -1.13864  -1.13854  -1.13680  -1.13667  -1.13643
  Beta  occ. eigenvalues --   -1.13348  -1.13339  -1.13326  -1.13122  -1.13050
  Beta  occ. eigenvalues --   -1.13028  -1.12776  -1.12701  -1.12679  -1.12631
  Beta  occ. eigenvalues --   -1.12534  -1.12498  -1.12421  -1.12353  -1.12340
  Beta  occ. eigenvalues --   -0.18091  -0.13076  -0.12116
  Beta virt. eigenvalues --   -0.06267  -0.05878  -0.05428  -0.04649  -0.02282
  Beta virt. eigenvalues --   -0.01812  -0.01797  -0.01228  -0.00921  -0.00578
  Beta virt. eigenvalues --   -0.00481   0.00173   0.00362   0.00791   0.00836

 Mulliken charges and spin densities:
               1          2
     1  Na   0.081337  -0.084662
     2  Na   0.145856  -0.097986
     3  Na   0.242690   0.019315
     4  Na  -0.372974   0.622171
     5  Na   0.152310  -0.048769
     6  Na  -0.225870   0.688811
     7  Na  -0.023349  -0.098880
 Sum of Mulliken charges =  -0.00000   1.00000

 Dipole moment (field-independent basis, Debye):
    X=              0.0278    Y=              0.0337    Z=              0.0145  Tot=              0.0460
 Quadrupole moment (field-independent basis, Debye-Ang):
   XX=            -51.7276   YY=            -61.2089   ZZ=            -77.7054
   XY=              0.3255   XZ=             -0.7954   YZ=             -0.5878

 Normal termination of Gaussian 16 at Tue Nov 28 21:32:56 2023.
