 Gaussian 16, Revision B.01,
 Gaussian 16:  ES64L-G16RevB.01 20-Dec-2017

 -------------------------
 #P B3LYP/6-311+g(d) force
 -------------------------

 -----
 DPGEN
 -----
 Symbolic Z-matrix:
 Charge =  0 Multiplicity = 2

                         Standard orientation:
 ---------------------------------------------------------------------
 Center     Atomic      Atomic             Coordinates (Angstroms)
 Number     Number       Type             X           Y           Z
 ---------------------------------------------------------------------
      1         11           0       -5.629625   -2.182235   -0.378253
      2         11           0        4.131356   -2.866301    1.325127
      3         11           0        2.765845    2.073208   -1.271107
      4         11           0        3.773056   -1.336790   -1.367842
      5         11           0       -0.082432    3.502872    0.553729
      6         11           0       -1.191262    0.855419    2.099006
      7         11           0       -3.766938   -0.046174   -0.960660
 ---------------------------------------------------------------------

 SCF Done:  E(UB3LYP) =  -1136.10570270     A.U. after   17 cycles

 The electronic state is 2-A.
 Alpha  occ. eigenvalues --  -38.45134 -38.44564 -38.44469 -38.44340 -38.44057
 Alpha  occ. eigenvalues --  -38.44019 -38.43821  -2.20922  -2.20362  -2.20273
 Alpha  occ. eigenvalues --   -2.20122  -2.19881  -2.19838  -2.19624  -1.14572
 Alpha  occ. eigenvalues --   -1.14564  -1.14551  -1.14016  -1.14000  -1.13975
 Alpha  occ. eigenvalues --   -1.13932  -1.13913  -1.13910  -1.13798  -1.13785
 Alpha  occ. eigenvalues --   -1.13778  -1.13730  -1.13538  -1.13528  -1.13468
 Alpha  occ. eigenvalues --   -1.13465  -1.13375  -1.13293  -1.13291  -1.13284
 Alpha  occ. eigenvalues --   -0.15428  -0.13931  -0.12705  -0.11123
 Alpha virt. eigenvalues --   -0.06586  -0.05297  -0.04653  -0.03477  -0.03051
 Alpha virt. eigenvalues --   -0.02301  -0.02255  -0.01928  -0.01518  -0.00926
 Alpha virt. eigenvalues --   -0.00661  -0.00268  -0.00150   0.00308   0.00387

  Beta  occ. eigenvalues --  -38.45073 -38.44466 -38.44411 -38.44354 -38.44059
  Beta  occ. eigenvalues --  -38.44001 -38.43829  -2.20809  -2.20180  -2.20163
  Beta  occ. eigenvalues --   -2.20152  -2.19885  -2.19808  -2.19646  -1.14493
  Beta  occ. eigenvalues --   -1.14488  -1.14477  -1.13892  -1.13878  -1.13863
  Beta  occ. eigenvalues --   -1.13858  -1.13837  -1.13834  -1.13823  -1.13806
  Beta  occ. eigenvalues --   -1.13766  -1.13719  -1.13542  -1.13526  -1.13449
  Beta  occ. eigenvalues --   -1.13446  -1.13361  -1.13313  -1.13309  -1.13257
  Beta  occ. eigenvalues --   -0.14811  -0.13421  -0.12355
  Beta virt. eigenvalues --   -0.07849  -0.06050  -0.05082  -0.04299  -0.03179
  Beta virt. eigenvalues --   -0.02809  -0.02160  -0.01944  -0.01766  -0.01346
  Beta virt. eigenvalues --   -0.00677  -0.00288  -0.00068   0.00071   0.00381

 Mulliken charges and spin densities:
               1          2
     1  Na   0.356221   0.025206
     2  Na   0.310818   0.277163
     3  Na  -0.160361   0.499026
     4  Na  -0.193749  -0.059259
     5  Na   0.416733  -0.107296
     6  Na  -0.525332   0.338805
     7  Na  -0.204328   0.026355
 Sum of Mulliken charges =  -0.00000   1.00000

 Dipole moment (field-independent basis, Debye):
    X=             -0.3615    Y=             -0.0337    Z=              0.9357  Tot=              1.0037
 Quadrupole moment (field-independent basis, Debye-Ang):
   XX=            -73.0650   YY=            -63.1627   ZZ=            -65.9502
   XY=              2.7639   XZ=             -0.0142   YZ=             -5.4662

 Normal termination of Gaussian 16 at Mon Dec  4 00:58:25 2023.
