 Gaussian 16, Revision B.01,
 Gaussian 16:  ES64L-G16RevB.01 20-Dec-2017

 -------------------------
 #P B3LYP/6-311+g(d) force
 -------------------------

 -----
 DPGEN
 -----
 Symbolic Z-matrix:
 Charge =  0 Multiplicity = 2

                         Standard orientation:
 ---------------------------------------------------------------------
 Center     Atomic      Atomic             Coordinates (Angstroms)
 Number     Number       Type             X           Y           Z
 ---------------------------------------------------------------------
      1         11           0        0.165579    3.261155   -0.052008
      2         11           0       -1.921989   -2.150366    0.279481
      3         11           0        1.324567   -2.441577   -0.480742
      4         11           0        0.009597    0.083386   -1.689984
      5         11           0       -3.035768    0.900930   -0.190644
      6         11           0        0.205162   -0.055211    2.074107
      7         11           0        3.252851    0.401683    0.059790
 ---------------------------------------------------------------------

 SCF Done:  E(UB3LYP) =  -1136.13578508     A.U. after   19 cycles

 The electronic state is 2-A.
 Alpha  occ. eigenvalues --  -38.44317 -38.44064 -38.43871 -38.43753 -38.43313
 Alpha  occ. eigenvalues --  -38.43275 -38.43243  -2.20112  -2.19881  -2.19639
 Alpha  occ. eigenvalues --   -2.19625  -2.19272  -2.19181  -2.19133  -1.13787
 Alpha  occ. eigenvalues --   -1.13771  -1.13754  -1.13563  -1.13548  -1.13514
 Alpha  occ. eigenvalues --   -1.13321  -1.13302  -1.13293  -1.13276  -1.13248
 Alpha  occ. eigenvalues --   -1.13247  -1.13030  -1.12932  -1.12893  -1.12846
 Alpha  occ. eigenvalues --   -1.12818  -1.12808  -1.12798  -1.12784  -1.12753
 Alpha  occ. eigenvalues --   -0.18513  -0.12890  -0.12335  -0.10828
 Alpha virt. eigenvalues --   -0.05945  -0.05000  -0.04689  -0.03185  -0.02917
 Alpha virt. eigenvalues --   -0.02663  -0.01605  -0.01167  -0.00515  -0.00292
 Alpha virt. eigenvalues --   -0.00007   0.00358   0.00802   0.00831   0.00907

  Beta  occ. eigenvalues --  -38.44315 -38.44061 -38.43872 -38.43658 -38.43259
  Beta  occ. eigenvalues --  -38.43246 -38.43235  -2.20111  -2.19878  -2.19643
  Beta  occ. eigenvalues --   -2.19451  -2.19160  -2.19147  -2.19122  -1.13775
  Beta  occ. eigenvalues --   -1.13766  -1.13754  -1.13561  -1.13531  -1.13516
  Beta  occ. eigenvalues --   -1.13313  -1.13302  -1.13280  -1.13180  -1.13127
  Beta  occ. eigenvalues --   -1.13119  -1.12969  -1.12849  -1.12838  -1.12807
  Beta  occ. eigenvalues --   -1.12790  -1.12780  -1.12753  -1.12749  -1.12741
  Beta  occ. eigenvalues --   -0.17764  -0.12671  -0.12112
  Beta virt. eigenvalues --   -0.06885  -0.05947  -0.04907  -0.04686  -0.02411
  Beta virt. eigenvalues --   -0.02166  -0.01618  -0.01518  -0.01078  -0.00559
  Beta virt. eigenvalues --   -0.00320   0.00123   0.00381   0.00801   0.00878

 Mulliken charges and spin densities:
               1          2
     1  Na  -0.129111  -0.137660
     2  Na   0.235547   0.082153
     3  Na   0.358236   0.074222
     4  Na  -0.069935   0.421284
     5  Na   0.015081  -0.088170
     6  Na  -0.423682   0.741428
     7  Na   0.013864  -0.093256
 Sum of Mulliken charges =  -0.00000   1.00000

 Dipole moment (field-independent basis, Debye):
    X=              0.2096    Y=              0.3512    Z=              0.1544  Tot=              0.4371
 Quadrupole moment (field-independent basis, Debye-Ang):
   XX=            -56.6304   YY=            -62.5355   ZZ=            -74.2300
   XY=              0.2912   XZ=             -0.2015   YZ=              0.3314

 Normal termination of Gaussian 16 at Tue Dec  5 18:05:50 2023.
