 Gaussian 16, Revision B.01,
 Gaussian 16:  ES64L-G16RevB.01 20-Dec-2017

 -------------------------
 #P B3LYP/6-311+g(d) force
 -------------------------

 -----
 DPGEN
 -----
 Symbolic Z-matrix:
 Charge =  0 Multiplicity = 2

                         Standard orientation:
 ---------------------------------------------------------------------
 Center     Atomic      Atomic             Coordinates (Angstroms)
 Number     Number       Type             X           Y           Z
 ---------------------------------------------------------------------
      1         11           0        2.457339    3.115318   -0.127551
      2         11           0       -3.835448    1.819300   -0.776802
      3         11           0       -3.943577   -2.217234    0.215575
      4         11           0       -0.763886   -2.997693   -0.396439
      5         11           0       -1.324168    2.887545    1.032842
      6         11           0        3.025505   -2.607616    0.721713
      7         11           0        4.384236    0.000379   -0.669338
 ---------------------------------------------------------------------

 SCF Done:  E(UB3LYP) =  -1136.10539264     A.U. after   20 cycles

 The electronic state is 2-A.
 Alpha  occ. eigenvalues --  -38.45008 -38.44750 -38.44726 -38.44567 -38.44494
 Alpha  occ. eigenvalues --  -38.44258 -38.44170  -2.20777  -2.20536  -2.20479
 Alpha  occ. eigenvalues --   -2.20325  -2.20271  -2.20034  -2.19972  -1.14461
 Alpha  occ. eigenvalues --   -1.14451  -1.14427  -1.14200  -1.14192  -1.14166
 Alpha  occ. eigenvalues --   -1.14163  -1.14156  -1.14119  -1.14002  -1.13996
 Alpha  occ. eigenvalues --   -1.13958  -1.13934  -1.13911  -1.13904  -1.13690
 Alpha  occ. eigenvalues --   -1.13675  -1.13651  -1.13621  -1.13615  -1.13606
 Alpha  occ. eigenvalues --   -0.15287  -0.13900  -0.13096  -0.10790
 Alpha virt. eigenvalues --   -0.07526  -0.05118  -0.04527  -0.03498  -0.03236
 Alpha virt. eigenvalues --   -0.02667  -0.02221  -0.02148  -0.01121  -0.00783
 Alpha virt. eigenvalues --   -0.00614  -0.00235   0.00094   0.00210   0.00539

  Beta  occ. eigenvalues --  -38.45012 -38.44718 -38.44699 -38.44571 -38.44460
  Beta  occ. eigenvalues --  -38.44175 -38.44113  -2.20789  -2.20469  -2.20442
  Beta  occ. eigenvalues --   -2.20338  -2.20211  -2.19880  -2.19867  -1.14473
  Beta  occ. eigenvalues --   -1.14462  -1.14398  -1.14159  -1.14152  -1.14139
  Beta  occ. eigenvalues --   -1.14128  -1.14101  -1.14087  -1.14014  -1.14007
  Beta  occ. eigenvalues --   -1.13936  -1.13894  -1.13874  -1.13854  -1.13585
  Beta  occ. eigenvalues --   -1.13572  -1.13550  -1.13549  -1.13547  -1.13536
  Beta  occ. eigenvalues --   -0.14776  -0.13189  -0.12325
  Beta virt. eigenvalues --   -0.07720  -0.07636  -0.04745  -0.04067  -0.03323
  Beta virt. eigenvalues --   -0.02887  -0.02429  -0.02026  -0.01852  -0.00898
  Beta virt. eigenvalues --   -0.00558  -0.00379   0.00006   0.00120   0.00247

 Mulliken charges and spin densities:
               1          2
     1  Na   0.091472   0.418521
     2  Na   0.142587   0.231966
     3  Na   0.216352   0.111864
     4  Na  -0.276631   0.047150
     5  Na  -0.226318  -0.071452
     6  Na  -0.037083   0.254827
     7  Na   0.089621   0.007123
 Sum of Mulliken charges =  -0.00000   1.00000

 Dipole moment (field-independent basis, Debye):
    X=             -0.5398    Y=             -0.1436    Z=             -0.1218  Tot=              0.5717
 Quadrupole moment (field-independent basis, Debye-Ang):
   XX=            -56.9108   YY=            -74.7476   ZZ=            -69.3086
   XY=             -0.0406   XZ=             -0.3431   YZ=             -0.8239

 Normal termination of Gaussian 16 at Sun Dec  3 23:45:26 2023.
