 Gaussian 16, Revision B.01,
 Gaussian 16:  ES64L-G16RevB.01 20-Dec-2017

 -------------------------
 #P B3LYP/6-311+g(d) force
 -------------------------

 -----
 DPGEN
 -----
 Symbolic Z-matrix:
 Charge =  0 Multiplicity = 2

                         Standard orientation:
 ---------------------------------------------------------------------
 Center     Atomic      Atomic             Coordinates (Angstroms)
 Number     Number       Type             X           Y           Z
 ---------------------------------------------------------------------
      1         11           0        0.586707    0.417688    2.201863
      2         11           0       -2.997718   -1.007826   -0.082116
      3         11           0       -1.918395    2.599709    0.084833
      4         11           0        2.215157    1.965776   -0.748772
      5         11           0        2.789851   -1.345670   -0.032274
      6         11           0       -0.251228    0.027621   -1.332352
      7         11           0       -0.424374   -2.657297   -0.091182
 ---------------------------------------------------------------------

 SCF Done:  E(UB3LYP) =  -1136.13137525     A.U. after   19 cycles

 The electronic state is 2-A.
 Alpha  occ. eigenvalues --  -38.44028 -38.43951 -38.43887 -38.43855 -38.43755
 Alpha  occ. eigenvalues --  -38.43098 -38.42971  -2.19902  -2.19801  -2.19738
 Alpha  occ. eigenvalues --   -2.19646  -2.19610  -2.19047  -2.19024  -1.13618
 Alpha  occ. eigenvalues --   -1.13565  -1.13525  -1.13507  -1.13455  -1.13432
 Alpha  occ. eigenvalues --   -1.13404  -1.13402  -1.13366  -1.13326  -1.13308
 Alpha  occ. eigenvalues --   -1.13284  -1.13267  -1.13238  -1.13218  -1.12893
 Alpha  occ. eigenvalues --   -1.12706  -1.12679  -1.12658  -1.12635  -1.12597
 Alpha  occ. eigenvalues --   -0.18683  -0.13268  -0.12320  -0.10715
 Alpha virt. eigenvalues --   -0.05695  -0.05449  -0.04433  -0.03225  -0.02785
 Alpha virt. eigenvalues --   -0.02507  -0.01578  -0.01280  -0.00449  -0.00182
 Alpha virt. eigenvalues --   -0.00023   0.00331   0.00746   0.00846   0.00896

  Beta  occ. eigenvalues --  -38.44027 -38.43925 -38.43882 -38.43855 -38.43653
  Beta  occ. eigenvalues --  -38.43093 -38.42925  -2.19902  -2.19756  -2.19732
  Beta  occ. eigenvalues --   -2.19648  -2.19422  -2.19027  -2.18957  -1.13618
  Beta  occ. eigenvalues --   -1.13558  -1.13522  -1.13472  -1.13425  -1.13403
  Beta  occ. eigenvalues --   -1.13396  -1.13373  -1.13353  -1.13322  -1.13299
  Beta  occ. eigenvalues --   -1.13288  -1.13142  -1.13110  -1.13083  -1.12863
  Beta  occ. eigenvalues --   -1.12671  -1.12649  -1.12616  -1.12594  -1.12558
  Beta  occ. eigenvalues --   -0.17997  -0.13026  -0.12113
  Beta virt. eigenvalues --   -0.06754  -0.05661  -0.05366  -0.04404  -0.02500
  Beta virt. eigenvalues --   -0.02053  -0.01535  -0.01396  -0.01190  -0.00468
  Beta virt. eigenvalues --   -0.00209   0.00157   0.00382   0.00798   0.00875

 Mulliken charges and spin densities:
               1          2
     1  Na  -0.689425   0.713461
     2  Na   0.195582   0.044094
     3  Na   0.068463  -0.011537
     4  Na   0.247801   0.059443
     5  Na   0.405675   0.119774
     6  Na  -0.511513   0.021449
     7  Na   0.283418   0.053316
 Sum of Mulliken charges =  -0.00000   1.00000

 Dipole moment (field-independent basis, Debye):
    X=              0.0161    Y=              0.2789    Z=              0.2765  Tot=              0.3930
 Quadrupole moment (field-independent basis, Debye-Ang):
   XX=            -55.1252   YY=            -63.2491   ZZ=            -74.7388
   XY=             -0.7765   XZ=             -1.5066   YZ=             -0.7164

 Normal termination of Gaussian 16 at Thu Dec  7 09:16:45 2023.
