 Gaussian 16, Revision B.01,
 Gaussian 16:  ES64L-G16RevB.01 20-Dec-2017

 -------------------------
 #P B3LYP/6-311+g(d) force
 -------------------------

 -----
 DPGEN
 -----
 Symbolic Z-matrix:
 Charge =  0 Multiplicity = 2

                         Standard orientation:
 ---------------------------------------------------------------------
 Center     Atomic      Atomic             Coordinates (Angstroms)
 Number     Number       Type             X           Y           Z
 ---------------------------------------------------------------------
      1         11           0       -2.199779    1.930235    0.280280
      2         11           0        3.240084   -0.161565   -0.170345
      3         11           0       -0.154125   -0.608799    2.329865
      4         11           0        0.917449    2.835847   -0.016434
      5         11           0        0.651259   -2.660034    0.010571
      6         11           0       -2.725509   -1.391073   -0.732427
      7         11           0        0.270621    0.055389   -1.701511
 ---------------------------------------------------------------------

 SCF Done:  E(UB3LYP) =  -1136.13647072     A.U. after   19 cycles

 The electronic state is 2-A.
 Alpha  occ. eigenvalues --  -38.44280 -38.43973 -38.43712 -38.43461 -38.43438
 Alpha  occ. eigenvalues --  -38.43404 -38.43372  -2.20130  -2.19783  -2.19539
 Alpha  occ. eigenvalues --   -2.19406  -2.19306  -2.19293  -2.19213  -1.13795
 Alpha  occ. eigenvalues --   -1.13758  -1.13742  -1.13469  -1.13442  -1.13420
 Alpha  occ. eigenvalues --   -1.13223  -1.13193  -1.13178  -1.13112  -1.13086
 Alpha  occ. eigenvalues --   -1.13022  -1.12998  -1.12983  -1.12971  -1.12953
 Alpha  occ. eigenvalues --   -1.12950  -1.12894  -1.12883  -1.12867  -1.12828
 Alpha  occ. eigenvalues --   -0.18450  -0.12737  -0.12534  -0.11237
 Alpha virt. eigenvalues --   -0.05508  -0.04932  -0.04723  -0.03303  -0.03205
 Alpha virt. eigenvalues --   -0.02916  -0.01468  -0.00954  -0.00268  -0.00204
 Alpha virt. eigenvalues --   -0.00054   0.00355   0.00801   0.00887   0.00924

  Beta  occ. eigenvalues --  -38.44175 -38.43972 -38.43694 -38.43457 -38.43395
  Beta  occ. eigenvalues --  -38.43381 -38.43372  -2.19936  -2.19783  -2.19508
  Beta  occ. eigenvalues --   -2.19304  -2.19299  -2.19283  -2.19215  -1.13665
  Beta  occ. eigenvalues --   -1.13621  -1.13607  -1.13459  -1.13439  -1.13421
  Beta  occ. eigenvalues --   -1.13191  -1.13168  -1.13156  -1.13061  -1.13030
  Beta  occ. eigenvalues --   -1.12985  -1.12958  -1.12956  -1.12950  -1.12937
  Beta  occ. eigenvalues --   -1.12911  -1.12891  -1.12867  -1.12864  -1.12829
  Beta  occ. eigenvalues --   -0.17731  -0.12527  -0.12290
  Beta virt. eigenvalues --   -0.07277  -0.05482  -0.04904  -0.04572  -0.02492
  Beta virt. eigenvalues --   -0.02483  -0.01924  -0.01372  -0.00882  -0.00283
  Beta virt. eigenvalues --   -0.00230   0.00093   0.00394   0.00875   0.00907

 Mulliken charges and spin densities:
               1          2
     1  Na  -0.012302   0.056602
     2  Na   0.114808  -0.059935
     3  Na  -0.563811   0.611980
     4  Na   0.015585  -0.023990
     5  Na   0.337092   0.056155
     6  Na   0.152339   0.053231
     7  Na  -0.043710   0.305958
 Sum of Mulliken charges =  -0.00000   1.00000

 Dipole moment (field-independent basis, Debye):
    X=              0.1760    Y=             -0.1205    Z=              0.2276  Tot=              0.3119
 Quadrupole moment (field-independent basis, Debye-Ang):
   XX=            -58.6077   YY=            -65.1664   ZZ=            -71.4414
   XY=              0.5699   XZ=              0.9242   YZ=              1.5198

 Normal termination of Gaussian 16 at Thu Dec  7 08:35:58 2023.
