 Gaussian 16, Revision B.01,
 Gaussian 16:  ES64L-G16RevB.01 20-Dec-2017

 -------------------------
 #P B3LYP/6-311+g(d) force
 -------------------------

 -----
 DPGEN
 -----
 Symbolic Z-matrix:
 Charge =  0 Multiplicity = 2

                         Standard orientation:
 ---------------------------------------------------------------------
 Center     Atomic      Atomic             Coordinates (Angstroms)
 Number     Number       Type             X           Y           Z
 ---------------------------------------------------------------------
      1         11           0        3.707233   -1.299555   -0.959004
      2         11           0        1.080954   -2.802411    0.408259
      3         11           0       -3.784497   -0.046375   -0.532901
      4         11           0       -2.458551   -2.909054    0.109647
      5         11           0        2.367373    1.103977    1.344567
      6         11           0       -2.263058    2.804519    0.364142
      7         11           0        1.350545    3.148899   -0.734710
 ---------------------------------------------------------------------

 SCF Done:  E(UB3LYP) =  -1136.11486906     A.U. after   21 cycles

 The electronic state is 2-A.
 Alpha  occ. eigenvalues --  -38.45080 -38.44601 -38.44300 -38.44188 -38.44112
 Alpha  occ. eigenvalues --  -38.44082 -38.43301  -2.20898  -2.20390  -2.20089
 Alpha  occ. eigenvalues --   -2.20012  -2.19922  -2.19900  -2.19126  -1.14599
 Alpha  occ. eigenvalues --   -1.14568  -1.14510  -1.14089  -1.14069  -1.14020
 Alpha  occ. eigenvalues --   -1.13762  -1.13760  -1.13711  -1.13668  -1.13652
 Alpha  occ. eigenvalues --   -1.13631  -1.13595  -1.13588  -1.13573  -1.13568
 Alpha  occ. eigenvalues --   -1.13549  -1.13525  -1.12776  -1.12774  -1.12767
 Alpha  occ. eigenvalues --   -0.16206  -0.13894  -0.13288  -0.10267
 Alpha virt. eigenvalues --   -0.06788  -0.05942  -0.03985  -0.03324  -0.02797
 Alpha virt. eigenvalues --   -0.02453  -0.02357  -0.01768  -0.01227  -0.00826
 Alpha virt. eigenvalues --   -0.00204   0.00062   0.00408   0.00459   0.00617

  Beta  occ. eigenvalues --  -38.45059 -38.44587 -38.44252 -38.44131 -38.44099
  Beta  occ. eigenvalues --  -38.44054 -38.43254  -2.20864  -2.20371  -2.20005
  Beta  occ. eigenvalues --   -2.19908  -2.19904  -2.19853  -2.19039  -1.14571
  Beta  occ. eigenvalues --   -1.14548  -1.14471  -1.14079  -1.14063  -1.13962
  Beta  occ. eigenvalues --   -1.13707  -1.13703  -1.13640  -1.13596  -1.13587
  Beta  occ. eigenvalues --   -1.13579  -1.13575  -1.13565  -1.13534  -1.13520
  Beta  occ. eigenvalues --   -1.13514  -1.13496  -1.12723  -1.12715  -1.12704
  Beta  occ. eigenvalues --   -0.15775  -0.13231  -0.12551
  Beta virt. eigenvalues --   -0.07028  -0.06849  -0.05690  -0.03692  -0.03062
  Beta virt. eigenvalues --   -0.02446  -0.02033  -0.01955  -0.01585  -0.01092
  Beta virt. eigenvalues --   -0.00663   0.00092   0.00252   0.00456   0.00551

 Mulliken charges and spin densities:
               1          2
     1  Na   0.449449   0.263854
     2  Na  -0.394188   0.109389
     3  Na  -0.237576   0.049132
     4  Na   0.148524   0.193242
     5  Na   0.221764   0.057795
     6  Na  -0.170271   0.223310
     7  Na  -0.017703   0.103278
 Sum of Mulliken charges =  -0.00000   1.00000

 Dipole moment (field-independent basis, Debye):
    X=              1.2852    Y=              0.5774    Z=             -0.0832  Tot=              1.4114
 Quadrupole moment (field-independent basis, Debye-Ang):
   XX=            -66.8113   YY=            -71.1944   ZZ=            -65.3096
   XY=              1.6246   XZ=             -0.6218   YZ=             -1.3749

 Normal termination of Gaussian 16 at Sun Dec  3 23:22:57 2023.
