 Gaussian 16, Revision B.01,
 Gaussian 16:  ES64L-G16RevB.01 20-Dec-2017

 -------------------------
 #P B3LYP/6-311+g(d) force
 -------------------------

 -----
 DPGEN
 -----
 Symbolic Z-matrix:
 Charge =  0 Multiplicity = 2

                         Standard orientation:
 ---------------------------------------------------------------------
 Center     Atomic      Atomic             Coordinates (Angstroms)
 Number     Number       Type             X           Y           Z
 ---------------------------------------------------------------------
      1         11           0        1.868838    2.080434    0.647594
      2         11           0        0.789029   -0.763046   -0.985876
      3         11           0        3.733307   -1.031515   -0.266767
      4         11           0       -3.244790    0.505640    0.985073
      5         11           0       -2.411377   -1.655319   -1.266392
      6         11           0        0.008746   -1.519484    1.814495
      7         11           0       -0.743753    2.383290   -0.928128
 ---------------------------------------------------------------------

 SCF Done:  E(UB3LYP) =  -1136.11854006     A.U. after   24 cycles

 The electronic state is 2-A.
 Alpha  occ. eigenvalues --  -38.45279 -38.45123 -38.44312 -38.43872 -38.43580
 Alpha  occ. eigenvalues --  -38.43128 -38.42726  -2.21081  -2.20925  -2.20154
 Alpha  occ. eigenvalues --   -2.19726  -2.19436  -2.19154  -2.18588  -1.14789
 Alpha  occ. eigenvalues --   -1.14720  -1.14712  -1.14603  -1.14569  -1.14565
 Alpha  occ. eigenvalues --   -1.13897  -1.13789  -1.13731  -1.13406  -1.13374
 Alpha  occ. eigenvalues --   -1.13351  -1.13146  -1.13094  -1.13066  -1.12872
 Alpha  occ. eigenvalues --   -1.12798  -1.12763  -1.12273  -1.12241  -1.12217
 Alpha  occ. eigenvalues --   -0.18249  -0.13753  -0.11662  -0.10488
 Alpha virt. eigenvalues --   -0.07109  -0.05370  -0.03927  -0.03531  -0.02714
 Alpha virt. eigenvalues --   -0.02530  -0.02155  -0.01190  -0.00471  -0.00317
 Alpha virt. eigenvalues --    0.00083   0.00116   0.00318   0.00670   0.00700

  Beta  occ. eigenvalues --  -38.45284 -38.45104 -38.44245 -38.43834 -38.43577
  Beta  occ. eigenvalues --  -38.43089 -38.42718  -2.21092  -2.20892  -2.20031
  Beta  occ. eigenvalues --   -2.19657  -2.19433  -2.19086  -2.18574  -1.14793
  Beta  occ. eigenvalues --   -1.14729  -1.14714  -1.14576  -1.14547  -1.14534
  Beta  occ. eigenvalues --   -1.13814  -1.13695  -1.13644  -1.13348  -1.13331
  Beta  occ. eigenvalues --   -1.13294  -1.13145  -1.13079  -1.13067  -1.12815
  Beta  occ. eigenvalues --   -1.12736  -1.12712  -1.12265  -1.12216  -1.12211
  Beta  occ. eigenvalues --   -0.17578  -0.13595  -0.11508
  Beta virt. eigenvalues --   -0.06926  -0.06669  -0.05216  -0.03662  -0.03096
  Beta virt. eigenvalues --   -0.02520  -0.02073  -0.01263  -0.01016  -0.00320
  Beta virt. eigenvalues --   -0.00182   0.00151   0.00169   0.00459   0.00749

 Mulliken charges and spin densities:
               1          2
     1  Na   0.035143  -0.046357
     2  Na  -1.122505   0.127412
     3  Na   0.960017   0.036834
     4  Na  -0.008336   0.159900
     5  Na   0.226524   0.001327
     6  Na  -0.246715   0.574312
     7  Na   0.155872   0.146571
 Sum of Mulliken charges =  -0.00000   1.00000

 Dipole moment (field-independent basis, Debye):
    X=              0.4333    Y=             -0.2862    Z=              0.4835  Tot=              0.7096
 Quadrupole moment (field-independent basis, Debye-Ang):
   XX=            -45.3767   YY=            -74.0504   ZZ=            -72.3632
   XY=             -1.6259   XZ=              0.6375   YZ=              1.6232

 Normal termination of Gaussian 16 at Tue Dec  5 23:50:22 2023.
