 Gaussian 16, Revision B.01,
 Gaussian 16:  ES64L-G16RevB.01 20-Dec-2017

 -------------------------
 #P B3LYP/6-311+g(d) force
 -------------------------

 -----
 DPGEN
 -----
 Symbolic Z-matrix:
 Charge =  0 Multiplicity = 2

                         Standard orientation:
 ---------------------------------------------------------------------
 Center     Atomic      Atomic             Coordinates (Angstroms)
 Number     Number       Type             X           Y           Z
 ---------------------------------------------------------------------
      1         11           0        0.279552   -0.214454    2.002066
      2         11           0        3.080450    0.588354   -0.140579
      3         11           0       -2.243520   -2.005033   -0.247972
      4         11           0        1.496411   -2.624146   -0.102368
      5         11           0       -0.124453    0.244131   -1.754363
      6         11           0        0.140661    2.979362   -0.039236
      7         11           0       -2.629101    1.031787    0.282453
 ---------------------------------------------------------------------

 SCF Done:  E(UB3LYP) =  -1136.13948247     A.U. after   19 cycles

 The electronic state is 2-A.
 Alpha  occ. eigenvalues --  -38.44089 -38.43670 -38.43554 -38.43511 -38.43485
 Alpha  occ. eigenvalues --  -38.43337 -38.43267  -2.19902  -2.19496  -2.19451
 Alpha  occ. eigenvalues --   -2.19398  -2.19374  -2.19231  -2.19192  -1.13581
 Alpha  occ. eigenvalues --   -1.13566  -1.13536  -1.13190  -1.13171  -1.13166
 Alpha  occ. eigenvalues --   -1.13128  -1.13118  -1.13078  -1.13078  -1.13070
 Alpha  occ. eigenvalues --   -1.13044  -1.13036  -1.13006  -1.12966  -1.12941
 Alpha  occ. eigenvalues --   -1.12889  -1.12850  -1.12846  -1.12822  -1.12810
 Alpha  occ. eigenvalues --   -0.18747  -0.13027  -0.12491  -0.10819
 Alpha virt. eigenvalues --   -0.05574  -0.05022  -0.04782  -0.03277  -0.02935
 Alpha virt. eigenvalues --   -0.02590  -0.01391  -0.01128  -0.00346  -0.00252
 Alpha virt. eigenvalues --   -0.00011   0.00379   0.00834   0.00885   0.00928

  Beta  occ. eigenvalues --  -38.44085 -38.43666 -38.43505 -38.43476 -38.43465
  Beta  occ. eigenvalues --  -38.43333 -38.43196  -2.19899  -2.19493  -2.19386
  Beta  occ. eigenvalues --   -2.19367  -2.19288  -2.19189  -2.19102  -1.13567
  Beta  occ. eigenvalues --   -1.13558  -1.13536  -1.13175  -1.13165  -1.13147
  Beta  occ. eigenvalues --   -1.13128  -1.13072  -1.13027  -1.13018  -1.13002
  Beta  occ. eigenvalues --   -1.12992  -1.12963  -1.12958  -1.12948  -1.12903
  Beta  occ. eigenvalues --   -1.12828  -1.12824  -1.12809  -1.12758  -1.12740
  Beta  occ. eigenvalues --   -0.18000  -0.12799  -0.12254
  Beta virt. eigenvalues --   -0.06901  -0.05577  -0.04966  -0.04751  -0.02459
  Beta virt. eigenvalues --   -0.02165  -0.01543  -0.01308  -0.01054  -0.00401
  Beta virt. eigenvalues --   -0.00299   0.00123   0.00394   0.00844   0.00909

 Mulliken charges and spin densities:
               1          2
     1  Na  -0.402322   0.711694
     2  Na   0.069622  -0.128329
     3  Na   0.112027  -0.058004
     4  Na   0.075099  -0.113641
     5  Na  -0.256392   0.607697
     6  Na   0.159395  -0.082655
     7  Na   0.242571   0.063238
 Sum of Mulliken charges =  -0.00000   1.00000

 Dipole moment (field-independent basis, Debye):
    X=              0.3826    Y=             -0.0688    Z=              0.0709  Tot=              0.3952
 Quadrupole moment (field-independent basis, Debye-Ang):
   XX=            -58.6060   YY=            -61.4783   ZZ=            -73.7747
   XY=              0.5110   XZ=             -0.8710   YZ=              1.1762

 Normal termination of Gaussian 16 at Wed Dec  6 00:46:09 2023.
