 Gaussian 16, Revision B.01,
 Gaussian 16:  ES64L-G16RevB.01 20-Dec-2017

 -------------------------
 #P B3LYP/6-311+g(d) force
 -------------------------

 -----
 DPGEN
 -----
 Symbolic Z-matrix:
 Charge =  0 Multiplicity = 2

                         Standard orientation:
 ---------------------------------------------------------------------
 Center     Atomic      Atomic             Coordinates (Angstroms)
 Number     Number       Type             X           Y           Z
 ---------------------------------------------------------------------
      1         11           0       -1.639808    2.242436   -0.105955
      2         11           0       -0.212716    0.067665    1.843926
      3         11           0        2.619979   -0.911826   -0.022317
      4         11           0        0.047062    0.047673   -1.730200
      5         11           0        0.088299   -2.687848    0.028210
      6         11           0       -2.604914   -0.975567   -0.088031
      7         11           0        1.702097    2.217467    0.074367
 ---------------------------------------------------------------------

 SCF Done:  E(UB3LYP) =  -1136.13607223     A.U. after   17 cycles

 The electronic state is 2-A.
 Alpha  occ. eigenvalues --  -38.43369 -38.43347 -38.43338 -38.43316 -38.43288
 Alpha  occ. eigenvalues --  -38.43225 -38.43149  -2.19312  -2.19299  -2.19278
 Alpha  occ. eigenvalues --   -2.19267  -2.19254  -2.19218  -2.19187  -1.13095
 Alpha  occ. eigenvalues --   -1.13048  -1.13041  -1.13007  -1.13002  -1.12981
 Alpha  occ. eigenvalues --   -1.12975  -1.12965  -1.12927  -1.12913  -1.12909
 Alpha  occ. eigenvalues --   -1.12893  -1.12885  -1.12873  -1.12868  -1.12851
 Alpha  occ. eigenvalues --   -1.12842  -1.12817  -1.12800  -1.12786  -1.12766
 Alpha  occ. eigenvalues --   -0.19850  -0.13093  -0.13058  -0.11154
 Alpha virt. eigenvalues --   -0.04989  -0.04862  -0.04745  -0.03151  -0.03132
 Alpha virt. eigenvalues --   -0.02572  -0.01074  -0.01025  -0.00004   0.00124
 Alpha virt. eigenvalues --    0.00173   0.00373   0.00960   0.00981   0.01009

  Beta  occ. eigenvalues --  -38.43361 -38.43341 -38.43330 -38.43310 -38.43217
  Beta  occ. eigenvalues --  -38.43201 -38.43069  -2.19289  -2.19268  -2.19260
  Beta  occ. eigenvalues --   -2.19248  -2.19177  -2.19152  -2.19071  -1.13063
  Beta  occ. eigenvalues --   -1.13026  -1.13018  -1.13000  -1.12975  -1.12948
  Beta  occ. eigenvalues --   -1.12920  -1.12909  -1.12902  -1.12881  -1.12873
  Beta  occ. eigenvalues --   -1.12859  -1.12849  -1.12834  -1.12817  -1.12788
  Beta  occ. eigenvalues --   -1.12770  -1.12766  -1.12764  -1.12708  -1.12704
  Beta  occ. eigenvalues --   -0.19079  -0.12800  -0.12763
  Beta virt. eigenvalues --   -0.07148  -0.04993  -0.04856  -0.04751  -0.02287
  Beta virt. eigenvalues --   -0.02267  -0.01484  -0.01009  -0.00961   0.00058
  Beta virt. eigenvalues --    0.00106   0.00128   0.00385   0.00977   0.00989

 Mulliken charges and spin densities:
               1          2
     1  Na   0.301512  -0.087018
     2  Na  -0.677895   0.691017
     3  Na   0.189598  -0.047054
     4  Na  -0.644256   0.600225
     5  Na   0.281878  -0.027578
     6  Na   0.328137  -0.059473
     7  Na   0.221026  -0.070119
 Sum of Mulliken charges =  -0.00000   1.00000

 Dipole moment (field-independent basis, Debye):
    X=             -0.0522    Y=              0.1436    Z=              0.0817  Tot=              0.1733
 Quadrupole moment (field-independent basis, Debye-Ang):
   XX=            -60.5591   YY=            -61.4403   ZZ=            -72.5376
   XY=              0.1148   XZ=              0.5811   YZ=             -0.0285

 Normal termination of Gaussian 16 at Fri Dec  8 17:03:05 2023.
