 Gaussian 16, Revision B.01,
 Gaussian 16:  ES64L-G16RevB.01 20-Dec-2017

 -------------------------
 #P B3LYP/6-311+g(d) force
 -------------------------

 -----
 DPGEN
 -----
 Symbolic Z-matrix:
 Charge =  0 Multiplicity = 2

                         Standard orientation:
 ---------------------------------------------------------------------
 Center     Atomic      Atomic             Coordinates (Angstroms)
 Number     Number       Type             X           Y           Z
 ---------------------------------------------------------------------
      1         11           0       -1.965447   -2.830086    1.164736
      2         11           0       -3.922284    0.105436    0.229164
      3         11           0        0.167304   -3.272629   -0.804904
      4         11           0        3.614111   -1.318465   -0.811014
      5         11           0       -2.559235    2.692468   -1.041417
      6         11           0        3.810330    1.049201    0.848729
      7         11           0        0.855221    3.574076    0.414706
 ---------------------------------------------------------------------

 SCF Done:  E(UB3LYP) =  -1136.10339498     A.U. after   20 cycles

 The electronic state is 2-A.
 Alpha  occ. eigenvalues --  -38.44845 -38.44792 -38.44503 -38.44451 -38.44306
 Alpha  occ. eigenvalues --  -38.44229 -38.44189  -2.20660  -2.20606  -2.20333
 Alpha  occ. eigenvalues --   -2.20227  -2.20120  -2.20068  -2.19968  -1.14419
 Alpha  occ. eigenvalues --   -1.14372  -1.14304  -1.14290  -1.14260  -1.14238
 Alpha  occ. eigenvalues --   -1.13977  -1.13971  -1.13966  -1.13939  -1.13903
 Alpha  occ. eigenvalues --   -1.13879  -1.13772  -1.13755  -1.13732  -1.13718
 Alpha  occ. eigenvalues --   -1.13698  -1.13685  -1.13620  -1.13604  -1.13581
 Alpha  occ. eigenvalues --   -0.15701  -0.14010  -0.13425  -0.10682
 Alpha virt. eigenvalues --   -0.07621  -0.04588  -0.04525  -0.03740  -0.03628
 Alpha virt. eigenvalues --   -0.02312  -0.01916  -0.01464  -0.01269  -0.01098
 Alpha virt. eigenvalues --   -0.00986   0.00090   0.00147   0.00301   0.00801

  Beta  occ. eigenvalues --  -38.44823 -38.44787 -38.44491 -38.44456 -38.44252
  Beta  occ. eigenvalues --  -38.44185 -38.44090  -2.20622  -2.20604  -2.20314
  Beta  occ. eigenvalues --   -2.20242  -2.20020  -2.19987  -2.19784  -1.14384
  Beta  occ. eigenvalues --   -1.14347  -1.14280  -1.14264  -1.14263  -1.14221
  Beta  occ. eigenvalues --   -1.13966  -1.13958  -1.13937  -1.13930  -1.13919
  Beta  occ. eigenvalues --   -1.13866  -1.13705  -1.13692  -1.13667  -1.13666
  Beta  occ. eigenvalues --   -1.13644  -1.13628  -1.13495  -1.13481  -1.13460
  Beta  occ. eigenvalues --   -0.15261  -0.13384  -0.12655
  Beta virt. eigenvalues --   -0.07712  -0.07423  -0.04170  -0.04130  -0.03547
  Beta virt. eigenvalues --   -0.03334  -0.02012  -0.01683  -0.01260  -0.01124
  Beta virt. eigenvalues --   -0.00935  -0.00539   0.00171   0.00223   0.00407

 Mulliken charges and spin densities:
               1          2
     1  Na   0.126329   0.039317
     2  Na   0.027469   0.254966
     3  Na  -0.277247   0.099883
     4  Na   0.090724   0.158726
     5  Na   0.091737  -0.078109
     6  Na   0.033576   0.025363
     7  Na  -0.092589   0.499853
 Sum of Mulliken charges =  -0.00000   1.00000

 Dipole moment (field-independent basis, Debye):
    X=             -0.0441    Y=             -0.8216    Z=              0.0017  Tot=              0.8228
 Quadrupole moment (field-independent basis, Debye-Ang):
   XX=            -68.5439   YY=            -70.3226   ZZ=            -65.6276
   XY=              1.5076   XZ=             -1.2654   YZ=              0.6301

 Normal termination of Gaussian 16 at Mon Dec  4 00:01:25 2023.
