 Gaussian 16, Revision B.01,
 Gaussian 16:  ES64L-G16RevB.01 20-Dec-2017

 -------------------------
 #P B3LYP/6-311+g(d) force
 -------------------------

 -----
 DPGEN
 -----
 Symbolic Z-matrix:
 Charge =  0 Multiplicity = 2

                         Standard orientation:
 ---------------------------------------------------------------------
 Center     Atomic      Atomic             Coordinates (Angstroms)
 Number     Number       Type             X           Y           Z
 ---------------------------------------------------------------------
      1         11           0       -1.307610    2.681885    0.052346
      2         11           0       -0.272097   -2.833050    0.004756
      3         11           0        2.101965    1.887533    0.061392
      4         11           0       -0.028702    0.114061    1.881740
      5         11           0       -0.101929    0.325625   -1.877443
      6         11           0        2.771658   -1.361184   -0.098583
      7         11           0       -3.163285   -0.814871   -0.024209
 ---------------------------------------------------------------------

 SCF Done:  E(UB3LYP) =  -1136.14015795     A.U. after   19 cycles

 The electronic state is 2-A.
 Alpha  occ. eigenvalues --  -38.44051 -38.43604 -38.43522 -38.43485 -38.43419
 Alpha  occ. eigenvalues --  -38.43399 -38.43394  -2.19845  -2.19465  -2.19387
 Alpha  occ. eigenvalues --   -2.19372  -2.19352  -2.19334  -2.19243  -1.13520
 Alpha  occ. eigenvalues --   -1.13502  -1.13491  -1.13180  -1.13148  -1.13117
 Alpha  occ. eigenvalues --   -1.13096  -1.13078  -1.13055  -1.13040  -1.13030
 Alpha  occ. eigenvalues --   -1.13012  -1.12996  -1.12975  -1.12969  -1.12962
 Alpha  occ. eigenvalues --   -1.12958  -1.12944  -1.12910  -1.12905  -1.12866
 Alpha  occ. eigenvalues --   -0.18772  -0.12798  -0.12707  -0.10799
 Alpha virt. eigenvalues --   -0.05569  -0.05115  -0.04749  -0.03068  -0.03036
 Alpha virt. eigenvalues --   -0.02600  -0.01440  -0.01162  -0.00302  -0.00267
 Alpha virt. eigenvalues --   -0.00015   0.00370   0.00825   0.00878   0.00935

  Beta  occ. eigenvalues --  -38.44051 -38.43597 -38.43520 -38.43475 -38.43390
  Beta  occ. eigenvalues --  -38.43337 -38.43315  -2.19848  -2.19457  -2.19376
  Beta  occ. eigenvalues --   -2.19371  -2.19240  -2.19203  -2.19180  -1.13507
  Beta  occ. eigenvalues --   -1.13502  -1.13495  -1.13166  -1.13109  -1.13106
  Beta  occ. eigenvalues --   -1.13096  -1.13052  -1.13036  -1.13026  -1.13005
  Beta  occ. eigenvalues --   -1.12974  -1.12937  -1.12913  -1.12897  -1.12891
  Beta  occ. eigenvalues --   -1.12869  -1.12861  -1.12855  -1.12838  -1.12835
  Beta  occ. eigenvalues --   -0.18017  -0.12576  -0.12461
  Beta virt. eigenvalues --   -0.06870  -0.05573  -0.05086  -0.04707  -0.02285
  Beta virt. eigenvalues --   -0.02224  -0.01546  -0.01359  -0.01097  -0.00363
  Beta virt. eigenvalues --   -0.00322   0.00119   0.00384   0.00856   0.00873

 Mulliken charges and spin densities:
               1          2
     1  Na   0.263130  -0.148308
     2  Na   0.040162  -0.094894
     3  Na   0.423897  -0.015721
     4  Na  -0.331112   0.720618
     5  Na  -0.385720   0.749334
     6  Na  -0.009858  -0.065644
     7  Na  -0.000500  -0.145385
 Sum of Mulliken charges =  -0.00000   1.00000

 Dipole moment (field-independent basis, Debye):
    X=             -0.2916    Y=              0.0885    Z=             -0.0062  Tot=              0.3048
 Quadrupole moment (field-independent basis, Debye-Ang):
   XX=            -57.4703   YY=            -62.1750   ZZ=            -74.0344
   XY=             -0.4995   XZ=             -0.1958   YZ=              0.4964

 Normal termination of Gaussian 16 at Thu Dec  7 16:42:32 2023.
