 Gaussian 16, Revision B.01,
 Gaussian 16:  ES64L-G16RevB.01 20-Dec-2017

 -------------------------
 #P B3LYP/6-311+g(d) force
 -------------------------

 -----
 DPGEN
 -----
 Symbolic Z-matrix:
 Charge =  0 Multiplicity = 2

                         Standard orientation:
 ---------------------------------------------------------------------
 Center     Atomic      Atomic             Coordinates (Angstroms)
 Number     Number       Type             X           Y           Z
 ---------------------------------------------------------------------
      1         11           0       -0.206266    0.663630    0.302435
      2         11           0       -2.871782   -1.514214   -0.804557
      3         11           0        2.955527    0.459912    0.228872
      4         11           0        0.439942   -2.057278    1.615930
      5         11           0       -3.942086    1.175987    0.152229
      6         11           0        1.427560    3.670486   -0.323679
      7         11           0        2.197104   -2.398522   -1.171230
 ---------------------------------------------------------------------

 SCF Done:  E(UB3LYP) =  -1136.12155221     A.U. after   21 cycles

 The electronic state is 2-A.
 Alpha  occ. eigenvalues --  -38.44723 -38.44491 -38.44003 -38.43620 -38.43463
 Alpha  occ. eigenvalues --  -38.43357 -38.43140  -2.20548  -2.20313  -2.19885
 Alpha  occ. eigenvalues --   -2.19405  -2.19327  -2.19262  -2.19108  -1.14261
 Alpha  occ. eigenvalues --   -1.14221  -1.14182  -1.13959  -1.13955  -1.13928
 Alpha  occ. eigenvalues --   -1.13604  -1.13569  -1.13482  -1.13076  -1.13070
 Alpha  occ. eigenvalues --   -1.13037  -1.13006  -1.12987  -1.12978  -1.12970
 Alpha  occ. eigenvalues --   -1.12892  -1.12850  -1.12801  -1.12762  -1.12696
 Alpha  occ. eigenvalues --   -0.17670  -0.13954  -0.12232  -0.09974
 Alpha virt. eigenvalues --   -0.06284  -0.05342  -0.05205  -0.03112  -0.02467
 Alpha virt. eigenvalues --   -0.02253  -0.01636  -0.01411  -0.01195  -0.00884
 Alpha virt. eigenvalues --   -0.00025   0.00227   0.00328   0.00561   0.00670

  Beta  occ. eigenvalues --  -38.44718 -38.44468 -38.43979 -38.43622 -38.43403
  Beta  occ. eigenvalues --  -38.43297 -38.43109  -2.20541  -2.20269  -2.19846
  Beta  occ. eigenvalues --   -2.19409  -2.19217  -2.19153  -2.19054  -1.14253
  Beta  occ. eigenvalues --   -1.14219  -1.14156  -1.13928  -1.13918  -1.13905
  Beta  occ. eigenvalues --   -1.13582  -1.13521  -1.13445  -1.13079  -1.13071
  Beta  occ. eigenvalues --   -1.13039  -1.12930  -1.12911  -1.12901  -1.12884
  Beta  occ. eigenvalues --   -1.12819  -1.12772  -1.12754  -1.12726  -1.12647
  Beta  occ. eigenvalues --   -0.17100  -0.13487  -0.12096
  Beta virt. eigenvalues --   -0.06263  -0.06100  -0.05149  -0.05039  -0.02663
  Beta virt. eigenvalues --   -0.02146  -0.02019  -0.01474  -0.01226  -0.00781
  Beta virt. eigenvalues --   -0.00568   0.00221   0.00393   0.00472   0.00634

 Mulliken charges and spin densities:
               1          2
     1  Na  -2.837629   0.099285
     2  Na   0.370377   0.032865
     3  Na   1.351798   0.377565
     4  Na   0.668074   0.070206
     5  Na   0.300548   0.152706
     6  Na   0.002588  -0.021957
     7  Na   0.144244   0.289330
 Sum of Mulliken charges =  -0.00000   1.00000

 Dipole moment (field-independent basis, Debye):
    X=             -1.1091    Y=              0.0392    Z=              0.2223  Tot=              1.1319
 Quadrupole moment (field-independent basis, Debye-Ang):
   XX=            -66.6514   YY=            -59.1140   ZZ=            -70.8678
   XY=              1.3829   XZ=              1.7841   YZ=              1.2838

 Normal termination of Gaussian 16 at Wed Dec  6 00:24:55 2023.
