 Gaussian 16, Revision B.01,
 Gaussian 16:  ES64L-G16RevB.01 20-Dec-2017

 -------------------------
 #P B3LYP/6-311+g(d) force
 -------------------------

 -----
 DPGEN
 -----
 Symbolic Z-matrix:
 Charge =  0 Multiplicity = 2

                         Standard orientation:
 ---------------------------------------------------------------------
 Center     Atomic      Atomic             Coordinates (Angstroms)
 Number     Number       Type             X           Y           Z
 ---------------------------------------------------------------------
      1         11           0       -0.128811   -1.475473    1.448271
      2         11           0       -2.605527   -0.334808   -0.287229
      3         11           0        1.862931    1.300754    0.787171
      4         11           0       -0.236417   -1.046075   -1.121029
      5         11           0       -0.988547    1.116815    1.190871
      6         11           0       -0.168052    1.489226   -1.419829
      7         11           0        2.264423   -1.050440   -0.598229
 ---------------------------------------------------------------------

 SCF Done:  E(UB3LYP) =  -1136.05133715     A.U. after   22 cycles

 The electronic state is 2-A.
 Alpha  occ. eigenvalues --  -38.45040 -38.44483 -38.44352 -38.44315 -38.43928
 Alpha  occ. eigenvalues --  -38.43821 -38.43818  -2.21551  -2.20680  -2.20583
 Alpha  occ. eigenvalues --   -2.20452  -2.20125  -2.19997  -2.19916  -1.15595
 Alpha  occ. eigenvalues --   -1.15379  -1.15332  -1.14738  -1.14437  -1.14408
 Alpha  occ. eigenvalues --   -1.14311  -1.14227  -1.14116  -1.14015  -1.13988
 Alpha  occ. eigenvalues --   -1.13974  -1.13774  -1.13731  -1.13658  -1.13648
 Alpha  occ. eigenvalues --   -1.13575  -1.13562  -1.13499  -1.13483  -1.13450
 Alpha  occ. eigenvalues --   -0.22016  -0.14115  -0.13158  -0.12208
 Alpha virt. eigenvalues --   -0.05337  -0.04237  -0.03886  -0.03785  -0.03080
 Alpha virt. eigenvalues --   -0.02968  -0.01174  -0.00321  -0.00216   0.00312
 Alpha virt. eigenvalues --    0.00808   0.00917   0.01062   0.01166   0.01240

  Beta  occ. eigenvalues --  -38.44970 -38.44470 -38.44335 -38.44256 -38.43877
  Beta  occ. eigenvalues --  -38.43793 -38.43771  -2.21432  -2.20630  -2.20513
  Beta  occ. eigenvalues --   -2.20425  -2.20037  -2.19911  -2.19876  -1.15514
  Beta  occ. eigenvalues --   -1.15271  -1.15247  -1.14693  -1.14372  -1.14309
  Beta  occ. eigenvalues --   -1.14277  -1.14210  -1.14081  -1.13980  -1.13949
  Beta  occ. eigenvalues --   -1.13933  -1.13714  -1.13661  -1.13604  -1.13581
  Beta  occ. eigenvalues --   -1.13510  -1.13474  -1.13462  -1.13438  -1.13406
  Beta  occ. eigenvalues --   -0.21141  -0.13801  -0.12055
  Beta virt. eigenvalues --   -0.08571  -0.05316  -0.03885  -0.03491  -0.03201
  Beta virt. eigenvalues --   -0.02403  -0.01946  -0.01123  -0.00223  -0.00071
  Beta virt. eigenvalues --    0.00343   0.00845   0.00982   0.01109   0.01197

 Mulliken charges and spin densities:
               1          2
     1  Na   0.095036   0.393566
     2  Na   0.294094  -0.087876
     3  Na  -0.263184  -0.012847
     4  Na  -1.204283   0.144644
     5  Na   0.100128   0.331677
     6  Na   0.349155   0.266854
     7  Na   0.629053  -0.036018
 Sum of Mulliken charges =  -0.00000   1.00000

 Dipole moment (field-independent basis, Debye):
    X=              0.1741    Y=              0.2204    Z=              0.2510  Tot=              0.3766
 Quadrupole moment (field-independent basis, Debye-Ang):
   XX=            -58.8997   YY=            -74.7155   ZZ=            -64.4255
   XY=              0.3738   XZ=              0.5416   YZ=              0.6493

 Normal termination of Gaussian 16 at Thu Dec  7 12:02:43 2023.
