 Gaussian 16, Revision B.01,
 Gaussian 16:  ES64L-G16RevB.01 20-Dec-2017

 -------------------------
 #P B3LYP/6-311+g(d) force
 -------------------------

 -----
 DPGEN
 -----
 Symbolic Z-matrix:
 Charge =  0 Multiplicity = 2

                         Standard orientation:
 ---------------------------------------------------------------------
 Center     Atomic      Atomic             Coordinates (Angstroms)
 Number     Number       Type             X           Y           Z
 ---------------------------------------------------------------------
      1         11           0        2.593416   -2.170111   -0.055950
      2         11           0        0.007540   -0.276277   -1.692695
      3         11           0       -3.540332    0.834135   -0.022167
      4         11           0        0.358785   -0.087231    2.116001
      5         11           0        2.927682    1.117251   -0.256593
      6         11           0       -0.018501    2.900027   -0.058391
      7         11           0       -2.328589   -2.317795   -0.030206
 ---------------------------------------------------------------------

 SCF Done:  E(UB3LYP) =  -1136.12991248     A.U. after   21 cycles

 The electronic state is 2-A.
 Alpha  occ. eigenvalues --  -38.45166 -38.44259 -38.44076 -38.43816 -38.43783
 Alpha  occ. eigenvalues --  -38.43754 -38.42706  -2.20926  -2.20119  -2.19872
 Alpha  occ. eigenvalues --   -2.19666  -2.19631  -2.19599  -2.18530  -1.14603
 Alpha  occ. eigenvalues --   -1.14578  -1.14568  -1.13794  -1.13785  -1.13760
 Alpha  occ. eigenvalues --   -1.13549  -1.13533  -1.13513  -1.13361  -1.13311
 Alpha  occ. eigenvalues --   -1.13300  -1.13294  -1.13287  -1.13265  -1.13258
 Alpha  occ. eigenvalues --   -1.13225  -1.13213  -1.12208  -1.12195  -1.12174
 Alpha  occ. eigenvalues --   -0.17989  -0.13460  -0.11694  -0.10511
 Alpha virt. eigenvalues --   -0.06481  -0.05679  -0.04281  -0.03380  -0.02583
 Alpha virt. eigenvalues --   -0.02517  -0.02114  -0.01363  -0.00811  -0.00422
 Alpha virt. eigenvalues --   -0.00089   0.00281   0.00617   0.00679   0.00741

  Beta  occ. eigenvalues --  -38.45169 -38.44251 -38.44075 -38.43814 -38.43724
  Beta  occ. eigenvalues --  -38.43652 -38.42703  -2.20932  -2.20107  -2.19872
  Beta  occ. eigenvalues --   -2.19630  -2.19558  -2.19411  -2.18528  -1.14599
  Beta  occ. eigenvalues --   -1.14584  -1.14573  -1.13785  -1.13759  -1.13749
  Beta  occ. eigenvalues --   -1.13544  -1.13526  -1.13513  -1.13301  -1.13295
  Beta  occ. eigenvalues --   -1.13275  -1.13264  -1.13224  -1.13201  -1.13133
  Beta  occ. eigenvalues --   -1.13093  -1.13080  -1.12207  -1.12177  -1.12171
  Beta  occ. eigenvalues --   -0.17266  -0.13315  -0.11495
  Beta virt. eigenvalues --   -0.06589  -0.06382  -0.05670  -0.04254  -0.02675
  Beta virt. eigenvalues --   -0.02014  -0.01813  -0.01548  -0.01236  -0.00873
  Beta virt. eigenvalues --   -0.00444   0.00093   0.00323   0.00704   0.00753

 Mulliken charges and spin densities:
               1          2
     1  Na   0.130449  -0.062782
     2  Na   0.085374   0.428173
     3  Na  -0.029433  -0.038873
     4  Na  -0.341104   0.758191
     5  Na   0.319712   0.095498
     6  Na  -0.242733  -0.083240
     7  Na   0.077735  -0.096967
 Sum of Mulliken charges =  -0.00000   1.00000

 Dipole moment (field-independent basis, Debye):
    X=             -0.5028    Y=             -0.1866    Z=             -0.0054  Tot=              0.5363
 Quadrupole moment (field-independent basis, Debye-Ang):
   XX=            -51.3940   YY=            -66.0764   ZZ=            -76.0450
   XY=             -1.3517   XZ=             -0.8031   YZ=             -0.3894

 Normal termination of Gaussian 16 at Thu Dec  7 11:28:32 2023.
