 Gaussian 16, Revision B.01,
 Gaussian 16:  ES64L-G16RevB.01 20-Dec-2017

 -------------------------
 #P B3LYP/6-311+g(d) force
 -------------------------

 -----
 DPGEN
 -----
 Symbolic Z-matrix:
 Charge =  0 Multiplicity = 2

                         Standard orientation:
 ---------------------------------------------------------------------
 Center     Atomic      Atomic             Coordinates (Angstroms)
 Number     Number       Type             X           Y           Z
 ---------------------------------------------------------------------
      1         11           0       -0.240731    1.290039    0.332148
      2         11           0        2.872108    3.118881   -0.971799
      3         11           0        4.236078   -2.729374    0.991145
      4         11           0        3.388090    0.170484    0.005477
      5         11           0       -1.655202   -2.226989   -1.353619
      6         11           0       -4.512700   -0.451173   -1.146610
      7         11           0       -4.087643    0.828132    2.143258
 ---------------------------------------------------------------------

 SCF Done:  E(UB3LYP) =  -1136.10201772     A.U. after   32 cycles

 The electronic state is 2-A.
 Alpha  occ. eigenvalues --  -38.46134 -38.45989 -38.45332 -38.45167 -38.44650
 Alpha  occ. eigenvalues --  -38.42895 -38.42203  -2.21852  -2.21763  -2.21119
 Alpha  occ. eigenvalues --   -2.20961  -2.20446  -2.18773  -2.18008  -1.15562
 Alpha  occ. eigenvalues --   -1.15552  -1.15446  -1.15433  -1.15426  -1.15408
 Alpha  occ. eigenvalues --   -1.14768  -1.14764  -1.14733  -1.14606  -1.14599
 Alpha  occ. eigenvalues --   -1.14571  -1.14148  -1.14104  -1.14053  -1.12477
 Alpha  occ. eigenvalues --   -1.12453  -1.12400  -1.11662  -1.11654  -1.11649
 Alpha  occ. eigenvalues --   -0.16391  -0.14496  -0.11933  -0.10832
 Alpha virt. eigenvalues --   -0.07671  -0.05629  -0.04302  -0.03724  -0.03387
 Alpha virt. eigenvalues --   -0.03156  -0.02074  -0.01560  -0.01422  -0.00714
 Alpha virt. eigenvalues --   -0.00554  -0.00434  -0.00263   0.00164   0.00357

  Beta  occ. eigenvalues --  -38.46138 -38.45987 -38.45257 -38.45066 -38.44646
  Beta  occ. eigenvalues --  -38.42890 -38.42172  -2.21860  -2.21766  -2.20981
  Beta  occ. eigenvalues --   -2.20772  -2.20438  -2.18766  -2.17951  -1.15568
  Beta  occ. eigenvalues --   -1.15552  -1.15454  -1.15439  -1.15420  -1.15378
  Beta  occ. eigenvalues --   -1.14674  -1.14671  -1.14639  -1.14475  -1.14470
  Beta  occ. eigenvalues --   -1.14447  -1.14144  -1.14098  -1.14047  -1.12474
  Beta  occ. eigenvalues --   -1.12450  -1.12379  -1.11621  -1.11616  -1.11612
  Beta  occ. eigenvalues --   -0.15845  -0.14103  -0.10525
  Beta virt. eigenvalues --   -0.08110  -0.07617  -0.05127  -0.04190  -0.03516
  Beta virt. eigenvalues --   -0.03116  -0.02684  -0.01708  -0.01280  -0.01136
  Beta virt. eigenvalues --   -0.00621  -0.00346  -0.00326   0.00039   0.00271

 Mulliken charges and spin densities:
               1          2
     1  Na  -1.035348   0.029590
     2  Na   2.645710   0.024559
     3  Na  -0.382926  -0.143857
     4  Na  -1.882918   0.214889
     5  Na   0.189566   0.327658
     6  Na   0.108340   0.000655
     7  Na   0.357576   0.546507
 Sum of Mulliken charges =  -0.00000   1.00000

 Dipole moment (field-independent basis, Debye):
    X=             -3.5676    Y=              1.3342    Z=             -0.9197  Tot=              3.9184
 Quadrupole moment (field-independent basis, Debye-Ang):
   XX=            -64.4932   YY=            -69.5133   ZZ=            -69.6407
   XY=             10.1791   XZ=             -0.9902   YZ=             -2.1004

 Normal termination of Gaussian 16 at Fri Dec  8 18:59:19 2023.
