 Gaussian 16, Revision B.01,
 Gaussian 16:  ES64L-G16RevB.01 20-Dec-2017

 -------------------------
 #P B3LYP/6-311+g(d) force
 -------------------------

 -----
 DPGEN
 -----
 Symbolic Z-matrix:
 Charge =  0 Multiplicity = 2

                         Standard orientation:
 ---------------------------------------------------------------------
 Center     Atomic      Atomic             Coordinates (Angstroms)
 Number     Number       Type             X           Y           Z
 ---------------------------------------------------------------------
      1         11           0       -3.772171    1.275711    0.542423
      2         11           0        2.205893    3.342671    0.330087
      3         11           0       -3.660652   -1.695100   -0.460109
      4         11           0       -0.675197    3.743389   -0.371964
      5         11           0        2.463019   -2.957260    0.543461
      6         11           0       -0.596570   -3.457232   -0.086437
      7         11           0        4.035678   -0.252179   -0.497461
 ---------------------------------------------------------------------

 SCF Done:  E(UB3LYP) =  -1136.10735481     A.U. after   20 cycles

 The electronic state is 2-A.
 Alpha  occ. eigenvalues --  -38.44680 -38.44679 -38.44668 -38.44525 -38.44456
 Alpha  occ. eigenvalues --  -38.44387 -38.44022  -2.20483  -2.20477  -2.20469
 Alpha  occ. eigenvalues --   -2.20335  -2.20256  -2.20199  -2.19848  -1.14248
 Alpha  occ. eigenvalues --   -1.14228  -1.14147  -1.14138  -1.14138  -1.14120
 Alpha  occ. eigenvalues --   -1.14114  -1.14101  -1.14049  -1.13982  -1.13970
 Alpha  occ. eigenvalues --   -1.13941  -1.13937  -1.13903  -1.13896  -1.13882
 Alpha  occ. eigenvalues --   -1.13865  -1.13823  -1.13493  -1.13486  -1.13473
 Alpha  occ. eigenvalues --   -0.15625  -0.13905  -0.13835  -0.10889
 Alpha virt. eigenvalues --   -0.07646  -0.04808  -0.04224  -0.03558  -0.03398
 Alpha virt. eigenvalues --   -0.02545  -0.02518  -0.01781  -0.01608  -0.00585
 Alpha virt. eigenvalues --   -0.00147   0.00029   0.00207   0.00294   0.00385

  Beta  occ. eigenvalues --  -38.44681 -38.44665 -38.44618 -38.44500 -38.44391
  Beta  occ. eigenvalues --  -38.44375 -38.43951  -2.20485  -2.20461  -2.20380
  Beta  occ. eigenvalues --   -2.20291  -2.20214  -2.20106  -2.19716  -1.14214
  Beta  occ. eigenvalues --   -1.14196  -1.14155  -1.14131  -1.14126  -1.14101
  Beta  occ. eigenvalues --   -1.14057  -1.14043  -1.14000  -1.13955  -1.13944
  Beta  occ. eigenvalues --   -1.13899  -1.13895  -1.13885  -1.13871  -1.13798
  Beta  occ. eigenvalues --   -1.13784  -1.13757  -1.13407  -1.13400  -1.13388
  Beta  occ. eigenvalues --   -0.15073  -0.13205  -0.13121
  Beta virt. eigenvalues --   -0.07766  -0.07648  -0.04403  -0.03863  -0.03170
  Beta virt. eigenvalues --   -0.03025  -0.02362  -0.02259  -0.01668  -0.01509
  Beta virt. eigenvalues --   -0.00155  -0.00028   0.00251   0.00258   0.00361

 Mulliken charges and spin densities:
               1          2
     1  Na  -0.155887   0.207274
     2  Na   0.020334   0.030427
     3  Na   0.221645   0.024712
     4  Na  -0.150150   0.094417
     5  Na   0.056690  -0.038112
     6  Na   0.101172   0.298625
     7  Na  -0.093806   0.382657
 Sum of Mulliken charges =  -0.00000   1.00000

 Dipole moment (field-independent basis, Debye):
    X=             -0.2718    Y=              0.5633    Z=              0.0036  Tot=              0.6255
 Quadrupole moment (field-independent basis, Debye-Ang):
   XX=            -63.2260   YY=            -67.0018   ZZ=            -71.6300
   XY=              0.8564   XZ=              1.4751   YZ=              0.5918

 Normal termination of Gaussian 16 at Mon Dec  4 00:23:04 2023.
