 Gaussian 16, Revision B.01,
 Gaussian 16:  ES64L-G16RevB.01 20-Dec-2017

 -------------------------
 #P B3LYP/6-311+g(d) force
 -------------------------

 -----
 DPGEN
 -----
 Symbolic Z-matrix:
 Charge =  0 Multiplicity = 2

                         Standard orientation:
 ---------------------------------------------------------------------
 Center     Atomic      Atomic             Coordinates (Angstroms)
 Number     Number       Type             X           Y           Z
 ---------------------------------------------------------------------
      1         11           0       -0.065441   -0.812222   -1.776988
      2         11           0        3.967328   -0.752374   -0.318164
      3         11           0       -2.320319    1.460737   -1.036830
      4         11           0       -1.370709    0.797662    1.917796
      5         11           0        1.130815   -1.074645    1.341904
      6         11           0        1.449042    2.286109   -0.119095
      7         11           0       -2.790716   -1.905266   -0.008624
 ---------------------------------------------------------------------

 SCF Done:  E(UB3LYP) =  -1136.12532643     A.U. after   24 cycles

 The electronic state is 2-A.
 Alpha  occ. eigenvalues --  -38.44902 -38.44183 -38.44051 -38.43839 -38.43549
 Alpha  occ. eigenvalues --  -38.43507 -38.43315  -2.20678  -2.20070  -2.19938
 Alpha  occ. eigenvalues --   -2.19755  -2.19474  -2.19333  -2.19115  -1.14361
 Alpha  occ. eigenvalues --   -1.14332  -1.14310  -1.13775  -1.13749  -1.13677
 Alpha  occ. eigenvalues --   -1.13636  -1.13597  -1.13525  -1.13467  -1.13420
 Alpha  occ. eigenvalues --   -1.13357  -1.13158  -1.13117  -1.13057  -1.12997
 Alpha  occ. eigenvalues --   -1.12992  -1.12981  -1.12805  -1.12792  -1.12727
 Alpha  occ. eigenvalues --   -0.18598  -0.13614  -0.11642  -0.10974
 Alpha virt. eigenvalues --   -0.06668  -0.05169  -0.04130  -0.03186  -0.02885
 Alpha virt. eigenvalues --   -0.02568  -0.02291  -0.01109  -0.00675  -0.00117
 Alpha virt. eigenvalues --    0.00201   0.00258   0.00334   0.00662   0.00803

  Beta  occ. eigenvalues --  -38.44902 -38.44132 -38.44021 -38.43790 -38.43506
  Beta  occ. eigenvalues --  -38.43482 -38.43309  -2.20679  -2.19977  -2.19885
  Beta  occ. eigenvalues --   -2.19669  -2.19353  -2.19334  -2.19105  -1.14358
  Beta  occ. eigenvalues --   -1.14333  -1.14310  -1.13718  -1.13668  -1.13613
  Beta  occ. eigenvalues --   -1.13593  -1.13546  -1.13489  -1.13407  -1.13336
  Beta  occ. eigenvalues --   -1.13297  -1.13064  -1.13043  -1.13001  -1.12988
  Beta  occ. eigenvalues --   -1.12976  -1.12954  -1.12796  -1.12774  -1.12722
  Beta  occ. eigenvalues --   -0.17788  -0.13475  -0.10826
  Beta virt. eigenvalues --   -0.07508  -0.06504  -0.05099  -0.03578  -0.02913
  Beta virt. eigenvalues --   -0.02288  -0.02123  -0.01753  -0.00979  -0.00331
  Beta virt. eigenvalues --   -0.00109   0.00221   0.00274   0.00486   0.00723

 Mulliken charges and spin densities:
               1          2
     1  Na  -0.163831   0.553187
     2  Na   0.188802   0.024147
     3  Na   0.129964   0.083430
     4  Na   0.358650   0.420572
     5  Na  -0.180593   0.058643
     6  Na  -0.358689  -0.019705
     7  Na   0.025696  -0.120273
 Sum of Mulliken charges =  -0.00000   1.00000

 Dipole moment (field-independent basis, Debye):
    X=              0.6573    Y=              0.0667    Z=             -0.3317  Tot=              0.7393
 Quadrupole moment (field-independent basis, Debye-Ang):
   XX=            -49.1439   YY=            -75.0212   ZZ=            -69.0626
   XY=             -0.1336   XZ=             -2.1686   YZ=             -2.5527

 Normal termination of Gaussian 16 at Thu Dec  7 08:10:36 2023.
