 Gaussian 16, Revision B.01,
 Gaussian 16:  ES64L-G16RevB.01 20-Dec-2017

 -------------------------
 #P B3LYP/6-311+g(d) force
 -------------------------

 -----
 DPGEN
 -----
 Symbolic Z-matrix:
 Charge =  0 Multiplicity = 2

                         Standard orientation:
 ---------------------------------------------------------------------
 Center     Atomic      Atomic             Coordinates (Angstroms)
 Number     Number       Type             X           Y           Z
 ---------------------------------------------------------------------
      1         11           0       -0.007102   -0.303113   -1.824299
      2         11           0        0.447410    0.038064    1.915050
      3         11           0       -1.499782   -2.319225    0.208130
      4         11           0       -2.878588    0.602865   -0.146430
      5         11           0       -0.558871    2.699783    0.172763
      6         11           0        1.846582   -2.053652    0.025689
      7         11           0        2.650350    1.335277   -0.350903
 ---------------------------------------------------------------------

 SCF Done:  E(UB3LYP) =  -1136.13815916     A.U. after   19 cycles

 The electronic state is 2-A.
 Alpha  occ. eigenvalues --  -38.43646 -38.43502 -38.43499 -38.43405 -38.43405
 Alpha  occ. eigenvalues --  -38.43275 -38.43233  -2.19513  -2.19471  -2.19403
 Alpha  occ. eigenvalues --   -2.19391  -2.19342  -2.19190  -2.19124  -1.13224
 Alpha  occ. eigenvalues --   -1.13192  -1.13174  -1.13152  -1.13140  -1.13123
 Alpha  occ. eigenvalues --   -1.13102  -1.13085  -1.13075  -1.13047  -1.13031
 Alpha  occ. eigenvalues --   -1.13022  -1.12984  -1.12959  -1.12950  -1.12850
 Alpha  occ. eigenvalues --   -1.12844  -1.12808  -1.12795  -1.12778  -1.12747
 Alpha  occ. eigenvalues --   -0.19353  -0.13093  -0.12751  -0.11166
 Alpha virt. eigenvalues --   -0.05193  -0.05016  -0.04588  -0.03272  -0.03121
 Alpha virt. eigenvalues --   -0.02725  -0.01218  -0.00963  -0.00083   0.00044
 Alpha virt. eigenvalues --    0.00045   0.00377   0.00901   0.00948   0.00982

  Beta  occ. eigenvalues --  -38.43637 -38.43500 -38.43413 -38.43395 -38.43326
  Beta  occ. eigenvalues --  -38.43267 -38.43228  -2.19500  -2.19390  -2.19330
  Beta  occ. eigenvalues --   -2.19313  -2.19258  -2.19181  -2.19118  -1.13197
  Beta  occ. eigenvalues --   -1.13157  -1.13144  -1.13121  -1.13097  -1.13081
  Beta  occ. eigenvalues --   -1.13056  -1.13026  -1.13015  -1.12975  -1.12959
  Beta  occ. eigenvalues --   -1.12950  -1.12930  -1.12925  -1.12884  -1.12836
  Beta  occ. eigenvalues --   -1.12811  -1.12796  -1.12786  -1.12750  -1.12749
  Beta  occ. eigenvalues --   -0.18588  -0.12834  -0.12485
  Beta virt. eigenvalues --   -0.07189  -0.05180  -0.04993  -0.04565  -0.02460
  Beta virt. eigenvalues --   -0.02286  -0.01644  -0.01139  -0.00902  -0.00063
  Beta virt. eigenvalues --   -0.00019   0.00119   0.00396   0.00941   0.00948

 Mulliken charges and spin densities:
               1          2
     1  Na  -0.513289   0.622451
     2  Na  -0.517815   0.632811
     3  Na   0.256537  -0.025657
     4  Na   0.015681  -0.061451
     5  Na   0.131033  -0.052482
     6  Na   0.476993  -0.049089
     7  Na   0.150860  -0.066582
 Sum of Mulliken charges =  -0.00000   1.00000

 Dipole moment (field-independent basis, Debye):
    X=              0.1841    Y=              0.0176    Z=              0.0098  Tot=              0.1852
 Quadrupole moment (field-independent basis, Debye-Ang):
   XX=            -59.3582   YY=            -63.5088   ZZ=            -72.0244
   XY=              0.5557   XZ=             -0.9178   YZ=             -0.8235

 Normal termination of Gaussian 16 at Wed Dec  6 01:15:26 2023.
