 Gaussian 16, Revision B.01,
 Gaussian 16:  ES64L-G16RevB.01 20-Dec-2017

 -------------------------
 #P B3LYP/6-311+g(d) force
 -------------------------

 -----
 DPGEN
 -----
 Symbolic Z-matrix:
 Charge =  0 Multiplicity = 2

                         Standard orientation:
 ---------------------------------------------------------------------
 Center     Atomic      Atomic             Coordinates (Angstroms)
 Number     Number       Type             X           Y           Z
 ---------------------------------------------------------------------
      1         11           0        0.407878    0.096878   -1.652915
      2         11           0        0.469051   -2.797653   -0.430341
      3         11           0        3.005318   -0.365494    0.194785
      4         11           0       -0.253541   -0.333194    1.961856
      5         11           0       -2.751023   -1.272219    0.073435
      6         11           0       -2.254990    2.105436   -0.328248
      7         11           0        1.377308    2.566245    0.181429
 ---------------------------------------------------------------------

 SCF Done:  E(UB3LYP) =  -1136.13905687     A.U. after   19 cycles

 The electronic state is 2-A.
 Alpha  occ. eigenvalues --  -38.43856 -38.43783 -38.43646 -38.43500 -38.43442
 Alpha  occ. eigenvalues --  -38.43270 -38.43140  -2.19731  -2.19635  -2.19466
 Alpha  occ. eigenvalues --   -2.19414  -2.19307  -2.19156  -2.19143  -1.13428
 Alpha  occ. eigenvalues --   -1.13392  -1.13367  -1.13338  -1.13297  -1.13274
 Alpha  occ. eigenvalues --   -1.13142  -1.13124  -1.13105  -1.13083  -1.13039
 Alpha  occ. eigenvalues --   -1.13034  -1.13017  -1.12965  -1.12931  -1.12918
 Alpha  occ. eigenvalues --   -1.12814  -1.12794  -1.12777  -1.12756  -1.12730
 Alpha  occ. eigenvalues --   -0.18856  -0.13107  -0.12535  -0.10777
 Alpha virt. eigenvalues --   -0.05431  -0.05218  -0.04699  -0.03263  -0.02909
 Alpha virt. eigenvalues --   -0.02479  -0.01404  -0.01089  -0.00337  -0.00241
 Alpha virt. eigenvalues --    0.00007   0.00371   0.00839   0.00903   0.00905

  Beta  occ. eigenvalues --  -38.43850 -38.43779 -38.43641 -38.43437 -38.43413
  Beta  occ. eigenvalues --  -38.43256 -38.43073  -2.19723  -2.19631  -2.19459
  Beta  occ. eigenvalues --   -2.19301  -2.19255  -2.19133  -2.19023  -1.13421
  Beta  occ. eigenvalues --   -1.13369  -1.13356  -1.13324  -1.13280  -1.13273
  Beta  occ. eigenvalues --   -1.13127  -1.13115  -1.13101  -1.13008  -1.12980
  Beta  occ. eigenvalues --   -1.12949  -1.12927  -1.12925  -1.12916  -1.12876
  Beta  occ. eigenvalues --   -1.12775  -1.12759  -1.12723  -1.12678  -1.12653
  Beta  occ. eigenvalues --   -0.18129  -0.12872  -0.12274
  Beta virt. eigenvalues --   -0.06871  -0.05385  -0.05206  -0.04649  -0.02459
  Beta virt. eigenvalues --   -0.02158  -0.01445  -0.01306  -0.01015  -0.00369
  Beta virt. eigenvalues --   -0.00293   0.00138   0.00398   0.00883   0.00900

 Mulliken charges and spin densities:
               1          2
     1  Na  -0.222502   0.519984
     2  Na   0.221009  -0.061292
     3  Na   0.237995  -0.001569
     4  Na  -0.407694   0.693395
     5  Na   0.187305  -0.041262
     6  Na  -0.036821  -0.077290
     7  Na   0.020709  -0.031967
 Sum of Mulliken charges =  -0.00000   1.00000

 Dipole moment (field-independent basis, Debye):
    X=              0.0004    Y=             -0.0082    Z=              0.1600  Tot=              0.1602
 Quadrupole moment (field-independent basis, Debye-Ang):
   XX=            -57.2817   YY=            -62.2527   ZZ=            -74.0451
   XY=             -0.0659   XZ=              1.5378   YZ=              0.8000

 Normal termination of Gaussian 16 at Fri Dec  8 06:35:06 2023.
