 Gaussian 16, Revision B.01,
 Gaussian 16:  ES64L-G16RevB.01 20-Dec-2017

 -------------------------
 #P B3LYP/6-311+g(d) force
 -------------------------

 -----
 DPGEN
 -----
 Symbolic Z-matrix:
 Charge =  0 Multiplicity = 2

                         Standard orientation:
 ---------------------------------------------------------------------
 Center     Atomic      Atomic             Coordinates (Angstroms)
 Number     Number       Type             X           Y           Z
 ---------------------------------------------------------------------
      1         11           0       -0.962938   -0.406181    1.696195
      2         11           0       -1.850618   -2.987922   -0.900127
      3         11           0        1.578631   -1.565023    0.451985
      4         11           0        2.078456    2.042234   -0.266735
      5         11           0       -1.386992    2.961475   -0.270695
      6         11           0        4.500974   -0.444953   -0.399519
      7         11           0       -3.957512    0.400369   -0.311103
 ---------------------------------------------------------------------

 SCF Done:  E(UB3LYP) =  -1136.12177869     A.U. after   21 cycles

 The electronic state is 2-A.
 Alpha  occ. eigenvalues --  -38.45036 -38.44423 -38.44417 -38.44158 -38.43749
 Alpha  occ. eigenvalues --  -38.43619 -38.43454  -2.20771  -2.20294  -2.20209
 Alpha  occ. eigenvalues --   -2.19959  -2.19594  -2.19511  -2.19238  -1.14464
 Alpha  occ. eigenvalues --   -1.14425  -1.14409  -1.14032  -1.13935  -1.13909
 Alpha  occ. eigenvalues --   -1.13888  -1.13884  -1.13829  -1.13631  -1.13597
 Alpha  occ. eigenvalues --   -1.13574  -1.13286  -1.13236  -1.13220  -1.13212
 Alpha  occ. eigenvalues --   -1.13181  -1.13081  -1.12921  -1.12896  -1.12882
 Alpha  occ. eigenvalues --   -0.17147  -0.13972  -0.12191  -0.10476
 Alpha virt. eigenvalues --   -0.06983  -0.05489  -0.04382  -0.03597  -0.02919
 Alpha virt. eigenvalues --   -0.02311  -0.01952  -0.01486  -0.01052  -0.00677
 Alpha virt. eigenvalues --   -0.00489   0.00166   0.00399   0.00549   0.00691

  Beta  occ. eigenvalues --  -38.45045 -38.44410 -38.44368 -38.44091 -38.43688
  Beta  occ. eigenvalues --  -38.43594 -38.43451  -2.20788  -2.20201  -2.20197
  Beta  occ. eigenvalues --   -2.19833  -2.19481  -2.19472  -2.19236  -1.14478
  Beta  occ. eigenvalues --   -1.14433  -1.14411  -1.13945  -1.13907  -1.13876
  Beta  occ. eigenvalues --   -1.13866  -1.13821  -1.13801  -1.13544  -1.13515
  Beta  occ. eigenvalues --   -1.13487  -1.13210  -1.13167  -1.13164  -1.13150
  Beta  occ. eigenvalues --   -1.13143  -1.13040  -1.12922  -1.12894  -1.12867
  Beta  occ. eigenvalues --   -0.16525  -0.13338  -0.12008
  Beta virt. eigenvalues --   -0.07051  -0.06737  -0.05368  -0.03950  -0.03166
  Beta virt. eigenvalues --   -0.02564  -0.02070  -0.01525  -0.01081  -0.00983
  Beta virt. eigenvalues --   -0.00633  -0.00156   0.00325   0.00541   0.00655

 Mulliken charges and spin densities:
               1          2
     1  Na   0.733462   0.198611
     2  Na   0.014115  -0.004859
     3  Na  -1.000703  -0.057385
     4  Na  -0.213865   0.049264
     5  Na  -0.241749  -0.068654
     6  Na   0.758831   0.391354
     7  Na  -0.050092   0.491668
 Sum of Mulliken charges =  -0.00000   1.00000

 Dipole moment (field-independent basis, Debye):
    X=             -0.0237    Y=             -0.5692    Z=             -0.2178  Tot=              0.6099
 Quadrupole moment (field-independent basis, Debye-Ang):
   XX=            -65.7350   YY=            -65.3954   ZZ=            -68.6622
   XY=              1.8238   XZ=             -0.4969   YZ=              2.1754

 Normal termination of Gaussian 16 at Sun Dec  3 15:03:55 2023.
