 Gaussian 16, Revision B.01,
 Gaussian 16:  ES64L-G16RevB.01 20-Dec-2017

 -------------------------
 #P B3LYP/6-311+g(d) force
 -------------------------

 -----
 DPGEN
 -----
 Symbolic Z-matrix:
 Charge =  0 Multiplicity = 2

                         Standard orientation:
 ---------------------------------------------------------------------
 Center     Atomic      Atomic             Coordinates (Angstroms)
 Number     Number       Type             X           Y           Z
 ---------------------------------------------------------------------
      1         11           0        1.496695   -1.931553    1.122661
      2         11           0       -1.097408    0.771260    1.660101
      3         11           0        2.017225    2.333064    0.042847
      4         11           0       -3.495723   -0.731622   -0.664852
      5         11           0       -1.169587   -2.797392   -0.551694
      6         11           0        3.949433   -0.494014   -1.000116
      7         11           0       -1.700635    2.850257   -0.608946
 ---------------------------------------------------------------------

 SCF Done:  E(UB3LYP) =  -1136.12329455     A.U. after   19 cycles

 The electronic state is 2-A.
 Alpha  occ. eigenvalues --  -38.44696 -38.44519 -38.44183 -38.44029 -38.43989
 Alpha  occ. eigenvalues --  -38.43790 -38.43615  -2.20457  -2.20323  -2.20050
 Alpha  occ. eigenvalues --   -2.19862  -2.19786  -2.19634  -2.19451  -1.14158
 Alpha  occ. eigenvalues --   -1.14134  -1.14074  -1.14034  -1.13990  -1.13944
 Alpha  occ. eigenvalues --   -1.13718  -1.13703  -1.13661  -1.13579  -1.13528
 Alpha  occ. eigenvalues --   -1.13516  -1.13444  -1.13430  -1.13417  -1.13289
 Alpha  occ. eigenvalues --   -1.13271  -1.13248  -1.13125  -1.13109  -1.13072
 Alpha  occ. eigenvalues --   -0.17203  -0.13530  -0.12825  -0.10347
 Alpha virt. eigenvalues --   -0.06360  -0.06105  -0.04082  -0.03896  -0.03124
 Alpha virt. eigenvalues --   -0.01885  -0.01635  -0.01504  -0.01188  -0.00785
 Alpha virt. eigenvalues --   -0.00248   0.00266   0.00429   0.00553   0.00671

  Beta  occ. eigenvalues --  -38.44692 -38.44519 -38.44136 -38.44022 -38.43939
  Beta  occ. eigenvalues --  -38.43736 -38.43580  -2.20453  -2.20325  -2.19965
  Beta  occ. eigenvalues --   -2.19856  -2.19693  -2.19535  -2.19388  -1.14155
  Beta  occ. eigenvalues --   -1.14131  -1.14054  -1.14028  -1.13991  -1.13941
  Beta  occ. eigenvalues --   -1.13664  -1.13636  -1.13601  -1.13555  -1.13527
  Beta  occ. eigenvalues --   -1.13495  -1.13380  -1.13365  -1.13355  -1.13219
  Beta  occ. eigenvalues --   -1.13212  -1.13178  -1.13087  -1.13059  -1.13018
  Beta  occ. eigenvalues --   -0.16666  -0.12948  -0.12595
  Beta virt. eigenvalues --   -0.06923  -0.06266  -0.05864  -0.03763  -0.03489
  Beta virt. eigenvalues --   -0.02577  -0.01494  -0.01375  -0.01238  -0.01023
  Beta virt. eigenvalues --   -0.00760   0.00034   0.00448   0.00488   0.00650

 Mulliken charges and spin densities:
               1          2
     1  Na  -0.304284   0.141817
     2  Na   0.986507   0.209159
     3  Na  -0.499604   0.007389
     4  Na  -0.228010   0.407400
     5  Na   0.001277  -0.063829
     6  Na   0.188512   0.314175
     7  Na  -0.144398  -0.016111
 Sum of Mulliken charges =  -0.00000   1.00000

 Dipole moment (field-independent basis, Debye):
    X=             -0.1865    Y=              0.7332    Z=             -0.1928  Tot=              0.7807
 Quadrupole moment (field-independent basis, Debye-Ang):
   XX=            -66.9014   YY=            -63.4719   ZZ=            -69.8551
   XY=             -4.4121   XZ=             -0.3302   YZ=             -0.5463

 Normal termination of Gaussian 16 at Sun Dec  3 15:38:03 2023.
