 Gaussian 16, Revision B.01,
 Gaussian 16:  ES64L-G16RevB.01 20-Dec-2017

 -------------------------
 #P B3LYP/6-311+g(d) force
 -------------------------

 -----
 DPGEN
 -----
 Symbolic Z-matrix:
 Charge =  0 Multiplicity = 2

                         Standard orientation:
 ---------------------------------------------------------------------
 Center     Atomic      Atomic             Coordinates (Angstroms)
 Number     Number       Type             X           Y           Z
 ---------------------------------------------------------------------
      1         11           0       -3.111162    0.316421   -0.043280
      2         11           0       -1.251093   -2.425105    0.029527
      3         11           0       -0.269142    2.836909   -0.279585
      4         11           0        2.664476    1.323995    0.282187
      5         11           0       -0.389699    0.123403    1.850350
      6         11           0        0.058563   -0.104478   -1.796310
      7         11           0        2.298055   -2.071145   -0.042889
 ---------------------------------------------------------------------

 SCF Done:  E(UB3LYP) =  -1136.14005630     A.U. after   19 cycles

 The electronic state is 2-A.
 Alpha  occ. eigenvalues --  -38.43968 -38.43713 -38.43503 -38.43373 -38.43324
 Alpha  occ. eigenvalues --  -38.43226 -38.43224  -2.19826  -2.19568  -2.19341
 Alpha  occ. eigenvalues --   -2.19327  -2.19239  -2.19198  -2.19098  -1.13508
 Alpha  occ. eigenvalues --   -1.13491  -1.13465  -1.13242  -1.13235  -1.13219
 Alpha  occ. eigenvalues --   -1.13044  -1.13017  -1.12997  -1.12989  -1.12980
 Alpha  occ. eigenvalues --   -1.12957  -1.12942  -1.12887  -1.12876  -1.12847
 Alpha  occ. eigenvalues --   -1.12825  -1.12806  -1.12757  -1.12751  -1.12722
 Alpha  occ. eigenvalues --   -0.18990  -0.13123  -0.12546  -0.10811
 Alpha virt. eigenvalues --   -0.05528  -0.05066  -0.04653  -0.03227  -0.02916
 Alpha virt. eigenvalues --   -0.02505  -0.01492  -0.01032  -0.00236  -0.00177
 Alpha virt. eigenvalues --    0.00002   0.00368   0.00832   0.00915   0.00927

  Beta  occ. eigenvalues --  -38.43963 -38.43708 -38.43502 -38.43315 -38.43293
  Beta  occ. eigenvalues --  -38.43216 -38.43145  -2.19822  -2.19561  -2.19341
  Beta  occ. eigenvalues --   -2.19227  -2.19181  -2.19086  -2.19052  -1.13503
  Beta  occ. eigenvalues --   -1.13476  -1.13453  -1.13237  -1.13220  -1.13208
  Beta  occ. eigenvalues --   -1.13015  -1.12998  -1.12984  -1.12972  -1.12905
  Beta  occ. eigenvalues --   -1.12891  -1.12847  -1.12839  -1.12819  -1.12800
  Beta  occ. eigenvalues --   -1.12754  -1.12729  -1.12721  -1.12704  -1.12684
  Beta  occ. eigenvalues --   -0.18243  -0.12877  -0.12292
  Beta virt. eigenvalues --   -0.06885  -0.05486  -0.05070  -0.04626  -0.02414
  Beta virt. eigenvalues --   -0.02127  -0.01452  -0.01408  -0.00967  -0.00278
  Beta virt. eigenvalues --   -0.00231   0.00128   0.00386   0.00880   0.00905

 Mulliken charges and spin densities:
               1          2
     1  Na   0.279023  -0.084463
     2  Na   0.225375  -0.090974
     3  Na   0.117964  -0.085179
     4  Na   0.047220  -0.037954
     5  Na  -0.383245   0.697249
     6  Na  -0.315319   0.693110
     7  Na   0.028981  -0.091790
 Sum of Mulliken charges =  -0.00000   1.00000

 Dipole moment (field-independent basis, Debye):
    X=             -0.1258    Y=              0.0538    Z=              0.0458  Tot=              0.1442
 Quadrupole moment (field-independent basis, Debye-Ang):
   XX=            -56.3906   YY=            -63.1514   ZZ=            -73.9506
   XY=             -0.6685   XZ=              1.1332   YZ=             -0.4213

 Normal termination of Gaussian 16 at Fri Dec  8 00:25:58 2023.
