 Gaussian 16, Revision B.01,
 Gaussian 16:  ES64L-G16RevB.01 20-Dec-2017

 -------------------------
 #P B3LYP/6-311+g(d) force
 -------------------------

 -----
 DPGEN
 -----
 Symbolic Z-matrix:
 Charge =  0 Multiplicity = 2

                         Standard orientation:
 ---------------------------------------------------------------------
 Center     Atomic      Atomic             Coordinates (Angstroms)
 Number     Number       Type             X           Y           Z
 ---------------------------------------------------------------------
      1         11           0        3.702112    1.273306    1.162670
      2         11           0        1.205306    3.275825   -0.024390
      3         11           0       -2.204793    2.960013   -0.834423
      4         11           0       -4.733391    0.202334    0.291312
      5         11           0        3.860197   -1.636110   -0.674459
      6         11           0       -2.625216   -2.914949    0.641720
      7         11           0        0.795785   -3.160419   -0.562430
 ---------------------------------------------------------------------

 SCF Done:  E(UB3LYP) =  -1136.10485482     A.U. after   33 cycles

 The electronic state is 2-A.
 Alpha  occ. eigenvalues --  -38.45423 -38.45215 -38.45203 -38.44882 -38.44161
 Alpha  occ. eigenvalues --  -38.43961 -38.43866  -2.21197  -2.20959  -2.20936
 Alpha  occ. eigenvalues --   -2.20655  -2.19932  -2.19744  -2.19683  -1.14874
 Alpha  occ. eigenvalues --   -1.14862  -1.14840  -1.14634  -1.14626  -1.14616
 Alpha  occ. eigenvalues --   -1.14608  -1.14593  -1.14558  -1.14338  -1.14330
 Alpha  occ. eigenvalues --   -1.14290  -1.13599  -1.13589  -1.13556  -1.13411
 Alpha  occ. eigenvalues --   -1.13405  -1.13373  -1.13333  -1.13329  -1.13319
 Alpha  occ. eigenvalues --   -0.15501  -0.13784  -0.13340  -0.10649
 Alpha virt. eigenvalues --   -0.08118  -0.04857  -0.04732  -0.03568  -0.03469
 Alpha virt. eigenvalues --   -0.02297  -0.02227  -0.01544  -0.01273  -0.01199
 Alpha virt. eigenvalues --   -0.01011  -0.00333   0.00099   0.00367   0.00668

  Beta  occ. eigenvalues --  -38.45411 -38.45206 -38.45181 -38.44858 -38.44114
  Beta  occ. eigenvalues --  -38.43921 -38.43806  -2.21180  -2.20945  -2.20896
  Beta  occ. eigenvalues --   -2.20617  -2.19849  -2.19671  -2.19573  -1.14867
  Beta  occ. eigenvalues --   -1.14855  -1.14793  -1.14634  -1.14622  -1.14592
  Beta  occ. eigenvalues --   -1.14571  -1.14558  -1.14530  -1.14318  -1.14310
  Beta  occ. eigenvalues --   -1.14218  -1.13544  -1.13535  -1.13489  -1.13361
  Beta  occ. eigenvalues --   -1.13356  -1.13324  -1.13258  -1.13254  -1.13246
  Beta  occ. eigenvalues --   -0.14935  -0.13171  -0.12582
  Beta virt. eigenvalues --   -0.08367  -0.07522  -0.04251  -0.04224  -0.03379
  Beta virt. eigenvalues --   -0.03295  -0.02112  -0.02042  -0.01430  -0.01077
  Beta virt. eigenvalues --   -0.00870  -0.00685  -0.00226   0.00279   0.00472

 Mulliken charges and spin densities:
               1          2
     1  Na  -0.167683   0.264063
     2  Na  -0.160110   0.092260
     3  Na   0.096008   0.186827
     4  Na   0.000991   0.196827
     5  Na   0.173607   0.049557
     6  Na   0.337568   0.038369
     7  Na  -0.280380   0.172097
 Sum of Mulliken charges =  -0.00000   1.00000

 Dipole moment (field-independent basis, Debye):
    X=             -0.0572    Y=             -0.3309    Z=              0.0357  Tot=              0.3377
 Quadrupole moment (field-independent basis, Debye-Ang):
   XX=            -56.9173   YY=            -70.1944   ZZ=            -71.9266
   XY=             -2.5384   XZ=             -1.6375   YZ=             -0.4656

 Normal termination of Gaussian 16 at Sun Dec  3 14:34:38 2023.
