 Gaussian 16, Revision B.01,
 Gaussian 16:  ES64L-G16RevB.01 20-Dec-2017

 -------------------------
 #P B3LYP/6-311+g(d) force
 -------------------------

 -----
 DPGEN
 -----
 Symbolic Z-matrix:
 Charge =  0 Multiplicity = 2

                         Standard orientation:
 ---------------------------------------------------------------------
 Center     Atomic      Atomic             Coordinates (Angstroms)
 Number     Number       Type             X           Y           Z
 ---------------------------------------------------------------------
      1         11           0        1.109070    3.448169   -0.619959
      2         11           0        0.477627   -3.255922   -0.178213
      3         11           0       -1.630882    2.624930    0.944157
      4         11           0        3.631535   -2.066585    0.309587
      5         11           0       -4.013398    0.657864   -0.360533
      6         11           0       -3.447990   -2.405530   -0.014948
      7         11           0        3.874038    0.997075   -0.080091
 ---------------------------------------------------------------------

 SCF Done:  E(UB3LYP) =  -1136.10788401     A.U. after   23 cycles

 The electronic state is 2-A.
 Alpha  occ. eigenvalues --  -38.45164 -38.44680 -38.44665 -38.44485 -38.44431
 Alpha  occ. eigenvalues --  -38.44085 -38.43910  -2.20946  -2.20487  -2.20444
 Alpha  occ. eigenvalues --   -2.20317  -2.20248  -2.19910  -2.19702  -1.14630
 Alpha  occ. eigenvalues --   -1.14611  -1.14589  -1.14187  -1.14161  -1.14140
 Alpha  occ. eigenvalues --   -1.14111  -1.14098  -1.14058  -1.13969  -1.13963
 Alpha  occ. eigenvalues --   -1.13961  -1.13953  -1.13914  -1.13904  -1.13557
 Alpha  occ. eigenvalues --   -1.13550  -1.13531  -1.13354  -1.13343  -1.13323
 Alpha  occ. eigenvalues --   -0.15827  -0.14261  -0.13362  -0.10549
 Alpha virt. eigenvalues --   -0.07836  -0.04795  -0.04343  -0.03484  -0.03447
 Alpha virt. eigenvalues --   -0.02646  -0.02412  -0.01780  -0.01326  -0.00350
 Alpha virt. eigenvalues --   -0.00212  -0.00056   0.00105   0.00368   0.00588

  Beta  occ. eigenvalues --  -38.45151 -38.44659 -38.44656 -38.44454 -38.44427
  Beta  occ. eigenvalues --  -38.44019 -38.43827  -2.20927  -2.20445  -2.20436
  Beta  occ. eigenvalues --   -2.20263  -2.20249  -2.19790  -2.19548  -1.14612
  Beta  occ. eigenvalues --   -1.14602  -1.14553  -1.14156  -1.14136  -1.14112
  Beta  occ. eigenvalues --   -1.14107  -1.14091  -1.14027  -1.13944  -1.13933
  Beta  occ. eigenvalues --   -1.13928  -1.13922  -1.13906  -1.13870  -1.13477
  Beta  occ. eigenvalues --   -1.13473  -1.13446  -1.13249  -1.13239  -1.13221
  Beta  occ. eigenvalues --   -0.15364  -0.13581  -0.12621
  Beta virt. eigenvalues --   -0.07987  -0.07325  -0.04443  -0.03986  -0.03113
  Beta virt. eigenvalues --   -0.02974  -0.02450  -0.02193  -0.01722  -0.01179
  Beta virt. eigenvalues --   -0.00246   0.00016   0.00168   0.00271   0.00473

 Mulliken charges and spin densities:
               1          2
     1  Na   0.228508   0.039757
     2  Na  -0.302013   0.357257
     3  Na  -0.416092   0.108927
     4  Na   0.609279   0.001695
     5  Na  -0.064261   0.149993
     6  Na   0.219883   0.052602
     7  Na  -0.275305   0.289770
 Sum of Mulliken charges =  -0.00000   1.00000

 Dipole moment (field-independent basis, Debye):
    X=             -0.8273    Y=              0.4752    Z=             -0.0269  Tot=              0.9544
 Quadrupole moment (field-independent basis, Debye-Ang):
   XX=            -65.0555   YY=            -65.7084   ZZ=            -70.9878
   XY=              1.4950   XZ=             -0.6578   YZ=             -2.0370

 Normal termination of Gaussian 16 at Sun Dec  3 19:57:27 2023.
