 Gaussian 16, Revision B.01,
 Gaussian 16:  ES64L-G16RevB.01 20-Dec-2017

 -------------------------
 #P B3LYP/6-311+g(d) force
 -------------------------

 -----
 DPGEN
 -----
 Symbolic Z-matrix:
 Charge =  0 Multiplicity = 2

                         Standard orientation:
 ---------------------------------------------------------------------
 Center     Atomic      Atomic             Coordinates (Angstroms)
 Number     Number       Type             X           Y           Z
 ---------------------------------------------------------------------
      1         11           0       -2.734278    1.662926   -0.152517
      2         11           0       -2.395097   -1.356225   -0.043903
      3         11           0        0.080244    0.291359    1.608046
      4         11           0        3.248739   -0.248868   -0.079150
      5         11           0        1.140267    2.865597   -0.055872
      6         11           0        0.279523   -0.393272   -1.538556
      7         11           0        0.380603   -2.821517    0.261951
 ---------------------------------------------------------------------

 SCF Done:  E(UB3LYP) =  -1136.13109668     A.U. after   23 cycles

 The electronic state is 2-A.
 Alpha  occ. eigenvalues --  -38.44508 -38.43983 -38.43954 -38.43404 -38.43296
 Alpha  occ. eigenvalues --  -38.42937 -38.42730  -2.20327  -2.19801  -2.19795
 Alpha  occ. eigenvalues --   -2.19374  -2.19226  -2.18977  -2.18742  -1.14010
 Alpha  occ. eigenvalues --   -1.13985  -1.13955  -1.13525  -1.13496  -1.13467
 Alpha  occ. eigenvalues --   -1.13448  -1.13427  -1.13417  -1.13105  -1.13035
 Alpha  occ. eigenvalues --   -1.13015  -1.12954  -1.12872  -1.12834  -1.12682
 Alpha  occ. eigenvalues --   -1.12588  -1.12578  -1.12433  -1.12366  -1.12346
 Alpha  occ. eigenvalues --   -0.19113  -0.13300  -0.12644  -0.10182
 Alpha virt. eigenvalues --   -0.06021  -0.05127  -0.04744  -0.02999  -0.02683
 Alpha virt. eigenvalues --   -0.01830  -0.01783  -0.01226  -0.00528  -0.00245
 Alpha virt. eigenvalues --    0.00054   0.00341   0.00791   0.00853   0.00918

  Beta  occ. eigenvalues --  -38.44502 -38.43979 -38.43950 -38.43393 -38.43284
  Beta  occ. eigenvalues --  -38.42873 -38.42654  -2.20319  -2.19798  -2.19792
  Beta  occ. eigenvalues --   -2.19360  -2.19209  -2.18861  -2.18604  -1.13994
  Beta  occ. eigenvalues --   -1.13968  -1.13954  -1.13526  -1.13487  -1.13450
  Beta  occ. eigenvalues --   -1.13428  -1.13424  -1.13417  -1.13097  -1.13026
  Beta  occ. eigenvalues --   -1.12968  -1.12937  -1.12829  -1.12823  -1.12600
  Beta  occ. eigenvalues --   -1.12506  -1.12495  -1.12337  -1.12261  -1.12248
  Beta  occ. eigenvalues --   -0.18397  -0.13026  -0.12395
  Beta virt. eigenvalues --   -0.06316  -0.05967  -0.05101  -0.04731  -0.02216
  Beta virt. eigenvalues --   -0.01939  -0.01695  -0.01167  -0.00857  -0.00569
  Beta virt. eigenvalues --   -0.00289   0.00191   0.00385   0.00799   0.00884

 Mulliken charges and spin densities:
               1          2
     1  Na  -0.014810  -0.060230
     2  Na   0.382214   0.113504
     3  Na  -0.383561   0.558841
     4  Na   0.116719  -0.110172
     5  Na  -0.055308  -0.146086
     6  Na  -0.492178   0.612799
     7  Na   0.446925   0.031344
 Sum of Mulliken charges =  -0.00000   1.00000

 Dipole moment (field-independent basis, Debye):
    X=              0.5748    Y=              0.3760    Z=              0.0483  Tot=              0.6885
 Quadrupole moment (field-independent basis, Debye-Ang):
   XX=            -54.2120   YY=            -59.5610   ZZ=            -77.3263
   XY=             -0.9064   XZ=              0.4837   YZ=             -1.7423

 Normal termination of Gaussian 16 at Tue Nov 28 23:58:50 2023.
