 Gaussian 16, Revision B.01,
 Gaussian 16:  ES64L-G16RevB.01 20-Dec-2017

 -------------------------
 #P B3LYP/6-311+g(d) force
 -------------------------

 -----
 DPGEN
 -----
 Symbolic Z-matrix:
 Charge =  0 Multiplicity = 2

                         Standard orientation:
 ---------------------------------------------------------------------
 Center     Atomic      Atomic             Coordinates (Angstroms)
 Number     Number       Type             X           Y           Z
 ---------------------------------------------------------------------
      1         11           0        4.370358    0.030153    0.596940
      2         11           0        0.229080    0.335510    1.491901
      3         11           0       -1.964658   -1.245781   -1.232874
      4         11           0        1.615739    1.969331   -0.296364
      5         11           0       -2.126289    2.058590   -1.110310
      6         11           0        2.024561   -2.352129   -0.805074
      7         11           0       -4.148790   -0.795675    1.355781
 ---------------------------------------------------------------------

 SCF Done:  E(UB3LYP) =  -1136.11005629     A.U. after   25 cycles

 The electronic state is 2-A.
 Alpha  occ. eigenvalues --  -38.46105 -38.44919 -38.44707 -38.43823 -38.43806
 Alpha  occ. eigenvalues --  -38.43553 -38.43512  -2.21946  -2.20705  -2.20514
 Alpha  occ. eigenvalues --   -2.19654  -2.19617  -2.19405  -2.19336  -1.15727
 Alpha  occ. eigenvalues --   -1.15597  -1.15536  -1.14389  -1.14348  -1.14334
 Alpha  occ. eigenvalues --   -1.14207  -1.14159  -1.14119  -1.13347  -1.13332
 Alpha  occ. eigenvalues --   -1.13301  -1.13265  -1.13257  -1.13213  -1.13174
 Alpha  occ. eigenvalues --   -1.13048  -1.13017  -1.12997  -1.12978  -1.12954
 Alpha  occ. eigenvalues --   -0.17536  -0.14191  -0.11312  -0.10486
 Alpha virt. eigenvalues --   -0.07325  -0.05398  -0.04998  -0.03252  -0.03083
 Alpha virt. eigenvalues --   -0.02357  -0.01876  -0.01577  -0.01221  -0.00490
 Alpha virt. eigenvalues --   -0.00202   0.00005   0.00188   0.00358   0.00624

  Beta  occ. eigenvalues --  -38.46120 -38.44902 -38.44673 -38.43814 -38.43720
  Beta  occ. eigenvalues --  -38.43517 -38.43517  -2.21973  -2.20674  -2.20452
  Beta  occ. eigenvalues --   -2.19643  -2.19454  -2.19415  -2.19269  -1.15748
  Beta  occ. eigenvalues --   -1.15605  -1.15555  -1.14367  -1.14324  -1.14315
  Beta  occ. eigenvalues --   -1.14158  -1.14116  -1.14083  -1.13334  -1.13322
  Beta  occ. eigenvalues --   -1.13257  -1.13191  -1.13153  -1.13147  -1.13117
  Beta  occ. eigenvalues --   -1.13050  -1.12972  -1.12966  -1.12950  -1.12902
  Beta  occ. eigenvalues --   -0.17132  -0.13828  -0.10934
  Beta virt. eigenvalues --   -0.07130  -0.07017  -0.05238  -0.04374  -0.03079
  Beta virt. eigenvalues --   -0.02893  -0.01964  -0.01458  -0.01258  -0.00813
  Beta virt. eigenvalues --   -0.00425  -0.00052   0.00066   0.00377   0.00535

 Mulliken charges and spin densities:
               1          2
     1  Na   0.561150   0.030777
     2  Na  -0.403915  -0.137274
     3  Na  -0.080526   0.080261
     4  Na   0.127215   0.189307
     5  Na   0.120701   0.198385
     6  Na  -0.298929   0.134309
     7  Na  -0.025694   0.504234
 Sum of Mulliken charges =  -0.00000   1.00000

 Dipole moment (field-independent basis, Debye):
    X=              0.7952    Y=              0.9778    Z=             -0.0071  Tot=              1.2604
 Quadrupole moment (field-independent basis, Debye-Ang):
   XX=            -58.6367   YY=            -76.0751   ZZ=            -66.6716
   XY=             -3.3447   XZ=              3.4530   YZ=             -3.1767

 Normal termination of Gaussian 16 at Tue Dec  5 14:30:00 2023.
