 Gaussian 16, Revision B.01,
 Gaussian 16:  ES64L-G16RevB.01 20-Dec-2017

 -------------------------
 #P B3LYP/6-311+g(d) force
 -------------------------

 -----
 DPGEN
 -----
 Symbolic Z-matrix:
 Charge =  0 Multiplicity = 2

                         Standard orientation:
 ---------------------------------------------------------------------
 Center     Atomic      Atomic             Coordinates (Angstroms)
 Number     Number       Type             X           Y           Z
 ---------------------------------------------------------------------
      1         11           0        2.263028    1.528096    0.513023
      2         11           0        3.828557   -0.968889   -0.561882
      3         11           0       -1.087778    2.874538   -0.161966
      4         11           0       -3.565845   -1.427008   -0.791222
      5         11           0        0.715486   -2.082328    1.067707
      6         11           0       -0.157723   -0.037855   -1.579058
      7         11           0       -1.995724    0.113445    1.513400
 ---------------------------------------------------------------------

 SCF Done:  E(UB3LYP) =  -1136.12406674     A.U. after   22 cycles

 The electronic state is 2-A.
 Alpha  occ. eigenvalues --  -38.44609 -38.44497 -38.44294 -38.44245 -38.43864
 Alpha  occ. eigenvalues --  -38.43600 -38.42783  -2.20427  -2.20376  -2.20102
 Alpha  occ. eigenvalues --   -2.20090  -2.19696  -2.19510  -2.18627  -1.14137
 Alpha  occ. eigenvalues --   -1.14088  -1.14077  -1.14052  -1.14030  -1.13986
 Alpha  occ. eigenvalues --   -1.13792  -1.13770  -1.13762  -1.13741  -1.13729
 Alpha  occ. eigenvalues --   -1.13703  -1.13395  -1.13362  -1.13289  -1.13182
 Alpha  occ. eigenvalues --   -1.13166  -1.13135  -1.12299  -1.12298  -1.12256
 Alpha  occ. eigenvalues --   -0.18142  -0.13892  -0.11662  -0.10327
 Alpha virt. eigenvalues --   -0.07004  -0.05411  -0.04365  -0.03398  -0.02704
 Alpha virt. eigenvalues --   -0.02339  -0.02042  -0.01427  -0.00726  -0.00238
 Alpha virt. eigenvalues --   -0.00112   0.00141   0.00347   0.00621   0.00695

  Beta  occ. eigenvalues --  -38.44602 -38.44458 -38.44261 -38.44243 -38.43815
  Beta  occ. eigenvalues --  -38.43562 -38.42781  -2.20413  -2.20306  -2.20088
  Beta  occ. eigenvalues --   -2.20042  -2.19608  -2.19442  -2.18625  -1.14128
  Beta  occ. eigenvalues --   -1.14061  -1.14043  -1.14027  -1.13984  -1.13933
  Beta  occ. eigenvalues --   -1.13766  -1.13752  -1.13743  -1.13705  -1.13692
  Beta  occ. eigenvalues --   -1.13687  -1.13339  -1.13284  -1.13228  -1.13135
  Beta  occ. eigenvalues --   -1.13097  -1.13089  -1.12299  -1.12283  -1.12254
  Beta  occ. eigenvalues --   -0.17529  -0.13651  -0.11441
  Beta virt. eigenvalues --   -0.06832  -0.06591  -0.05330  -0.04004  -0.03047
  Beta virt. eigenvalues --   -0.02451  -0.01884  -0.01350  -0.01233  -0.00500
  Beta virt. eigenvalues --   -0.00066  -0.00039   0.00192   0.00509   0.00710

 Mulliken charges and spin densities:
               1          2
     1  Na  -0.189045   0.070323
     2  Na   0.519643   0.041455
     3  Na   0.209835  -0.044932
     4  Na  -0.003700   0.119588
     5  Na  -0.216070   0.137663
     6  Na  -0.558169   0.427475
     7  Na   0.237506   0.248427
 Sum of Mulliken charges =  -0.00000   1.00000

 Dipole moment (field-independent basis, Debye):
    X=              0.7324    Y=             -0.2404    Z=             -0.0222  Tot=              0.7712
 Quadrupole moment (field-independent basis, Debye-Ang):
   XX=            -51.3931   YY=            -70.2047   ZZ=            -72.6825
   XY=             -1.7523   XZ=             -1.1482   YZ=              2.4550

 Normal termination of Gaussian 16 at Tue Dec  5 19:36:28 2023.
