 Gaussian 16, Revision B.01,
 Gaussian 16:  ES64L-G16RevB.01 20-Dec-2017

 -------------------------
 #P B3LYP/6-311+g(d) force
 -------------------------

 -----
 DPGEN
 -----
 Symbolic Z-matrix:
 Charge =  0 Multiplicity = 2

                         Standard orientation:
 ---------------------------------------------------------------------
 Center     Atomic      Atomic             Coordinates (Angstroms)
 Number     Number       Type             X           Y           Z
 ---------------------------------------------------------------------
      1         11           0       -0.143954    0.001620   -1.749103
      2         11           0        0.374974   -2.042949    0.028673
      3         11           0        3.011734   -0.519326    0.055180
      4         11           0        1.125282    2.061555   -0.097163
      5         11           0       -1.846791    1.593820   -0.056004
      6         11           0       -0.226198    0.213424    1.812859
      7         11           0       -2.295048   -1.308145    0.005558
 ---------------------------------------------------------------------

 SCF Done:  E(UB3LYP) =  -1136.09802190     A.U. after   19 cycles

 The electronic state is 2-A.
 Alpha  occ. eigenvalues --  -38.44060 -38.44021 -38.43958 -38.43626 -38.43444
 Alpha  occ. eigenvalues --  -38.43214 -38.43053  -2.20235  -2.20127  -2.19958
 Alpha  occ. eigenvalues --   -2.19722  -2.19572  -2.19361  -2.19114  -1.14058
 Alpha  occ. eigenvalues --   -1.13985  -1.13883  -1.13860  -1.13823  -1.13752
 Alpha  occ. eigenvalues --   -1.13664  -1.13617  -1.13598  -1.13528  -1.13443
 Alpha  occ. eigenvalues --   -1.13318  -1.13236  -1.13189  -1.13120  -1.13001
 Alpha  occ. eigenvalues --   -1.12979  -1.12883  -1.12808  -1.12773  -1.12688
 Alpha  occ. eigenvalues --   -0.21118  -0.13792  -0.12744  -0.11911
 Alpha virt. eigenvalues --   -0.05497  -0.04407  -0.03965  -0.03509  -0.03073
 Alpha virt. eigenvalues --   -0.02749  -0.01406  -0.00552  -0.00063   0.00336
 Alpha virt. eigenvalues --    0.00531   0.00682   0.00949   0.01074   0.01144

  Beta  occ. eigenvalues --  -38.44061 -38.43927 -38.43865 -38.43614 -38.43427
  Beta  occ. eigenvalues --  -38.43196 -38.43041  -2.20068  -2.19964  -2.19957
  Beta  occ. eigenvalues --   -2.19706  -2.19549  -2.19338  -2.19099  -1.13968
  Beta  occ. eigenvalues --   -1.13872  -1.13777  -1.13748  -1.13707  -1.13668
  Beta  occ. eigenvalues --   -1.13635  -1.13614  -1.13580  -1.13516  -1.13424
  Beta  occ. eigenvalues --   -1.13251  -1.13216  -1.13114  -1.13107  -1.12984
  Beta  occ. eigenvalues --   -1.12899  -1.12877  -1.12800  -1.12713  -1.12685
  Beta  occ. eigenvalues --   -0.20297  -0.13473  -0.12378
  Beta virt. eigenvalues --   -0.07745  -0.05489  -0.04409  -0.03953  -0.02614
  Beta virt. eigenvalues --   -0.02144  -0.01669  -0.01328  -0.00511   0.00085
  Beta virt. eigenvalues --    0.00367   0.00519   0.00642   0.00985   0.01073

 Mulliken charges and spin densities:
               1          2
     1  Na  -0.302727   0.442752
     2  Na   0.139754   0.101290
     3  Na  -0.312191  -0.122475
     4  Na   0.056590  -0.012379
     5  Na   0.442936   0.056461
     6  Na  -0.348380   0.525217
     7  Na   0.324019   0.009135
 Sum of Mulliken charges =  -0.00000   1.00000

 Dipole moment (field-independent basis, Debye):
    X=              0.4664    Y=              0.0570    Z=              0.1215  Tot=              0.4853
 Quadrupole moment (field-independent basis, Debye-Ang):
   XX=            -56.1017   YY=            -70.1900   ZZ=            -69.7687
   XY=              0.2458   XZ=              0.2160   YZ=             -0.3945

 Normal termination of Gaussian 16 at Fri Dec  8 18:13:38 2023.
