 Gaussian 16, Revision B.01,
 Gaussian 16:  ES64L-G16RevB.01 20-Dec-2017

 -------------------------
 #P B3LYP/6-311+g(d) force
 -------------------------

 -----
 DPGEN
 -----
 Symbolic Z-matrix:
 Charge =  0 Multiplicity = 2

                         Standard orientation:
 ---------------------------------------------------------------------
 Center     Atomic      Atomic             Coordinates (Angstroms)
 Number     Number       Type             X           Y           Z
 ---------------------------------------------------------------------
      1         11           0       -1.585834    2.393742   -0.369119
      2         11           0       -0.111001   -0.915086   -1.048792
      3         11           0        1.244665    0.707313    1.454759
      4         11           0       -2.871896   -1.271792   -1.282626
      5         11           0       -1.937851   -0.346366    2.074415
      6         11           0        2.627241    1.819457   -0.949916
      7         11           0        2.634675   -2.387268    0.121279
 ---------------------------------------------------------------------

 SCF Done:  E(UB3LYP) =  -1136.12073788     A.U. after   22 cycles

 The electronic state is 2-A.
 Alpha  occ. eigenvalues --  -38.44441 -38.44296 -38.44150 -38.44108 -38.43703
 Alpha  occ. eigenvalues --  -38.43373 -38.42986  -2.20265  -2.20158  -2.20031
 Alpha  occ. eigenvalues --   -2.19896  -2.19493  -2.19336  -2.19001  -1.13992
 Alpha  occ. eigenvalues --   -1.13915  -1.13861  -1.13840  -1.13834  -1.13784
 Alpha  occ. eigenvalues --   -1.13773  -1.13645  -1.13618  -1.13581  -1.13562
 Alpha  occ. eigenvalues --   -1.13517  -1.13171  -1.13158  -1.13130  -1.13050
 Alpha  occ. eigenvalues --   -1.13019  -1.12910  -1.12690  -1.12645  -1.12610
 Alpha  occ. eigenvalues --   -0.18405  -0.13432  -0.11526  -0.11221
 Alpha virt. eigenvalues --   -0.06001  -0.05325  -0.04485  -0.03299  -0.02752
 Alpha virt. eigenvalues --   -0.02400  -0.01766  -0.01272  -0.00749   0.00023
 Alpha virt. eigenvalues --    0.00265   0.00305   0.00366   0.00660   0.00724

  Beta  occ. eigenvalues --  -38.44421 -38.44217 -38.44117 -38.44100 -38.43706
  Beta  occ. eigenvalues --  -38.43340 -38.42958  -2.20226  -2.20014  -2.19972
  Beta  occ. eigenvalues --   -2.19882  -2.19499  -2.19279  -2.18954  -1.13969
  Beta  occ. eigenvalues --   -1.13884  -1.13834  -1.13791  -1.13729  -1.13687
  Beta  occ. eigenvalues --   -1.13674  -1.13596  -1.13580  -1.13564  -1.13541
  Beta  occ. eigenvalues --   -1.13511  -1.13174  -1.13156  -1.13134  -1.13017
  Beta  occ. eigenvalues --   -1.12941  -1.12875  -1.12636  -1.12617  -1.12569
  Beta  occ. eigenvalues --   -0.17687  -0.13212  -0.11195
  Beta virt. eigenvalues --   -0.07402  -0.05873  -0.05153  -0.03905  -0.03120
  Beta virt. eigenvalues --   -0.02090  -0.01740  -0.01579  -0.01171  -0.00301
  Beta virt. eigenvalues --    0.00052   0.00311   0.00322   0.00438   0.00734

 Mulliken charges and spin densities:
               1          2
     1  Na  -0.289110   0.168736
     2  Na  -1.262504   0.391734
     3  Na   0.577476   0.133522
     4  Na   0.681965  -0.017630
     5  Na  -0.046782   0.238621
     6  Na   0.106088   0.139996
     7  Na   0.232868  -0.054978
 Sum of Mulliken charges =  -0.00000   1.00000

 Dipole moment (field-independent basis, Debye):
    X=             -0.2242    Y=              0.3299    Z=             -0.0087  Tot=              0.3990
 Quadrupole moment (field-independent basis, Debye-Ang):
   XX=            -53.8769   YY=            -70.1095   ZZ=            -68.4866
   XY=             -0.1774   XZ=             -1.3921   YZ=             -3.6064

 Normal termination of Gaussian 16 at Thu Dec  7 07:32:05 2023.
