 Gaussian 16, Revision B.01,
 Gaussian 16:  ES64L-G16RevB.01 20-Dec-2017

 -------------------------
 #P B3LYP/6-311+g(d) force
 -------------------------

 -----
 DPGEN
 -----
 Symbolic Z-matrix:
 Charge =  0 Multiplicity = 2

                         Standard orientation:
 ---------------------------------------------------------------------
 Center     Atomic      Atomic             Coordinates (Angstroms)
 Number     Number       Type             X           Y           Z
 ---------------------------------------------------------------------
      1         11           0        0.475058   -0.153792   -1.483947
      2         11           0       -3.666828    1.374486    0.027131
      3         11           0        1.294301   -2.550882   -0.005530
      4         11           0        0.711118    3.006964   -0.178090
      5         11           0       -0.154324   -0.318096    2.149973
      6         11           0       -2.442388   -1.825932   -0.513641
      7         11           0        3.783061    0.467252    0.004105
 ---------------------------------------------------------------------

 SCF Done:  E(UB3LYP) =  -1136.12029079     A.U. after   22 cycles

 The electronic state is 2-A.
 Alpha  occ. eigenvalues --  -38.45649 -38.44837 -38.43892 -38.43883 -38.43654
 Alpha  occ. eigenvalues --  -38.43540 -38.43217  -2.21389  -2.20574  -2.19713
 Alpha  occ. eigenvalues --   -2.19646  -2.19608  -2.19393  -2.19106  -1.15070
 Alpha  occ. eigenvalues --   -1.15040  -1.15022  -1.14248  -1.14239  -1.14213
 Alpha  occ. eigenvalues --   -1.13407  -1.13382  -1.13373  -1.13347  -1.13331
 Alpha  occ. eigenvalues --   -1.13316  -1.13271  -1.13262  -1.13199  -1.13053
 Alpha  occ. eigenvalues --   -1.13014  -1.13011  -1.12797  -1.12753  -1.12706
 Alpha  occ. eigenvalues --   -0.17847  -0.13068  -0.11794  -0.10348
 Alpha virt. eigenvalues --   -0.07044  -0.05396  -0.04420  -0.03084  -0.02630
 Alpha virt. eigenvalues --   -0.02411  -0.02390  -0.01598  -0.00628  -0.00540
 Alpha virt. eigenvalues --   -0.00165   0.00140   0.00608   0.00665   0.00729

  Beta  occ. eigenvalues --  -38.45648 -38.44840 -38.43881 -38.43879 -38.43610
  Beta  occ. eigenvalues --  -38.43429 -38.43208  -2.21389  -2.20582  -2.19690
  Beta  occ. eigenvalues --   -2.19645  -2.19530  -2.19188  -2.19095  -1.15058
  Beta  occ. eigenvalues --   -1.15042  -1.15023  -1.14250  -1.14242  -1.14219
  Beta  occ. eigenvalues --   -1.13384  -1.13354  -1.13351  -1.13323  -1.13309
  Beta  occ. eigenvalues --   -1.13304  -1.13265  -1.13206  -1.13141  -1.12917
  Beta  occ. eigenvalues --   -1.12870  -1.12868  -1.12784  -1.12707  -1.12704
  Beta  occ. eigenvalues --   -0.17149  -0.12901  -0.11606
  Beta virt. eigenvalues --   -0.06995  -0.06391  -0.05361  -0.04343  -0.02509
  Beta virt. eigenvalues --   -0.02399  -0.01833  -0.01539  -0.01335  -0.00608
  Beta virt. eigenvalues --   -0.00561   0.00011   0.00199   0.00700   0.00729

 Mulliken charges and spin densities:
               1          2
     1  Na   0.146840   0.366566
     2  Na  -0.129434  -0.060796
     3  Na   0.314511   0.017134
     4  Na  -0.150496  -0.099040
     5  Na  -0.483852   0.761866
     6  Na   0.211952   0.066339
     7  Na   0.090479  -0.052070
 Sum of Mulliken charges =  -0.00000   1.00000

 Dipole moment (field-independent basis, Debye):
    X=              0.6187    Y=              0.1853    Z=              0.1875  Tot=              0.6725
 Quadrupole moment (field-independent basis, Debye-Ang):
   XX=            -48.4922   YY=            -66.2664   ZZ=            -77.1145
   XY=             -1.5343   XZ=              1.2533   YZ=              0.6104

 Normal termination of Gaussian 16 at Thu Dec  7 20:57:23 2023.
