 Gaussian 16, Revision B.01,
 Gaussian 16:  ES64L-G16RevB.01 20-Dec-2017

 -------------------------
 #P B3LYP/6-311+g(d) force
 -------------------------

 -----
 DPGEN
 -----
 Symbolic Z-matrix:
 Charge =  0 Multiplicity = 2

                         Standard orientation:
 ---------------------------------------------------------------------
 Center     Atomic      Atomic             Coordinates (Angstroms)
 Number     Number       Type             X           Y           Z
 ---------------------------------------------------------------------
      1         11           0        3.466238    1.078363   -0.496231
      2         11           0       -3.652867   -1.110616   -0.108802
      3         11           0       -2.519103    1.807412   -0.640732
      4         11           0        0.596835    3.192318    1.013348
      5         11           0       -0.764679   -2.454194    0.778231
      6         11           0        2.807746   -2.501261   -0.096731
      7         11           0        0.065831   -0.012021   -0.449083
 ---------------------------------------------------------------------

 SCF Done:  E(UB3LYP) =  -1136.12046643     A.U. after   22 cycles

 The electronic state is 2-A.
 Alpha  occ. eigenvalues --  -38.44432 -38.44305 -38.44053 -38.43946 -38.43808
 Alpha  occ. eigenvalues --  -38.43785 -38.43438  -2.20212  -2.20173  -2.19858
 Alpha  occ. eigenvalues --   -2.19813  -2.19799  -2.19585  -2.19351  -1.13902
 Alpha  occ. eigenvalues --   -1.13895  -1.13866  -1.13850  -1.13844  -1.13794
 Alpha  occ. eigenvalues --   -1.13612  -1.13535  -1.13512  -1.13473  -1.13470
 Alpha  occ. eigenvalues --   -1.13469  -1.13459  -1.13443  -1.13407  -1.13251
 Alpha  occ. eigenvalues --   -1.13230  -1.13212  -1.13014  -1.12976  -1.12929
 Alpha  occ. eigenvalues --   -0.17634  -0.13897  -0.12879  -0.09681
 Alpha virt. eigenvalues --   -0.06659  -0.05810  -0.04165  -0.03290  -0.02924
 Alpha virt. eigenvalues --   -0.02456  -0.01976  -0.01281  -0.00700  -0.00481
 Alpha virt. eigenvalues --   -0.00038   0.00198   0.00308   0.00652   0.00709

  Beta  occ. eigenvalues --  -38.44427 -38.44279 -38.44000 -38.43910 -38.43802
  Beta  occ. eigenvalues --  -38.43750 -38.43395  -2.20208  -2.20130  -2.19790
  Beta  occ. eigenvalues --   -2.19762  -2.19749  -2.19520  -2.19272  -1.13904
  Beta  occ. eigenvalues --   -1.13876  -1.13868  -1.13820  -1.13811  -1.13722
  Beta  occ. eigenvalues --   -1.13584  -1.13473  -1.13461  -1.13440  -1.13429
  Beta  occ. eigenvalues --   -1.13416  -1.13405  -1.13395  -1.13389  -1.13206
  Beta  occ. eigenvalues --   -1.13187  -1.13169  -1.12963  -1.12922  -1.12884
  Beta  occ. eigenvalues --   -0.17285  -0.13154  -0.12499
  Beta virt. eigenvalues --   -0.06670  -0.06361  -0.05582  -0.03959  -0.02738
  Beta virt. eigenvalues --   -0.02302  -0.02274  -0.01837  -0.00999  -0.00578
  Beta virt. eigenvalues --   -0.00332   0.00242   0.00346   0.00463   0.00680

 Mulliken charges and spin densities:
               1          2
     1  Na   0.512773   0.393736
     2  Na   0.484683   0.280929
     3  Na   1.529947   0.368526
     4  Na   0.438754   0.126185
     5  Na   0.683745   0.105342
     6  Na   0.662392   0.066609
     7  Na  -4.312293  -0.341327
 Sum of Mulliken charges =  -0.00000   1.00000

 Dipole moment (field-independent basis, Debye):
    X=             -0.0244    Y=             -0.0795    Z=              0.6342  Tot=              0.6396
 Quadrupole moment (field-independent basis, Debye-Ang):
   XX=            -67.6814   YY=            -59.0325   ZZ=            -70.7410
   XY=              1.0459   XZ=              0.0280   YZ=              0.0643

 Normal termination of Gaussian 16 at Wed Nov 29 16:49:02 2023.
