 Gaussian 16, Revision B.01,
 Gaussian 16:  ES64L-G16RevB.01 20-Dec-2017

 -------------------------
 #P B3LYP/6-311+g(d) force
 -------------------------

 -----
 DPGEN
 -----
 Symbolic Z-matrix:
 Charge =  0 Multiplicity = 2

                         Standard orientation:
 ---------------------------------------------------------------------
 Center     Atomic      Atomic             Coordinates (Angstroms)
 Number     Number       Type             X           Y           Z
 ---------------------------------------------------------------------
      1         11           0        0.780637    3.212820   -0.680108
      2         11           0       -3.213361    1.177690    0.410850
      3         11           0        0.113545    0.081886    2.024393
      4         11           0        1.861696   -2.485278   -0.123441
      5         11           0       -2.542002   -2.028837   -0.474879
      6         11           0       -0.164768   -0.181589   -1.292990
      7         11           0        3.164253    0.223308    0.136174
 ---------------------------------------------------------------------

 SCF Done:  E(UB3LYP) =  -1136.12686120     A.U. after   20 cycles

 The electronic state is 2-A.
 Alpha  occ. eigenvalues --  -38.44918 -38.44507 -38.43994 -38.43920 -38.43584
 Alpha  occ. eigenvalues --  -38.43142 -38.43065  -2.20702  -2.20369  -2.19832
 Alpha  occ. eigenvalues --   -2.19782  -2.19459  -2.19059  -2.18920  -1.14372
 Alpha  occ. eigenvalues --   -1.14353  -1.14348  -1.14075  -1.14034  -1.13995
 Alpha  occ. eigenvalues --   -1.13543  -1.13481  -1.13474  -1.13457  -1.13404
 Alpha  occ. eigenvalues --   -1.13385  -1.13149  -1.13109  -1.13098  -1.12769
 Alpha  occ. eigenvalues --   -1.12693  -1.12682  -1.12591  -1.12568  -1.12559
 Alpha  occ. eigenvalues --   -0.18275  -0.13589  -0.11809  -0.10379
 Alpha virt. eigenvalues --   -0.06338  -0.05403  -0.04634  -0.03323  -0.02562
 Alpha virt. eigenvalues --   -0.02127  -0.02057  -0.01333  -0.00630  -0.00561
 Alpha virt. eigenvalues --   -0.00034   0.00303   0.00677   0.00747   0.00781

  Beta  occ. eigenvalues --  -38.44910 -38.44503 -38.43983 -38.43832 -38.43583
  Beta  occ. eigenvalues --  -38.43124 -38.43017  -2.20689  -2.20365  -2.19815
  Beta  occ. eigenvalues --   -2.19618  -2.19460  -2.18973  -2.18889  -1.14347
  Beta  occ. eigenvalues --   -1.14347  -1.14339  -1.14078  -1.14015  -1.13986
  Beta  occ. eigenvalues --   -1.13523  -1.13461  -1.13442  -1.13366  -1.13295
  Beta  occ. eigenvalues --   -1.13263  -1.13150  -1.13111  -1.13076  -1.12698
  Beta  occ. eigenvalues --   -1.12634  -1.12620  -1.12559  -1.12545  -1.12539
  Beta  occ. eigenvalues --   -0.17617  -0.13393  -0.11490
  Beta virt. eigenvalues --   -0.06684  -0.06165  -0.05309  -0.04534  -0.02637
  Beta virt. eigenvalues --   -0.01984  -0.01896  -0.01230  -0.01191  -0.00620
  Beta virt. eigenvalues --   -0.00574   0.00124   0.00345   0.00732   0.00805

 Mulliken charges and spin densities:
               1          2
     1  Na  -0.090557   0.086983
     2  Na   0.099205   0.087716
     3  Na  -0.339865   0.584753
     4  Na  -0.060370   0.009366
     5  Na   0.097751   0.024243
     6  Na  -0.111877   0.114141
     7  Na   0.405712   0.092798
 Sum of Mulliken charges =  -0.00000   1.00000

 Dipole moment (field-independent basis, Debye):
    X=             -0.4508    Y=             -0.1763    Z=              0.3730  Tot=              0.6110
 Quadrupole moment (field-independent basis, Debye-Ang):
   XX=            -51.5384   YY=            -64.3005   ZZ=            -76.5583
   XY=             -1.5920   XZ=             -0.3016   YZ=              0.1724

 Normal termination of Gaussian 16 at Tue Dec  5 22:42:10 2023.
