 Gaussian 16, Revision B.01,
 Gaussian 16:  ES64L-G16RevB.01 20-Dec-2017

 -------------------------
 #P B3LYP/6-311+g(d) force
 -------------------------

 -----
 DPGEN
 -----
 Symbolic Z-matrix:
 Charge =  0 Multiplicity = 2

                         Standard orientation:
 ---------------------------------------------------------------------
 Center     Atomic      Atomic             Coordinates (Angstroms)
 Number     Number       Type             X           Y           Z
 ---------------------------------------------------------------------
      1         11           0       -0.212733   -1.122201   -1.002006
      2         11           0       -0.641434    0.325480    2.118053
      3         11           0       -2.253705    2.156562   -0.713753
      4         11           0        2.055223   -0.942260    1.515536
      5         11           0        1.540201    1.699666   -0.141771
      6         11           0        3.522048   -0.576274   -1.391575
      7         11           0       -4.009600   -1.540974   -0.384484
 ---------------------------------------------------------------------

 SCF Done:  E(UB3LYP) =  -1136.11878165     A.U. after   27 cycles

 The electronic state is 2-A.
 Alpha  occ. eigenvalues --  -38.44941 -38.44514 -38.44210 -38.44017 -38.43937
 Alpha  occ. eigenvalues --  -38.43407 -38.42657  -2.20728  -2.20365  -2.19973
 Alpha  occ. eigenvalues --   -2.19957  -2.19932  -2.19271  -2.18583  -1.14408
 Alpha  occ. eigenvalues --   -1.14368  -1.14337  -1.14089  -1.14071  -1.13948
 Alpha  occ. eigenvalues --   -1.13715  -1.13664  -1.13628  -1.13623  -1.13622
 Alpha  occ. eigenvalues --   -1.13575  -1.13575  -1.13543  -1.13532  -1.12941
 Alpha  occ. eigenvalues --   -1.12934  -1.12898  -1.12294  -1.12218  -1.12205
 Alpha  occ. eigenvalues --   -0.18720  -0.13778  -0.11580  -0.10986
 Alpha virt. eigenvalues --   -0.06609  -0.05667  -0.04443  -0.03164  -0.02646
 Alpha virt. eigenvalues --   -0.02372  -0.02190  -0.01407  -0.00890  -0.00258
 Alpha virt. eigenvalues --    0.00092   0.00220   0.00388   0.00469   0.00631

  Beta  occ. eigenvalues --  -38.44888 -38.44502 -38.44187 -38.43978 -38.43894
  Beta  occ. eigenvalues --  -38.43400 -38.42636  -2.20629  -2.20347  -2.19914
  Beta  occ. eigenvalues --   -2.19902  -2.19854  -2.19260  -2.18550  -1.14338
  Beta  occ. eigenvalues --   -1.14306  -1.14259  -1.14064  -1.14039  -1.13941
  Beta  occ. eigenvalues --   -1.13669  -1.13610  -1.13598  -1.13589  -1.13551
  Beta  occ. eigenvalues --   -1.13549  -1.13521  -1.13498  -1.13468  -1.12929
  Beta  occ. eigenvalues --   -1.12920  -1.12894  -1.12263  -1.12191  -1.12169
  Beta  occ. eigenvalues --   -0.18085  -0.13478  -0.10747
  Beta virt. eigenvalues --   -0.07727  -0.06415  -0.05149  -0.04227  -0.02744
  Beta virt. eigenvalues --   -0.02456  -0.01944  -0.01711  -0.01035  -0.00591
  Beta virt. eigenvalues --   -0.00087   0.00139   0.00330   0.00469   0.00583

 Mulliken charges and spin densities:
               1          2
     1  Na  -1.300214   0.276720
     2  Na  -0.075934   0.117726
     3  Na   0.099587   0.138844
     4  Na   0.458701  -0.034414
     5  Na  -0.460379   0.449195
     6  Na   1.075535   0.021447
     7  Na   0.202703   0.030483
 Sum of Mulliken charges =  -0.00000   1.00000

 Dipole moment (field-independent basis, Debye):
    X=             -0.0270    Y=              0.5778    Z=              0.2925  Tot=              0.6482
 Quadrupole moment (field-independent basis, Debye-Ang):
   XX=            -55.4509   YY=            -67.8268   ZZ=            -73.5747
   XY=             -3.0634   XZ=             -1.1225   YZ=             -4.5215

 Normal termination of Gaussian 16 at Tue Dec  5 19:51:41 2023.
