 Gaussian 16, Revision B.01,
 Gaussian 16:  ES64L-G16RevB.01 20-Dec-2017

 -------------------------
 #P B3LYP/6-311+g(d) force
 -------------------------

 -----
 DPGEN
 -----
 Symbolic Z-matrix:
 Charge =  0 Multiplicity = 2

                         Standard orientation:
 ---------------------------------------------------------------------
 Center     Atomic      Atomic             Coordinates (Angstroms)
 Number     Number       Type             X           Y           Z
 ---------------------------------------------------------------------
      1         11           0        2.041759    2.482629   -0.273167
      2         11           0       -1.419787    2.213220    0.346781
      3         11           0        2.806832   -1.619790   -0.435940
      4         11           0       -0.732306   -2.660451    0.204602
      5         11           0       -0.343116   -0.005821   -1.601279
      6         11           0       -3.099427   -0.253625   -0.146098
      7         11           0        0.746045   -0.156163    1.905101
 ---------------------------------------------------------------------

 SCF Done:  E(UB3LYP) =  -1136.13383381     A.U. after   20 cycles

 The electronic state is 2-A.
 Alpha  occ. eigenvalues --  -38.44304 -38.43876 -38.43739 -38.43487 -38.43354
 Alpha  occ. eigenvalues --  -38.43240 -38.43167  -2.20102  -2.19676  -2.19654
 Alpha  occ. eigenvalues --   -2.19369  -2.19285  -2.19180  -2.19157  -1.13779
 Alpha  occ. eigenvalues --   -1.13757  -1.13737  -1.13397  -1.13350  -1.13334
 Alpha  occ. eigenvalues --   -1.13330  -1.13322  -1.13286  -1.13083  -1.13049
 Alpha  occ. eigenvalues --   -1.13015  -1.12979  -1.12938  -1.12897  -1.12850
 Alpha  occ. eigenvalues --   -1.12825  -1.12790  -1.12788  -1.12782  -1.12768
 Alpha  occ. eigenvalues --   -0.18863  -0.13108  -0.12551  -0.10573
 Alpha virt. eigenvalues --   -0.05814  -0.05272  -0.04464  -0.03261  -0.02884
 Alpha virt. eigenvalues --   -0.02268  -0.01578  -0.01273  -0.00306  -0.00175
 Alpha virt. eigenvalues --    0.00021   0.00351   0.00769   0.00850   0.00914

  Beta  occ. eigenvalues --  -38.44296 -38.43873 -38.43736 -38.43477 -38.43343
  Beta  occ. eigenvalues --  -38.43159 -38.43104  -2.20089  -2.19673  -2.19651
  Beta  occ. eigenvalues --   -2.19355  -2.19268  -2.19066  -2.19008  -1.13757
  Beta  occ. eigenvalues --   -1.13746  -1.13729  -1.13396  -1.13336  -1.13329
  Beta  occ. eigenvalues --   -1.13321  -1.13318  -1.13267  -1.13072  -1.13004
  Beta  occ. eigenvalues --   -1.12994  -1.12975  -1.12899  -1.12886  -1.12776
  Beta  occ. eigenvalues --   -1.12731  -1.12715  -1.12702  -1.12676  -1.12662
  Beta  occ. eigenvalues --   -0.18142  -0.12878  -0.12314
  Beta virt. eigenvalues --   -0.06688  -0.05781  -0.05203  -0.04434  -0.02507
  Beta virt. eigenvalues --   -0.02129  -0.01478  -0.01285  -0.01204  -0.00321
  Beta virt. eigenvalues --   -0.00192   0.00151   0.00388   0.00805   0.00868

 Mulliken charges and spin densities:
               1          2
     1  Na  -0.019685  -0.062240
     2  Na   0.280959   0.044401
     3  Na  -0.046830  -0.075713
     4  Na   0.267648  -0.027351
     5  Na  -0.464919   0.515968
     6  Na   0.359585   0.063728
     7  Na  -0.376758   0.541209
 Sum of Mulliken charges =  -0.00000   1.00000

 Dipole moment (field-independent basis, Debye):
    X=              0.4718    Y=             -0.1510    Z=              0.0071  Tot=              0.4955
 Quadrupole moment (field-independent basis, Debye-Ang):
   XX=            -55.2108   YY=            -62.7597   ZZ=            -74.7426
   XY=              0.5398   XZ=             -2.1196   YZ=              0.2989

 Normal termination of Gaussian 16 at Thu Dec  7 18:16:33 2023.
