 Gaussian 16, Revision B.01,
 Gaussian 16:  ES64L-G16RevB.01 20-Dec-2017

 -------------------------
 #P B3LYP/6-311+g(d) force
 -------------------------

 -----
 DPGEN
 -----
 Symbolic Z-matrix:
 Charge =  0 Multiplicity = 2

                         Standard orientation:
 ---------------------------------------------------------------------
 Center     Atomic      Atomic             Coordinates (Angstroms)
 Number     Number       Type             X           Y           Z
 ---------------------------------------------------------------------
      1         11           0       -0.362164    2.865332   -0.175145
      2         11           0       -2.918049   -2.488927   -0.298909
      3         11           0       -0.076924   -0.539928   -1.346562
      4         11           0        4.069617   -1.764244    0.133323
      5         11           0        2.593188    1.645346   -0.128428
      6         11           0        0.148991   -0.659843    1.394119
      7         11           0       -3.454659    0.942264    0.421602
 ---------------------------------------------------------------------

 SCF Done:  E(UB3LYP) =  -1136.11532134     A.U. after   26 cycles

 The electronic state is 2-A.
 Alpha  occ. eigenvalues --  -38.46109 -38.44762 -38.44441 -38.44391 -38.43474
 Alpha  occ. eigenvalues --  -38.43370 -38.42816  -2.21973  -2.20549  -2.20344
 Alpha  occ. eigenvalues --   -2.20294  -2.19257  -2.19199  -2.18674  -1.15829
 Alpha  occ. eigenvalues --   -1.15588  -1.15538  -1.14233  -1.14206  -1.14180
 Alpha  occ. eigenvalues --   -1.14104  -1.13995  -1.13966  -1.13934  -1.13912
 Alpha  occ. eigenvalues --   -1.13893  -1.12919  -1.12908  -1.12871  -1.12864
 Alpha  occ. eigenvalues --   -1.12835  -1.12819  -1.12353  -1.12336  -1.12328
 Alpha  occ. eigenvalues --   -0.18194  -0.13848  -0.12009  -0.09831
 Alpha virt. eigenvalues --   -0.06923  -0.06240  -0.04506  -0.03019  -0.02895
 Alpha virt. eigenvalues --   -0.02474  -0.02023  -0.01347  -0.01249  -0.00425
 Alpha virt. eigenvalues --   -0.00270  -0.00022   0.00453   0.00498   0.00545

  Beta  occ. eigenvalues --  -38.46111 -38.44756 -38.44438 -38.44334 -38.43404
  Beta  occ. eigenvalues --  -38.43297 -38.42821  -2.21980  -2.20541  -2.20291
  Beta  occ. eigenvalues --   -2.20238  -2.19127  -2.19062  -2.18686  -1.15808
  Beta  occ. eigenvalues --   -1.15593  -1.15555  -1.14230  -1.14188  -1.14164
  Beta  occ. eigenvalues --   -1.14035  -1.13995  -1.13951  -1.13903  -1.13875
  Beta  occ. eigenvalues --   -1.13814  -1.12830  -1.12814  -1.12781  -1.12777
  Beta  occ. eigenvalues --   -1.12742  -1.12724  -1.12365  -1.12341  -1.12320
  Beta  occ. eigenvalues --   -0.17820  -0.13346  -0.11564
  Beta virt. eigenvalues --   -0.06849  -0.06436  -0.06025  -0.04148  -0.02835
  Beta virt. eigenvalues --   -0.02499  -0.02030  -0.01835  -0.01127  -0.00954
  Beta virt. eigenvalues --   -0.00237  -0.00083   0.00199   0.00571   0.00599

 Mulliken charges and spin densities:
               1          2
     1  Na  -0.384324  -0.091690
     2  Na   0.225110  -0.014721
     3  Na   0.143953  -0.011188
     4  Na  -0.004017   0.411494
     5  Na   0.334641   0.077296
     6  Na  -0.248064   0.040393
     7  Na  -0.067300   0.588417
 Sum of Mulliken charges =  -0.00000   1.00000

 Dipole moment (field-independent basis, Debye):
    X=             -0.4706    Y=             -0.7583    Z=             -0.3894  Tot=              0.9737
 Quadrupole moment (field-independent basis, Debye-Ang):
   XX=            -74.1173   YY=            -66.9220   ZZ=            -65.7346
   XY=             11.0162   XZ=              0.4094   YZ=             -0.4052

 Normal termination of Gaussian 16 at Thu Dec  7 15:54:17 2023.
