 Gaussian 16, Revision B.01,
 Gaussian 16:  ES64L-G16RevB.01 20-Dec-2017

 -------------------------
 #P B3LYP/6-311+g(d) force
 -------------------------

 -----
 DPGEN
 -----
 Symbolic Z-matrix:
 Charge =  0 Multiplicity = 2

                         Standard orientation:
 ---------------------------------------------------------------------
 Center     Atomic      Atomic             Coordinates (Angstroms)
 Number     Number       Type             X           Y           Z
 ---------------------------------------------------------------------
      1         11           0       -0.099727    0.070468   -1.549569
      2         11           0        1.867449   -1.118505   -0.338039
      3         11           0       -2.391337   -0.402380   -0.262439
      4         11           0       -1.041447    1.926807    0.290561
      5         11           0        1.633981    1.483580   -0.226339
      6         11           0        0.370973    0.070198    1.731061
      7         11           0       -0.339892   -2.030168    0.354761
 ---------------------------------------------------------------------

 SCF Done:  E(UB3LYP) =  -1136.01625845     A.U. after   23 cycles

 The electronic state is 2-A.
 Alpha  occ. eigenvalues --  -38.45183 -38.45042 -38.44936 -38.44601 -38.44450
 Alpha  occ. eigenvalues --  -38.44351 -38.43978  -2.21738  -2.21447  -2.21293
 Alpha  occ. eigenvalues --   -2.20912  -2.20752  -2.20521  -2.20216  -1.15953
 Alpha  occ. eigenvalues --   -1.15671  -1.15535  -1.15434  -1.15287  -1.15267
 Alpha  occ. eigenvalues --   -1.15115  -1.14854  -1.14702  -1.14644  -1.14428
 Alpha  occ. eigenvalues --   -1.14386  -1.14337  -1.14295  -1.14259  -1.14189
 Alpha  occ. eigenvalues --   -1.14104  -1.13990  -1.13837  -1.13806  -1.13672
 Alpha  occ. eigenvalues --   -0.22836  -0.13994  -0.13513  -0.12894
 Alpha virt. eigenvalues --   -0.05187  -0.04174  -0.04070  -0.03766  -0.03547
 Alpha virt. eigenvalues --   -0.02908  -0.00700  -0.00454  -0.00089   0.00307
 Alpha virt. eigenvalues --    0.00994   0.01086   0.01165   0.01267   0.01327

  Beta  occ. eigenvalues --  -38.45086 -38.44941 -38.44911 -38.44578 -38.44429
  Beta  occ. eigenvalues --  -38.44340 -38.43960  -2.21571  -2.21295  -2.21227
  Beta  occ. eigenvalues --   -2.20878  -2.20722  -2.20505  -2.20192  -1.15879
  Beta  occ. eigenvalues --   -1.15587  -1.15434  -1.15323  -1.15224  -1.15153
  Beta  occ. eigenvalues --   -1.15010  -1.14783  -1.14622  -1.14590  -1.14398
  Beta  occ. eigenvalues --   -1.14317  -1.14301  -1.14276  -1.14176  -1.14169
  Beta  occ. eigenvalues --   -1.14049  -1.13972  -1.13825  -1.13726  -1.13665
  Beta  occ. eigenvalues --   -0.22011  -0.13582  -0.13110
  Beta virt. eigenvalues --   -0.08534  -0.05211  -0.04131  -0.04037  -0.02768
  Beta virt. eigenvalues --   -0.02559  -0.01786  -0.00647  -0.00413   0.00054
  Beta virt. eigenvalues --    0.00329   0.00982   0.01073   0.01206   0.01291

 Mulliken charges and spin densities:
               1          2
     1  Na  -0.561899   0.347855
     2  Na   0.047685  -0.007604
     3  Na  -0.109583  -0.000846
     4  Na   0.310145   0.096802
     5  Na   0.084422  -0.037129
     6  Na  -0.385086   0.431686
     7  Na   0.614316   0.169236
 Sum of Mulliken charges =  -0.00000   1.00000

 Dipole moment (field-independent basis, Debye):
    X=             -0.3458    Y=              0.1498    Z=              0.2869  Tot=              0.4736
 Quadrupole moment (field-independent basis, Debye-Ang):
   XX=            -64.0927   YY=            -68.4742   ZZ=            -68.0148
   XY=              0.1875   XZ=             -0.5901   YZ=              0.1470

 Normal termination of Gaussian 16 at Fri Dec  8 19:00:02 2023.
