 Gaussian 16, Revision B.01,
 Gaussian 16:  ES64L-G16RevB.01 20-Dec-2017

 -------------------------
 #P B3LYP/6-311+g(d) force
 -------------------------

 -----
 DPGEN
 -----
 Symbolic Z-matrix:
 Charge =  0 Multiplicity = 2

                         Standard orientation:
 ---------------------------------------------------------------------
 Center     Atomic      Atomic             Coordinates (Angstroms)
 Number     Number       Type             X           Y           Z
 ---------------------------------------------------------------------
      1         11           0        2.785890    1.267320   -0.970969
      2         11           0       -4.120358   -0.431852   -0.401558
      3         11           0        2.485685   -2.217927   -0.201427
      4         11           0       -1.555735   -0.713309    1.449023
      5         11           0       -0.409383   -0.848823   -1.605498
      6         11           0       -0.742931    2.538688   -0.197490
      7         11           0        1.556833    0.405903    1.927918
 ---------------------------------------------------------------------

 SCF Done:  E(UB3LYP) =  -1136.12452347     A.U. after   24 cycles

 The electronic state is 2-A.
 Alpha  occ. eigenvalues --  -38.45314 -38.44564 -38.44388 -38.43870 -38.43718
 Alpha  occ. eigenvalues --  -38.42924 -38.42889  -2.21099  -2.20397  -2.20242
 Alpha  occ. eigenvalues --   -2.19789  -2.19625  -2.18751  -2.18693  -1.14789
 Alpha  occ. eigenvalues --   -1.14746  -1.14727  -1.14098  -1.14054  -1.13998
 Alpha  occ. eigenvalues --   -1.13970  -1.13895  -1.13839  -1.13493  -1.13437
 Alpha  occ. eigenvalues --   -1.13405  -1.13303  -1.13271  -1.13217  -1.12419
 Alpha  occ. eigenvalues --   -1.12410  -1.12406  -1.12386  -1.12361  -1.12310
 Alpha  occ. eigenvalues --   -0.18316  -0.13783  -0.11282  -0.10970
 Alpha virt. eigenvalues --   -0.07006  -0.04866  -0.04480  -0.03124  -0.02782
 Alpha virt. eigenvalues --   -0.02621  -0.02375  -0.00988  -0.00819  -0.00256
 Alpha virt. eigenvalues --    0.00116   0.00215   0.00285   0.00681   0.00807

  Beta  occ. eigenvalues --  -38.45312 -38.44541 -38.44350 -38.43820 -38.43650
  Beta  occ. eigenvalues --  -38.42923 -38.42880  -2.21096  -2.20354  -2.20173
  Beta  occ. eigenvalues --   -2.19701  -2.19502  -2.18753  -2.18680  -1.14785
  Beta  occ. eigenvalues --   -1.14745  -1.14723  -1.14064  -1.14020  -1.13968
  Beta  occ. eigenvalues --   -1.13920  -1.13840  -1.13789  -1.13435  -1.13349
  Beta  occ. eigenvalues --   -1.13343  -1.13208  -1.13185  -1.13132  -1.12416
  Beta  occ. eigenvalues --   -1.12413  -1.12394  -1.12376  -1.12338  -1.12304
  Beta  occ. eigenvalues --   -0.17559  -0.13659  -0.10794
  Beta virt. eigenvalues --   -0.07268  -0.06846  -0.04763  -0.03940  -0.03001
  Beta virt. eigenvalues --   -0.02508  -0.01951  -0.01654  -0.00761  -0.00555
  Beta virt. eigenvalues --   -0.00213   0.00165   0.00235   0.00419   0.00747

 Mulliken charges and spin densities:
               1          2
     1  Na   0.190346   0.142697
     2  Na   0.472183   0.065403
     3  Na  -0.060915  -0.036287
     4  Na  -0.256632   0.011436
     5  Na  -0.206591   0.447995
     6  Na  -0.488977   0.049726
     7  Na   0.350587   0.319030
 Sum of Mulliken charges =  -0.00000   1.00000

 Dipole moment (field-independent basis, Debye):
    X=             -1.0149    Y=              0.2373    Z=             -0.4173  Tot=              1.1227
 Quadrupole moment (field-independent basis, Debye-Ang):
   XX=            -46.7366   YY=            -76.1898   ZZ=            -69.6254
   XY=              0.8319   XZ=              1.4208   YZ=             -2.0636

 Normal termination of Gaussian 16 at Thu Dec  7 11:41:16 2023.
