 Gaussian 16, Revision B.01,
 Gaussian 16:  ES64L-G16RevB.01 20-Dec-2017

 -------------------------
 #P B3LYP/6-311+g(d) force
 -------------------------

 -----
 DPGEN
 -----
 Symbolic Z-matrix:
 Charge =  0 Multiplicity = 2

                         Standard orientation:
 ---------------------------------------------------------------------
 Center     Atomic      Atomic             Coordinates (Angstroms)
 Number     Number       Type             X           Y           Z
 ---------------------------------------------------------------------
      1         11           0        3.474555   -0.288962   -0.300036
      2         11           0        1.168443    2.239978    1.171942
      3         11           0        0.521509   -2.334783    0.517604
      4         11           0        0.699865   -0.051435   -2.339909
      5         11           0       -2.480834   -1.877447   -0.281162
      6         11           0       -1.079451    0.254150    2.597459
      7         11           0       -2.304086    2.058498   -1.365897
 ---------------------------------------------------------------------

 SCF Done:  E(UB3LYP) =  -1136.12447392     A.U. after   24 cycles

 The electronic state is 2-A.
 Alpha  occ. eigenvalues --  -38.45004 -38.44916 -38.44572 -38.43657 -38.43557
 Alpha  occ. eigenvalues --  -38.43401 -38.43316  -2.20816  -2.20676  -2.20390
 Alpha  occ. eigenvalues --   -2.19459  -2.19371  -2.19196  -2.19179  -1.14485
 Alpha  occ. eigenvalues --   -1.14461  -1.14440  -1.14340  -1.14320  -1.14294
 Alpha  occ. eigenvalues --   -1.14073  -1.14022  -1.14004  -1.13138  -1.13111
 Alpha  occ. eigenvalues --   -1.13104  -1.13087  -1.13029  -1.13015  -1.12894
 Alpha  occ. eigenvalues --   -1.12854  -1.12852  -1.12848  -1.12823  -1.12781
 Alpha  occ. eigenvalues --   -0.17598  -0.12558  -0.12404  -0.11640
 Alpha virt. eigenvalues --   -0.05620  -0.05135  -0.04747  -0.03562  -0.03507
 Alpha virt. eigenvalues --   -0.03331  -0.01444  -0.00838  -0.00583  -0.00186
 Alpha virt. eigenvalues --    0.00091   0.00332   0.00433   0.00546   0.00790

  Beta  occ. eigenvalues --  -38.44948 -38.44852 -38.44507 -38.43660 -38.43559
  Beta  occ. eigenvalues --  -38.43390 -38.43302  -2.20712  -2.20560  -2.20271
  Beta  occ. eigenvalues --   -2.19465  -2.19378  -2.19177  -2.19154  -1.14419
  Beta  occ. eigenvalues --   -1.14392  -1.14351  -1.14251  -1.14241  -1.14219
  Beta  occ. eigenvalues --   -1.13986  -1.13946  -1.13916  -1.13136  -1.13116
  Beta  occ. eigenvalues --   -1.13108  -1.13089  -1.13025  -1.13015  -1.12871
  Beta  occ. eigenvalues --   -1.12837  -1.12833  -1.12822  -1.12814  -1.12762
  Beta  occ. eigenvalues --   -0.16834  -0.12367  -0.11385
  Beta virt. eigenvalues --   -0.08488  -0.05226  -0.04889  -0.04411  -0.03284
  Beta virt. eigenvalues --   -0.02912  -0.02655  -0.01292  -0.00711  -0.00327
  Beta virt. eigenvalues --   -0.00084   0.00173   0.00398   0.00566   0.00675

 Mulliken charges and spin densities:
               1          2
     1  Na   0.526907  -0.060577
     2  Na  -0.363451   0.181796
     3  Na   0.023590   0.274363
     4  Na  -0.423433   0.320522
     5  Na   0.154741  -0.073082
     6  Na   0.035166   0.074640
     7  Na   0.046479   0.282338
 Sum of Mulliken charges =  -0.00000   1.00000

 Dipole moment (field-independent basis, Debye):
    X=             -0.2489    Y=              0.1257    Z=             -0.3354  Tot=              0.4361
 Quadrupole moment (field-independent basis, Debye-Ang):
   XX=            -60.0206   YY=            -73.6404   ZZ=            -64.4118
   XY=             -1.1512   XZ=              2.1148   YZ=             -3.5054

 Normal termination of Gaussian 16 at Mon Dec  4 02:06:26 2023.
