 Gaussian 16, Revision B.01,
 Gaussian 16:  ES64L-G16RevB.01 20-Dec-2017

 -------------------------
 #P B3LYP/6-311+g(d) force
 -------------------------

 -----
 DPGEN
 -----
 Symbolic Z-matrix:
 Charge =  0 Multiplicity = 2

                         Standard orientation:
 ---------------------------------------------------------------------
 Center     Atomic      Atomic             Coordinates (Angstroms)
 Number     Number       Type             X           Y           Z
 ---------------------------------------------------------------------
      1         11           0        1.702457   -1.949318    0.215851
      2         11           0        2.164079    1.547701   -0.027396
      3         11           0       -1.545816    0.776439   -1.020589
      4         11           0       -1.819331   -2.252901    1.010586
      5         11           0       -4.377508   -0.692090   -0.572315
      6         11           0       -0.688021    3.368041    0.828269
      7         11           0        4.564140   -0.797873   -0.434406
 ---------------------------------------------------------------------

 SCF Done:  E(UB3LYP) =  -1136.12872833     A.U. after   19 cycles

 The electronic state is 2-A.
 Alpha  occ. eigenvalues --  -38.44199 -38.44158 -38.43851 -38.43689 -38.43653
 Alpha  occ. eigenvalues --  -38.43596 -38.43571  -2.20065  -2.19998  -2.19682
 Alpha  occ. eigenvalues --   -2.19553  -2.19515  -2.19429  -2.19406  -1.13779
 Alpha  occ. eigenvalues --   -1.13751  -1.13708  -1.13703  -1.13679  -1.13588
 Alpha  occ. eigenvalues --   -1.13357  -1.13350  -1.13314  -1.13255  -1.13235
 Alpha  occ. eigenvalues --   -1.13231  -1.13156  -1.13153  -1.13087  -1.13082
 Alpha  occ. eigenvalues --   -1.13078  -1.13067  -1.13066  -1.13039  -1.13033
 Alpha  occ. eigenvalues --   -0.17080  -0.14302  -0.12534  -0.10523
 Alpha virt. eigenvalues --   -0.05975  -0.05538  -0.04228  -0.03797  -0.02768
 Alpha virt. eigenvalues --   -0.02403  -0.01879  -0.01284  -0.00826  -0.00546
 Alpha virt. eigenvalues --   -0.00354  -0.00044   0.00566   0.00585   0.00722

  Beta  occ. eigenvalues --  -38.44187 -38.44150 -38.43814 -38.43653 -38.43609
  Beta  occ. eigenvalues --  -38.43598 -38.43509  -2.20048  -2.19986  -2.19619
  Beta  occ. eigenvalues --   -2.19494  -2.19433  -2.19410  -2.19313  -1.13767
  Beta  occ. eigenvalues --   -1.13722  -1.13703  -1.13692  -1.13661  -1.13565
  Beta  occ. eigenvalues --   -1.13319  -1.13306  -1.13238  -1.13202  -1.13197
  Beta  occ. eigenvalues --   -1.13187  -1.13097  -1.13094  -1.13082  -1.13068
  Beta  occ. eigenvalues --   -1.13034  -1.13015  -1.13001  -1.12987  -1.12969
  Beta  occ. eigenvalues --   -0.16555  -0.13819  -0.12193
  Beta virt. eigenvalues --   -0.06825  -0.05838  -0.05468  -0.03656  -0.03531
  Beta virt. eigenvalues --   -0.02498  -0.02165  -0.01551  -0.00930  -0.00717
  Beta virt. eigenvalues --   -0.00201  -0.00163   0.00224   0.00680   0.00719

 Mulliken charges and spin densities:
               1          2
     1  Na  -0.594513   0.257521
     2  Na  -0.667163   0.073230
     3  Na  -0.304283   0.146175
     4  Na  -0.010647  -0.127720
     5  Na   0.338712   0.274934
     6  Na   0.364179   0.032256
     7  Na   0.873715   0.343603
 Sum of Mulliken charges =  -0.00000   1.00000

 Dipole moment (field-independent basis, Debye):
    X=              0.0939    Y=              0.2840    Z=              0.3971  Tot=              0.4972
 Quadrupole moment (field-independent basis, Debye-Ang):
   XX=            -61.3992   YY=            -67.2374   ZZ=            -68.4696
   XY=             -0.6001   XZ=             -2.9479   YZ=              1.5882

 Normal termination of Gaussian 16 at Tue Nov 28 23:35:34 2023.
