 Gaussian 16, Revision B.01,
 Gaussian 16:  ES64L-G16RevB.01 20-Dec-2017

 -------------------------
 #P B3LYP/6-311+g(d) force
 -------------------------

 -----
 DPGEN
 -----
 Symbolic Z-matrix:
 Charge =  0 Multiplicity = 2

                         Standard orientation:
 ---------------------------------------------------------------------
 Center     Atomic      Atomic             Coordinates (Angstroms)
 Number     Number       Type             X           Y           Z
 ---------------------------------------------------------------------
      1         11           0       -1.861774    2.168953    0.577420
      2         11           0       -3.855611   -0.098964   -1.478056
      3         11           0        1.760526    2.420767   -0.690281
      4         11           0       -1.961410   -1.729534    1.230744
      5         11           0        0.648281   -2.389276   -0.641045
      6         11           0        4.131033   -0.676809   -0.574615
      7         11           0        1.138955    0.304863    1.575832
 ---------------------------------------------------------------------

 SCF Done:  E(UB3LYP) =  -1136.12552086     A.U. after   21 cycles

 The electronic state is 2-A.
 Alpha  occ. eigenvalues --  -38.44390 -38.44238 -38.44191 -38.43929 -38.43865
 Alpha  occ. eigenvalues --  -38.43761 -38.43729  -2.20174  -2.20038  -2.19991
 Alpha  occ. eigenvalues --   -2.19829  -2.19668  -2.19564  -2.19546  -1.13845
 Alpha  occ. eigenvalues --   -1.13812  -1.13795  -1.13719  -1.13688  -1.13672
 Alpha  occ. eigenvalues --   -1.13671  -1.13654  -1.13597  -1.13519  -1.13467
 Alpha  occ. eigenvalues --   -1.13445  -1.13362  -1.13346  -1.13308  -1.13242
 Alpha  occ. eigenvalues --   -1.13233  -1.13224  -1.13216  -1.13185  -1.13165
 Alpha  occ. eigenvalues --   -0.17322  -0.13738  -0.11857  -0.10743
 Alpha virt. eigenvalues --   -0.06098  -0.05569  -0.04956  -0.03479  -0.02713
 Alpha virt. eigenvalues --   -0.02270  -0.02118  -0.01295  -0.00709  -0.00585
 Alpha virt. eigenvalues --   -0.00284   0.00183   0.00385   0.00470   0.00546

  Beta  occ. eigenvalues --  -38.44336 -38.44192 -38.44149 -38.43888 -38.43867
  Beta  occ. eigenvalues --  -38.43761 -38.43713  -2.20073  -2.19995  -2.19872
  Beta  occ. eigenvalues --   -2.19757  -2.19676  -2.19550  -2.19538  -1.13774
  Beta  occ. eigenvalues --   -1.13742  -1.13732  -1.13713  -1.13675  -1.13588
  Beta  occ. eigenvalues --   -1.13575  -1.13557  -1.13547  -1.13477  -1.13404
  Beta  occ. eigenvalues --   -1.13395  -1.13360  -1.13338  -1.13315  -1.13241
  Beta  occ. eigenvalues --   -1.13228  -1.13208  -1.13201  -1.13151  -1.13148
  Beta  occ. eigenvalues --   -0.16787  -0.13062  -0.11671
  Beta virt. eigenvalues --   -0.07281  -0.05871  -0.05488  -0.04354  -0.03351
  Beta virt. eigenvalues --   -0.02249  -0.01960  -0.01507  -0.01137  -0.00606
  Beta virt. eigenvalues --   -0.00301  -0.00161   0.00323   0.00463   0.00576

 Mulliken charges and spin densities:
               1          2
     1  Na  -0.367865  -0.070040
     2  Na  -0.003547   0.497194
     3  Na  -0.055202   0.013971
     4  Na   0.206744   0.084083
     5  Na  -0.338556  -0.084886
     6  Na   0.195734   0.348944
     7  Na   0.362692   0.210734
 Sum of Mulliken charges =  -0.00000   1.00000

 Dipole moment (field-independent basis, Debye):
    X=              0.5793    Y=             -0.0003    Z=             -0.1915  Tot=              0.6102
 Quadrupole moment (field-independent basis, Debye-Ang):
   XX=            -62.7638   YY=            -71.4746   ZZ=            -65.3327
   XY=              1.4110   XZ=             -1.7250   YZ=             -0.5801

 Normal termination of Gaussian 16 at Mon Dec  4 04:51:05 2023.
