 Gaussian 16, Revision B.01,
 Gaussian 16:  ES64L-G16RevB.01 20-Dec-2017

 -------------------------
 #P B3LYP/6-311+g(d) force
 -------------------------

 -----
 DPGEN
 -----
 Symbolic Z-matrix:
 Charge =  0 Multiplicity = 2

                         Standard orientation:
 ---------------------------------------------------------------------
 Center     Atomic      Atomic             Coordinates (Angstroms)
 Number     Number       Type             X           Y           Z
 ---------------------------------------------------------------------
      1         11           0       -5.201237    0.706488   -0.717796
      2         11           0       -3.126831    0.109575    1.805491
      3         11           0        0.425650    0.717755    0.658429
      4         11           0        1.583795   -2.763727    0.147137
      5         11           0        3.429971    2.892840   -0.395159
      6         11           0        4.594364   -0.741252    0.031555
      7         11           0       -1.705712   -0.921680   -1.529657
 ---------------------------------------------------------------------

 SCF Done:  E(UB3LYP) =  -1136.10931201     A.U. after   27 cycles

 The electronic state is 2-A.
 Alpha  occ. eigenvalues --  -38.45556 -38.45555 -38.44349 -38.44036 -38.43874
 Alpha  occ. eigenvalues --  -38.43858 -38.43372  -2.21338  -2.21319  -2.20112
 Alpha  occ. eigenvalues --   -2.19875  -2.19675  -2.19664  -2.19138  -1.15040
 Alpha  occ. eigenvalues --   -1.15030  -1.15004  -1.14995  -1.14976  -1.14925
 Alpha  occ. eigenvalues --   -1.13795  -1.13770  -1.13726  -1.13584  -1.13524
 Alpha  occ. eigenvalues --   -1.13469  -1.13345  -1.13327  -1.13325  -1.13323
 Alpha  occ. eigenvalues --   -1.13298  -1.13268  -1.12806  -1.12793  -1.12759
 Alpha  occ. eigenvalues --   -0.16697  -0.14167  -0.11129  -0.10858
 Alpha virt. eigenvalues --   -0.07387  -0.05309  -0.04996  -0.03528  -0.03095
 Alpha virt. eigenvalues --   -0.02256  -0.02157  -0.01564  -0.01301  -0.00899
 Alpha virt. eigenvalues --   -0.00612   0.00105   0.00244   0.00327   0.00409

  Beta  occ. eigenvalues --  -38.45581 -38.45575 -38.44309 -38.43975 -38.43830
  Beta  occ. eigenvalues --  -38.43800 -38.43335  -2.21378  -2.21370  -2.20040
  Beta  occ. eigenvalues --   -2.19764  -2.19582  -2.19564  -2.19069  -1.15070
  Beta  occ. eigenvalues --   -1.15060  -1.15033  -1.15009  -1.14986  -1.14965
  Beta  occ. eigenvalues --   -1.13749  -1.13721  -1.13661  -1.13512  -1.13448
  Beta  occ. eigenvalues --   -1.13377  -1.13290  -1.13272  -1.13252  -1.13246
  Beta  occ. eigenvalues --   -1.13228  -1.13202  -1.12761  -1.12740  -1.12718
  Beta  occ. eigenvalues --   -0.16236  -0.13489  -0.10867
  Beta virt. eigenvalues --   -0.07412  -0.07297  -0.04829  -0.04572  -0.03320
  Beta virt. eigenvalues --   -0.02779  -0.02260  -0.01698  -0.01388  -0.00920
  Beta virt. eigenvalues --   -0.00709  -0.00316   0.00178   0.00321   0.00443

 Mulliken charges and spin densities:
               1          2
     1  Na   0.152162   0.259043
     2  Na   0.144687  -0.169280
     3  Na  -1.431415   0.408094
     4  Na   0.074622   0.350827
     5  Na   0.653968   0.134116
     6  Na   0.241443   0.145971
     7  Na   0.164533  -0.128771
 Sum of Mulliken charges =  -0.00000   1.00000

 Dipole moment (field-independent basis, Debye):
    X=             -1.4565    Y=             -0.7213    Z=              0.0115  Tot=              1.6254
 Quadrupole moment (field-independent basis, Debye-Ang):
   XX=            -72.6806   YY=            -71.7831   ZZ=            -62.1219
   XY=             -1.6888   XZ=              0.2054   YZ=             -1.8166

 Normal termination of Gaussian 16 at Sun Dec  3 23:48:44 2023.
