 Gaussian 16, Revision B.01,
 Gaussian 16:  ES64L-G16RevB.01 20-Dec-2017

 -------------------------
 #P B3LYP/6-311+g(d) force
 -------------------------

 -----
 DPGEN
 -----
 Symbolic Z-matrix:
 Charge =  0 Multiplicity = 2

                         Standard orientation:
 ---------------------------------------------------------------------
 Center     Atomic      Atomic             Coordinates (Angstroms)
 Number     Number       Type             X           Y           Z
 ---------------------------------------------------------------------
      1         11           0        5.364652   -0.875762    0.008932
      2         11           0       -4.027378    0.667144   -1.047910
      3         11           0        2.148894   -2.334897    0.217091
      4         11           0        0.114032    2.442391   -0.074641
      5         11           0        3.321717    2.112562    0.521331
      6         11           0       -6.129191   -0.658129    1.154421
      7         11           0       -0.792725   -1.353308   -0.779224
 ---------------------------------------------------------------------

 SCF Done:  E(UB3LYP) =  -1136.10887186     A.U. after   28 cycles

 The electronic state is 2-A.
 Alpha  occ. eigenvalues --  -38.45328 -38.45046 -38.44699 -38.44662 -38.44470
 Alpha  occ. eigenvalues --  -38.43676 -38.43302  -2.21139  -2.20850  -2.20511
 Alpha  occ. eigenvalues --   -2.20425  -2.20246  -2.19458  -2.19088  -1.14816
 Alpha  occ. eigenvalues --   -1.14789  -1.14747  -1.14522  -1.14505  -1.14455
 Alpha  occ. eigenvalues --   -1.14184  -1.14174  -1.14122  -1.14087  -1.14083
 Alpha  occ. eigenvalues --   -1.14072  -1.13930  -1.13911  -1.13859  -1.13126
 Alpha  occ. eigenvalues --   -1.13119  -1.13097  -1.12766  -1.12761  -1.12721
 Alpha  occ. eigenvalues --   -0.16294  -0.13861  -0.12540  -0.11382
 Alpha virt. eigenvalues --   -0.06919  -0.05498  -0.04200  -0.03803  -0.03340
 Alpha virt. eigenvalues --   -0.02562  -0.02009  -0.01543  -0.01393  -0.00674
 Alpha virt. eigenvalues --   -0.00345  -0.00211  -0.00060   0.00051   0.00496

  Beta  occ. eigenvalues --  -38.45247 -38.44979 -38.44645 -38.44643 -38.44471
  Beta  occ. eigenvalues --  -38.43665 -38.43294  -2.20995  -2.20727  -2.20415
  Beta  occ. eigenvalues --   -2.20390  -2.20248  -2.19439  -2.19074  -1.14712
  Beta  occ. eigenvalues --   -1.14688  -1.14641  -1.14440  -1.14426  -1.14359
  Beta  occ. eigenvalues --   -1.14121  -1.14110  -1.14063  -1.14059  -1.14050
  Beta  occ. eigenvalues --   -1.14032  -1.13931  -1.13914  -1.13856  -1.13114
  Beta  occ. eigenvalues --   -1.13096  -1.13090  -1.12755  -1.12753  -1.12704
  Beta  occ. eigenvalues --   -0.15387  -0.13539  -0.11171
  Beta virt. eigenvalues --   -0.08787  -0.06462  -0.05005  -0.03958  -0.03527
  Beta virt. eigenvalues --   -0.03003  -0.02218  -0.01875  -0.01362  -0.00927
  Beta virt. eigenvalues --   -0.00590  -0.00223  -0.00061   0.00105   0.00158

 Mulliken charges and spin densities:
               1          2
     1  Na   0.148093  -0.011230
     2  Na   0.164423   0.226268
     3  Na   0.247616  -0.153830
     4  Na   0.108625   0.035262
     5  Na  -0.179385   0.294467
     6  Na   0.191143   0.046112
     7  Na  -0.680514   0.562952
 Sum of Mulliken charges =  -0.00000   1.00000

 Dipole moment (field-independent basis, Debye):
    X=             -0.4215    Y=             -0.3190    Z=              0.2134  Tot=              0.5701
 Quadrupole moment (field-independent basis, Debye-Ang):
   XX=            -61.1614   YY=            -68.8552   ZZ=            -69.2328
   XY=              4.3075   XZ=             -2.8551   YZ=             -1.4366

 Normal termination of Gaussian 16 at Sun Dec  3 19:54:42 2023.
