 Gaussian 16, Revision B.01,
 Gaussian 16:  ES64L-G16RevB.01 20-Dec-2017

 -------------------------
 #P B3LYP/6-311+g(d) force
 -------------------------

 -----
 DPGEN
 -----
 Symbolic Z-matrix:
 Charge =  0 Multiplicity = 2

                         Standard orientation:
 ---------------------------------------------------------------------
 Center     Atomic      Atomic             Coordinates (Angstroms)
 Number     Number       Type             X           Y           Z
 ---------------------------------------------------------------------
      1         11           0        2.319829   -2.035717   -0.224780
      2         11           0       -0.318203    3.141505    0.400754
      3         11           0       -0.559395   -1.261135    2.384702
      4         11           0       -1.760148   -2.342624   -0.957405
      5         11           0        0.116595    0.244373   -0.949099
      6         11           0       -2.874858    1.019596   -0.406787
      7         11           0        3.076180    1.234002   -0.247386
 ---------------------------------------------------------------------

 SCF Done:  E(UB3LYP) =  -1136.13106844     A.U. after   20 cycles

 The electronic state is 2-A.
 Alpha  occ. eigenvalues --  -38.44073 -38.44001 -38.43971 -38.43796 -38.43651
 Alpha  occ. eigenvalues --  -38.43576 -38.42641  -2.19902  -2.19856  -2.19801
 Alpha  occ. eigenvalues --   -2.19619  -2.19498  -2.19403  -2.18732  -1.13603
 Alpha  occ. eigenvalues --   -1.13569  -1.13569  -1.13537  -1.13513  -1.13488
 Alpha  occ. eigenvalues --   -1.13476  -1.13457  -1.13414  -1.13263  -1.13243
 Alpha  occ. eigenvalues --   -1.13235  -1.13198  -1.13139  -1.13121  -1.13093
 Alpha  occ. eigenvalues --   -1.13061  -1.13030  -1.12420  -1.12391  -1.12379
 Alpha  occ. eigenvalues --   -0.18167  -0.13078  -0.12544  -0.10530
 Alpha virt. eigenvalues --   -0.05600  -0.05418  -0.04831  -0.03161  -0.02812
 Alpha virt. eigenvalues --   -0.02270  -0.01502  -0.01289  -0.00672  -0.00517
 Alpha virt. eigenvalues --   -0.00072   0.00324   0.00748   0.00819   0.00825

  Beta  occ. eigenvalues --  -38.44069 -38.43993 -38.43971 -38.43683 -38.43628
  Beta  occ. eigenvalues --  -38.43571 -38.42615  -2.19898  -2.19843  -2.19801
  Beta  occ. eigenvalues --   -2.19459  -2.19409  -2.19395  -2.18689  -1.13600
  Beta  occ. eigenvalues --   -1.13559  -1.13557  -1.13529  -1.13493  -1.13486
  Beta  occ. eigenvalues --   -1.13462  -1.13454  -1.13414  -1.13168  -1.13119
  Beta  occ. eigenvalues --   -1.13117  -1.13097  -1.13095  -1.13087  -1.13074
  Beta  occ. eigenvalues --   -1.13047  -1.13027  -1.12370  -1.12360  -1.12345
  Beta  occ. eigenvalues --   -0.17575  -0.12856  -0.12320
  Beta virt. eigenvalues --   -0.06568  -0.05591  -0.05306  -0.04692  -0.02428
  Beta virt. eigenvalues --   -0.02184  -0.01476  -0.01317  -0.01198  -0.00641
  Beta virt. eigenvalues --   -0.00531   0.00179   0.00397   0.00796   0.00839

 Mulliken charges and spin densities:
               1          2
     1  Na   0.268454   0.011256
     2  Na  -0.052621   0.031748
     3  Na  -0.766055   0.611963
     4  Na   0.405893  -0.014592
     5  Na  -0.456708   0.342182
     6  Na   0.389163  -0.001070
     7  Na   0.211874   0.018514
 Sum of Mulliken charges =  -0.00000   1.00000

 Dipole moment (field-independent basis, Debye):
    X=              0.1710    Y=              0.0197    Z=              0.0749  Tot=              0.1878
 Quadrupole moment (field-independent basis, Debye-Ang):
   XX=            -56.9456   YY=            -60.5273   ZZ=            -75.2848
   XY=             -0.1361   XZ=              0.9404   YZ=              3.0172

 Normal termination of Gaussian 16 at Fri Dec  8 03:24:56 2023.
