 Gaussian 16, Revision B.01,
 Gaussian 16:  ES64L-G16RevB.01 20-Dec-2017

 -------------------------
 #P B3LYP/6-311+g(d) force
 -------------------------

 -----
 DPGEN
 -----
 Symbolic Z-matrix:
 Charge =  0 Multiplicity = 2

                         Standard orientation:
 ---------------------------------------------------------------------
 Center     Atomic      Atomic             Coordinates (Angstroms)
 Number     Number       Type             X           Y           Z
 ---------------------------------------------------------------------
      1         11           0       -0.201862    0.982446    0.957353
      2         11           0        6.518147    0.075383    1.000460
      3         11           0        4.058880    0.115180   -0.943333
      4         11           0        0.941822   -2.333522   -0.564375
      5         11           0       -2.985931   -1.001648   -0.449028
      6         11           0       -2.016460    2.815066   -0.771276
      7         11           0       -6.314596   -0.652906    0.770198
 ---------------------------------------------------------------------

 SCF Done:  E(UB3LYP) =  -1136.10430417     A.U. after   24 cycles

 The electronic state is 2-A.
 Alpha  occ. eigenvalues --  -38.45755 -38.45507 -38.44823 -38.44290 -38.44151
 Alpha  occ. eigenvalues --  -38.43734 -38.43145  -2.21575  -2.21291  -2.20644
 Alpha  occ. eigenvalues --   -2.20083  -2.19939  -2.19526  -2.18884  -1.15240
 Alpha  occ. eigenvalues --   -1.15210  -1.15182  -1.14946  -1.14915  -1.14905
 Alpha  occ. eigenvalues --   -1.14331  -1.14307  -1.14283  -1.13777  -1.13731
 Alpha  occ. eigenvalues --   -1.13729  -1.13614  -1.13598  -1.13550  -1.13231
 Alpha  occ. eigenvalues --   -1.13203  -1.13121  -1.12560  -1.12558  -1.12519
 Alpha  occ. eigenvalues --   -0.16564  -0.13780  -0.12113  -0.11098
 Alpha virt. eigenvalues --   -0.06457  -0.06070  -0.04857  -0.03419  -0.03082
 Alpha virt. eigenvalues --   -0.02692  -0.02092  -0.01815  -0.01141  -0.00987
 Alpha virt. eigenvalues --   -0.00803  -0.00505   0.00015   0.00249   0.00463

  Beta  occ. eigenvalues --  -38.45668 -38.45411 -38.44821 -38.44258 -38.44156
  Beta  occ. eigenvalues --  -38.43716 -38.43159  -2.21416  -2.21112  -2.20647
  Beta  occ. eigenvalues --   -2.20023  -2.19952  -2.19493  -2.18909  -1.15129
  Beta  occ. eigenvalues --   -1.15104  -1.15071  -1.14824  -1.14790  -1.14787
  Beta  occ. eigenvalues --   -1.14320  -1.14316  -1.14254  -1.13745  -1.13691
  Beta  occ. eigenvalues --   -1.13689  -1.13623  -1.13606  -1.13536  -1.13208
  Beta  occ. eigenvalues --   -1.13171  -1.13103  -1.12578  -1.12575  -1.12534
  Beta  occ. eigenvalues --   -0.15803  -0.13292  -0.10865
  Beta virt. eigenvalues --   -0.08581  -0.06152  -0.05701  -0.04378  -0.03226
  Beta virt. eigenvalues --   -0.02605  -0.02467  -0.01759  -0.01439  -0.01096
  Beta virt. eigenvalues --   -0.00797  -0.00410  -0.00349   0.00114   0.00338

 Mulliken charges and spin densities:
               1          2
     1  Na  -0.449948   0.079827
     2  Na   0.158473   0.131356
     3  Na  -0.265887  -0.028767
     4  Na   0.278825   0.425651
     5  Na  -0.366755   0.182098
     6  Na   0.463931   0.293756
     7  Na   0.181362  -0.083921
 Sum of Mulliken charges =  -0.00000   1.00000

 Dipole moment (field-independent basis, Debye):
    X=              1.4857    Y=              1.0301    Z=             -0.1470  Tot=              1.8139
 Quadrupole moment (field-independent basis, Debye-Ang):
   XX=            -78.1632   YY=            -65.1341   ZZ=            -66.1778
   XY=             -8.7720   XZ=              4.7363   YZ=             -1.2881

 Normal termination of Gaussian 16 at Tue Nov 28 18:52:02 2023.
