 Gaussian 16, Revision B.01,
 Gaussian 16:  ES64L-G16RevB.01 20-Dec-2017

 -------------------------
 #P B3LYP/6-311+g(d) force
 -------------------------

 -----
 DPGEN
 -----
 Symbolic Z-matrix:
 Charge =  0 Multiplicity = 2

                         Standard orientation:
 ---------------------------------------------------------------------
 Center     Atomic      Atomic             Coordinates (Angstroms)
 Number     Number       Type             X           Y           Z
 ---------------------------------------------------------------------
      1         11           0        0.656517    2.704513    0.141207
      2         11           0       -1.081734    0.066579    1.657872
      3         11           0       -3.029023    1.181767   -0.387193
      4         11           0       -2.305694   -2.379455   -0.355230
      5         11           0        1.938848   -1.098644    1.154924
      6         11           0        0.021469   -0.085698   -1.554396
      7         11           0        3.799617   -0.389062   -0.657184
 ---------------------------------------------------------------------

 SCF Done:  E(UB3LYP) =  -1136.11760454     A.U. after   23 cycles

 The electronic state is 2-A.
 Alpha  occ. eigenvalues --  -38.45131 -38.45076 -38.43995 -38.43840 -38.43244
 Alpha  occ. eigenvalues --  -38.43148 -38.42959  -2.20987  -2.20937  -2.19934
 Alpha  occ. eigenvalues --   -2.19795  -2.19165  -2.19076  -2.18782  -1.14789
 Alpha  occ. eigenvalues --   -1.14718  -1.14647  -1.14566  -1.14550  -1.14529
 Alpha  occ. eigenvalues --   -1.13658  -1.13573  -1.13552  -1.13482  -1.13425
 Alpha  occ. eigenvalues --   -1.13382  -1.12869  -1.12831  -1.12766  -1.12749
 Alpha  occ. eigenvalues --   -1.12718  -1.12698  -1.12473  -1.12451  -1.12398
 Alpha  occ. eigenvalues --   -0.18785  -0.14024  -0.11361  -0.10836
 Alpha virt. eigenvalues --   -0.06924  -0.04988  -0.04221  -0.03237  -0.02589
 Alpha virt. eigenvalues --   -0.02391  -0.02189  -0.01048  -0.00760  -0.00227
 Alpha virt. eigenvalues --    0.00173   0.00233   0.00384   0.00734   0.00800

  Beta  occ. eigenvalues --  -38.45118 -38.45068 -38.43948 -38.43807 -38.43240
  Beta  occ. eigenvalues --  -38.43072 -38.42956  -2.20965  -2.20922  -2.19848
  Beta  occ. eigenvalues --   -2.19738  -2.19072  -2.19028  -2.18781  -1.14779
  Beta  occ. eigenvalues --   -1.14696  -1.14622  -1.14553  -1.14536  -1.14515
  Beta  occ. eigenvalues --   -1.13591  -1.13513  -1.13486  -1.13420  -1.13382
  Beta  occ. eigenvalues --   -1.13340  -1.12771  -1.12755  -1.12741  -1.12711
  Beta  occ. eigenvalues --   -1.12705  -1.12626  -1.12472  -1.12431  -1.12400
  Beta  occ. eigenvalues --   -0.18046  -0.13847  -0.11156
  Beta virt. eigenvalues --   -0.06892  -0.06760  -0.04929  -0.03691  -0.03102
  Beta virt. eigenvalues --   -0.02401  -0.01657  -0.01386  -0.00983  -0.00524
  Beta virt. eigenvalues --   -0.00087   0.00202   0.00254   0.00539   0.00797

 Mulliken charges and spin densities:
               1          2
     1  Na  -0.278598  -0.037488
     2  Na  -0.008099   0.271132
     3  Na   0.678996   0.105672
     4  Na   0.033695   0.088302
     5  Na  -0.308840  -0.025105
     6  Na  -0.555261   0.501380
     7  Na   0.438106   0.096107
 Sum of Mulliken charges =  -0.00000   1.00000

 Dipole moment (field-independent basis, Debye):
    X=             -0.1031    Y=              0.4656    Z=             -0.4467  Tot=              0.6534
 Quadrupole moment (field-independent basis, Debye-Ang):
   XX=            -49.4810   YY=            -70.8893   ZZ=            -72.3861
   XY=             -0.3611   XZ=             -1.1298   YZ=              0.0910

 Normal termination of Gaussian 16 at Tue Dec  5 21:13:54 2023.
