 Gaussian 16, Revision B.01,
 Gaussian 16:  ES64L-G16RevB.01 20-Dec-2017

 -------------------------
 #P B3LYP/6-311+g(d) force
 -------------------------

 -----
 DPGEN
 -----
 Symbolic Z-matrix:
 Charge =  0 Multiplicity = 2

                         Standard orientation:
 ---------------------------------------------------------------------
 Center     Atomic      Atomic             Coordinates (Angstroms)
 Number     Number       Type             X           Y           Z
 ---------------------------------------------------------------------
      1         11           0       -0.516095    0.791356    0.197911
      2         11           0       -2.807862   -1.592162   -0.730765
      3         11           0        3.384180    0.503401    0.175781
      4         11           0        0.570783   -2.299786    1.425406
      5         11           0       -4.175489    1.362004    0.224614
      6         11           0        1.610791    3.575450   -0.247178
      7         11           0        1.933691   -2.340265   -1.045768
 ---------------------------------------------------------------------

 SCF Done:  E(UB3LYP) =  -1136.11972138     A.U. after   21 cycles

 The electronic state is 2-A.
 Alpha  occ. eigenvalues --  -38.44863 -38.44172 -38.44000 -38.43852 -38.43758
 Alpha  occ. eigenvalues --  -38.43497 -38.43488  -2.20662  -2.20069  -2.19893
 Alpha  occ. eigenvalues --   -2.19675  -2.19573  -2.19368  -2.19279  -1.14360
 Alpha  occ. eigenvalues --   -1.14326  -1.14283  -1.13939  -1.13722  -1.13671
 Alpha  occ. eigenvalues --   -1.13536  -1.13511  -1.13465  -1.13364  -1.13340
 Alpha  occ. eigenvalues --   -1.13276  -1.13226  -1.13225  -1.13187  -1.13095
 Alpha  occ. eigenvalues --   -1.13043  -1.12972  -1.12944  -1.12932  -1.12899
 Alpha  occ. eigenvalues --   -0.17407  -0.13813  -0.12485  -0.09668
 Alpha virt. eigenvalues --   -0.06333  -0.05533  -0.05396  -0.02841  -0.02674
 Alpha virt. eigenvalues --   -0.02236  -0.01874  -0.01571  -0.00993  -0.00887
 Alpha virt. eigenvalues --    0.00036   0.00134   0.00288   0.00497   0.00654

  Beta  occ. eigenvalues --  -38.44863 -38.44150 -38.43970 -38.43810 -38.43697
  Beta  occ. eigenvalues --  -38.43477 -38.43476  -2.20666  -2.20030  -2.19843
  Beta  occ. eigenvalues --   -2.19602  -2.19459  -2.19332  -2.19256  -1.14368
  Beta  occ. eigenvalues --   -1.14333  -1.14253  -1.13914  -1.13695  -1.13625
  Beta  occ. eigenvalues --   -1.13504  -1.13465  -1.13413  -1.13314  -1.13296
  Beta  occ. eigenvalues --   -1.13203  -1.13147  -1.13143  -1.13116  -1.13069
  Beta  occ. eigenvalues --   -1.13011  -1.12952  -1.12928  -1.12914  -1.12884
  Beta  occ. eigenvalues --   -0.16912  -0.13178  -0.12276
  Beta virt. eigenvalues --   -0.06223  -0.06130  -0.05332  -0.05155  -0.02570
  Beta virt. eigenvalues --   -0.02155  -0.02094  -0.01580  -0.01385  -0.00822
  Beta virt. eigenvalues --   -0.00550   0.00202   0.00354   0.00498   0.00585

 Mulliken charges and spin densities:
               1          2
     1  Na  -2.283547  -0.206259
     2  Na   0.477305   0.015510
     3  Na   0.429960   0.331147
     4  Na   0.396970   0.198268
     5  Na   0.481952   0.399619
     6  Na   0.128340   0.033904
     7  Na   0.369020   0.227812
 Sum of Mulliken charges =  -0.00000   1.00000

 Dipole moment (field-independent basis, Debye):
    X=             -0.4749    Y=             -0.6689    Z=              0.1089  Tot=              0.8275
 Quadrupole moment (field-independent basis, Debye-Ang):
   XX=            -73.5231   YY=            -61.6166   ZZ=            -65.9640
   XY=              4.5627   XZ=              1.8127   YZ=              1.7573

 Normal termination of Gaussian 16 at Tue Dec  5 12:22:19 2023.
