 Gaussian 16, Revision B.01,
 Gaussian 16:  ES64L-G16RevB.01 20-Dec-2017

 -------------------------
 #P B3LYP/6-311+g(d) force
 -------------------------

 -----
 DPGEN
 -----
 Symbolic Z-matrix:
 Charge =  0 Multiplicity = 2

                         Standard orientation:
 ---------------------------------------------------------------------
 Center     Atomic      Atomic             Coordinates (Angstroms)
 Number     Number       Type             X           Y           Z
 ---------------------------------------------------------------------
      1         11           0        0.165947    0.050646    1.856450
      2         11           0       -0.040808    0.161114   -1.829133
      3         11           0       -2.012339    2.188599    0.185579
      4         11           0        2.909396   -1.064483   -0.213564
      5         11           0        1.858124    2.388805   -0.016228
      6         11           0        0.014943   -2.653850    0.237492
      7         11           0       -2.895263   -1.070831   -0.220595
 ---------------------------------------------------------------------

 SCF Done:  E(UB3LYP) =  -1136.14019080     A.U. after   19 cycles

 The electronic state is 2-A.
 Alpha  occ. eigenvalues --  -38.43902 -38.43740 -38.43660 -38.43611 -38.43353
 Alpha  occ. eigenvalues --  -38.43326 -38.42934  -2.19750  -2.19596  -2.19505
 Alpha  occ. eigenvalues --   -2.19447  -2.19300  -2.19285  -2.18853  -1.13423
 Alpha  occ. eigenvalues --   -1.13414  -1.13393  -1.13273  -1.13263  -1.13254
 Alpha  occ. eigenvalues --   -1.13183  -1.13176  -1.13132  -1.13128  -1.13122
 Alpha  occ. eigenvalues --   -1.13073  -1.12992  -1.12962  -1.12927  -1.12919
 Alpha  occ. eigenvalues --   -1.12914  -1.12894  -1.12540  -1.12507  -1.12477
 Alpha  occ. eigenvalues --   -0.18921  -0.13089  -0.12470  -0.10839
 Alpha virt. eigenvalues --   -0.05482  -0.05342  -0.04427  -0.03214  -0.02928
 Alpha virt. eigenvalues --   -0.02561  -0.01494  -0.01135  -0.00284  -0.00142
 Alpha virt. eigenvalues --    0.00013   0.00369   0.00806   0.00887   0.00937

  Beta  occ. eigenvalues --  -38.43897 -38.43736 -38.43655 -38.43607 -38.43276
  Beta  occ. eigenvalues --  -38.43241 -38.42924  -2.19744  -2.19591  -2.19499
  Beta  occ. eigenvalues --   -2.19443  -2.19158  -2.19129  -2.18840  -1.13419
  Beta  occ. eigenvalues --   -1.13396  -1.13385  -1.13269  -1.13262  -1.13231
  Beta  occ. eigenvalues --   -1.13174  -1.13152  -1.13130  -1.13120  -1.13101
  Beta  occ. eigenvalues --   -1.13071  -1.12898  -1.12861  -1.12829  -1.12810
  Beta  occ. eigenvalues --   -1.12808  -1.12785  -1.12526  -1.12475  -1.12464
  Beta  occ. eigenvalues --   -0.18173  -0.12848  -0.12207
  Beta virt. eigenvalues --   -0.06916  -0.05472  -0.05312  -0.04415  -0.02421
  Beta virt. eigenvalues --   -0.02117  -0.01502  -0.01401  -0.01074  -0.00346
  Beta virt. eigenvalues --   -0.00170   0.00124   0.00383   0.00852   0.00885

 Mulliken charges and spin densities:
               1          2
     1  Na  -0.291390   0.682594
     2  Na  -0.357453   0.693411
     3  Na   0.102285  -0.114911
     4  Na   0.109375  -0.063363
     5  Na   0.060959  -0.147692
     6  Na   0.274901  -0.015646
     7  Na   0.101325  -0.034393
 Sum of Mulliken charges =  -0.00000   1.00000

 Dipole moment (field-independent basis, Debye):
    X=              0.0879    Y=              0.2380    Z=             -0.0663  Tot=              0.2622
 Quadrupole moment (field-independent basis, Debye-Ang):
   XX=            -55.8507   YY=            -63.6162   ZZ=            -73.8618
   XY=              0.0151   XZ=             -0.4460   YZ=              0.4965

 Normal termination of Gaussian 16 at Thu Dec  7 16:50:57 2023.
