 Gaussian 16, Revision B.01,
 Gaussian 16:  ES64L-G16RevB.01 20-Dec-2017

 -------------------------
 #P B3LYP/6-311+g(d) force
 -------------------------

 -----
 DPGEN
 -----
 Symbolic Z-matrix:
 Charge =  0 Multiplicity = 2

                         Standard orientation:
 ---------------------------------------------------------------------
 Center     Atomic      Atomic             Coordinates (Angstroms)
 Number     Number       Type             X           Y           Z
 ---------------------------------------------------------------------
      1         11           0        0.259331   -1.821412    0.829551
      2         11           0        3.244021   -2.705246   -0.286760
      3         11           0        3.896417    0.370259   -0.574067
      4         11           0        0.144586    1.237213   -0.764174
      5         11           0       -3.161345   -0.351232    0.681391
      6         11           0        2.192432    3.195842    0.680498
      7         11           0       -6.575442    0.074577   -0.566439
 ---------------------------------------------------------------------

 SCF Done:  E(UB3LYP) =  -1136.12048752     A.U. after   20 cycles

 The electronic state is 2-A.
 Alpha  occ. eigenvalues --  -38.45169 -38.44567 -38.44442 -38.44138 -38.43835
 Alpha  occ. eigenvalues --  -38.43629 -38.43196  -2.20953  -2.20407  -2.20285
 Alpha  occ. eigenvalues --   -2.19971  -2.19595  -2.19450  -2.19043  -1.14586
 Alpha  occ. eigenvalues --   -1.14586  -1.14557  -1.14094  -1.14070  -1.14023
 Alpha  occ. eigenvalues --   -1.13981  -1.13973  -1.13886  -1.13657  -1.13649
 Alpha  occ. eigenvalues --   -1.13571  -1.13291  -1.13290  -1.13229  -1.13119
 Alpha  occ. eigenvalues --   -1.13109  -1.13083  -1.12718  -1.12692  -1.12687
 Alpha  occ. eigenvalues --   -0.16862  -0.13834  -0.12189  -0.11717
 Alpha virt. eigenvalues --   -0.05830  -0.05654  -0.04670  -0.03724  -0.02702
 Alpha virt. eigenvalues --   -0.02371  -0.02110  -0.01919  -0.01036  -0.00825
 Alpha virt. eigenvalues --   -0.00239  -0.00076   0.00204   0.00349   0.00652

  Beta  occ. eigenvalues --  -38.45048 -38.44527 -38.44420 -38.44104 -38.43847
  Beta  occ. eigenvalues --  -38.43626 -38.43188  -2.20728  -2.20335  -2.20247
  Beta  occ. eigenvalues --   -2.19910  -2.19625  -2.19447  -2.19030  -1.14433
  Beta  occ. eigenvalues --   -1.14433  -1.14407  -1.14046  -1.14025  -1.13965
  Beta  occ. eigenvalues --   -1.13955  -1.13947  -1.13851  -1.13616  -1.13609
  Beta  occ. eigenvalues --   -1.13526  -1.13318  -1.13317  -1.13195  -1.13114
  Beta  occ. eigenvalues --   -1.13107  -1.13080  -1.12697  -1.12685  -1.12679
  Beta  occ. eigenvalues --   -0.16401  -0.12791  -0.12145
  Beta virt. eigenvalues --   -0.08186  -0.05582  -0.05191  -0.04395  -0.03538
  Beta virt. eigenvalues --   -0.02380  -0.01960  -0.01754  -0.01575  -0.00767
  Beta virt. eigenvalues --   -0.00498  -0.00168   0.00120   0.00345   0.00450

 Mulliken charges and spin densities:
               1          2
     1  Na  -0.199096  -0.029402
     2  Na   0.607495   0.099416
     3  Na  -0.124170   0.271976
     4  Na  -0.833863  -0.015119
     5  Na  -0.059807   0.095569
     6  Na   0.596336   0.034586
     7  Na   0.013106   0.542975
 Sum of Mulliken charges =  -0.00000   1.00000

 Dipole moment (field-independent basis, Debye):
    X=              0.1048    Y=              0.4795    Z=             -0.0383  Tot=              0.4923
 Quadrupole moment (field-independent basis, Debye-Ang):
   XX=            -58.5327   YY=            -69.0819   ZZ=            -68.2797
   XY=              0.5331   XZ=              2.1106   YZ=              1.0324

 Normal termination of Gaussian 16 at Wed Nov 29 01:34:39 2023.
