 Gaussian 16, Revision B.01,
 Gaussian 16:  ES64L-G16RevB.01 20-Dec-2017

 -------------------------
 #P B3LYP/6-311+g(d) force
 -------------------------

 -----
 DPGEN
 -----
 Symbolic Z-matrix:
 Charge =  0 Multiplicity = 2

                         Standard orientation:
 ---------------------------------------------------------------------
 Center     Atomic      Atomic             Coordinates (Angstroms)
 Number     Number       Type             X           Y           Z
 ---------------------------------------------------------------------
      1         11           0       -4.778279   -1.195759   -0.790443
      2         11           0        6.518599   -0.609652    1.307849
      3         11           0        2.828825    1.359883   -0.395858
      4         11           0        5.356935   -1.443509   -1.134433
      5         11           0        0.046374    1.220371    0.997792
      6         11           0       -2.625285    1.482995   -1.067535
      7         11           0       -7.347168   -0.814329    1.082629
 ---------------------------------------------------------------------

 SCF Done:  E(UB3LYP) =  -1136.10693749     A.U. after   17 cycles

 The electronic state is 2-A.
 Alpha  occ. eigenvalues --  -38.45268 -38.45084 -38.44011 -38.43926 -38.43793
 Alpha  occ. eigenvalues --  -38.43486 -38.43437  -2.21102  -2.20924  -2.19839
 Alpha  occ. eigenvalues --   -2.19748  -2.19598  -2.19306  -2.19239  -1.14952
 Alpha  occ. eigenvalues --   -1.14737  -1.14724  -1.14560  -1.14545  -1.14497
 Alpha  occ. eigenvalues --   -1.13516  -1.13498  -1.13449  -1.13402  -1.13398
 Alpha  occ. eigenvalues --   -1.13364  -1.13248  -1.13237  -1.13233  -1.12978
 Alpha  occ. eigenvalues --   -1.12966  -1.12962  -1.12914  -1.12906  -1.12891
 Alpha  occ. eigenvalues --   -0.15586  -0.14420  -0.12602  -0.10383
 Alpha virt. eigenvalues --   -0.06436  -0.05469  -0.04500  -0.03336  -0.03096
 Alpha virt. eigenvalues --   -0.02669  -0.01776  -0.01655  -0.01224  -0.01147
 Alpha virt. eigenvalues --   -0.00342  -0.00160   0.00085   0.00239   0.00326

  Beta  occ. eigenvalues --  -38.45245 -38.45082 -38.43949 -38.43847 -38.43716
  Beta  occ. eigenvalues --  -38.43495 -38.43447  -2.21061  -2.20922  -2.19724
  Beta  occ. eigenvalues --   -2.19601  -2.19455  -2.19329  -2.19264  -1.14931
  Beta  occ. eigenvalues --   -1.14710  -1.14692  -1.14561  -1.14533  -1.14486
  Beta  occ. eigenvalues --   -1.13439  -1.13420  -1.13378  -1.13303  -1.13296
  Beta  occ. eigenvalues --   -1.13274  -1.13159  -1.13139  -1.13136  -1.12992
  Beta  occ. eigenvalues --   -1.12985  -1.12940  -1.12937  -1.12926  -1.12859
  Beta  occ. eigenvalues --   -0.15160  -0.13796  -0.11972
  Beta virt. eigenvalues --   -0.07274  -0.06158  -0.05082  -0.04182  -0.03158
  Beta virt. eigenvalues --   -0.02901  -0.02417  -0.01531  -0.01446  -0.01114
  Beta virt. eigenvalues --   -0.00682  -0.00050   0.00082   0.00271   0.00309

 Mulliken charges and spin densities:
               1          2
     1  Na  -0.326193  -0.026749
     2  Na   0.146379   0.105955
     3  Na  -0.194550   0.268871
     4  Na   0.137837   0.016105
     5  Na  -0.018794  -0.004001
     6  Na   0.011370   0.270894
     7  Na   0.243950   0.368925
 Sum of Mulliken charges =  -0.00000   1.00000

 Dipole moment (field-independent basis, Debye):
    X=              3.2460    Y=             -0.1926    Z=              0.2321  Tot=              3.2600
 Quadrupole moment (field-independent basis, Debye-Ang):
   XX=            -64.7489   YY=            -71.1520   ZZ=            -61.4218
   XY=             -3.6328   XZ=              0.0764   YZ=              2.9088

 Normal termination of Gaussian 16 at Sun Dec  3 12:59:40 2023.
