 Gaussian 16, Revision B.01,
 Gaussian 16:  ES64L-G16RevB.01 20-Dec-2017

 -------------------------
 #P B3LYP/6-311+g(d) force
 -------------------------

 -----
 DPGEN
 -----
 Symbolic Z-matrix:
 Charge =  0 Multiplicity = 2

                         Standard orientation:
 ---------------------------------------------------------------------
 Center     Atomic      Atomic             Coordinates (Angstroms)
 Number     Number       Type             X           Y           Z
 ---------------------------------------------------------------------
      1         11           0        3.775773    0.564796    0.451599
      2         11           0       -3.453051   -1.244867    0.829475
      3         11           0       -1.537237   -0.882300   -1.585363
      4         11           0        2.569961   -2.196788   -0.543979
      5         11           0        0.935524    2.198718   -0.453834
      6         11           0        0.011351   -0.261961    1.531090
      7         11           0       -2.302320    1.822401   -0.228988
 ---------------------------------------------------------------------

 SCF Done:  E(UB3LYP) =  -1136.11844826     A.U. after   26 cycles

 The electronic state is 2-A.
 Alpha  occ. eigenvalues --  -38.45312 -38.44566 -38.44171 -38.44026 -38.43995
 Alpha  occ. eigenvalues --  -38.43744 -38.42537  -2.21135  -2.20446  -2.20039
 Alpha  occ. eigenvalues --   -2.19915  -2.19830  -2.19671  -2.18418  -1.14811
 Alpha  occ. eigenvalues --   -1.14793  -1.14773  -1.14162  -1.14098  -1.14053
 Alpha  occ. eigenvalues --   -1.13739  -1.13702  -1.13673  -1.13632  -1.13567
 Alpha  occ. eigenvalues --   -1.13537  -1.13498  -1.13484  -1.13477  -1.13330
 Alpha  occ. eigenvalues --   -1.13297  -1.13285  -1.12115  -1.12069  -1.12064
 Alpha  occ. eigenvalues --   -0.18457  -0.14545  -0.11401  -0.10263
 Alpha virt. eigenvalues --   -0.07150  -0.05932  -0.04407  -0.03313  -0.02772
 Alpha virt. eigenvalues --   -0.02228  -0.01941  -0.01378  -0.00776  -0.00555
 Alpha virt. eigenvalues --    0.00045   0.00110   0.00375   0.00605   0.00649

  Beta  occ. eigenvalues --  -38.45311 -38.44518 -38.44149 -38.44013 -38.43980
  Beta  occ. eigenvalues --  -38.43686 -38.42534  -2.21133  -2.20359  -2.19999
  Beta  occ. eigenvalues --   -2.19892  -2.19805  -2.19565  -2.18416  -1.14806
  Beta  occ. eigenvalues --   -1.14794  -1.14768  -1.14094  -1.14037  -1.13982
  Beta  occ. eigenvalues --   -1.13712  -1.13676  -1.13629  -1.13602  -1.13548
  Beta  occ. eigenvalues --   -1.13507  -1.13481  -1.13467  -1.13454  -1.13260
  Beta  occ. eigenvalues --   -1.13227  -1.13198  -1.12118  -1.12071  -1.12037
  Beta  occ. eigenvalues --   -0.17828  -0.14388  -0.11173
  Beta virt. eigenvalues --   -0.06975  -0.06546  -0.05757  -0.03927  -0.03084
  Beta virt. eigenvalues --   -0.02637  -0.01653  -0.01363  -0.01075  -0.00652
  Beta virt. eigenvalues --   -0.00271   0.00094   0.00164   0.00523   0.00660

 Mulliken charges and spin densities:
               1          2
     1  Na   1.015607  -0.028481
     2  Na   0.688445   0.189014
     3  Na  -0.512826   0.328866
     4  Na  -0.302997   0.095486
     5  Na  -0.567351  -0.005820
     6  Na  -0.642748   0.257822
     7  Na   0.321870   0.163114
 Sum of Mulliken charges =  -0.00000   1.00000

 Dipole moment (field-independent basis, Debye):
    X=              0.4229    Y=              0.1908    Z=              0.2522  Tot=              0.5281
 Quadrupole moment (field-independent basis, Debye-Ang):
   XX=            -47.3255   YY=            -72.6038   ZZ=            -74.8931
   XY=              1.1833   XZ=              0.1175   YZ=              0.0417

 Normal termination of Gaussian 16 at Thu Dec  7 20:58:08 2023.
