 Gaussian 16, Revision B.01,
 Gaussian 16:  ES64L-G16RevB.01 20-Dec-2017

 -------------------------
 #P B3LYP/6-311+g(d) force
 -------------------------

 -----
 DPGEN
 -----
 Symbolic Z-matrix:
 Charge =  0 Multiplicity = 2

                         Standard orientation:
 ---------------------------------------------------------------------
 Center     Atomic      Atomic             Coordinates (Angstroms)
 Number     Number       Type             X           Y           Z
 ---------------------------------------------------------------------
      1         11           0        0.659804   -2.641130   -0.628278
      2         11           0        0.820741   -0.391770    2.110439
      3         11           0        1.082798    2.888247   -0.375319
      4         11           0       -2.794535   -1.736773    0.085444
      5         11           0       -0.412471    0.305393   -1.504270
      6         11           0        2.996278   -0.389414   -0.104489
      7         11           0       -2.352614    1.965446    0.416474
 ---------------------------------------------------------------------

 SCF Done:  E(UB3LYP) =  -1136.13489638     A.U. after   19 cycles

 The electronic state is 2-A.
 Alpha  occ. eigenvalues --  -38.44044 -38.43852 -38.43795 -38.43779 -38.43632
 Alpha  occ. eigenvalues --  -38.43426 -38.43026  -2.19867  -2.19678  -2.19658
 Alpha  occ. eigenvalues --   -2.19647  -2.19462  -2.19316  -2.19023  -1.13568
 Alpha  occ. eigenvalues --   -1.13531  -1.13484  -1.13447  -1.13334  -1.13321
 Alpha  occ. eigenvalues --   -1.13311  -1.13305  -1.13298  -1.13293  -1.13279
 Alpha  occ. eigenvalues --   -1.13249  -1.13171  -1.13115  -1.13086  -1.13022
 Alpha  occ. eigenvalues --   -1.12968  -1.12931  -1.12702  -1.12669  -1.12641
 Alpha  occ. eigenvalues --   -0.18485  -0.13045  -0.12512  -0.10670
 Alpha virt. eigenvalues --   -0.05489  -0.05325  -0.04807  -0.03364  -0.02867
 Alpha virt. eigenvalues --   -0.02470  -0.01380  -0.01211  -0.00455  -0.00346
 Alpha virt. eigenvalues --   -0.00015   0.00352   0.00818   0.00847   0.00882

  Beta  occ. eigenvalues --  -38.44037 -38.43852 -38.43773 -38.43705 -38.43624
  Beta  occ. eigenvalues --  -38.43406 -38.42973  -2.19855  -2.19654  -2.19650
  Beta  occ. eigenvalues --   -2.19509  -2.19450  -2.19283  -2.18929  -1.13559
  Beta  occ. eigenvalues --   -1.13514  -1.13476  -1.13400  -1.13315  -1.13311
  Beta  occ. eigenvalues --   -1.13309  -1.13291  -1.13280  -1.13202  -1.13178
  Beta  occ. eigenvalues --   -1.13159  -1.13152  -1.13096  -1.13081  -1.12992
  Beta  occ. eigenvalues --   -1.12926  -1.12912  -1.12638  -1.12595  -1.12572
  Beta  occ. eigenvalues --   -0.17786  -0.12817  -0.12288
  Beta virt. eigenvalues --   -0.06816  -0.05460  -0.05204  -0.04722  -0.02618
  Beta virt. eigenvalues --   -0.02189  -0.01464  -0.01306  -0.01140  -0.00467
  Beta virt. eigenvalues --   -0.00342   0.00149   0.00395   0.00849   0.00873

 Mulliken charges and spin densities:
               1          2
     1  Na   0.196572  -0.010498
     2  Na  -0.687035   0.705388
     3  Na   0.094473  -0.062907
     4  Na  -0.077794  -0.018943
     5  Na   0.097246   0.277392
     6  Na   0.484779   0.056276
     7  Na  -0.108240   0.053292
 Sum of Mulliken charges =  -0.00000   1.00000

 Dipole moment (field-independent basis, Debye):
    X=             -0.1415    Y=              0.1365    Z=              0.2466  Tot=              0.3154
 Quadrupole moment (field-independent basis, Debye-Ang):
   XX=            -58.1168   YY=            -61.6693   ZZ=            -74.0348
   XY=              0.7360   XZ=             -2.9542   YZ=              1.2867

 Normal termination of Gaussian 16 at Tue Dec  5 12:53:04 2023.
