 Gaussian 16, Revision B.01,
 Gaussian 16:  ES64L-G16RevB.01 20-Dec-2017

 -------------------------
 #P B3LYP/6-311+g(d) force
 -------------------------

 -----
 DPGEN
 -----
 Symbolic Z-matrix:
 Charge =  0 Multiplicity = 2

                         Standard orientation:
 ---------------------------------------------------------------------
 Center     Atomic      Atomic             Coordinates (Angstroms)
 Number     Number       Type             X           Y           Z
 ---------------------------------------------------------------------
      1         11           0       -0.675651    0.098646   -1.319255
      2         11           0        1.993092   -0.112325    1.509466
      3         11           0       -3.377029   -0.000330   -0.255047
      4         11           0       -0.984156   -0.367057    1.490521
      5         11           0        0.552563   -2.309780   -0.285636
      6         11           0        0.210768    2.382909    0.259290
      7         11           0        2.280413    0.307938   -1.399340
 ---------------------------------------------------------------------

 SCF Done:  E(UB3LYP) =  -1136.10443316     A.U. after   22 cycles

 The electronic state is 2-A.
 Alpha  occ. eigenvalues --  -38.44643 -38.44129 -38.44045 -38.43574 -38.43554
 Alpha  occ. eigenvalues --  -38.42486 -38.42457  -2.20543  -2.20146  -2.20092
 Alpha  occ. eigenvalues --   -2.19836  -2.19741  -2.18506  -2.18435  -1.14307
 Alpha  occ. eigenvalues --   -1.14239  -1.14124  -1.13953  -1.13921  -1.13856
 Alpha  occ. eigenvalues --   -1.13710  -1.13698  -1.13659  -1.13638  -1.13483
 Alpha  occ. eigenvalues --   -1.13436  -1.13375  -1.13316  -1.13292  -1.12233
 Alpha  occ. eigenvalues --   -1.12163  -1.12154  -1.12094  -1.12088  -1.12015
 Alpha  occ. eigenvalues --   -0.20544  -0.13744  -0.12297  -0.11784
 Alpha virt. eigenvalues --   -0.05966  -0.04105  -0.03502  -0.03416  -0.03089
 Alpha virt. eigenvalues --   -0.02684  -0.01771  -0.00534  -0.00345   0.00298
 Alpha virt. eigenvalues --    0.00534   0.00622   0.00837   0.00992   0.01039

  Beta  occ. eigenvalues --  -38.44639 -38.44083 -38.43990 -38.43514 -38.43495
  Beta  occ. eigenvalues --  -38.42473 -38.42446  -2.20537  -2.20064  -2.19996
  Beta  occ. eigenvalues --   -2.19734  -2.19635  -2.18489  -2.18420  -1.14296
  Beta  occ. eigenvalues --   -1.14224  -1.14122  -1.13899  -1.13836  -1.13768
  Beta  occ. eigenvalues --   -1.13652  -1.13630  -1.13592  -1.13575  -1.13409
  Beta  occ. eigenvalues --   -1.13361  -1.13292  -1.13238  -1.13204  -1.12225
  Beta  occ. eigenvalues --   -1.12157  -1.12100  -1.12080  -1.12045  -1.12012
  Beta  occ. eigenvalues --   -0.19712  -0.13579  -0.11493
  Beta virt. eigenvalues --   -0.07927  -0.05882  -0.03570  -0.03458  -0.03298
  Beta virt. eigenvalues --   -0.02064  -0.01848  -0.01593  -0.00328  -0.00179
  Beta virt. eigenvalues --    0.00330   0.00575   0.00764   0.00821   0.00995

 Mulliken charges and spin densities:
               1          2
     1  Na  -0.049311   0.126444
     2  Na   0.639789   0.181211
     3  Na   0.081928   0.153974
     4  Na   0.110000   0.157078
     5  Na  -0.733571   0.362282
     6  Na  -0.899520   0.154206
     7  Na   0.850685  -0.135194
 Sum of Mulliken charges =  -0.00000   1.00000

 Dipole moment (field-independent basis, Debye):
    X=             -0.2198    Y=              0.0778    Z=              0.0329  Tot=              0.2355
 Quadrupole moment (field-independent basis, Debye-Ang):
   XX=            -53.0512   YY=            -73.8013   ZZ=            -66.1973
   XY=             -0.1479   XZ=              0.0619   YZ=              0.9893

 Normal termination of Gaussian 16 at Thu Dec  7 09:29:37 2023.
