 Gaussian 16, Revision B.01,
 Gaussian 16:  ES64L-G16RevB.01 20-Dec-2017

 -------------------------
 #P B3LYP/6-311+g(d) force
 -------------------------

 -----
 DPGEN
 -----
 Symbolic Z-matrix:
 Charge =  0 Multiplicity = 2

                         Standard orientation:
 ---------------------------------------------------------------------
 Center     Atomic      Atomic             Coordinates (Angstroms)
 Number     Number       Type             X           Y           Z
 ---------------------------------------------------------------------
      1         11           0       -2.751921    2.521231   -0.047291
      2         11           0       -2.772249   -2.407204   -0.305813
      3         11           0        4.157509    1.696869    0.226829
      4         11           0        0.899705    3.357739   -0.045381
      5         11           0        1.231375   -3.271023    0.493642
      6         11           0       -4.681108   -0.191834    0.142697
      7         11           0        3.916690   -1.705777   -0.464684
 ---------------------------------------------------------------------

 SCF Done:  E(UB3LYP) =  -1136.10548192     A.U. after   24 cycles

 The electronic state is 2-A.
 Alpha  occ. eigenvalues --  -38.45593 -38.44926 -38.44743 -38.44671 -38.44659
 Alpha  occ. eigenvalues --  -38.43977 -38.43840  -2.21397  -2.20711  -2.20519
 Alpha  occ. eigenvalues --   -2.20473  -2.20460  -2.19777  -2.19636  -1.15098
 Alpha  occ. eigenvalues --   -1.15050  -1.15035  -1.14389  -1.14384  -1.14364
 Alpha  occ. eigenvalues --   -1.14200  -1.14176  -1.14168  -1.14161  -1.14157
 Alpha  occ. eigenvalues --   -1.14125  -1.14117  -1.14100  -1.14058  -1.13432
 Alpha  occ. eigenvalues --   -1.13421  -1.13402  -1.13285  -1.13284  -1.13273
 Alpha  occ. eigenvalues --   -0.15808  -0.14443  -0.13032  -0.10815
 Alpha virt. eigenvalues --   -0.07909  -0.04719  -0.04613  -0.03642  -0.03523
 Alpha virt. eigenvalues --   -0.02832  -0.02187  -0.02005  -0.01047  -0.00578
 Alpha virt. eigenvalues --   -0.00404  -0.00250   0.00063   0.00261   0.00448

  Beta  occ. eigenvalues --  -38.45559 -38.44924 -38.44754 -38.44638 -38.44617
  Beta  occ. eigenvalues --  -38.43911 -38.43787  -2.21339  -2.20713  -2.20499
  Beta  occ. eigenvalues --   -2.20485  -2.20361  -2.19654  -2.19536  -1.15047
  Beta  occ. eigenvalues --   -1.15014  -1.14985  -1.14397  -1.14389  -1.14325
  Beta  occ. eigenvalues --   -1.14190  -1.14182  -1.14157  -1.14148  -1.14136
  Beta  occ. eigenvalues --   -1.14092  -1.14058  -1.14044  -1.13993  -1.13346
  Beta  occ. eigenvalues --   -1.13338  -1.13325  -1.13219  -1.13217  -1.13205
  Beta  occ. eigenvalues --   -0.15285  -0.13821  -0.12272
  Beta virt. eigenvalues --   -0.08062  -0.07636  -0.04304  -0.04056  -0.03389
  Beta virt. eigenvalues --   -0.03190  -0.02643  -0.02050  -0.01804  -0.00930
  Beta virt. eigenvalues --   -0.00271  -0.00135   0.00138   0.00200   0.00217

 Mulliken charges and spin densities:
               1          2
     1  Na  -0.007755   0.212251
     2  Na  -0.549254   0.185607
     3  Na  -0.028358   0.349810
     4  Na   0.264884  -0.148417
     5  Na  -0.290913   0.261827
     6  Na   0.686081   0.131832
     7  Na  -0.074684   0.007090
 Sum of Mulliken charges =  -0.00000   1.00000

 Dipole moment (field-independent basis, Debye):
    X=             -1.0806    Y=             -0.3375    Z=             -0.0991  Tot=              1.1364
 Quadrupole moment (field-independent basis, Debye-Ang):
   XX=            -56.7568   YY=            -70.7332   ZZ=            -73.2725
   XY=             -1.1155   XZ=             -1.5585   YZ=              0.9577

 Normal termination of Gaussian 16 at Sun Dec  3 17:41:03 2023.
