 Gaussian 16, Revision B.01,
 Gaussian 16:  ES64L-G16RevB.01 20-Dec-2017

 -------------------------
 #P B3LYP/6-311+g(d) force
 -------------------------

 -----
 DPGEN
 -----
 Symbolic Z-matrix:
 Charge =  0 Multiplicity = 2

                         Standard orientation:
 ---------------------------------------------------------------------
 Center     Atomic      Atomic             Coordinates (Angstroms)
 Number     Number       Type             X           Y           Z
 ---------------------------------------------------------------------
      1         11           0        0.514760   -1.699279    1.662698
      2         11           0        3.637618   -1.106568   -0.083862
      3         11           0       -2.948819   -1.768913   -0.852815
      4         11           0       -0.693543    2.764751   -0.112523
      5         11           0       -3.172980    0.773369    0.823195
      6         11           0        0.271175   -0.743048   -1.369690
      7         11           0        2.391789    1.779689   -0.067004
 ---------------------------------------------------------------------

 SCF Done:  E(UB3LYP) =  -1136.11899960     A.U. after   24 cycles

 The electronic state is 2-A.
 Alpha  occ. eigenvalues --  -38.45264 -38.44547 -38.44427 -38.44230 -38.43946
 Alpha  occ. eigenvalues --  -38.43838 -38.42861  -2.21091  -2.20395  -2.20250
 Alpha  occ. eigenvalues --   -2.20077  -2.19819  -2.19750  -2.18696  -1.14790
 Alpha  occ. eigenvalues --   -1.14748  -1.14716  -1.14109  -1.14046  -1.14035
 Alpha  occ. eigenvalues --   -1.13961  -1.13899  -1.13837  -1.13735  -1.13726
 Alpha  occ. eigenvalues --   -1.13702  -1.13499  -1.13479  -1.13469  -1.13456
 Alpha  occ. eigenvalues --   -1.13388  -1.13350  -1.12370  -1.12360  -1.12351
 Alpha  occ. eigenvalues --   -0.18105  -0.14296  -0.12031  -0.10076
 Alpha virt. eigenvalues --   -0.07293  -0.05779  -0.04375  -0.03449  -0.02812
 Alpha virt. eigenvalues --   -0.02463  -0.01991  -0.01447  -0.00807  -0.00247
 Alpha virt. eigenvalues --   -0.00102   0.00136   0.00400   0.00572   0.00710

  Beta  occ. eigenvalues --  -38.45267 -38.44519 -38.44364 -38.44206 -38.43941
  Beta  occ. eigenvalues --  -38.43783 -38.42864  -2.21100  -2.20344  -2.20134
  Beta  occ. eigenvalues --   -2.20035  -2.19811  -2.19650  -2.18703  -1.14797
  Beta  occ. eigenvalues --   -1.14744  -1.14713  -1.14069  -1.14011  -1.13997
  Beta  occ. eigenvalues --   -1.13880  -1.13815  -1.13755  -1.13704  -1.13682
  Beta  occ. eigenvalues --   -1.13671  -1.13499  -1.13471  -1.13450  -1.13381
  Beta  occ. eigenvalues --   -1.13324  -1.13271  -1.12379  -1.12369  -1.12333
  Beta  occ. eigenvalues --   -0.17558  -0.14042  -0.11748
  Beta virt. eigenvalues --   -0.07172  -0.06506  -0.05565  -0.03998  -0.03067
  Beta virt. eigenvalues --   -0.02639  -0.01906  -0.01528  -0.01040  -0.00731
  Beta virt. eigenvalues --   -0.00040   0.00010   0.00200   0.00546   0.00678

 Mulliken charges and spin densities:
               1          2
     1  Na  -0.330889   0.399765
     2  Na   0.853079   0.071288
     3  Na   0.411639  -0.032790
     4  Na  -0.006572  -0.053167
     5  Na  -0.114133   0.282378
     6  Na  -0.736664   0.317593
     7  Na  -0.076459   0.014933
 Sum of Mulliken charges =  -0.00000   1.00000

 Dipole moment (field-independent basis, Debye):
    X=              0.8221    Y=             -0.7749    Z=              0.0694  Tot=              1.1319
 Quadrupole moment (field-independent basis, Debye-Ang):
   XX=            -46.5443   YY=            -73.1489   ZZ=            -75.4951
   XY=              0.5362   XZ=             -1.2848   YZ=              0.8735

 Normal termination of Gaussian 16 at Tue Nov 28 23:19:35 2023.
