 Gaussian 16, Revision B.01,
 Gaussian 16:  ES64L-G16RevB.01 20-Dec-2017

 -------------------------
 #P B3LYP/6-311+g(d) force
 -------------------------

 -----
 DPGEN
 -----
 Symbolic Z-matrix:
 Charge =  0 Multiplicity = 2

                         Standard orientation:
 ---------------------------------------------------------------------
 Center     Atomic      Atomic             Coordinates (Angstroms)
 Number     Number       Type             X           Y           Z
 ---------------------------------------------------------------------
      1         11           0       -3.197340    0.392929   -0.451481
      2         11           0       -1.319602   -2.576090    0.538257
      3         11           0        3.018377    1.500677    0.207222
      4         11           0       -0.029942   -0.120073    1.947749
      5         11           0       -0.701211    3.137385    0.047883
      6         11           0        0.165509   -0.180782   -1.822007
      7         11           0        2.064210   -2.154045   -0.467624
 ---------------------------------------------------------------------

 SCF Done:  E(UB3LYP) =  -1136.13417330     A.U. after   19 cycles

 The electronic state is 2-A.
 Alpha  occ. eigenvalues --  -38.44176 -38.43968 -38.43928 -38.43759 -38.43670
 Alpha  occ. eigenvalues --  -38.43666 -38.43387  -2.19939  -2.19735  -2.19723
 Alpha  occ. eigenvalues --   -2.19656  -2.19583  -2.19534  -2.19264  -1.13621
 Alpha  occ. eigenvalues --   -1.13590  -1.13582  -1.13421  -1.13405  -1.13400
 Alpha  occ. eigenvalues --   -1.13379  -1.13376  -1.13372  -1.13352  -1.13350
 Alpha  occ. eigenvalues --   -1.13293  -1.13272  -1.13239  -1.13198  -1.13175
 Alpha  occ. eigenvalues --   -1.13146  -1.13138  -1.12951  -1.12906  -1.12883
 Alpha  occ. eigenvalues --   -0.18234  -0.12652  -0.12414  -0.10883
 Alpha virt. eigenvalues --   -0.05749  -0.05096  -0.04902  -0.03166  -0.03040
 Alpha virt. eigenvalues --   -0.02650  -0.01523  -0.01242  -0.00546  -0.00471
 Alpha virt. eigenvalues --   -0.00008   0.00346   0.00785   0.00830   0.00866

  Beta  occ. eigenvalues --  -38.44175 -38.43969 -38.43919 -38.43675 -38.43655
  Beta  occ. eigenvalues --  -38.43594 -38.43371  -2.19939  -2.19740  -2.19709
  Beta  occ. eigenvalues --   -2.19513  -2.19500  -2.19449  -2.19238  -1.13611
  Beta  occ. eigenvalues --   -1.13591  -1.13580  -1.13415  -1.13405  -1.13381
  Beta  occ. eigenvalues --   -1.13376  -1.13363  -1.13347  -1.13312  -1.13252
  Beta  occ. eigenvalues --   -1.13178  -1.13170  -1.13153  -1.13143  -1.13136
  Beta  occ. eigenvalues --   -1.13099  -1.13068  -1.12918  -1.12872  -1.12868
  Beta  occ. eigenvalues --   -0.17508  -0.12399  -0.12180
  Beta virt. eigenvalues --   -0.07007  -0.05756  -0.04989  -0.04826  -0.02438
  Beta virt. eigenvalues --   -0.02309  -0.01662  -0.01426  -0.01140  -0.00579
  Beta virt. eigenvalues --   -0.00475   0.00109   0.00382   0.00805   0.00871

 Mulliken charges and spin densities:
               1          2
     1  Na  -0.072481  -0.033410
     2  Na   0.238208   0.067262
     3  Na  -0.158807  -0.102424
     4  Na  -0.082216   0.629578
     5  Na  -0.163062  -0.112981
     6  Na   0.013746   0.568734
     7  Na   0.224612  -0.016759
 Sum of Mulliken charges =  -0.00000   1.00000

 Dipole moment (field-independent basis, Debye):
    X=              0.1096    Y=              0.1779    Z=              0.0118  Tot=              0.2092
 Quadrupole moment (field-independent basis, Debye-Ang):
   XX=            -58.2077   YY=            -61.5860   ZZ=            -74.0178
   XY=              0.3506   XZ=              0.7982   YZ=              0.0555

 Normal termination of Gaussian 16 at Fri Dec  8 00:41:27 2023.
