 Gaussian 16, Revision B.01,
 Gaussian 16:  ES64L-G16RevB.01 20-Dec-2017

 -------------------------
 #P B3LYP/6-311+g(d) force
 -------------------------

 -----
 DPGEN
 -----
 Symbolic Z-matrix:
 Charge =  0 Multiplicity = 2

                         Standard orientation:
 ---------------------------------------------------------------------
 Center     Atomic      Atomic             Coordinates (Angstroms)
 Number     Number       Type             X           Y           Z
 ---------------------------------------------------------------------
      1         11           0        3.550409    1.721525   -0.702189
      2         11           0       -0.489793   -1.253762    2.226357
      3         11           0        0.252510   -2.498931   -1.380974
      4         11           0       -2.697586   -1.310061   -1.589812
      5         11           0        3.216677   -1.028867    0.845235
      6         11           0       -0.916909    3.212825   -0.661564
      7         11           0       -2.915308    1.157271    1.262946
 ---------------------------------------------------------------------

 SCF Done:  E(UB3LYP) =  -1136.11348718     A.U. after   21 cycles

 The electronic state is 2-A.
 Alpha  occ. eigenvalues --  -38.44724 -38.44653 -38.44616 -38.44459 -38.44183
 Alpha  occ. eigenvalues --  -38.44129 -38.44065  -2.20524  -2.20427  -2.20385
 Alpha  occ. eigenvalues --   -2.20226  -2.19979  -2.19929  -2.19869  -1.14182
 Alpha  occ. eigenvalues --   -1.14157  -1.14143  -1.14111  -1.14070  -1.14062
 Alpha  occ. eigenvalues --   -1.14050  -1.14049  -1.14021  -1.13915  -1.13889
 Alpha  occ. eigenvalues --   -1.13869  -1.13651  -1.13637  -1.13610  -1.13608
 Alpha  occ. eigenvalues --   -1.13580  -1.13561  -1.13546  -1.13525  -1.13506
 Alpha  occ. eigenvalues --   -0.16637  -0.13287  -0.12149  -0.11297
 Alpha virt. eigenvalues --   -0.06747  -0.05714  -0.04762  -0.03622  -0.03200
 Alpha virt. eigenvalues --   -0.02587  -0.01735  -0.01438  -0.00869  -0.00696
 Alpha virt. eigenvalues --   -0.00507  -0.00159   0.00174   0.00409   0.00612

  Beta  occ. eigenvalues --  -38.44646 -38.44631 -38.44564 -38.44452 -38.44180
  Beta  occ. eigenvalues --  -38.44109 -38.44050  -2.20373  -2.20351  -2.20332
  Beta  occ. eigenvalues --   -2.20213  -2.19974  -2.19895  -2.19843  -1.14066
  Beta  occ. eigenvalues --   -1.14051  -1.14041  -1.14041  -1.14037  -1.14020
  Beta  occ. eigenvalues --   -1.14013  -1.14008  -1.13980  -1.13909  -1.13880
  Beta  occ. eigenvalues --   -1.13859  -1.13646  -1.13634  -1.13600  -1.13583
  Beta  occ. eigenvalues --   -1.13563  -1.13522  -1.13518  -1.13513  -1.13477
  Beta  occ. eigenvalues --   -0.15976  -0.13178  -0.11754
  Beta virt. eigenvalues --   -0.07682  -0.06592  -0.05362  -0.04186  -0.03401
  Beta virt. eigenvalues --   -0.02719  -0.02035  -0.01607  -0.01197  -0.00825
  Beta virt. eigenvalues --   -0.00534  -0.00363   0.00047   0.00338   0.00463

 Mulliken charges and spin densities:
               1          2
     1  Na  -0.018870   0.003272
     2  Na   0.034331   0.364980
     3  Na  -0.055853   0.222946
     4  Na   0.181910   0.115981
     5  Na   0.062737   0.065821
     6  Na  -0.108174   0.031925
     7  Na  -0.096081   0.195075
 Sum of Mulliken charges =  -0.00000   1.00000

 Dipole moment (field-independent basis, Debye):
    X=             -0.1672    Y=             -0.1090    Z=             -0.2113  Tot=              0.2906
 Quadrupole moment (field-independent basis, Debye-Ang):
   XX=            -61.5056   YY=            -70.3190   ZZ=            -69.5893
   XY=             -0.4037   XZ=             -0.7196   YZ=             -3.2231

 Normal termination of Gaussian 16 at Sun Dec  3 17:53:43 2023.
