 Gaussian 16, Revision B.01,
 Gaussian 16:  ES64L-G16RevB.01 20-Dec-2017

 -------------------------
 #P B3LYP/6-311+g(d) force
 -------------------------

 -----
 DPGEN
 -----
 Symbolic Z-matrix:
 Charge =  0 Multiplicity = 2

                         Standard orientation:
 ---------------------------------------------------------------------
 Center     Atomic      Atomic             Coordinates (Angstroms)
 Number     Number       Type             X           Y           Z
 ---------------------------------------------------------------------
      1         11           0        3.410099   -0.970895   -0.151839
      2         11           0       -1.179339    2.822786   -0.171293
      3         11           0       -0.163785   -0.494598    1.945341
      4         11           0        1.968110    2.002517    0.196046
      5         11           0       -0.382358   -0.067273   -1.711132
      6         11           0       -3.120544   -0.324426    0.178771
      7         11           0       -0.532183   -2.968111   -0.285893
 ---------------------------------------------------------------------

 SCF Done:  E(UB3LYP) =  -1136.13431052     A.U. after   20 cycles

 The electronic state is 2-A.
 Alpha  occ. eigenvalues --  -38.44454 -38.44385 -38.43786 -38.43532 -38.43388
 Alpha  occ. eigenvalues --  -38.43252 -38.43239  -2.20293  -2.20153  -2.19630
 Alpha  occ. eigenvalues --   -2.19425  -2.19252  -2.19207  -2.19089  -1.13973
 Alpha  occ. eigenvalues --   -1.13968  -1.13915  -1.13828  -1.13822  -1.13790
 Alpha  occ. eigenvalues --   -1.13332  -1.13309  -1.13245  -1.13095  -1.13054
 Alpha  occ. eigenvalues --   -1.13042  -1.12942  -1.12922  -1.12903  -1.12883
 Alpha  occ. eigenvalues --   -1.12850  -1.12831  -1.12746  -1.12739  -1.12724
 Alpha  occ. eigenvalues --   -0.18452  -0.13027  -0.12380  -0.10582
 Alpha virt. eigenvalues --   -0.06170  -0.04941  -0.04817  -0.03148  -0.02839
 Alpha virt. eigenvalues --   -0.02442  -0.01803  -0.01172  -0.00611  -0.00285
 Alpha virt. eigenvalues --   -0.00022   0.00335   0.00767   0.00811   0.00841

  Beta  occ. eigenvalues --  -38.44445 -38.44390 -38.43775 -38.43446 -38.43384
  Beta  occ. eigenvalues --  -38.43237 -38.43181  -2.20279  -2.20163  -2.19614
  Beta  occ. eigenvalues --   -2.19268  -2.19246  -2.19088  -2.19076  -1.13963
  Beta  occ. eigenvalues --   -1.13928  -1.13910  -1.13836  -1.13818  -1.13797
  Beta  occ. eigenvalues --   -1.13319  -1.13268  -1.13237  -1.12992  -1.12950
  Beta  occ. eigenvalues --   -1.12936  -1.12924  -1.12907  -1.12892  -1.12803
  Beta  occ. eigenvalues --   -1.12777  -1.12741  -1.12733  -1.12722  -1.12702
  Beta  occ. eigenvalues --   -0.17724  -0.12828  -0.12162
  Beta virt. eigenvalues --   -0.06667  -0.06129  -0.04851  -0.04824  -0.02392
  Beta virt. eigenvalues --   -0.02112  -0.01745  -0.01376  -0.01094  -0.00671
  Beta virt. eigenvalues --   -0.00304   0.00124   0.00369   0.00775   0.00867

 Mulliken charges and spin densities:
               1          2
     1  Na  -0.053496  -0.100364
     2  Na   0.059783  -0.043260
     3  Na  -0.292637   0.713694
     4  Na  -0.000876  -0.044288
     5  Na  -0.099022   0.663020
     6  Na   0.318285  -0.027338
     7  Na   0.067963  -0.161464
 Sum of Mulliken charges =  -0.00000   1.00000

 Dipole moment (field-independent basis, Debye):
    X=             -0.2030    Y=             -0.4492    Z=              0.0623  Tot=              0.4968
 Quadrupole moment (field-independent basis, Debye-Ang):
   XX=            -55.4622   YY=            -62.2306   ZZ=            -75.4644
   XY=             -1.4343   XZ=             -0.6375   YZ=              0.9563

 Normal termination of Gaussian 16 at Thu Dec  7 14:12:01 2023.
