 Gaussian 16, Revision B.01,
 Gaussian 16:  ES64L-G16RevB.01 20-Dec-2017

 -------------------------
 #P B3LYP/6-311+g(d) force
 -------------------------

 -----
 DPGEN
 -----
 Symbolic Z-matrix:
 Charge =  0 Multiplicity = 2

                         Standard orientation:
 ---------------------------------------------------------------------
 Center     Atomic      Atomic             Coordinates (Angstroms)
 Number     Number       Type             X           Y           Z
 ---------------------------------------------------------------------
      1         11           0        0.911114   -2.815067   -0.959456
      2         11           0       -4.305782   -0.471112   -0.356655
      3         11           0        3.343939   -0.136796   -1.483454
      4         11           0        1.964339   -0.195208    2.195064
      5         11           0        1.696473    2.646261    0.074662
      6         11           0       -2.228112    2.090559   -0.700571
      7         11           0       -1.381971   -1.118637    1.230410
 ---------------------------------------------------------------------

 SCF Done:  E(UB3LYP) =  -1136.12056930     A.U. after   21 cycles

 The electronic state is 2-A.
 Alpha  occ. eigenvalues --  -38.44933 -38.44602 -38.44580 -38.44517 -38.43830
 Alpha  occ. eigenvalues --  -38.43688 -38.43306  -2.20740  -2.20393  -2.20373
 Alpha  occ. eigenvalues --   -2.20319  -2.19601  -2.19525  -2.19090  -1.14407
 Alpha  occ. eigenvalues --   -1.14391  -1.14386  -1.14069  -1.14058  -1.14049
 Alpha  occ. eigenvalues --   -1.14027  -1.14011  -1.13989  -1.13989  -1.13954
 Alpha  occ. eigenvalues --   -1.13936  -1.13285  -1.13250  -1.13248  -1.13213
 Alpha  occ. eigenvalues --   -1.13195  -1.13137  -1.12766  -1.12759  -1.12734
 Alpha  occ. eigenvalues --   -0.16894  -0.14014  -0.11516  -0.11020
 Alpha virt. eigenvalues --   -0.06733  -0.05581  -0.04650  -0.03449  -0.02967
 Alpha virt. eigenvalues --   -0.02443  -0.02343  -0.01252  -0.00815  -0.00545
 Alpha virt. eigenvalues --   -0.00453   0.00190   0.00211   0.00392   0.00717

  Beta  occ. eigenvalues --  -38.44925 -38.44603 -38.44511 -38.44446 -38.43813
  Beta  occ. eigenvalues --  -38.43661 -38.43302  -2.20725  -2.20374  -2.20268
  Beta  occ. eigenvalues --   -2.20187  -2.19571  -2.19477  -2.19086  -1.14395
  Beta  occ. eigenvalues --   -1.14381  -1.14377  -1.14059  -1.14049  -1.13989
  Beta  occ. eigenvalues --   -1.13973  -1.13942  -1.13921  -1.13899  -1.13870
  Beta  occ. eigenvalues --   -1.13835  -1.13267  -1.13232  -1.13211  -1.13183
  Beta  occ. eigenvalues --   -1.13153  -1.13097  -1.12761  -1.12744  -1.12734
  Beta  occ. eigenvalues --   -0.16321  -0.13618  -0.11387
  Beta virt. eigenvalues --   -0.07227  -0.06649  -0.05362  -0.04164  -0.03282
  Beta virt. eigenvalues --   -0.02465  -0.02181  -0.01684  -0.01112  -0.00503
  Beta virt. eigenvalues --   -0.00462  -0.00310   0.00252   0.00365   0.00526

 Mulliken charges and spin densities:
               1          2
     1  Na   0.053254   0.035589
     2  Na   0.495776   0.025648
     3  Na  -0.039007   0.363167
     4  Na   0.284091   0.120853
     5  Na  -0.232401   0.153943
     6  Na  -0.038934  -0.092283
     7  Na  -0.522778   0.393083
 Sum of Mulliken charges =  -0.00000   1.00000

 Dipole moment (field-independent basis, Debye):
    X=             -1.1062    Y=             -0.2492    Z=             -0.1871  Tot=              1.1493
 Quadrupole moment (field-independent basis, Debye-Ang):
   XX=            -53.6423   YY=            -72.5542   ZZ=            -70.1753
   XY=              2.4476   XZ=              3.2729   YZ=              0.1540

 Normal termination of Gaussian 16 at Sun Dec  3 20:25:41 2023.
