 Gaussian 16, Revision B.01,
 Gaussian 16:  ES64L-G16RevB.01 20-Dec-2017

 -------------------------
 #P B3LYP/6-311+g(d) force
 -------------------------

 -----
 DPGEN
 -----
 Symbolic Z-matrix:
 Charge =  0 Multiplicity = 2

                         Standard orientation:
 ---------------------------------------------------------------------
 Center     Atomic      Atomic             Coordinates (Angstroms)
 Number     Number       Type             X           Y           Z
 ---------------------------------------------------------------------
      1         11           0       -0.005978   -1.396778    0.680754
      2         11           0        6.325422   -0.229864   -0.045093
      3         11           0        3.342968   -0.435210   -0.676707
      4         11           0        0.984204    2.264573   -0.032918
      5         11           0       -2.106878    1.216441    0.922946
      6         11           0       -3.142826   -1.962867   -0.023705
      7         11           0       -5.396911    0.543705   -0.825277
 ---------------------------------------------------------------------

 SCF Done:  E(UB3LYP) =  -1136.11865248     A.U. after   21 cycles

 The electronic state is 2-A.
 Alpha  occ. eigenvalues --  -38.44617 -38.44414 -38.44309 -38.44303 -38.44155
 Alpha  occ. eigenvalues --  -38.43757 -38.43427  -2.20482  -2.20231  -2.20192
 Alpha  occ. eigenvalues --   -2.20164  -2.19950  -2.19543  -2.19271  -1.14191
 Alpha  occ. eigenvalues --   -1.14174  -1.14082  -1.13912  -1.13896  -1.13880
 Alpha  occ. eigenvalues --   -1.13864  -1.13846  -1.13835  -1.13814  -1.13796
 Alpha  occ. eigenvalues --   -1.13755  -1.13609  -1.13606  -1.13564  -1.13256
 Alpha  occ. eigenvalues --   -1.13199  -1.13199  -1.12950  -1.12934  -1.12873
 Alpha  occ. eigenvalues --   -0.17362  -0.14075  -0.11751  -0.11570
 Alpha virt. eigenvalues --   -0.06754  -0.05569  -0.04141  -0.03734  -0.03142
 Alpha virt. eigenvalues --   -0.02582  -0.01981  -0.01411  -0.01074  -0.00642
 Alpha virt. eigenvalues --   -0.00390  -0.00107   0.00137   0.00369   0.00640

  Beta  occ. eigenvalues --  -38.44588 -38.44369 -38.44266 -38.44243 -38.44115
  Beta  occ. eigenvalues --  -38.43774 -38.43423  -2.20432  -2.20149  -2.20103
  Beta  occ. eigenvalues --   -2.20073  -2.19874  -2.19573  -2.19262  -1.14145
  Beta  occ. eigenvalues --   -1.14132  -1.14041  -1.13841  -1.13835  -1.13811
  Beta  occ. eigenvalues --   -1.13803  -1.13798  -1.13782  -1.13764  -1.13715
  Beta  occ. eigenvalues --   -1.13660  -1.13557  -1.13550  -1.13517  -1.13274
  Beta  occ. eigenvalues --   -1.13220  -1.13219  -1.12937  -1.12927  -1.12882
  Beta  occ. eigenvalues --   -0.16613  -0.13923  -0.11439
  Beta virt. eigenvalues --   -0.07778  -0.06598  -0.04974  -0.03901  -0.03487
  Beta virt. eigenvalues --   -0.02565  -0.02179  -0.01819  -0.01338  -0.00747
  Beta virt. eigenvalues --   -0.00492  -0.00100   0.00055   0.00328   0.00446

 Mulliken charges and spin densities:
               1          2
     1  Na  -0.119367   0.600102
     2  Na   0.355278  -0.095595
     3  Na  -0.614401  -0.072281
     4  Na   0.391053   0.238961
     5  Na  -0.519829   0.180918
     6  Na   0.340941  -0.032550
     7  Na   0.166325   0.180445
 Sum of Mulliken charges =  -0.00000   1.00000

 Dipole moment (field-independent basis, Debye):
    X=             -1.0863    Y=              0.4887    Z=              0.0915  Tot=              1.1947
 Quadrupole moment (field-independent basis, Debye-Ang):
   XX=            -63.3694   YY=            -66.5252   ZZ=            -70.6329
   XY=              1.9986   XZ=              3.6958   YZ=             -0.3953

 Normal termination of Gaussian 16 at Tue Nov 28 22:29:35 2023.
