 Gaussian 16, Revision B.01,
 Gaussian 16:  ES64L-G16RevB.01 20-Dec-2017

 -------------------------
 #P B3LYP/6-311+g(d) force
 -------------------------

 -----
 DPGEN
 -----
 Symbolic Z-matrix:
 Charge =  0 Multiplicity = 2

                         Standard orientation:
 ---------------------------------------------------------------------
 Center     Atomic      Atomic             Coordinates (Angstroms)
 Number     Number       Type             X           Y           Z
 ---------------------------------------------------------------------
      1         11           0       -3.203577   -1.235986   -0.416846
      2         11           0        0.473331   -3.081134   -0.266757
      3         11           0        2.182474    2.402592   -0.155478
      4         11           0        2.921884   -1.043701    0.119352
      5         11           0       -1.723525    2.779171    0.279379
      6         11           0       -0.159611    0.551290   -1.571742
      7         11           0       -0.490976   -0.372233    2.012092
 ---------------------------------------------------------------------

 SCF Done:  E(UB3LYP) =  -1136.13231627     A.U. after   19 cycles

 The electronic state is 2-A.
 Alpha  occ. eigenvalues --  -38.44507 -38.44388 -38.43962 -38.43952 -38.43628
 Alpha  occ. eigenvalues --  -38.43460 -38.43264  -2.20298  -2.20153  -2.19778
 Alpha  occ. eigenvalues --   -2.19760  -2.19460  -2.19310  -2.19180  -1.13984
 Alpha  occ. eigenvalues --   -1.13959  -1.13924  -1.13827  -1.13800  -1.13796
 Alpha  occ. eigenvalues --   -1.13470  -1.13450  -1.13445  -1.13423  -1.13416
 Alpha  occ. eigenvalues --   -1.13392  -1.13130  -1.13119  -1.13099  -1.12983
 Alpha  occ. eigenvalues --   -1.12941  -1.12925  -1.12870  -1.12826  -1.12799
 Alpha  occ. eigenvalues --   -0.17936  -0.12776  -0.12541  -0.10215
 Alpha virt. eigenvalues --   -0.06194  -0.05332  -0.05006  -0.03032  -0.02893
 Alpha virt. eigenvalues --   -0.02219  -0.01701  -0.01542  -0.00765  -0.00644
 Alpha virt. eigenvalues --   -0.00022   0.00331   0.00701   0.00746   0.00838

  Beta  occ. eigenvalues --  -38.44500 -38.44375 -38.43959 -38.43950 -38.43627
  Beta  occ. eigenvalues --  -38.43371 -38.43213  -2.20286  -2.20131  -2.19775
  Beta  occ. eigenvalues --   -2.19759  -2.19460  -2.19147  -2.19087  -1.13972
  Beta  occ. eigenvalues --   -1.13937  -1.13919  -1.13796  -1.13788  -1.13783
  Beta  occ. eigenvalues --   -1.13470  -1.13443  -1.13425  -1.13415  -1.13413
  Beta  occ. eigenvalues --   -1.13392  -1.13126  -1.13116  -1.13093  -1.12874
  Beta  occ. eigenvalues --   -1.12827  -1.12806  -1.12798  -1.12761  -1.12729
  Beta  occ. eigenvalues --   -0.17276  -0.12590  -0.12313
  Beta virt. eigenvalues --   -0.06455  -0.06137  -0.05188  -0.04970  -0.02315
  Beta virt. eigenvalues --   -0.02228  -0.01592  -0.01441  -0.01247  -0.00791
  Beta virt. eigenvalues --   -0.00681   0.00139   0.00382   0.00712   0.00814

 Mulliken charges and spin densities:
               1          2
     1  Na   0.024679  -0.034633
     2  Na   0.075848  -0.003093
     3  Na   0.186937  -0.020830
     4  Na  -0.007252  -0.031914
     5  Na   0.069570  -0.077350
     6  Na  -0.043309   0.470915
     7  Na  -0.306473   0.696905
 Sum of Mulliken charges =  -0.00000   1.00000

 Dipole moment (field-independent basis, Debye):
    X=             -0.3987    Y=              0.2695    Z=              0.0563  Tot=              0.4845
 Quadrupole moment (field-independent basis, Debye-Ang):
   XX=            -57.5724   YY=            -58.1225   ZZ=            -76.9601
   XY=              0.1683   XZ=              0.7602   YZ=              1.9106

 Normal termination of Gaussian 16 at Thu Dec  7 07:56:10 2023.
