 Gaussian 16, Revision B.01,
 Gaussian 16:  ES64L-G16RevB.01 20-Dec-2017

 -------------------------
 #P B3LYP/6-311+g(d) force
 -------------------------

 -----
 DPGEN
 -----
 Symbolic Z-matrix:
 Charge =  0 Multiplicity = 2

                         Standard orientation:
 ---------------------------------------------------------------------
 Center     Atomic      Atomic             Coordinates (Angstroms)
 Number     Number       Type             X           Y           Z
 ---------------------------------------------------------------------
      1         11           0       -2.266915   -1.989295   -0.058565
      2         11           0       -0.224440   -0.247127    2.074153
      3         11           0       -2.610189    1.576625   -0.107658
      4         11           0        0.635769    2.632422   -0.065341
      5         11           0        1.261101   -2.161646   -0.330354
      6         11           0       -0.022085    0.002223   -1.658905
      7         11           0        3.226759    0.186798    0.146670
 ---------------------------------------------------------------------

 SCF Done:  E(UB3LYP) =  -1136.13420298     A.U. after   20 cycles

 The electronic state is 2-A.
 Alpha  occ. eigenvalues --  -38.44100 -38.43802 -38.43724 -38.43496 -38.43358
 Alpha  occ. eigenvalues --  -38.43222 -38.43082  -2.19948  -2.19652  -2.19630
 Alpha  occ. eigenvalues --   -2.19413  -2.19361  -2.19196  -2.18962  -1.13648
 Alpha  occ. eigenvalues --   -1.13600  -1.13588  -1.13338  -1.13323  -1.13306
 Alpha  occ. eigenvalues --   -1.13291  -1.13257  -1.13255  -1.13248  -1.13077
 Alpha  occ. eigenvalues --   -1.13057  -1.13024  -1.12998  -1.12979  -1.12833
 Alpha  occ. eigenvalues --   -1.12816  -1.12782  -1.12654  -1.12622  -1.12576
 Alpha  occ. eigenvalues --   -0.19154  -0.13214  -0.12416  -0.11033
 Alpha virt. eigenvalues --   -0.05680  -0.05077  -0.04212  -0.03307  -0.02882
 Alpha virt. eigenvalues --   -0.02733  -0.01619  -0.01016  -0.00112  -0.00032
 Alpha virt. eigenvalues --    0.00053   0.00347   0.00794   0.00927   0.00948

  Beta  occ. eigenvalues --  -38.44099 -38.43798 -38.43629 -38.43492 -38.43285
  Beta  occ. eigenvalues --  -38.43207 -38.43077  -2.19949  -2.19649  -2.19455
  Beta  occ. eigenvalues --   -2.19356  -2.19283  -2.19172  -2.18956  -1.13651
  Beta  occ. eigenvalues --   -1.13591  -1.13581  -1.13328  -1.13301  -1.13289
  Beta  occ. eigenvalues --   -1.13209  -1.13171  -1.13134  -1.13126  -1.13032
  Beta  occ. eigenvalues --   -1.13001  -1.12995  -1.12984  -1.12905  -1.12804
  Beta  occ. eigenvalues --   -1.12772  -1.12753  -1.12642  -1.12597  -1.12575
  Beta  occ. eigenvalues --   -0.18397  -0.12985  -0.12146
  Beta virt. eigenvalues --   -0.07053  -0.05634  -0.05086  -0.04206  -0.02499
  Beta virt. eigenvalues --   -0.02071  -0.01624  -0.01529  -0.00968  -0.00155
  Beta virt. eigenvalues --   -0.00005   0.00118   0.00367   0.00852   0.00914

 Mulliken charges and spin densities:
               1          2
     1  Na   0.334326  -0.061280
     2  Na  -0.756402   0.772647
     3  Na   0.121755  -0.076054
     4  Na   0.183652  -0.042978
     5  Na   0.640279   0.036541
     6  Na  -0.494011   0.386024
     7  Na  -0.029599  -0.014899
 Sum of Mulliken charges =  -0.00000   1.00000

 Dipole moment (field-independent basis, Debye):
    X=             -0.1152    Y=              0.1066    Z=              0.3186  Tot=              0.3552
 Quadrupole moment (field-independent basis, Debye-Ang):
   XX=            -54.3703   YY=            -66.3383   ZZ=            -72.9753
   XY=              0.8901   XZ=              0.7712   YZ=              0.5148

 Normal termination of Gaussian 16 at Thu Dec  7 21:20:58 2023.
