 Gaussian 16, Revision B.01,
 Gaussian 16:  ES64L-G16RevB.01 20-Dec-2017

 -------------------------
 #P B3LYP/6-311+g(d) force
 -------------------------

 -----
 DPGEN
 -----
 Symbolic Z-matrix:
 Charge =  0 Multiplicity = 2

                         Standard orientation:
 ---------------------------------------------------------------------
 Center     Atomic      Atomic             Coordinates (Angstroms)
 Number     Number       Type             X           Y           Z
 ---------------------------------------------------------------------
      1         11           0        0.039815    0.455453    2.021635
      2         11           0        0.740638   -2.135776    0.070942
      3         11           0        1.310270    2.458164   -0.296958
      4         11           0       -2.748744    1.554203    0.096982
      5         11           0       -0.342292    0.116283   -1.856129
      6         11           0        3.620770   -0.602602   -0.033371
      7         11           0       -2.620456   -1.845725   -0.003102
 ---------------------------------------------------------------------

 SCF Done:  E(UB3LYP) =  -1136.13009465     A.U. after   21 cycles

 The electronic state is 2-A.
 Alpha  occ. eigenvalues --  -38.45044 -38.44346 -38.43759 -38.43698 -38.43597
 Alpha  occ. eigenvalues --  -38.43281 -38.42690  -2.20820  -2.20173  -2.19660
 Alpha  occ. eigenvalues --   -2.19553  -2.19543  -2.19126  -2.18623  -1.14495
 Alpha  occ. eigenvalues --   -1.14485  -1.14452  -1.13853  -1.13843  -1.13804
 Alpha  occ. eigenvalues --   -1.13342  -1.13297  -1.13269  -1.13253  -1.13216
 Alpha  occ. eigenvalues --   -1.13204  -1.13197  -1.13188  -1.13154  -1.12813
 Alpha  occ. eigenvalues --   -1.12802  -1.12732  -1.12329  -1.12300  -1.12228
 Alpha  occ. eigenvalues --   -0.18697  -0.13300  -0.11863  -0.10927
 Alpha virt. eigenvalues --   -0.06561  -0.05226  -0.03662  -0.03353  -0.02814
 Alpha virt. eigenvalues --   -0.02656  -0.02248  -0.01206  -0.00346  -0.00122
 Alpha virt. eigenvalues --    0.00121   0.00268   0.00667   0.00703   0.00802

  Beta  occ. eigenvalues --  -38.45050 -38.44340 -38.43696 -38.43670 -38.43517
  Beta  occ. eigenvalues --  -38.43272 -38.42677  -2.20832  -2.20166  -2.19544
  Beta  occ. eigenvalues --   -2.19497  -2.19407  -2.19114  -2.18604  -1.14506
  Beta  occ. eigenvalues --   -1.14482  -1.14461  -1.13843  -1.13817  -1.13803
  Beta  occ. eigenvalues --   -1.13236  -1.13211  -1.13204  -1.13184  -1.13179
  Beta  occ. eigenvalues --   -1.13152  -1.13148  -1.13087  -1.13057  -1.12801
  Beta  occ. eigenvalues --   -1.12766  -1.12728  -1.12319  -1.12247  -1.12222
  Beta  occ. eigenvalues --   -0.17928  -0.13132  -0.11599
  Beta virt. eigenvalues --   -0.06972  -0.06488  -0.05228  -0.03651  -0.02623
  Beta virt. eigenvalues --   -0.02171  -0.01952  -0.01612  -0.01162  -0.00404
  Beta virt. eigenvalues --    0.00041   0.00094   0.00279   0.00750   0.00804

 Mulliken charges and spin densities:
               1          2
     1  Na  -0.535821   0.679142
     2  Na   0.187154   0.018878
     3  Na   0.178330  -0.130485
     4  Na   0.376782  -0.066244
     5  Na  -0.397575   0.616782
     6  Na   0.019677  -0.097674
     7  Na   0.171453  -0.020399
 Sum of Mulliken charges =  -0.00000   1.00000

 Dipole moment (field-independent basis, Debye):
    X=              0.1845    Y=              0.2833    Z=              0.0871  Tot=              0.3491
 Quadrupole moment (field-independent basis, Debye-Ang):
   XX=            -48.5094   YY=            -70.4804   ZZ=            -73.3065
   XY=              0.2301   XZ=             -0.7136   YZ=             -0.5154

 Normal termination of Gaussian 16 at Tue Dec  5 12:17:33 2023.
