 Gaussian 16, Revision B.01,
 Gaussian 16:  ES64L-G16RevB.01 20-Dec-2017

 -------------------------
 #P B3LYP/6-311+g(d) force
 -------------------------

 -----
 DPGEN
 -----
 Symbolic Z-matrix:
 Charge =  0 Multiplicity = 2

                         Standard orientation:
 ---------------------------------------------------------------------
 Center     Atomic      Atomic             Coordinates (Angstroms)
 Number     Number       Type             X           Y           Z
 ---------------------------------------------------------------------
      1         11           0       -0.547652    1.436726    0.730954
      2         11           0        0.941319    3.826643   -0.525742
      3         11           0        3.233378    0.523732    0.046208
      4         11           0        0.782929   -1.898107    0.135964
      5         11           0       -2.572275   -0.765131    1.131904
      6         11           0        4.296059   -2.315645   -0.553033
      7         11           0       -6.133759   -0.808218   -0.966255
 ---------------------------------------------------------------------

 SCF Done:  E(UB3LYP) =  -1136.11808136     A.U. after   20 cycles

 The electronic state is 2-A.
 Alpha  occ. eigenvalues --  -38.45211 -38.44633 -38.44547 -38.44541 -38.43425
 Alpha  occ. eigenvalues --  -38.43285 -38.43181  -2.20990  -2.20461  -2.20388
 Alpha  occ. eigenvalues --   -2.20375  -2.19255  -2.19209  -2.18996  -1.14617
 Alpha  occ. eigenvalues --   -1.14617  -1.14590  -1.14183  -1.14157  -1.14129
 Alpha  occ. eigenvalues --   -1.14088  -1.14072  -1.14034  -1.14025  -1.13995
 Alpha  occ. eigenvalues --   -1.13908  -1.13065  -1.12919  -1.12907  -1.12880
 Alpha  occ. eigenvalues --   -1.12872  -1.12815  -1.12648  -1.12643  -1.12605
 Alpha  occ. eigenvalues --   -0.16910  -0.13852  -0.12533  -0.11332
 Alpha virt. eigenvalues --   -0.06048  -0.05624  -0.04390  -0.03968  -0.02617
 Alpha virt. eigenvalues --   -0.02375  -0.01962  -0.01535  -0.01475  -0.00747
 Alpha virt. eigenvalues --   -0.00617  -0.00047   0.00074   0.00327   0.00645

  Beta  occ. eigenvalues --  -38.45061 -38.44605 -38.44539 -38.44533 -38.43432
  Beta  occ. eigenvalues --  -38.43278 -38.43173  -2.20710  -2.20411  -2.20374
  Beta  occ. eigenvalues --   -2.20360  -2.19275  -2.19198  -2.18981  -1.14427
  Beta  occ. eigenvalues --   -1.14427  -1.14402  -1.14155  -1.14125  -1.14116
  Beta  occ. eigenvalues --   -1.14070  -1.14063  -1.14015  -1.14011  -1.13967
  Beta  occ. eigenvalues --   -1.13899  -1.13069  -1.12934  -1.12895  -1.12874
  Beta  occ. eigenvalues --   -1.12869  -1.12799  -1.12638  -1.12631  -1.12596
  Beta  occ. eigenvalues --   -0.16620  -0.13457  -0.11838
  Beta virt. eigenvalues --   -0.07546  -0.05771  -0.05417  -0.04092  -0.03860
  Beta virt. eigenvalues --   -0.02286  -0.02182  -0.01413  -0.01289  -0.01002
  Beta virt. eigenvalues --   -0.00462  -0.00227   0.00162   0.00195   0.00497

 Mulliken charges and spin densities:
               1          2
     1  Na  -1.077427   0.034694
     2  Na   0.765596   0.016339
     3  Na  -0.597122   0.102433
     4  Na  -0.453223   0.140582
     5  Na   0.055290  -0.151528
     6  Na   1.179809   0.057552
     7  Na   0.127078   0.799927
 Sum of Mulliken charges =  -0.00000   1.00000

 Dipole moment (field-independent basis, Debye):
    X=              1.5971    Y=             -1.1479    Z=             -0.5341  Tot=              2.0381
 Quadrupole moment (field-independent basis, Debye-Ang):
   XX=            -59.4681   YY=            -64.8448   ZZ=            -71.1319
   XY=             -6.4803   XZ=             -0.8618   YZ=              0.4692

 Normal termination of Gaussian 16 at Tue Nov 28 23:02:54 2023.
