 Gaussian 16, Revision B.01,
 Gaussian 16:  ES64L-G16RevB.01 20-Dec-2017

 -------------------------
 #P B3LYP/6-311+g(d) force
 -------------------------

 -----
 DPGEN
 -----
 Symbolic Z-matrix:
 Charge =  0 Multiplicity = 2

                         Standard orientation:
 ---------------------------------------------------------------------
 Center     Atomic      Atomic             Coordinates (Angstroms)
 Number     Number       Type             X           Y           Z
 ---------------------------------------------------------------------
      1         11           0        0.226727    0.236818    1.872929
      2         11           0       -0.556314   -0.004168   -1.651896
      3         11           0        0.039098   -2.319133    0.601948
      4         11           0        2.795134   -1.310084   -0.812087
      5         11           0       -1.537545    2.589111   -0.206201
      6         11           0       -3.338153   -1.009401   -0.021476
      7         11           0        2.371053    1.816856    0.216784
 ---------------------------------------------------------------------

 SCF Done:  E(UB3LYP) =  -1136.12809357     A.U. after   20 cycles

 The electronic state is 2-A.
 Alpha  occ. eigenvalues --  -38.44716 -38.43889 -38.43770 -38.43599 -38.43567
 Alpha  occ. eigenvalues --  -38.43462 -38.43004  -2.20501  -2.19742  -2.19635
 Alpha  occ. eigenvalues --   -2.19593  -2.19432  -2.19397  -2.18966  -1.14185
 Alpha  occ. eigenvalues --   -1.14146  -1.14144  -1.13478  -1.13418  -1.13370
 Alpha  occ. eigenvalues --   -1.13361  -1.13297  -1.13287  -1.13261  -1.13212
 Alpha  occ. eigenvalues --   -1.13187  -1.13177  -1.13120  -1.13060  -1.13043
 Alpha  occ. eigenvalues --   -1.13011  -1.12997  -1.12664  -1.12611  -1.12542
 Alpha  occ. eigenvalues --   -0.18874  -0.13254  -0.12114  -0.10996
 Alpha virt. eigenvalues --   -0.06136  -0.05136  -0.03889  -0.03424  -0.02891
 Alpha virt. eigenvalues --   -0.02565  -0.01965  -0.01064  -0.00272  -0.00079
 Alpha virt. eigenvalues --    0.00136   0.00310   0.00758   0.00805   0.00846

  Beta  occ. eigenvalues --  -38.44719 -38.43882 -38.43744 -38.43564 -38.43504
  Beta  occ. eigenvalues --  -38.43407 -38.42980  -2.20509  -2.19732  -2.19589
  Beta  occ. eigenvalues --   -2.19422  -2.19395  -2.19330  -2.18928  -1.14181
  Beta  occ. eigenvalues --   -1.14153  -1.14146  -1.13453  -1.13391  -1.13365
  Beta  occ. eigenvalues --   -1.13272  -1.13246  -1.13243  -1.13230  -1.13160
  Beta  occ. eigenvalues --   -1.13093  -1.13071  -1.13046  -1.13040  -1.13004
  Beta  occ. eigenvalues --   -1.12975  -1.12948  -1.12628  -1.12547  -1.12522
  Beta  occ. eigenvalues --   -0.18154  -0.12994  -0.11850
  Beta virt. eigenvalues --   -0.07086  -0.06078  -0.05046  -0.03877  -0.02713
  Beta virt. eigenvalues --   -0.02117  -0.01908  -0.01509  -0.00972  -0.00261
  Beta virt. eigenvalues --    0.00012   0.00150   0.00341   0.00821   0.00856

 Mulliken charges and spin densities:
               1          2
     1  Na   0.030852   0.360396
     2  Na  -0.267169   0.548873
     3  Na   0.344259   0.189034
     4  Na  -0.081208   0.125550
     5  Na  -0.125551  -0.137867
     6  Na   0.014884  -0.114994
     7  Na   0.083934   0.029008
 Sum of Mulliken charges =  -0.00000   1.00000

 Dipole moment (field-independent basis, Debye):
    X=             -0.5339    Y=              0.1607    Z=             -0.1211  Tot=              0.5705
 Quadrupole moment (field-independent basis, Debye-Ang):
   XX=            -52.3131   YY=            -67.1838   ZZ=            -73.2094
   XY=              0.8075   XZ=             -2.0735   YZ=              0.3722

 Normal termination of Gaussian 16 at Tue Dec  5 21:03:46 2023.
