 Gaussian 16, Revision B.01,
 Gaussian 16:  ES64L-G16RevB.01 20-Dec-2017

 -------------------------
 #P B3LYP/6-311+g(d) force
 -------------------------

 -----
 DPGEN
 -----
 Symbolic Z-matrix:
 Charge =  0 Multiplicity = 2

                         Standard orientation:
 ---------------------------------------------------------------------
 Center     Atomic      Atomic             Coordinates (Angstroms)
 Number     Number       Type             X           Y           Z
 ---------------------------------------------------------------------
      1         11           0        0.446862   -2.911603    0.211632
      2         11           0        2.923446   -1.005561   -0.218790
      3         11           0       -1.473675    2.387532    0.535843
      4         11           0       -3.372737   -0.746417   -0.315264
      5         11           0       -0.679100    0.035078   -1.849912
      6         11           0       -0.087210   -0.103195    1.997986
      7         11           0        2.242415    2.344165   -0.361496
 ---------------------------------------------------------------------

 SCF Done:  E(UB3LYP) =  -1136.13323663     A.U. after   21 cycles

 The electronic state is 2-A.
 Alpha  occ. eigenvalues --  -38.44453 -38.43937 -38.43844 -38.43822 -38.43727
 Alpha  occ. eigenvalues --  -38.43482 -38.43264  -2.20258  -2.19827  -2.19722
 Alpha  occ. eigenvalues --   -2.19689  -2.19585  -2.19275  -2.19119  -1.13956
 Alpha  occ. eigenvalues --   -1.13901  -1.13896  -1.13502  -1.13467  -1.13448
 Alpha  occ. eigenvalues --   -1.13421  -1.13379  -1.13366  -1.13354  -1.13343
 Alpha  occ. eigenvalues --   -1.13334  -1.13249  -1.13245  -1.13186  -1.12947
 Alpha  occ. eigenvalues --   -1.12941  -1.12913  -1.12792  -1.12783  -1.12749
 Alpha  occ. eigenvalues --   -0.18263  -0.13172  -0.12162  -0.10990
 Alpha virt. eigenvalues --   -0.05896  -0.05169  -0.04558  -0.03413  -0.02957
 Alpha virt. eigenvalues --   -0.02710  -0.01768  -0.01036  -0.00405  -0.00343
 Alpha virt. eigenvalues --   -0.00066   0.00316   0.00763   0.00838   0.00852

  Beta  occ. eigenvalues --  -38.44444 -38.43874 -38.43840 -38.43730 -38.43707
  Beta  occ. eigenvalues --  -38.43478 -38.43259  -2.20245  -2.19711  -2.19684
  Beta  occ. eigenvalues --   -2.19555  -2.19550  -2.19269  -2.19113  -1.13932
  Beta  occ. eigenvalues --   -1.13893  -1.13883  -1.13426  -1.13389  -1.13370
  Beta  occ. eigenvalues --   -1.13359  -1.13349  -1.13327  -1.13325  -1.13255
  Beta  occ. eigenvalues --   -1.13226  -1.13214  -1.13174  -1.13169  -1.12942
  Beta  occ. eigenvalues --   -1.12929  -1.12907  -1.12787  -1.12765  -1.12741
  Beta  occ. eigenvalues --   -0.17558  -0.12914  -0.11914
  Beta virt. eigenvalues --   -0.07151  -0.05766  -0.05100  -0.04516  -0.02682
  Beta virt. eigenvalues --   -0.02229  -0.01774  -0.01619  -0.00966  -0.00392
  Beta virt. eigenvalues --   -0.00373   0.00075   0.00365   0.00814   0.00872

 Mulliken charges and spin densities:
               1          2
     1  Na   0.157385  -0.082947
     2  Na  -0.103473  -0.002086
     3  Na   0.121315  -0.002847
     4  Na   0.202835  -0.100948
     5  Na  -0.255594   0.687597
     6  Na  -0.035782   0.523617
     7  Na  -0.086686  -0.022386
 Sum of Mulliken charges =  -0.00000   1.00000

 Dipole moment (field-independent basis, Debye):
    X=             -0.5837    Y=             -0.0953    Z=             -0.0207  Tot=              0.5918
 Quadrupole moment (field-independent basis, Debye-Ang):
   XX=            -56.9644   YY=            -65.1704   ZZ=            -73.0458
   XY=              0.6239   XZ=             -1.4211   YZ=              0.1406

 Normal termination of Gaussian 16 at Tue Dec  5 17:29:42 2023.
