 Gaussian 16, Revision B.01,
 Gaussian 16:  ES64L-G16RevB.01 20-Dec-2017

 -------------------------
 #P B3LYP/6-311+g(d) force
 -------------------------

 -----
 DPGEN
 -----
 Symbolic Z-matrix:
 Charge =  0 Multiplicity = 2

                         Standard orientation:
 ---------------------------------------------------------------------
 Center     Atomic      Atomic             Coordinates (Angstroms)
 Number     Number       Type             X           Y           Z
 ---------------------------------------------------------------------
      1         11           0        1.626806   -2.458577   -0.209684
      2         11           0       -0.138608   -0.029571    2.089685
      3         11           0        3.508626    0.432898   -0.060667
      4         11           0       -3.206668    1.099085   -0.021018
      5         11           0       -0.347274    0.268300   -1.517550
      6         11           0       -1.965437   -2.304984   -0.159138
      7         11           0        0.522555    2.992848   -0.121630
 ---------------------------------------------------------------------

 SCF Done:  E(UB3LYP) =  -1136.13353664     A.U. after   20 cycles

 The electronic state is 2-A.
 Alpha  occ. eigenvalues --  -38.44709 -38.44686 -38.43634 -38.43584 -38.43462
 Alpha  occ. eigenvalues --  -38.43358 -38.43149  -2.20508  -2.20449  -2.19446
 Alpha  occ. eigenvalues --   -2.19430  -2.19325  -2.19186  -2.19116  -1.14189
 Alpha  occ. eigenvalues --   -1.14163  -1.14145  -1.14125  -1.14111  -1.14086
 Alpha  occ. eigenvalues --   -1.13168  -1.13124  -1.13108  -1.13094  -1.13062
 Alpha  occ. eigenvalues --   -1.13061  -1.12993  -1.12944  -1.12941  -1.12869
 Alpha  occ. eigenvalues --   -1.12853  -1.12821  -1.12800  -1.12751  -1.12735
 Alpha  occ. eigenvalues --   -0.18221  -0.12987  -0.12244  -0.10370
 Alpha virt. eigenvalues --   -0.06370  -0.05255  -0.04646  -0.03025  -0.02680
 Alpha virt. eigenvalues --   -0.02392  -0.02025  -0.01245  -0.00764  -0.00445
 Alpha virt. eigenvalues --   -0.00039   0.00292   0.00731   0.00770   0.00844

  Beta  occ. eigenvalues --  -38.44706 -38.44688 -38.43630 -38.43577 -38.43357
  Beta  occ. eigenvalues --  -38.43354 -38.43096  -2.20504  -2.20454  -2.19441
  Beta  occ. eigenvalues --   -2.19421  -2.19181  -2.19132  -2.19021  -1.14176
  Beta  occ. eigenvalues --   -1.14151  -1.14144  -1.14118  -1.14116  -1.14091
  Beta  occ. eigenvalues --   -1.13158  -1.13115  -1.13088  -1.13063  -1.13062
  Beta  occ. eigenvalues --   -1.13060  -1.12872  -1.12857  -1.12834  -1.12821
  Beta  occ. eigenvalues --   -1.12806  -1.12803  -1.12728  -1.12683  -1.12666
  Beta  occ. eigenvalues --   -0.17511  -0.12813  -0.12018
  Beta virt. eigenvalues --   -0.06440  -0.06331  -0.05261  -0.04597  -0.02326
  Beta virt. eigenvalues --   -0.01953  -0.01915  -0.01306  -0.01189  -0.00798
  Beta virt. eigenvalues --   -0.00488   0.00125   0.00334   0.00772   0.00787

 Mulliken charges and spin densities:
               1          2
     1  Na   0.024308  -0.038913
     2  Na  -0.469087   0.823762
     3  Na   0.002379  -0.046410
     4  Na   0.284169  -0.053366
     5  Na  -0.157713   0.423533
     6  Na   0.257259   0.012335
     7  Na   0.058685  -0.120941
 Sum of Mulliken charges =  -0.00000   1.00000

 Dipole moment (field-independent basis, Debye):
    X=             -0.1699    Y=              0.2987    Z=              0.1250  Tot=              0.3657
 Quadrupole moment (field-independent basis, Debye-Ang):
   XX=            -51.3506   YY=            -63.5717   ZZ=            -76.8941
   XY=              0.1387   XZ=             -0.3334   YZ=              0.7458

 Normal termination of Gaussian 16 at Thu Dec  7 05:29:28 2023.
