 Gaussian 16, Revision B.01,
 Gaussian 16:  ES64L-G16RevB.01 20-Dec-2017

 -------------------------
 #P B3LYP/6-311+g(d) force
 -------------------------

 -----
 DPGEN
 -----
 Symbolic Z-matrix:
 Charge =  0 Multiplicity = 2

                         Standard orientation:
 ---------------------------------------------------------------------
 Center     Atomic      Atomic             Coordinates (Angstroms)
 Number     Number       Type             X           Y           Z
 ---------------------------------------------------------------------
      1         11           0       -3.869095   -0.832028   -0.138276
      2         11           0        2.420154   -2.505648   -0.406374
      3         11           0        0.863584    3.516453    0.404687
      4         11           0        3.764092    0.346587   -0.189281
      5         11           0       -1.209038   -3.169569    0.442091
      6         11           0       -2.322355    2.340589   -0.518044
      7         11           0        0.352657    0.303616    0.405197
 ---------------------------------------------------------------------

 SCF Done:  E(UB3LYP) =  -1136.12759857     A.U. after   22 cycles

 The electronic state is 2-A.
 Alpha  occ. eigenvalues --  -38.44370 -38.44368 -38.44017 -38.43876 -38.43822
 Alpha  occ. eigenvalues --  -38.43747 -38.43416  -2.20201  -2.20188  -2.19906
 Alpha  occ. eigenvalues --   -2.19710  -2.19676  -2.19545  -2.19224  -1.13885
 Alpha  occ. eigenvalues --   -1.13882  -1.13879  -1.13871  -1.13845  -1.13800
 Alpha  occ. eigenvalues --   -1.13633  -1.13571  -1.13543  -1.13366  -1.13349
 Alpha  occ. eigenvalues --   -1.13332  -1.13326  -1.13317  -1.13303  -1.13217
 Alpha  occ. eigenvalues --   -1.13194  -1.13180  -1.12892  -1.12870  -1.12853
 Alpha  occ. eigenvalues --   -0.17061  -0.13851  -0.13202  -0.09919
 Alpha virt. eigenvalues --   -0.06563  -0.05659  -0.04158  -0.03451  -0.02920
 Alpha virt. eigenvalues --   -0.02060  -0.01994  -0.01760  -0.01404  -0.00233
 Alpha virt. eigenvalues --   -0.00088   0.00315   0.00402   0.00600   0.00746

  Beta  occ. eigenvalues --  -38.44355 -38.44348 -38.44018 -38.43844 -38.43770
  Beta  occ. eigenvalues --  -38.43706 -38.43371  -2.20184  -2.20153  -2.19907
  Beta  occ. eigenvalues --   -2.19651  -2.19581  -2.19473  -2.19142  -1.13878
  Beta  occ. eigenvalues --   -1.13873  -1.13864  -1.13852  -1.13782  -1.13736
  Beta  occ. eigenvalues --   -1.13631  -1.13574  -1.13545  -1.13326  -1.13312
  Beta  occ. eigenvalues --   -1.13296  -1.13261  -1.13259  -1.13228  -1.13170
  Beta  occ. eigenvalues --   -1.13144  -1.13116  -1.12836  -1.12815  -1.12794
  Beta  occ. eigenvalues --   -0.16745  -0.13079  -0.12703
  Beta virt. eigenvalues --   -0.06604  -0.06596  -0.05428  -0.04018  -0.02854
  Beta virt. eigenvalues --   -0.02377  -0.01914  -0.01803  -0.01396  -0.01317
  Beta virt. eigenvalues --   -0.00075   0.00243   0.00405   0.00543   0.00659

 Mulliken charges and spin densities:
               1          2
     1  Na  -0.113462   0.257556
     2  Na   0.684794   0.036673
     3  Na   1.002189   0.166342
     4  Na   0.367199   0.322562
     5  Na   1.204044   0.119075
     6  Na   0.543207   0.158434
     7  Na  -3.687970  -0.060641
 Sum of Mulliken charges =  -0.00000   1.00000

 Dipole moment (field-independent basis, Debye):
    X=              0.7124    Y=              0.6433    Z=             -0.1098  Tot=              0.9662
 Quadrupole moment (field-independent basis, Debye-Ang):
   XX=            -67.3245   YY=            -57.3211   ZZ=            -72.4211
   XY=              3.0009   XZ=              0.0309   YZ=              0.4130

 Normal termination of Gaussian 16 at Wed Nov 29 16:58:51 2023.
