 Gaussian 16, Revision B.01,
 Gaussian 16:  ES64L-G16RevB.01 20-Dec-2017

 -------------------------
 #P B3LYP/6-311+g(d) force
 -------------------------

 -----
 DPGEN
 -----
 Symbolic Z-matrix:
 Charge =  0 Multiplicity = 2

                         Standard orientation:
 ---------------------------------------------------------------------
 Center     Atomic      Atomic             Coordinates (Angstroms)
 Number     Number       Type             X           Y           Z
 ---------------------------------------------------------------------
      1         11           0        1.447598    2.439555    0.156496
      2         11           0        3.083229   -2.262330   -0.167914
      3         11           0       -3.640034   -1.255701   -1.359082
      4         11           0       -0.103909   -0.706313   -0.095670
      5         11           0        4.302759    0.385425   -0.051777
      6         11           0       -2.306192    2.171296   -0.456684
      7         11           0       -2.783452   -0.771931    1.974630
 ---------------------------------------------------------------------

 SCF Done:  E(UB3LYP) =  -1136.11146387     A.U. after   28 cycles

 The electronic state is 2-A.
 Alpha  occ. eigenvalues --  -38.45141 -38.44945 -38.44568 -38.44323 -38.44205
 Alpha  occ. eigenvalues --  -38.43985 -38.42964  -2.20988  -2.20770  -2.20363
 Alpha  occ. eigenvalues --   -2.20197  -2.20041  -2.19818  -2.18759  -1.14705
 Alpha  occ. eigenvalues --   -1.14639  -1.14606  -1.14431  -1.14425  -1.14396
 Alpha  occ. eigenvalues --   -1.14061  -1.14027  -1.13966  -1.13903  -1.13844
 Alpha  occ. eigenvalues --   -1.13825  -1.13721  -1.13689  -1.13680  -1.13487
 Alpha  occ. eigenvalues --   -1.13451  -1.13433  -1.12445  -1.12437  -1.12395
 Alpha  occ. eigenvalues --   -0.17412  -0.14798  -0.11334  -0.10121
 Alpha virt. eigenvalues --   -0.07310  -0.06509  -0.04048  -0.03481  -0.03133
 Alpha virt. eigenvalues --   -0.02317  -0.02012  -0.01580  -0.01299  -0.00679
 Alpha virt. eigenvalues --   -0.00322  -0.00014   0.00337   0.00414   0.00551

  Beta  occ. eigenvalues --  -38.45119 -38.44897 -38.44538 -38.44290 -38.44217
  Beta  occ. eigenvalues --  -38.43911 -38.42975  -2.20946  -2.20685  -2.20310
  Beta  occ. eigenvalues --   -2.20141  -2.20066  -2.19680  -2.18781  -1.14683
  Beta  occ. eigenvalues --   -1.14608  -1.14579  -1.14368  -1.14360  -1.14330
  Beta  occ. eigenvalues --   -1.14024  -1.13993  -1.13910  -1.13842  -1.13812
  Beta  occ. eigenvalues --   -1.13789  -1.13728  -1.13707  -1.13690  -1.13393
  Beta  occ. eigenvalues --   -1.13348  -1.13338  -1.12460  -1.12449  -1.12404
  Beta  occ. eigenvalues --   -0.16862  -0.14442  -0.11186
  Beta virt. eigenvalues --   -0.07159  -0.06392  -0.06233  -0.03861  -0.03289
  Beta virt. eigenvalues --   -0.02878  -0.01856  -0.01644  -0.01304  -0.00955
  Beta virt. eigenvalues --   -0.00213  -0.00135   0.00038   0.00449   0.00537

 Mulliken charges and spin densities:
               1          2
     1  Na   0.358345  -0.106703
     2  Na   0.417347  -0.083432
     3  Na   0.373872   0.559831
     4  Na  -1.982440   0.114706
     5  Na  -0.393825   0.151820
     6  Na   0.708712   0.243636
     7  Na   0.517989   0.120143
 Sum of Mulliken charges =  -0.00000   1.00000

 Dipole moment (field-independent basis, Debye):
    X=              0.1798    Y=             -0.1155    Z=              0.7989  Tot=              0.8270
 Quadrupole moment (field-independent basis, Debye-Ang):
   XX=            -57.5514   YY=            -70.5750   ZZ=            -71.0824
   XY=              1.0119   XZ=             -5.0443   YZ=              2.9429

 Normal termination of Gaussian 16 at Tue Dec  5 23:36:29 2023.
