 Gaussian 16, Revision B.01,
 Gaussian 16:  ES64L-G16RevB.01 20-Dec-2017

 -------------------------
 #P B3LYP/6-311+g(d) force
 -------------------------

 -----
 DPGEN
 -----
 Symbolic Z-matrix:
 Charge =  0 Multiplicity = 2

                         Standard orientation:
 ---------------------------------------------------------------------
 Center     Atomic      Atomic             Coordinates (Angstroms)
 Number     Number       Type             X           Y           Z
 ---------------------------------------------------------------------
      1         11           0        3.018209    0.085968   -0.012546
      2         11           0        1.474958   -2.716125    0.102473
      3         11           0       -1.546059   -1.880576   -0.445016
      4         11           0       -3.702731    0.663874    0.049859
      5         11           0        1.046985    3.124539    0.105332
      6         11           0        0.069190    0.666572   -1.523908
      7         11           0       -0.360553    0.055749    1.723805
 ---------------------------------------------------------------------

 SCF Done:  E(UB3LYP) =  -1136.12837957     A.U. after   22 cycles

 The electronic state is 2-A.
 Alpha  occ. eigenvalues --  -38.44944 -38.44506 -38.43671 -38.43345 -38.43284
 Alpha  occ. eigenvalues --  -38.43152 -38.43037  -2.20717  -2.20362  -2.19508
 Alpha  occ. eigenvalues --   -2.19308  -2.19222  -2.19031  -2.19024  -1.14389
 Alpha  occ. eigenvalues --   -1.14381  -1.14349  -1.14053  -1.14028  -1.13991
 Alpha  occ. eigenvalues --   -1.13219  -1.13156  -1.13140  -1.13084  -1.12991
 Alpha  occ. eigenvalues --   -1.12940  -1.12909  -1.12836  -1.12810  -1.12709
 Alpha  occ. eigenvalues --   -1.12705  -1.12673  -1.12668  -1.12654  -1.12629
 Alpha  occ. eigenvalues --   -0.18765  -0.13290  -0.12435  -0.10163
 Alpha virt. eigenvalues --   -0.06518  -0.05128  -0.04460  -0.03110  -0.02577
 Alpha virt. eigenvalues --   -0.02294  -0.01957  -0.01247  -0.00563  -0.00123
 Alpha virt. eigenvalues --    0.00006   0.00274   0.00736   0.00807   0.00832

  Beta  occ. eigenvalues --  -38.44946 -38.44500 -38.43669 -38.43325 -38.43205
  Beta  occ. eigenvalues --  -38.43149 -38.42973  -2.20723  -2.20354  -2.19507
  Beta  occ. eigenvalues --   -2.19275  -2.19078  -2.19027  -2.18909  -1.14394
  Beta  occ. eigenvalues --   -1.14371  -1.14354  -1.14046  -1.13998  -1.13991
  Beta  occ. eigenvalues --   -1.13213  -1.13143  -1.13139  -1.13051  -1.12929
  Beta  occ. eigenvalues --   -1.12917  -1.12821  -1.12739  -1.12711  -1.12703
  Beta  occ. eigenvalues --   -1.12671  -1.12640  -1.12626  -1.12564  -1.12547
  Beta  occ. eigenvalues --   -0.18033  -0.13078  -0.12223
  Beta virt. eigenvalues --   -0.06487  -0.06255  -0.05079  -0.04447  -0.02370
  Beta virt. eigenvalues --   -0.02169  -0.01886  -0.01192  -0.00997  -0.00608
  Beta virt. eigenvalues --   -0.00092   0.00157   0.00306   0.00744   0.00837

 Mulliken charges and spin densities:
               1          2
     1  Na   0.142086   0.043358
     2  Na  -0.107147  -0.013331
     3  Na   0.327792   0.234250
     4  Na   0.097807  -0.052959
     5  Na  -0.005704  -0.070552
     6  Na  -0.036598   0.247287
     7  Na  -0.418237   0.611948
 Sum of Mulliken charges =  -0.00000   1.00000

 Dipole moment (field-independent basis, Debye):
    X=             -0.3781    Y=              0.6334    Z=              0.1268  Tot=              0.7485
 Quadrupole moment (field-independent basis, Debye-Ang):
   XX=            -51.1287   YY=            -61.8489   ZZ=            -77.4693
   XY=             -2.0080   XZ=              0.6811   YZ=              1.1887

 Normal termination of Gaussian 16 at Tue Dec  5 20:23:47 2023.
