 Gaussian 16, Revision B.01,
 Gaussian 16:  ES64L-G16RevB.01 20-Dec-2017

 -------------------------
 #P B3LYP/6-311+g(d) force
 -------------------------

 -----
 DPGEN
 -----
 Symbolic Z-matrix:
 Charge =  0 Multiplicity = 2

                         Standard orientation:
 ---------------------------------------------------------------------
 Center     Atomic      Atomic             Coordinates (Angstroms)
 Number     Number       Type             X           Y           Z
 ---------------------------------------------------------------------
      1         11           0        3.358552   -2.545657    0.170003
      2         11           0       -1.369083    3.479283   -0.391982
      3         11           0       -5.315475   -0.885978    1.231641
      4         11           0        4.436087    0.402316    1.182625
      5         11           0       -2.923808   -0.613576   -0.394039
      6         11           0        0.066236   -2.818823   -1.298578
      7         11           0        1.747491    2.982434   -0.499670
 ---------------------------------------------------------------------

 SCF Done:  E(UB3LYP) =  -1136.10616261     A.U. after   19 cycles

 The electronic state is 2-A.
 Alpha  occ. eigenvalues --  -38.44948 -38.44789 -38.44737 -38.44506 -38.44272
 Alpha  occ. eigenvalues --  -38.44106 -38.44036  -2.20730  -2.20583  -2.20572
 Alpha  occ. eigenvalues --   -2.20274  -2.20057  -2.19876  -2.19855  -1.14378
 Alpha  occ. eigenvalues --   -1.14370  -1.14342  -1.14294  -1.14233  -1.14229
 Alpha  occ. eigenvalues --   -1.14214  -1.14193  -1.14190  -1.13957  -1.13942
 Alpha  occ. eigenvalues --   -1.13926  -1.13743  -1.13715  -1.13701  -1.13551
 Alpha  occ. eigenvalues --   -1.13540  -1.13535  -1.13511  -1.13499  -1.13496
 Alpha  occ. eigenvalues --   -0.15459  -0.13944  -0.12863  -0.11519
 Alpha virt. eigenvalues --   -0.06709  -0.05924  -0.03827  -0.03584  -0.03223
 Alpha virt. eigenvalues --   -0.02522  -0.02245  -0.01575  -0.01501  -0.00968
 Alpha virt. eigenvalues --   -0.00641  -0.00570  -0.00204   0.00472   0.00558

  Beta  occ. eigenvalues --  -38.44853 -38.44720 -38.44672 -38.44520 -38.44254
  Beta  occ. eigenvalues --  -38.44114 -38.44042  -2.20553  -2.20454  -2.20452
  Beta  occ. eigenvalues --   -2.20306  -2.20024  -2.19893  -2.19871  -1.14258
  Beta  occ. eigenvalues --   -1.14251  -1.14228  -1.14218  -1.14150  -1.14144
  Beta  occ. eigenvalues --   -1.14126  -1.14111  -1.14109  -1.13983  -1.13967
  Beta  occ. eigenvalues --   -1.13907  -1.13724  -1.13692  -1.13680  -1.13563
  Beta  occ. eigenvalues --   -1.13552  -1.13535  -1.13513  -1.13494  -1.13493
  Beta  occ. eigenvalues --   -0.14857  -0.13279  -0.12418
  Beta virt. eigenvalues --   -0.08330  -0.06441  -0.05414  -0.03455  -0.03365
  Beta virt. eigenvalues --   -0.02974  -0.02226  -0.02026  -0.01449  -0.01331
  Beta virt. eigenvalues --   -0.00692  -0.00278  -0.00253   0.00023   0.00523

 Mulliken charges and spin densities:
               1          2
     1  Na  -0.064170  -0.047895
     2  Na   0.428343   0.043801
     3  Na   0.515969   0.223097
     4  Na   0.264064   0.332859
     5  Na  -0.908782   0.060218
     6  Na   0.283649   0.409924
     7  Na  -0.519073  -0.022004
 Sum of Mulliken charges =  -0.00000   1.00000

 Dipole moment (field-independent basis, Debye):
    X=             -0.2938    Y=             -0.2260    Z=              0.4762  Tot=              0.6035
 Quadrupole moment (field-independent basis, Debye-Ang):
   XX=            -56.1387   YY=            -69.1878   ZZ=            -70.6926
   XY=             -1.4345   XZ=             -2.1971   YZ=              0.9064

 Normal termination of Gaussian 16 at Sun Dec  3 13:47:14 2023.
