 Gaussian 16, Revision B.01,
 Gaussian 16:  ES64L-G16RevB.01 20-Dec-2017

 -------------------------
 #P B3LYP/6-311+g(d) force
 -------------------------

 -----
 DPGEN
 -----
 Symbolic Z-matrix:
 Charge =  0 Multiplicity = 2

                         Standard orientation:
 ---------------------------------------------------------------------
 Center     Atomic      Atomic             Coordinates (Angstroms)
 Number     Number       Type             X           Y           Z
 ---------------------------------------------------------------------
      1         11           0        2.973560   -0.869434    0.254923
      2         11           0       -0.023042    0.419388   -1.551007
      3         11           0       -2.598990   -1.208721   -0.397607
      4         11           0       -0.245577   -0.527247    2.109159
      5         11           0        0.190030   -2.514057   -0.530278
      6         11           0        1.578581    2.494066   -0.287622
      7         11           0       -1.874563    2.206005    0.402431
 ---------------------------------------------------------------------

 SCF Done:  E(UB3LYP) =  -1136.13394324     A.U. after   19 cycles

 The electronic state is 2-A.
 Alpha  occ. eigenvalues --  -38.43852 -38.43649 -38.43638 -38.43560 -38.43443
 Alpha  occ. eigenvalues --  -38.43180 -38.43174  -2.19753  -2.19521  -2.19469
 Alpha  occ. eigenvalues --   -2.19427  -2.19364  -2.19249  -2.19150  -1.13423
 Alpha  occ. eigenvalues --   -1.13391  -1.13366  -1.13343  -1.13169  -1.13149
 Alpha  occ. eigenvalues --   -1.13146  -1.13131  -1.13124  -1.13107  -1.13099
 Alpha  occ. eigenvalues --   -1.13091  -1.13049  -1.13021  -1.12991  -1.12950
 Alpha  occ. eigenvalues --   -1.12878  -1.12839  -1.12792  -1.12776  -1.12748
 Alpha  occ. eigenvalues --   -0.19169  -0.12890  -0.12775  -0.11193
 Alpha virt. eigenvalues --   -0.05227  -0.04987  -0.04590  -0.03211  -0.03137
 Alpha virt. eigenvalues --   -0.02791  -0.01255  -0.01022  -0.00181   0.00033
 Alpha virt. eigenvalues --    0.00095   0.00359   0.00872   0.00926   0.00966

  Beta  occ. eigenvalues --  -38.43758 -38.43644 -38.43636 -38.43551 -38.43431
  Beta  occ. eigenvalues --  -38.43162 -38.43113  -2.19580  -2.19515  -2.19467
  Beta  occ. eigenvalues --   -2.19413  -2.19346  -2.19142  -2.19121  -1.13320
  Beta  occ. eigenvalues --   -1.13313  -1.13270  -1.13240  -1.13154  -1.13147
  Beta  occ. eigenvalues --   -1.13142  -1.13118  -1.13111  -1.13096  -1.13088
  Beta  occ. eigenvalues --   -1.13064  -1.13039  -1.13004  -1.12959  -1.12900
  Beta  occ. eigenvalues --   -1.12805  -1.12768  -1.12763  -1.12732  -1.12710
  Beta  occ. eigenvalues --   -0.18420  -0.12621  -0.12547
  Beta virt. eigenvalues --   -0.07190  -0.05190  -0.04949  -0.04551  -0.02441
  Beta virt. eigenvalues --   -0.02386  -0.01682  -0.01166  -0.00944  -0.00153
  Beta virt. eigenvalues --    0.00051   0.00140   0.00389   0.00914   0.00944

 Mulliken charges and spin densities:
               1          2
     1  Na   0.011785   0.008945
     2  Na  -0.301023   0.174428
     3  Na   0.353453  -0.005758
     4  Na  -0.698332   0.703763
     5  Na   0.354749   0.080968
     6  Na   0.192722  -0.028498
     7  Na   0.086645   0.066152
 Sum of Mulliken charges =  -0.00000   1.00000

 Dipole moment (field-independent basis, Debye):
    X=              0.0211    Y=              0.1609    Z=              0.4201  Tot=              0.4503
 Quadrupole moment (field-independent basis, Debye-Ang):
   XX=            -58.8910   YY=            -63.5458   ZZ=            -71.9539
   XY=             -0.0517   XZ=              0.5545   YZ=              1.6552

 Normal termination of Gaussian 16 at Fri Dec  8 01:01:37 2023.
