 Gaussian 16, Revision B.01,
 Gaussian 16:  ES64L-G16RevB.01 20-Dec-2017

 -------------------------
 #P B3LYP/6-311+g(d) force
 -------------------------

 -----
 DPGEN
 -----
 Symbolic Z-matrix:
 Charge =  0 Multiplicity = 2

                         Standard orientation:
 ---------------------------------------------------------------------
 Center     Atomic      Atomic             Coordinates (Angstroms)
 Number     Number       Type             X           Y           Z
 ---------------------------------------------------------------------
      1         11           0        0.280797   -0.121867   -1.663061
      2         11           0        0.563601    2.852251    0.274078
      3         11           0       -0.412827   -0.094958    2.016189
      4         11           0        3.099050    0.582433   -0.142955
      5         11           0       -2.227729   -1.988419   -0.018284
      6         11           0       -2.933576    1.280018   -0.505446
      7         11           0        1.630684   -2.509458    0.039479
 ---------------------------------------------------------------------

 SCF Done:  E(UB3LYP) =  -1136.13840411     A.U. after   19 cycles

 The electronic state is 2-A.
 Alpha  occ. eigenvalues --  -38.44091 -38.44036 -38.43719 -38.43515 -38.43402
 Alpha  occ. eigenvalues --  -38.43341 -38.43162  -2.19905  -2.19888  -2.19576
 Alpha  occ. eigenvalues --   -2.19412  -2.19304  -2.19253  -2.18997  -1.13580
 Alpha  occ. eigenvalues --   -1.13575  -1.13566  -1.13547  -1.13546  -1.13524
 Alpha  occ. eigenvalues --   -1.13272  -1.13246  -1.13200  -1.13078  -1.13037
 Alpha  occ. eigenvalues --   -1.13030  -1.13021  -1.12968  -1.12934  -1.12916
 Alpha  occ. eigenvalues --   -1.12880  -1.12878  -1.12672  -1.12663  -1.12632
 Alpha  occ. eigenvalues --   -0.18589  -0.13257  -0.12232  -0.10726
 Alpha virt. eigenvalues --   -0.05669  -0.05339  -0.04550  -0.03315  -0.02817
 Alpha virt. eigenvalues --   -0.02518  -0.01602  -0.01126  -0.00371  -0.00355
 Alpha virt. eigenvalues --   -0.00016   0.00355   0.00770   0.00864   0.00892

  Beta  occ. eigenvalues --  -38.44077 -38.44033 -38.43712 -38.43421 -38.43399
  Beta  occ. eigenvalues --  -38.43282 -38.43156  -2.19886  -2.19883  -2.19568
  Beta  occ. eigenvalues --   -2.19252  -2.19239  -2.19196  -2.18989  -1.13571
  Beta  occ. eigenvalues --   -1.13556  -1.13544  -1.13539  -1.13529  -1.13520
  Beta  occ. eigenvalues --   -1.13259  -1.13221  -1.13193  -1.12989  -1.12960
  Beta  occ. eigenvalues --   -1.12919  -1.12911  -1.12902  -1.12895  -1.12871
  Beta  occ. eigenvalues --   -1.12856  -1.12825  -1.12665  -1.12636  -1.12631
  Beta  occ. eigenvalues --   -0.17876  -0.13006  -0.11998
  Beta virt. eigenvalues --   -0.06852  -0.05583  -0.05335  -0.04502  -0.02555
  Beta virt. eigenvalues --   -0.02061  -0.01514  -0.01464  -0.01065  -0.00416
  Beta virt. eigenvalues --   -0.00385   0.00125   0.00389   0.00851   0.00861

 Mulliken charges and spin densities:
               1          2
     1  Na  -0.184405   0.471708
     2  Na   0.020454  -0.045792
     3  Na  -0.378792   0.734118
     4  Na   0.155947  -0.049145
     5  Na   0.250142  -0.038014
     6  Na   0.006685   0.023651
     7  Na   0.129970  -0.096526
 Sum of Mulliken charges =  -0.00000   1.00000

 Dipole moment (field-independent basis, Debye):
    X=             -0.0688    Y=             -0.0480    Z=              0.0359  Tot=              0.0913
 Quadrupole moment (field-independent basis, Debye-Ang):
   XX=            -55.5931   YY=            -63.6993   ZZ=            -74.2475
   XY=             -0.3860   XZ=              1.4255   YZ=             -0.3712

 Normal termination of Gaussian 16 at Thu Dec  7 09:47:46 2023.
