 Gaussian 16, Revision B.01,
 Gaussian 16:  ES64L-G16RevB.01 20-Dec-2017

 -------------------------
 #P B3LYP/6-311+g(d) force
 -------------------------

 -----
 DPGEN
 -----
 Symbolic Z-matrix:
 Charge =  0 Multiplicity = 2

                         Standard orientation:
 ---------------------------------------------------------------------
 Center     Atomic      Atomic             Coordinates (Angstroms)
 Number     Number       Type             X           Y           Z
 ---------------------------------------------------------------------
      1         11           0        1.263459   -2.257395   -0.909033
      2         11           0       -2.523613   -1.990380    0.339833
      3         11           0        3.414175    0.239179    0.324396
      4         11           0        1.006072    2.217788   -0.622544
      5         11           0       -1.014058   -0.070091   -1.603286
      6         11           0        0.227172   -0.335897    2.215990
      7         11           0       -2.373206    2.196796    0.254644
 ---------------------------------------------------------------------

 SCF Done:  E(UB3LYP) =  -1136.13209186     A.U. after   19 cycles

 The electronic state is 2-A.
 Alpha  occ. eigenvalues --  -38.44302 -38.44046 -38.44044 -38.43765 -38.43738
 Alpha  occ. eigenvalues --  -38.43186 -38.43184  -2.20134  -2.19870  -2.19863
 Alpha  occ. eigenvalues --   -2.19589  -2.19579  -2.19189  -2.19068  -1.13793
 Alpha  occ. eigenvalues --   -1.13770  -1.13751  -1.13572  -1.13549  -1.13528
 Alpha  occ. eigenvalues --   -1.13519  -1.13513  -1.13487  -1.13296  -1.13277
 Alpha  occ. eigenvalues --   -1.13248  -1.13230  -1.13223  -1.13185  -1.12904
 Alpha  occ. eigenvalues --   -1.12837  -1.12809  -1.12734  -1.12729  -1.12676
 Alpha  occ. eigenvalues --   -0.18429  -0.13075  -0.12086  -0.11180
 Alpha virt. eigenvalues --   -0.05813  -0.05398  -0.04105  -0.03454  -0.03022
 Alpha virt. eigenvalues --   -0.02861  -0.01619  -0.01190  -0.00399   0.00007
 Alpha virt. eigenvalues --    0.00060   0.00340   0.00694   0.00732   0.00847

  Beta  occ. eigenvalues --  -38.44209 -38.44046 -38.44041 -38.43765 -38.43711
  Beta  occ. eigenvalues --  -38.43175 -38.43130  -2.19961  -2.19872  -2.19860
  Beta  occ. eigenvalues --   -2.19589  -2.19531  -2.19093  -2.19050  -1.13678
  Beta  occ. eigenvalues --   -1.13651  -1.13625  -1.13567  -1.13553  -1.13519
  Beta  occ. eigenvalues --   -1.13510  -1.13503  -1.13484  -1.13276  -1.13250
  Beta  occ. eigenvalues --   -1.13245  -1.13219  -1.13187  -1.13156  -1.12849
  Beta  occ. eigenvalues --   -1.12769  -1.12745  -1.12707  -1.12691  -1.12663
  Beta  occ. eigenvalues --   -0.17687  -0.12930  -0.11854
  Beta virt. eigenvalues --   -0.07221  -0.05676  -0.05342  -0.03986  -0.02817
  Beta virt. eigenvalues --   -0.02301  -0.01843  -0.01516  -0.01115  -0.00286
  Beta virt. eigenvalues --    0.00020   0.00123   0.00376   0.00785   0.00837

 Mulliken charges and spin densities:
               1          2
     1  Na  -0.191060   0.077027
     2  Na  -0.001898   0.024328
     3  Na   0.353936   0.002795
     4  Na  -0.300930   0.066525
     5  Na   0.509071   0.100871
     6  Na  -0.478478   0.688019
     7  Na   0.109360   0.040434
 Sum of Mulliken charges =  -0.00000   1.00000

 Dipole moment (field-independent basis, Debye):
    X=             -0.0766    Y=             -0.2052    Z=              0.4999  Tot=              0.5458
 Quadrupole moment (field-independent basis, Debye-Ang):
   XX=            -54.9397   YY=            -67.8443   ZZ=            -71.5143
   XY=             -0.2731   XZ=             -1.8494   YZ=              0.9013

 Normal termination of Gaussian 16 at Thu Dec  7 20:02:52 2023.
