 Gaussian 16, Revision B.01,
 Gaussian 16:  ES64L-G16RevB.01 20-Dec-2017

 -------------------------
 #P B3LYP/6-311+g(d) force
 -------------------------

 -----
 DPGEN
 -----
 Symbolic Z-matrix:
 Charge =  0 Multiplicity = 2

                         Standard orientation:
 ---------------------------------------------------------------------
 Center     Atomic      Atomic             Coordinates (Angstroms)
 Number     Number       Type             X           Y           Z
 ---------------------------------------------------------------------
      1         11           0        2.876628   -1.679573   -0.555688
      2         11           0        5.911078   -0.360979   -0.301984
      3         11           0        2.619843    1.718150   -0.408111
      4         11           0       -0.594207    1.607974   -0.072810
      5         11           0       -0.102582   -0.988724    1.790109
      6         11           0       -4.228000    0.618091    0.738902
      7         11           0       -6.482760   -0.914939   -1.190418
 ---------------------------------------------------------------------

 SCF Done:  E(UB3LYP) =  -1136.11454226     A.U. after   21 cycles

 The electronic state is 2-A.
 Alpha  occ. eigenvalues --  -38.44753 -38.44650 -38.44416 -38.44309 -38.44141
 Alpha  occ. eigenvalues --  -38.43881 -38.43775  -2.20581  -2.20431  -2.20276
 Alpha  occ. eigenvalues --   -2.20127  -2.19889  -2.19657  -2.19637  -1.14269
 Alpha  occ. eigenvalues --   -1.14256  -1.14205  -1.14097  -1.14092  -1.14046
 Alpha  occ. eigenvalues --   -1.13961  -1.13931  -1.13877  -1.13786  -1.13777
 Alpha  occ. eigenvalues --   -1.13759  -1.13559  -1.13559  -1.13541  -1.13341
 Alpha  occ. eigenvalues --   -1.13326  -1.13302  -1.13294  -1.13282  -1.13260
 Alpha  occ. eigenvalues --   -0.16928  -0.13789  -0.11838  -0.11011
 Alpha virt. eigenvalues --   -0.07141  -0.05628  -0.04306  -0.03682  -0.02908
 Alpha virt. eigenvalues --   -0.02625  -0.01975  -0.01846  -0.01178  -0.00922
 Alpha virt. eigenvalues --   -0.00261  -0.00108   0.00229   0.00278   0.00339

  Beta  occ. eigenvalues --  -38.44719 -38.44645 -38.44342 -38.44247 -38.44156
  Beta  occ. eigenvalues --  -38.43875 -38.43751  -2.20520  -2.20422  -2.20142
  Beta  occ. eigenvalues --   -2.20012  -2.19916  -2.19644  -2.19596  -1.14224
  Beta  occ. eigenvalues --   -1.14218  -1.14154  -1.14092  -1.14077  -1.14035
  Beta  occ. eigenvalues --   -1.13873  -1.13843  -1.13764  -1.13711  -1.13700
  Beta  occ. eigenvalues --   -1.13672  -1.13578  -1.13577  -1.13557  -1.13330
  Beta  occ. eigenvalues --   -1.13317  -1.13278  -1.13269  -1.13261  -1.13217
  Beta  occ. eigenvalues --   -0.16186  -0.13745  -0.11722
  Beta virt. eigenvalues --   -0.07053  -0.06966  -0.05216  -0.04107  -0.03347
  Beta virt. eigenvalues --   -0.02559  -0.01996  -0.01841  -0.01745  -0.00883
  Beta virt. eigenvalues --   -0.00673  -0.00139   0.00075   0.00371   0.00406

 Mulliken charges and spin densities:
               1          2
     1  Na  -0.199257   0.222194
     2  Na   0.331957  -0.001695
     3  Na  -0.123459   0.232448
     4  Na  -0.259354   0.222381
     5  Na  -0.145281   0.358383
     6  Na   0.238014   0.052758
     7  Na   0.157380  -0.086468
 Sum of Mulliken charges =  -0.00000   1.00000

 Dipole moment (field-independent basis, Debye):
    X=              1.8222    Y=             -0.5050    Z=             -0.0336  Tot=              1.8912
 Quadrupole moment (field-independent basis, Debye-Ang):
   XX=            -56.8352   YY=            -70.9714   ZZ=            -68.1532
   XY=              3.1835   XZ=              3.4088   YZ=              3.3987

 Normal termination of Gaussian 16 at Tue Nov 28 23:09:02 2023.
