 Gaussian 16, Revision B.01,
 Gaussian 16:  ES64L-G16RevB.01 20-Dec-2017

 -------------------------
 #P B3LYP/6-311+g(d) force
 -------------------------

 -----
 DPGEN
 -----
 Symbolic Z-matrix:
 Charge =  0 Multiplicity = 2

                         Standard orientation:
 ---------------------------------------------------------------------
 Center     Atomic      Atomic             Coordinates (Angstroms)
 Number     Number       Type             X           Y           Z
 ---------------------------------------------------------------------
      1         11           0       -2.465229    1.836559   -0.052124
      2         11           0       -0.454793    0.523598   -1.304213
      3         11           0       -2.565669   -1.813767   -0.754985
      4         11           0        2.953333    0.017364   -1.485264
      5         11           0        1.874877   -1.900508    0.848919
      6         11           0       -0.916229   -0.610623    1.681912
      7         11           0        1.573711    1.947377    1.065755
 ---------------------------------------------------------------------

 SCF Done:  E(UB3LYP) =  -1136.12095662     A.U. after   22 cycles

 The electronic state is 2-A.
 Alpha  occ. eigenvalues --  -38.44197 -38.44094 -38.43961 -38.43843 -38.43473
 Alpha  occ. eigenvalues --  -38.43397 -38.43208  -2.20066  -2.20009  -2.19828
 Alpha  occ. eigenvalues --   -2.19688  -2.19483  -2.19337  -2.19214  -1.13929
 Alpha  occ. eigenvalues --   -1.13730  -1.13720  -1.13692  -1.13656  -1.13581
 Alpha  occ. eigenvalues --   -1.13525  -1.13500  -1.13435  -1.13375  -1.13349
 Alpha  occ. eigenvalues --   -1.13304  -1.13161  -1.13089  -1.13065  -1.13059
 Alpha  occ. eigenvalues --   -1.12996  -1.12959  -1.12887  -1.12841  -1.12812
 Alpha  occ. eigenvalues --   -0.19041  -0.13991  -0.11398  -0.11319
 Alpha virt. eigenvalues --   -0.05592  -0.05436  -0.04632  -0.03197  -0.02708
 Alpha virt. eigenvalues --   -0.02495  -0.01686  -0.01000  -0.00550   0.00200
 Alpha virt. eigenvalues --    0.00313   0.00421   0.00555   0.00632   0.00794

  Beta  occ. eigenvalues --  -38.44153 -38.44093 -38.43944 -38.43816 -38.43459
  Beta  occ. eigenvalues --  -38.43360 -38.43149  -2.20011  -2.19984  -2.19798
  Beta  occ. eigenvalues --   -2.19641  -2.19419  -2.19315  -2.19108  -1.13921
  Beta  occ. eigenvalues --   -1.13673  -1.13660  -1.13647  -1.13639  -1.13573
  Beta  occ. eigenvalues --   -1.13502  -1.13475  -1.13414  -1.13342  -1.13295
  Beta  occ. eigenvalues --   -1.13274  -1.13107  -1.13048  -1.13025  -1.13008
  Beta  occ. eigenvalues --   -1.12969  -1.12949  -1.12825  -1.12759  -1.12727
  Beta  occ. eigenvalues --   -0.18313  -0.13686  -0.11125
  Beta virt. eigenvalues --   -0.07490  -0.05468  -0.05296  -0.03994  -0.03025
  Beta virt. eigenvalues --   -0.02087  -0.01686  -0.01488  -0.00910  -0.00256
  Beta virt. eigenvalues --    0.00258   0.00353   0.00415   0.00662   0.00787

 Mulliken charges and spin densities:
               1          2
     1  Na   0.657113   0.070806
     2  Na  -0.791498   0.247612
     3  Na   0.105467  -0.006282
     4  Na   0.409574   0.105612
     5  Na  -0.359625   0.074598
     6  Na   0.164564   0.370528
     7  Na  -0.185595   0.137126
 Sum of Mulliken charges =  -0.00000   1.00000

 Dipole moment (field-independent basis, Debye):
    X=             -0.0137    Y=              0.1127    Z=             -0.0553  Tot=              0.1263
 Quadrupole moment (field-independent basis, Debye-Ang):
   XX=            -53.7567   YY=            -71.3962   ZZ=            -68.3352
   XY=              0.4682   XZ=             -0.1476   YZ=              3.6585

 Normal termination of Gaussian 16 at Thu Dec  7 05:57:23 2023.
