 Gaussian 16, Revision B.01,
 Gaussian 16:  ES64L-G16RevB.01 20-Dec-2017

 -------------------------
 #P B3LYP/6-311+g(d) force
 -------------------------

 -----
 DPGEN
 -----
 Symbolic Z-matrix:
 Charge =  0 Multiplicity = 2

                         Standard orientation:
 ---------------------------------------------------------------------
 Center     Atomic      Atomic             Coordinates (Angstroms)
 Number     Number       Type             X           Y           Z
 ---------------------------------------------------------------------
      1         11           0       -3.342184    1.188820   -0.177906
      2         11           0       -0.649271    3.464716   -0.220365
      3         11           0        2.990813    2.092085    0.316614
      4         11           0       -0.059695   -0.224786    0.085072
      5         11           0        3.661791   -1.375769   -0.019118
      6         11           0        0.676856   -3.002908   -0.393926
      7         11           0       -3.278309   -2.142158    0.409628
 ---------------------------------------------------------------------

 SCF Done:  E(UB3LYP) =  -1136.12495270     A.U. after   24 cycles

 The electronic state is 2-A.
 Alpha  occ. eigenvalues --  -38.44848 -38.44615 -38.44106 -38.43755 -38.43657
 Alpha  occ. eigenvalues --  -38.43626 -38.43542  -2.20646  -2.20436  -2.20014
 Alpha  occ. eigenvalues --   -2.19556  -2.19511  -2.19478  -2.19346  -1.14333
 Alpha  occ. eigenvalues --   -1.14301  -1.14288  -1.14121  -1.14109  -1.14067
 Alpha  occ. eigenvalues --   -1.13771  -1.13720  -1.13619  -1.13227  -1.13210
 Alpha  occ. eigenvalues --   -1.13180  -1.13174  -1.13143  -1.13140  -1.13126
 Alpha  occ. eigenvalues --   -1.13104  -1.13095  -1.13015  -1.12991  -1.12984
 Alpha  occ. eigenvalues --   -0.17111  -0.14010  -0.13032  -0.09905
 Alpha virt. eigenvalues --   -0.06825  -0.05462  -0.04245  -0.03261  -0.02965
 Alpha virt. eigenvalues --   -0.02342  -0.01975  -0.01651  -0.01516  -0.00154
 Alpha virt. eigenvalues --    0.00092   0.00231   0.00508   0.00630   0.00672

  Beta  occ. eigenvalues --  -38.44835 -38.44597 -38.44107 -38.43702 -38.43600
  Beta  occ. eigenvalues --  -38.43583 -38.43511  -2.20628  -2.20411  -2.20014
  Beta  occ. eigenvalues --   -2.19460  -2.19432  -2.19375  -2.19289  -1.14326
  Beta  occ. eigenvalues --   -1.14293  -1.14231  -1.14111  -1.14101  -1.13997
  Beta  occ. eigenvalues --   -1.13760  -1.13718  -1.13636  -1.13164  -1.13149
  Beta  occ. eigenvalues --   -1.13131  -1.13095  -1.13089  -1.13071  -1.13053
  Beta  occ. eigenvalues --   -1.13052  -1.13024  -1.12976  -1.12951  -1.12945
  Beta  occ. eigenvalues --   -0.16805  -0.13238  -0.12472
  Beta virt. eigenvalues --   -0.06870  -0.06603  -0.05249  -0.04097  -0.02721
  Beta virt. eigenvalues --   -0.02394  -0.02142  -0.01731  -0.01438  -0.01315
  Beta virt. eigenvalues --    0.00014   0.00270   0.00467   0.00592   0.00673

 Mulliken charges and spin densities:
               1          2
     1  Na   0.876296   0.161867
     2  Na   0.426730   0.151147
     3  Na   0.571139   0.402439
     4  Na  -4.728287  -0.356117
     5  Na   0.735228   0.111613
     6  Na   1.191782   0.135694
     7  Na   0.927112   0.393357
 Sum of Mulliken charges =  -0.00000   1.00000

 Dipole moment (field-independent basis, Debye):
    X=              0.0805    Y=             -0.4327    Z=             -0.2102  Tot=              0.4877
 Quadrupole moment (field-independent basis, Debye-Ang):
   XX=            -64.6959   YY=            -59.1763   ZZ=            -72.9278
   XY=             -6.3830   XZ=              0.1865   YZ=             -0.2716

 Normal termination of Gaussian 16 at Fri Dec  8 18:24:12 2023.
