 Gaussian 16, Revision B.01,
 Gaussian 16:  ES64L-G16RevB.01 20-Dec-2017

 -------------------------
 #P B3LYP/6-311+g(d) force
 -------------------------

 -----
 DPGEN
 -----
 Symbolic Z-matrix:
 Charge =  0 Multiplicity = 2

                         Standard orientation:
 ---------------------------------------------------------------------
 Center     Atomic      Atomic             Coordinates (Angstroms)
 Number     Number       Type             X           Y           Z
 ---------------------------------------------------------------------
      1         11           0       -3.469722   -0.450584   -0.350986
      2         11           0       -1.185233    2.540437    0.043235
      3         11           0       -0.331325    0.115604   -1.472457
      4         11           0        2.082041    2.100481    0.137296
      5         11           0        3.241038   -1.028220   -0.457746
      6         11           0       -0.122276   -2.797065   -0.065995
      7         11           0       -0.214522   -0.480652    2.166653
 ---------------------------------------------------------------------

 SCF Done:  E(UB3LYP) =  -1136.13156615     A.U. after   19 cycles

 The electronic state is 2-A.
 Alpha  occ. eigenvalues --  -38.44715 -38.44220 -38.43661 -38.43444 -38.43381
 Alpha  occ. eigenvalues --  -38.43372 -38.43306  -2.20502  -2.20010  -2.19538
 Alpha  occ. eigenvalues --   -2.19374  -2.19299  -2.19236  -2.19198  -1.14180
 Alpha  occ. eigenvalues --   -1.14149  -1.14138  -1.13682  -1.13674  -1.13641
 Alpha  occ. eigenvalues --   -1.13220  -1.13176  -1.13161  -1.13152  -1.13079
 Alpha  occ. eigenvalues --   -1.12985  -1.12969  -1.12962  -1.12916  -1.12899
 Alpha  occ. eigenvalues --   -1.12896  -1.12891  -1.12846  -1.12838  -1.12785
 Alpha  occ. eigenvalues --   -0.18457  -0.12970  -0.12409  -0.10686
 Alpha virt. eigenvalues --   -0.06263  -0.04933  -0.04535  -0.03011  -0.02976
 Alpha virt. eigenvalues --   -0.02480  -0.02090  -0.01047  -0.00468  -0.00233
 Alpha virt. eigenvalues --   -0.00075   0.00264   0.00772   0.00816   0.00879

  Beta  occ. eigenvalues --  -38.44704 -38.44209 -38.43555 -38.43437 -38.43379
  Beta  occ. eigenvalues --  -38.43329 -38.43301  -2.20485  -2.19992  -2.19342
  Beta  occ. eigenvalues --   -2.19296  -2.19291  -2.19234  -2.19191  -1.14153
  Beta  occ. eigenvalues --   -1.14141  -1.14127  -1.13668  -1.13654  -1.13631
  Beta  occ. eigenvalues --   -1.13127  -1.13109  -1.13036  -1.13025  -1.13018
  Beta  occ. eigenvalues --   -1.12942  -1.12940  -1.12921  -1.12902  -1.12896
  Beta  occ. eigenvalues --   -1.12887  -1.12874  -1.12825  -1.12817  -1.12778
  Beta  occ. eigenvalues --   -0.17777  -0.12709  -0.12168
  Beta virt. eigenvalues --   -0.06851  -0.06129  -0.04911  -0.04468  -0.02388
  Beta virt. eigenvalues --   -0.02151  -0.01957  -0.01465  -0.00994  -0.00478
  Beta virt. eigenvalues --   -0.00264   0.00092   0.00321   0.00818   0.00841

 Mulliken charges and spin densities:
               1          2
     1  Na   0.281069  -0.021921
     2  Na   0.273503   0.042309
     3  Na  -0.437553   0.302142
     4  Na   0.068399   0.046869
     5  Na   0.058803   0.053272
     6  Na   0.211002  -0.024796
     7  Na  -0.455223   0.602124
 Sum of Mulliken charges =  -0.00000   1.00000

 Dipole moment (field-independent basis, Debye):
    X=             -0.4020    Y=             -0.2509    Z=              0.1682  Tot=              0.5028
 Quadrupole moment (field-independent basis, Debye-Ang):
   XX=            -52.9632   YY=            -65.6047   ZZ=            -74.4270
   XY=              0.0597   XZ=             -0.3486   YZ=              1.6965

 Normal termination of Gaussian 16 at Thu Dec  7 23:18:35 2023.
