 Gaussian 16, Revision B.01,
 Gaussian 16:  ES64L-G16RevB.01 20-Dec-2017

 -------------------------
 #P B3LYP/6-311+g(d) force
 -------------------------

 -----
 DPGEN
 -----
 Symbolic Z-matrix:
 Charge =  0 Multiplicity = 2

                         Standard orientation:
 ---------------------------------------------------------------------
 Center     Atomic      Atomic             Coordinates (Angstroms)
 Number     Number       Type             X           Y           Z
 ---------------------------------------------------------------------
      1         11           0       -0.369853   -2.824564    0.019227
      2         11           0       -0.001359    0.057831    2.035031
      3         11           0       -3.093240   -0.598125   -0.056189
      4         11           0       -1.771863    2.663779   -0.222190
      5         11           0        2.696981   -1.336326   -0.268830
      6         11           0        2.600039    2.086949    0.028535
      7         11           0       -0.060705   -0.049544   -1.535585
 ---------------------------------------------------------------------

 SCF Done:  E(UB3LYP) =  -1136.13700461     A.U. after   19 cycles

 The electronic state is 2-A.
 Alpha  occ. eigenvalues --  -38.44168 -38.44084 -38.43841 -38.43782 -38.43460
 Alpha  occ. eigenvalues --  -38.43090 -38.42994  -2.20005  -2.19870  -2.19648
 Alpha  occ. eigenvalues --   -2.19642  -2.19341  -2.19080  -2.18888  -1.13685
 Alpha  occ. eigenvalues --   -1.13667  -1.13641  -1.13542  -1.13534  -1.13517
 Alpha  occ. eigenvalues --   -1.13341  -1.13322  -1.13306  -1.13301  -1.13279
 Alpha  occ. eigenvalues --   -1.13274  -1.13018  -1.12964  -1.12954  -1.12789
 Alpha  occ. eigenvalues --   -1.12729  -1.12705  -1.12553  -1.12542  -1.12520
 Alpha  occ. eigenvalues --   -0.18567  -0.13161  -0.12259  -0.10511
 Alpha virt. eigenvalues --   -0.05842  -0.05379  -0.04645  -0.03117  -0.02716
 Alpha virt. eigenvalues --   -0.02395  -0.01650  -0.01256  -0.00659  -0.00359
 Alpha virt. eigenvalues --   -0.00001   0.00340   0.00760   0.00818   0.00872

  Beta  occ. eigenvalues --  -38.44163 -38.44084 -38.43838 -38.43773 -38.43361
  Beta  occ. eigenvalues --  -38.43032 -38.42987  -2.20000  -2.19873  -2.19638
  Beta  occ. eigenvalues --   -2.19636  -2.19158  -2.18977  -2.18879  -1.13677
  Beta  occ. eigenvalues --   -1.13651  -1.13638  -1.13539  -1.13528  -1.13520
  Beta  occ. eigenvalues --   -1.13328  -1.13310  -1.13292  -1.13281  -1.13277
  Beta  occ. eigenvalues --   -1.13269  -1.12897  -1.12835  -1.12823  -1.12722
  Beta  occ. eigenvalues --   -1.12655  -1.12628  -1.12540  -1.12521  -1.12498
  Beta  occ. eigenvalues --   -0.17841  -0.12935  -0.12034
  Beta virt. eigenvalues --   -0.06589  -0.05834  -0.05329  -0.04630  -0.02357
  Beta virt. eigenvalues --   -0.01959  -0.01566  -0.01358  -0.01144  -0.00713
  Beta virt. eigenvalues --   -0.00408   0.00148   0.00374   0.00800   0.00840

 Mulliken charges and spin densities:
               1          2
     1  Na   0.297340   0.031138
     2  Na  -0.529693   0.781804
     3  Na   0.249473  -0.009052
     4  Na  -0.004699  -0.098852
     5  Na   0.294428   0.022567
     6  Na  -0.001056  -0.087084
     7  Na  -0.305793   0.359480
 Sum of Mulliken charges =  -0.00000   1.00000

 Dipole moment (field-independent basis, Debye):
    X=             -0.0801    Y=              0.2717    Z=              0.1183  Tot=              0.3070
 Quadrupole moment (field-independent basis, Debye-Ang):
   XX=            -55.2431   YY=            -61.2675   ZZ=            -75.9398
   XY=              0.6751   XZ=             -0.2249   YZ=             -0.1598

 Normal termination of Gaussian 16 at Thu Dec  7 13:33:13 2023.
