 Gaussian 16, Revision B.01,
 Gaussian 16:  ES64L-G16RevB.01 20-Dec-2017

 -------------------------
 #P B3LYP/6-311+g(d) force
 -------------------------

 -----
 DPGEN
 -----
 Symbolic Z-matrix:
 Charge =  0 Multiplicity = 2

                         Standard orientation:
 ---------------------------------------------------------------------
 Center     Atomic      Atomic             Coordinates (Angstroms)
 Number     Number       Type             X           Y           Z
 ---------------------------------------------------------------------
      1         11           0       -0.422591   -2.488373    0.602281
      2         11           0        3.017645   -2.219375   -0.187523
      3         11           0       -5.975852    0.509386    0.357055
      4         11           0       -3.662818   -2.119009   -0.388376
      5         11           0       -7.279654    3.178861   -0.265254
      6         11           0        7.728795    2.973042    0.334960
      7         11           0        6.594474    0.165468   -0.453143
 ---------------------------------------------------------------------

 SCF Done:  E(UB3LYP) =  -1136.10481589     A.U. after   19 cycles

 The electronic state is 2-A.
 Alpha  occ. eigenvalues --  -38.45158 -38.44833 -38.44832 -38.44809 -38.44369
 Alpha  occ. eigenvalues --  -38.44309 -38.44006  -2.20934  -2.20647  -2.20623
 Alpha  occ. eigenvalues --   -2.20615  -2.20129  -2.20081  -2.19813  -1.14583
 Alpha  occ. eigenvalues --   -1.14580  -1.14539  -1.14320  -1.14283  -1.14279
 Alpha  occ. eigenvalues --   -1.14278  -1.14269  -1.14268  -1.14262  -1.14260
 Alpha  occ. eigenvalues --   -1.14239  -1.13815  -1.13814  -1.13781  -1.13750
 Alpha  occ. eigenvalues --   -1.13748  -1.13728  -1.13487  -1.13478  -1.13473
 Alpha  occ. eigenvalues --   -0.15083  -0.14154  -0.13167  -0.11829
 Alpha virt. eigenvalues --   -0.07251  -0.05404  -0.03994  -0.03335  -0.03016
 Alpha virt. eigenvalues --   -0.02813  -0.02681  -0.02149  -0.01823  -0.01512
 Alpha virt. eigenvalues --   -0.01010  -0.00824  -0.00270   0.00266   0.00409

  Beta  occ. eigenvalues --  -38.45068 -38.44798 -38.44775 -38.44733 -38.44391
  Beta  occ. eigenvalues --  -38.44319 -38.44014  -2.20764  -2.20558  -2.20539
  Beta  occ. eigenvalues --   -2.20473  -2.20175  -2.20103  -2.19833  -1.14468
  Beta  occ. eigenvalues --   -1.14465  -1.14430  -1.14250  -1.14241  -1.14224
  Beta  occ. eigenvalues --   -1.14224  -1.14206  -1.14205  -1.14165  -1.14163
  Beta  occ. eigenvalues --   -1.14154  -1.13853  -1.13851  -1.13768  -1.13767
  Beta  occ. eigenvalues --   -1.13765  -1.13721  -1.13498  -1.13497  -1.13451
  Beta  occ. eigenvalues --   -0.14390  -0.13530  -0.12639
  Beta virt. eigenvalues --   -0.08767  -0.06789  -0.04981  -0.03683  -0.03148
  Beta virt. eigenvalues --   -0.02796  -0.02624  -0.02430  -0.01978  -0.01680
  Beta virt. eigenvalues --   -0.01121  -0.00568  -0.00405  -0.00160   0.00343

 Mulliken charges and spin densities:
               1          2
     1  Na   0.127417  -0.137338
     2  Na   0.019894   0.501381
     3  Na  -0.554582   0.022937
     4  Na   0.114153   0.282918
     5  Na   0.452965   0.231572
     6  Na   0.239170   0.125058
     7  Na  -0.399017  -0.026528
 Sum of Mulliken charges =  -0.00000   1.00000

 Dipole moment (field-independent basis, Debye):
    X=              0.1569    Y=              1.1234    Z=             -0.1201  Tot=              1.1407
 Quadrupole moment (field-independent basis, Debye-Ang):
   XX=            -56.3243   YY=            -57.2992   ZZ=            -73.6111
   XY=              0.2027   XZ=              2.9372   YZ=              1.3747

 Normal termination of Gaussian 16 at Mon Dec  4 02:28:34 2023.
