 Gaussian 16, Revision B.01,
 Gaussian 16:  ES64L-G16RevB.01 20-Dec-2017

 -------------------------
 #P B3LYP/6-311+g(d) force
 -------------------------

 -----
 DPGEN
 -----
 Symbolic Z-matrix:
 Charge =  0 Multiplicity = 2

                         Standard orientation:
 ---------------------------------------------------------------------
 Center     Atomic      Atomic             Coordinates (Angstroms)
 Number     Number       Type             X           Y           Z
 ---------------------------------------------------------------------
      1         11           0       -0.464854   -2.863672   -0.972099
      2         11           0       -1.005944    3.713613   -0.965026
      3         11           0       -3.913992   -2.097805    0.192043
      4         11           0       -3.569139    0.844861    1.042464
      5         11           0        3.653025   -0.335582    1.439717
      6         11           0        3.297313   -2.353521   -0.566403
      7         11           0        2.003591    3.092107   -0.170696
 ---------------------------------------------------------------------

 SCF Done:  E(UB3LYP) =  -1136.10509353     A.U. after   20 cycles

 The electronic state is 2-A.
 Alpha  occ. eigenvalues --  -38.44792 -38.44683 -38.44636 -38.44377 -38.44342
 Alpha  occ. eigenvalues --  -38.44307 -38.44145  -2.20594  -2.20460  -2.20454
 Alpha  occ. eigenvalues --   -2.20160  -2.20152  -2.20144  -2.19929  -1.14271
 Alpha  occ. eigenvalues --   -1.14271  -1.14245  -1.14224  -1.14131  -1.14123
 Alpha  occ. eigenvalues --   -1.14111  -1.14099  -1.14095  -1.13816  -1.13810
 Alpha  occ. eigenvalues --   -1.13807  -1.13803  -1.13796  -1.13776  -1.13767
 Alpha  occ. eigenvalues --   -1.13764  -1.13755  -1.13589  -1.13579  -1.13573
 Alpha  occ. eigenvalues --   -0.15533  -0.13990  -0.13173  -0.10719
 Alpha virt. eigenvalues --   -0.07261  -0.04912  -0.04814  -0.03639  -0.03185
 Alpha virt. eigenvalues --   -0.02312  -0.01991  -0.01886  -0.01262  -0.01104
 Alpha virt. eigenvalues --   -0.00772  -0.00069   0.00033   0.00319   0.00718

  Beta  occ. eigenvalues --  -38.44738 -38.44677 -38.44641 -38.44345 -38.44276
  Beta  occ. eigenvalues --  -38.44259 -38.44132  -2.20496  -2.20474  -2.20445
  Beta  occ. eigenvalues --   -2.20158  -2.20062  -2.19972  -2.19907  -1.14255
  Beta  occ. eigenvalues --   -1.14209  -1.14178  -1.14153  -1.14126  -1.14122
  Beta  occ. eigenvalues --   -1.14118  -1.14086  -1.14082  -1.13822  -1.13813
  Beta  occ. eigenvalues --   -1.13770  -1.13718  -1.13713  -1.13704  -1.13688
  Beta  occ. eigenvalues --   -1.13674  -1.13637  -1.13574  -1.13565  -1.13552
  Beta  occ. eigenvalues --   -0.14980  -0.13477  -0.12664
  Beta virt. eigenvalues --   -0.07373  -0.07176  -0.04611  -0.04344  -0.03447
  Beta virt. eigenvalues --   -0.02746  -0.02068  -0.01905  -0.01801  -0.01111
  Beta virt. eigenvalues --   -0.00739  -0.00484   0.00159   0.00233   0.00383

 Mulliken charges and spin densities:
               1          2
     1  Na  -0.384954   0.513783
     2  Na   0.242956   0.037736
     3  Na   0.739687  -0.014444
     4  Na  -0.371608   0.263157
     5  Na  -0.160799   0.238058
     6  Na   0.135589  -0.057044
     7  Na  -0.200871   0.018754
 Sum of Mulliken charges =  -0.00000   1.00000

 Dipole moment (field-independent basis, Debye):
    X=             -0.0839    Y=              0.1857    Z=              0.1626  Tot=              0.2607
 Quadrupole moment (field-independent basis, Debye-Ang):
   XX=            -63.4368   YY=            -68.6321   ZZ=            -70.2651
   XY=             -0.1727   XZ=              0.6490   YZ=              2.0837

 Normal termination of Gaussian 16 at Mon Dec  4 04:10:56 2023.
