 Gaussian 16, Revision B.01,
 Gaussian 16:  ES64L-G16RevB.01 20-Dec-2017

 -------------------------
 #P B3LYP/6-311+g(d) force
 -------------------------

 -----
 DPGEN
 -----
 Symbolic Z-matrix:
 Charge =  0 Multiplicity = 2

                         Standard orientation:
 ---------------------------------------------------------------------
 Center     Atomic      Atomic             Coordinates (Angstroms)
 Number     Number       Type             X           Y           Z
 ---------------------------------------------------------------------
      1         11           0       -1.552344    2.677554   -0.247908
      2         11           0       -2.955191   -0.613821   -0.144791
      3         11           0        0.075819   -0.210960   -1.567708
      4         11           0        1.887645    1.968873   -0.015748
      5         11           0       -0.844526   -2.749543    0.272631
      6         11           0        0.430820    0.201440    2.165663
      7         11           0        2.957776   -1.273543   -0.462138
 ---------------------------------------------------------------------

 SCF Done:  E(UB3LYP) =  -1136.13535684     A.U. after   19 cycles

 The electronic state is 2-A.
 Alpha  occ. eigenvalues --  -38.43895 -38.43890 -38.43789 -38.43554 -38.43459
 Alpha  occ. eigenvalues --  -38.43323 -38.43193  -2.19780  -2.19724  -2.19665
 Alpha  occ. eigenvalues --   -2.19470  -2.19342  -2.19203  -2.19146  -1.13469
 Alpha  occ. eigenvalues --   -1.13417  -1.13414  -1.13392  -1.13388  -1.13370
 Alpha  occ. eigenvalues --   -1.13363  -1.13330  -1.13303  -1.13173  -1.13145
 Alpha  occ. eigenvalues --   -1.13067  -1.13031  -1.12990  -1.12965  -1.12879
 Alpha  occ. eigenvalues --   -1.12839  -1.12833  -1.12811  -1.12793  -1.12788
 Alpha  occ. eigenvalues --   -0.18787  -0.13220  -0.12381  -0.10978
 Alpha virt. eigenvalues --   -0.05416  -0.05163  -0.04685  -0.03337  -0.02862
 Alpha virt. eigenvalues --   -0.02706  -0.01500  -0.01056  -0.00248  -0.00187
 Alpha virt. eigenvalues --   -0.00027   0.00346   0.00812   0.00889   0.00909

  Beta  occ. eigenvalues --  -38.43879 -38.43792 -38.43787 -38.43544 -38.43452
  Beta  occ. eigenvalues --  -38.43321 -38.43136  -2.19706  -2.19664  -2.19590
  Beta  occ. eigenvalues --   -2.19457  -2.19333  -2.19145  -2.19100  -1.13395
  Beta  occ. eigenvalues --   -1.13392  -1.13363  -1.13351  -1.13339  -1.13312
  Beta  occ. eigenvalues --   -1.13303  -1.13280  -1.13253  -1.13159  -1.13093
  Beta  occ. eigenvalues --   -1.13063  -1.13021  -1.12966  -1.12959  -1.12821
  Beta  occ. eigenvalues --   -1.12807  -1.12802  -1.12784  -1.12764  -1.12732
  Beta  occ. eigenvalues --   -0.18066  -0.12972  -0.12148
  Beta virt. eigenvalues --   -0.07027  -0.05369  -0.05112  -0.04643  -0.02532
  Beta virt. eigenvalues --   -0.02144  -0.01634  -0.01398  -0.00994  -0.00276
  Beta virt. eigenvalues --   -0.00221   0.00122   0.00380   0.00883   0.00898

 Mulliken charges and spin densities:
               1          2
     1  Na   0.007549  -0.048314
     2  Na   0.083638  -0.033330
     3  Na  -0.328988   0.339354
     4  Na   0.407262   0.067606
     5  Na   0.158209   0.044694
     6  Na  -0.543078   0.630784
     7  Na   0.215408  -0.000794
 Sum of Mulliken charges =  -0.00000   1.00000

 Dipole moment (field-independent basis, Debye):
    X=              0.1538    Y=             -0.1272    Z=              0.1974  Tot=              0.2807
 Quadrupole moment (field-independent basis, Debye-Ang):
   XX=            -57.9396   YY=            -63.1674   ZZ=            -73.3068
   XY=             -1.3427   XZ=             -0.6108   YZ=             -0.7891

 Normal termination of Gaussian 16 at Thu Dec  7 04:11:34 2023.
