 Gaussian 16, Revision B.01,
 Gaussian 16:  ES64L-G16RevB.01 20-Dec-2017

 -------------------------
 #P B3LYP/6-311+g(d) force
 -------------------------

 -----
 DPGEN
 -----
 Symbolic Z-matrix:
 Charge =  0 Multiplicity = 2

                         Standard orientation:
 ---------------------------------------------------------------------
 Center     Atomic      Atomic             Coordinates (Angstroms)
 Number     Number       Type             X           Y           Z
 ---------------------------------------------------------------------
      1         11           0       -2.683538   -2.145640   -0.158830
      2         11           0        0.265811   -0.051466    2.058463
      3         11           0       -2.909949    0.903934    0.416291
      4         11           0        3.020979   -1.913403    0.053247
      5         11           0        2.757508    1.473425   -0.058802
      6         11           0       -0.524774    2.546425   -0.685059
      7         11           0        0.073963   -0.813275   -1.625310
 ---------------------------------------------------------------------

 SCF Done:  E(UB3LYP) =  -1136.12810021     A.U. after   21 cycles

 The electronic state is 2-A.
 Alpha  occ. eigenvalues --  -38.44545 -38.44358 -38.44302 -38.44209 -38.43869
 Alpha  occ. eigenvalues --  -38.43647 -38.42560  -2.20374  -2.20192  -2.20157
 Alpha  occ. eigenvalues --   -2.20052  -2.19700  -2.19532  -2.18443  -1.14053
 Alpha  occ. eigenvalues --   -1.14039  -1.14017  -1.13885  -1.13857  -1.13844
 Alpha  occ. eigenvalues --   -1.13822  -1.13819  -1.13798  -1.13723  -1.13684
 Alpha  occ. eigenvalues --   -1.13663  -1.13367  -1.13367  -1.13341  -1.13217
 Alpha  occ. eigenvalues --   -1.13176  -1.13144  -1.12128  -1.12103  -1.12075
 Alpha  occ. eigenvalues --   -0.18365  -0.13808  -0.11699  -0.10749
 Alpha virt. eigenvalues --   -0.06284  -0.06043  -0.03928  -0.03585  -0.02703
 Alpha virt. eigenvalues --   -0.02487  -0.02065  -0.01392  -0.00674  -0.00144
 Alpha virt. eigenvalues --    0.00009   0.00301   0.00576   0.00670   0.00734

  Beta  occ. eigenvalues --  -38.44541 -38.44359 -38.44296 -38.44120 -38.43870
  Beta  occ. eigenvalues --  -38.43584 -38.42546  -2.20369  -2.20182  -2.20160
  Beta  occ. eigenvalues --   -2.19888  -2.19705  -2.19416  -2.18418  -1.14041
  Beta  occ. eigenvalues --   -1.14028  -1.14011  -1.13884  -1.13852  -1.13823
  Beta  occ. eigenvalues --   -1.13813  -1.13812  -1.13797  -1.13612  -1.13571
  Beta  occ. eigenvalues --   -1.13543  -1.13373  -1.13360  -1.13335  -1.13138
  Beta  occ. eigenvalues --   -1.13086  -1.13064  -1.12115  -1.12080  -1.12044
  Beta  occ. eigenvalues --   -0.17638  -0.13635  -0.11489
  Beta virt. eigenvalues --   -0.06882  -0.06106  -0.06048  -0.03765  -0.02921
  Beta virt. eigenvalues --   -0.02008  -0.01940  -0.01581  -0.01224  -0.00728
  Beta virt. eigenvalues --   -0.00064   0.00114   0.00333   0.00675   0.00729

 Mulliken charges and spin densities:
               1          2
     1  Na   0.105364   0.007423
     2  Na  -0.258781   0.473958
     3  Na   0.237313   0.129543
     4  Na   0.060090  -0.008829
     5  Na   0.208485   0.064167
     6  Na  -0.170851   0.034704
     7  Na  -0.181619   0.299034
 Sum of Mulliken charges =  -0.00000   1.00000

 Dipole moment (field-independent basis, Debye):
    X=              0.6041    Y=             -0.3538    Z=              0.2487  Tot=              0.7429
 Quadrupole moment (field-independent basis, Debye-Ang):
   XX=            -52.1580   YY=            -68.0253   ZZ=            -74.4423
   XY=             -0.0758   XZ=             -0.7378   YZ=             -0.8518

 Normal termination of Gaussian 16 at Fri Dec  8 02:01:07 2023.
