 Gaussian 16, Revision B.01,
 Gaussian 16:  ES64L-G16RevB.01 20-Dec-2017

 -------------------------
 #P B3LYP/6-311+g(d) force
 -------------------------

 -----
 DPGEN
 -----
 Symbolic Z-matrix:
 Charge =  0 Multiplicity = 2

                         Standard orientation:
 ---------------------------------------------------------------------
 Center     Atomic      Atomic             Coordinates (Angstroms)
 Number     Number       Type             X           Y           Z
 ---------------------------------------------------------------------
      1         11           0        2.219537   -2.037710    0.081545
      2         11           0        0.387051    0.378893    2.286209
      3         11           0        3.009315    1.551767   -0.579448
      4         11           0       -1.120941   -2.363807    0.313290
      5         11           0       -1.215521    2.680141    0.253310
      6         11           0       -3.230054   -0.095613   -0.383772
      7         11           0       -0.049386   -0.113671   -1.971133
 ---------------------------------------------------------------------

 SCF Done:  E(UB3LYP) =  -1136.13357895     A.U. after   20 cycles

 The electronic state is 2-A.
 Alpha  occ. eigenvalues --  -38.44359 -38.44271 -38.44162 -38.43982 -38.43661
 Alpha  occ. eigenvalues --  -38.43427 -38.42878  -2.20124  -2.20110  -2.20041
 Alpha  occ. eigenvalues --   -2.19828  -2.19492  -2.19236  -2.18777  -1.13799
 Alpha  occ. eigenvalues --   -1.13773  -1.13770  -1.13766  -1.13735  -1.13734
 Alpha  occ. eigenvalues --   -1.13725  -1.13681  -1.13661  -1.13513  -1.13487
 Alpha  occ. eigenvalues --   -1.13463  -1.13167  -1.13164  -1.13126  -1.12918
 Alpha  occ. eigenvalues --   -1.12901  -1.12870  -1.12457  -1.12437  -1.12419
 Alpha  occ. eigenvalues --   -0.18223  -0.12973  -0.11980  -0.11353
 Alpha virt. eigenvalues --   -0.05891  -0.05224  -0.04257  -0.03428  -0.03236
 Alpha virt. eigenvalues --   -0.03000  -0.01657  -0.01030  -0.00399  -0.00125
 Alpha virt. eigenvalues --   -0.00044   0.00355   0.00675   0.00750   0.00856

  Beta  occ. eigenvalues --  -38.44348 -38.44175 -38.44096 -38.43979 -38.43658
  Beta  occ. eigenvalues --  -38.43423 -38.42870  -2.20104  -2.19933  -2.19919
  Beta  occ. eigenvalues --   -2.19824  -2.19489  -2.19231  -2.18766  -1.13774
  Beta  occ. eigenvalues --   -1.13760  -1.13753  -1.13653  -1.13644  -1.13614
  Beta  occ. eigenvalues --   -1.13602  -1.13597  -1.13570  -1.13511  -1.13470
  Beta  occ. eigenvalues --   -1.13461  -1.13168  -1.13145  -1.13121  -1.12909
  Beta  occ. eigenvalues --   -1.12884  -1.12870  -1.12452  -1.12426  -1.12391
  Beta  occ. eigenvalues --   -0.17477  -0.12757  -0.11743
  Beta virt. eigenvalues --   -0.07465  -0.05816  -0.05143  -0.04091  -0.02789
  Beta virt. eigenvalues --   -0.02418  -0.02086  -0.01524  -0.00971  -0.00407
  Beta virt. eigenvalues --   -0.00085   0.00029   0.00388   0.00791   0.00850

 Mulliken charges and spin densities:
               1          2
     1  Na   0.165703  -0.026178
     2  Na  -0.356657   0.512625
     3  Na   0.060477  -0.043759
     4  Na   0.082193   0.102217
     5  Na   0.020732  -0.057325
     6  Na   0.278700   0.007529
     7  Na  -0.251149   0.504891
 Sum of Mulliken charges =  -0.00000   1.00000

 Dipole moment (field-independent basis, Debye):
    X=              0.2878    Y=              0.2180    Z=             -0.0736  Tot=              0.3685
 Quadrupole moment (field-independent basis, Debye-Ang):
   XX=            -57.0408   YY=            -68.3745   ZZ=            -70.2135
   XY=              0.1296   XZ=             -0.1217   YZ=             -1.2473

 Normal termination of Gaussian 16 at Tue Dec  5 14:16:27 2023.
