 Gaussian 16, Revision B.01,
 Gaussian 16:  ES64L-G16RevB.01 20-Dec-2017

 -------------------------
 #P B3LYP/6-311+g(d) force
 -------------------------

 -----
 DPGEN
 -----
 Symbolic Z-matrix:
 Charge =  0 Multiplicity = 2

                         Standard orientation:
 ---------------------------------------------------------------------
 Center     Atomic      Atomic             Coordinates (Angstroms)
 Number     Number       Type             X           Y           Z
 ---------------------------------------------------------------------
      1         11           0       -4.057484   -0.834152    1.072060
      2         11           0        4.158869   -0.985867    0.686774
      3         11           0        1.328675   -3.213105   -0.648127
      4         11           0       -1.932957   -3.143352   -0.391964
      5         11           0        3.788651    2.053469   -0.142831
      6         11           0       -3.146659    2.666430   -0.684340
      7         11           0       -0.139095    3.456577    0.108427
 ---------------------------------------------------------------------

 SCF Done:  E(UB3LYP) =  -1136.10722678     A.U. after   20 cycles

 The electronic state is 2-A.
 Alpha  occ. eigenvalues --  -38.45015 -38.44744 -38.44728 -38.44536 -38.44454
 Alpha  occ. eigenvalues --  -38.44250 -38.43986  -2.20795  -2.20534  -2.20501
 Alpha  occ. eigenvalues --   -2.20314  -2.20247  -2.20034  -2.19790  -1.14483
 Alpha  occ. eigenvalues --   -1.14464  -1.14445  -1.14191  -1.14189  -1.14177
 Alpha  occ. eigenvalues --   -1.14171  -1.14166  -1.14146  -1.13976  -1.13967
 Alpha  occ. eigenvalues --   -1.13932  -1.13895  -1.13887  -1.13870  -1.13721
 Alpha  occ. eigenvalues --   -1.13714  -1.13689  -1.13440  -1.13433  -1.13409
 Alpha  occ. eigenvalues --   -0.15371  -0.13912  -0.13395  -0.10911
 Alpha virt. eigenvalues --   -0.07588  -0.05017  -0.04417  -0.03520  -0.03335
 Alpha virt. eigenvalues --   -0.02517  -0.02334  -0.01879  -0.01295  -0.01009
 Alpha virt. eigenvalues --   -0.00449  -0.00164   0.00021   0.00256   0.00581

  Beta  occ. eigenvalues --  -38.45011 -38.44722 -38.44712 -38.44503 -38.44366
  Beta  occ. eigenvalues --  -38.44254 -38.43918  -2.20791  -2.20495  -2.20475
  Beta  occ. eigenvalues --   -2.20256  -2.20083  -2.20048  -2.19663  -1.14472
  Beta  occ. eigenvalues --   -1.14464  -1.14427  -1.14176  -1.14170  -1.14150
  Beta  occ. eigenvalues --   -1.14140  -1.14127  -1.14120  -1.13937  -1.13930
  Beta  occ. eigenvalues --   -1.13886  -1.13785  -1.13780  -1.13761  -1.13731
  Beta  occ. eigenvalues --   -1.13729  -1.13649  -1.13354  -1.13351  -1.13327
  Beta  occ. eigenvalues --   -0.14835  -0.13200  -0.12675
  Beta virt. eigenvalues --   -0.07775  -0.07690  -0.04602  -0.03956  -0.03259
  Beta virt. eigenvalues --   -0.03010  -0.02293  -0.02137  -0.01763  -0.01137
  Beta virt. eigenvalues --   -0.00651  -0.00182   0.00068   0.00167   0.00283

 Mulliken charges and spin densities:
               1          2
     1  Na  -0.014732   0.390832
     2  Na   0.033006   0.022868
     3  Na   0.022593   0.292993
     4  Na  -0.009768   0.013374
     5  Na   0.045883   0.149881
     6  Na   0.095171  -0.014350
     7  Na  -0.172152   0.144403
 Sum of Mulliken charges =  -0.00000   1.00000

 Dipole moment (field-independent basis, Debye):
    X=              0.4679    Y=              0.6673    Z=              0.1026  Tot=              0.8214
 Quadrupole moment (field-independent basis, Debye-Ang):
   XX=            -60.0609   YY=            -69.2552   ZZ=            -71.3182
   XY=             -1.9473   XZ=              1.7699   YZ=             -1.2392

 Normal termination of Gaussian 16 at Sun Dec  3 11:49:36 2023.
