 Gaussian 16, Revision B.01,
 Gaussian 16:  ES64L-G16RevB.01 20-Dec-2017

 -------------------------
 #P B3LYP/6-311+g(d) force
 -------------------------

 -----
 DPGEN
 -----
 Symbolic Z-matrix:
 Charge =  0 Multiplicity = 2

                         Standard orientation:
 ---------------------------------------------------------------------
 Center     Atomic      Atomic             Coordinates (Angstroms)
 Number     Number       Type             X           Y           Z
 ---------------------------------------------------------------------
      1         11           0       -1.324902    2.874562   -0.034036
      2         11           0       -3.276922   -0.297783   -0.134375
      3         11           0        0.078209    0.196374   -0.980730
      4         11           0        2.708202    1.863456   -0.248750
      5         11           0       -0.105056   -0.366490    1.934538
      6         11           0        2.763355   -1.626901    0.004392
      7         11           0       -0.842886   -2.643218   -0.541039
 ---------------------------------------------------------------------

 SCF Done:  E(UB3LYP) =  -1136.12928000     A.U. after   19 cycles

 The electronic state is 2-A.
 Alpha  occ. eigenvalues --  -38.44408 -38.44171 -38.44121 -38.43756 -38.43217
 Alpha  occ. eigenvalues --  -38.43033 -38.42717  -2.20234  -2.19988  -2.19951
 Alpha  occ. eigenvalues --   -2.19568  -2.19123  -2.18979  -2.18856  -1.13907
 Alpha  occ. eigenvalues --   -1.13892  -1.13874  -1.13686  -1.13648  -1.13630
 Alpha  occ. eigenvalues --   -1.13622  -1.13606  -1.13575  -1.13276  -1.13225
 Alpha  occ. eigenvalues --   -1.13192  -1.12904  -1.12804  -1.12758  -1.12730
 Alpha  occ. eigenvalues --   -1.12575  -1.12561  -1.12504  -1.12479  -1.12451
 Alpha  occ. eigenvalues --   -0.18738  -0.13296  -0.12372  -0.09995
 Alpha virt. eigenvalues --   -0.05985  -0.05593  -0.04603  -0.02858  -0.02394
 Alpha virt. eigenvalues --   -0.01956  -0.01834  -0.01400  -0.00714  -0.00468
 Alpha virt. eigenvalues --    0.00007   0.00302   0.00712   0.00773   0.00838

  Beta  occ. eigenvalues --  -38.44401 -38.44164 -38.44117 -38.43756 -38.43198
  Beta  occ. eigenvalues --  -38.42928 -38.42684  -2.20224  -2.19976  -2.19947
  Beta  occ. eigenvalues --   -2.19570  -2.19093  -2.18808  -2.18781  -1.13891
  Beta  occ. eigenvalues --   -1.13882  -1.13861  -1.13677  -1.13636  -1.13618
  Beta  occ. eigenvalues --   -1.13612  -1.13590  -1.13572  -1.13276  -1.13211
  Beta  occ. eigenvalues --   -1.13196  -1.12878  -1.12736  -1.12707  -1.12674
  Beta  occ. eigenvalues --   -1.12454  -1.12443  -1.12426  -1.12407  -1.12402
  Beta  occ. eigenvalues --   -0.18041  -0.13040  -0.12143
  Beta virt. eigenvalues --   -0.06185  -0.05857  -0.05563  -0.04530  -0.02158
  Beta virt. eigenvalues --   -0.01871  -0.01729  -0.01363  -0.00849  -0.00706
  Beta virt. eigenvalues --   -0.00470   0.00188   0.00374   0.00761   0.00785

 Mulliken charges and spin densities:
               1          2
     1  Na   0.061736   0.011756
     2  Na   0.361453   0.057338
     3  Na  -1.100279  -0.015561
     4  Na   0.180415   0.060857
     5  Na  -0.240796   0.665192
     6  Na   0.403776   0.065250
     7  Na   0.333694   0.155169
 Sum of Mulliken charges =  -0.00000   1.00000

 Dipole moment (field-independent basis, Debye):
    X=              0.0514    Y=              0.1223    Z=              0.3159  Tot=              0.3427
 Quadrupole moment (field-independent basis, Debye-Ang):
   XX=            -50.9099   YY=            -60.6769   ZZ=            -77.9189
   XY=             -1.0242   XZ=              0.1075   YZ=              0.9046

 Normal termination of Gaussian 16 at Thu Dec  7 04:29:19 2023.
