 Gaussian 16, Revision B.01,
 Gaussian 16:  ES64L-G16RevB.01 20-Dec-2017

 -------------------------
 #P B3LYP/6-311+g(d) force
 -------------------------

 -----
 DPGEN
 -----
 Symbolic Z-matrix:
 Charge =  0 Multiplicity = 2

                         Standard orientation:
 ---------------------------------------------------------------------
 Center     Atomic      Atomic             Coordinates (Angstroms)
 Number     Number       Type             X           Y           Z
 ---------------------------------------------------------------------
      1         11           0        0.028675    0.010928   -1.916945
      2         11           0       -0.155058   -2.684558   -0.000869
      3         11           0        2.208456    1.987998    0.268125
      4         11           0       -2.900005   -0.865765   -0.007751
      5         11           0        2.982697   -0.997952   -0.150823
      6         11           0       -0.381793    0.145807    2.222527
      7         11           0       -1.782971    2.403542   -0.414264
 ---------------------------------------------------------------------

 SCF Done:  E(UB3LYP) =  -1136.13719530     A.U. after   19 cycles

 The electronic state is 2-A.
 Alpha  occ. eigenvalues --  -38.44216 -38.43981 -38.43866 -38.43781 -38.43678
 Alpha  occ. eigenvalues --  -38.43346 -38.42780  -2.20076  -2.19847  -2.19715
 Alpha  occ. eigenvalues --   -2.19709  -2.19517  -2.19179  -2.18664  -1.13733
 Alpha  occ. eigenvalues --   -1.13707  -1.13698  -1.13521  -1.13514  -1.13487
 Alpha  occ. eigenvalues --   -1.13434  -1.13390  -1.13377  -1.13360  -1.13349
 Alpha  occ. eigenvalues --   -1.13321  -1.13180  -1.13170  -1.13143  -1.12861
 Alpha  occ. eigenvalues --   -1.12833  -1.12815  -1.12352  -1.12328  -1.12296
 Alpha  occ. eigenvalues --   -0.18619  -0.13232  -0.12068  -0.11319
 Alpha virt. eigenvalues --   -0.05635  -0.05170  -0.04268  -0.03516  -0.03129
 Alpha virt. eigenvalues --   -0.02978  -0.01452  -0.00943  -0.00245  -0.00090
 Alpha virt. eigenvalues --   -0.00081   0.00392   0.00755   0.00839   0.00914

  Beta  occ. eigenvalues --  -38.44120 -38.43977 -38.43866 -38.43707 -38.43674
  Beta  occ. eigenvalues --  -38.43337 -38.42775  -2.19898  -2.19843  -2.19716
  Beta  occ. eigenvalues --   -2.19572  -2.19512  -2.19167  -2.18658  -1.13618
  Beta  occ. eigenvalues --   -1.13585  -1.13570  -1.13516  -1.13492  -1.13477
  Beta  occ. eigenvalues --   -1.13436  -1.13363  -1.13361  -1.13297  -1.13252
  Beta  occ. eigenvalues --   -1.13227  -1.13170  -1.13153  -1.13144  -1.12843
  Beta  occ. eigenvalues --   -1.12818  -1.12805  -1.12349  -1.12306  -1.12286
  Beta  occ. eigenvalues --   -0.17851  -0.13030  -0.11824
  Beta virt. eigenvalues --   -0.07375  -0.05528  -0.05183  -0.04193  -0.02744
  Beta virt. eigenvalues --   -0.02225  -0.02044  -0.01362  -0.00872  -0.00285
  Beta virt. eigenvalues --   -0.00135   0.00065   0.00414   0.00864   0.00905

 Mulliken charges and spin densities:
               1          2
     1  Na  -0.232921   0.531752
     2  Na   0.105454  -0.039171
     3  Na   0.082026  -0.025756
     4  Na   0.350470  -0.002483
     5  Na   0.097123  -0.065333
     6  Na  -0.526983   0.658731
     7  Na   0.124831  -0.057739
 Sum of Mulliken charges =  -0.00000   1.00000

 Dipole moment (field-independent basis, Debye):
    X=             -0.0603    Y=              0.1039    Z=              0.1521  Tot=              0.1938
 Quadrupole moment (field-independent basis, Debye-Ang):
   XX=            -57.8422   YY=            -67.1705   ZZ=            -70.7660
   XY=             -0.2477   XZ=              0.4301   YZ=             -0.0647

 Normal termination of Gaussian 16 at Wed Dec  6 00:38:06 2023.
