 Gaussian 16, Revision B.01,
 Gaussian 16:  ES64L-G16RevB.01 20-Dec-2017

 -------------------------
 #P B3LYP/6-311+g(d) force
 -------------------------

 -----
 DPGEN
 -----
 Symbolic Z-matrix:
 Charge =  0 Multiplicity = 2

                         Standard orientation:
 ---------------------------------------------------------------------
 Center     Atomic      Atomic             Coordinates (Angstroms)
 Number     Number       Type             X           Y           Z
 ---------------------------------------------------------------------
      1         11           0        1.709789   -3.020545   -0.105051
      2         11           0       -3.460423    0.776663    0.049701
      3         11           0        4.866504   -0.781210   -0.200939
      4         11           0        2.289392    2.260085   -0.754784
      5         11           0       -4.706702   -1.835336   -0.690198
      6         11           0       -0.017199   -0.582672    1.457617
      7         11           0       -0.681361    3.183016    0.243654
 ---------------------------------------------------------------------

 SCF Done:  E(UB3LYP) =  -1136.11270387     A.U. after   20 cycles

 The electronic state is 2-A.
 Alpha  occ. eigenvalues --  -38.45093 -38.44906 -38.44713 -38.44219 -38.44180
 Alpha  occ. eigenvalues --  -38.43849 -38.43629  -2.20883  -2.20663  -2.20485
 Alpha  occ. eigenvalues --   -2.20040  -2.19956  -2.19683  -2.19442  -1.14564
 Alpha  occ. eigenvalues --   -1.14525  -1.14493  -1.14330  -1.14306  -1.14279
 Alpha  occ. eigenvalues --   -1.14172  -1.14153  -1.14111  -1.13759  -1.13674
 Alpha  occ. eigenvalues --   -1.13666  -1.13629  -1.13621  -1.13582  -1.13351
 Alpha  occ. eigenvalues --   -1.13340  -1.13314  -1.13111  -1.13099  -1.13086
 Alpha  occ. eigenvalues --   -0.16273  -0.13732  -0.12322  -0.11132
 Alpha virt. eigenvalues --   -0.06733  -0.05897  -0.04279  -0.03288  -0.03228
 Alpha virt. eigenvalues --   -0.02535  -0.01878  -0.01745  -0.01265  -0.01000
 Alpha virt. eigenvalues --   -0.00541   0.00046   0.00196   0.00428   0.00614

  Beta  occ. eigenvalues --  -38.45025 -38.44842 -38.44699 -38.44173 -38.44161
  Beta  occ. eigenvalues --  -38.43849 -38.43628  -2.20759  -2.20542  -2.20459
  Beta  occ. eigenvalues --   -2.19955  -2.19925  -2.19687  -2.19439  -1.14481
  Beta  occ. eigenvalues --   -1.14449  -1.14394  -1.14248  -1.14218  -1.14200
  Beta  occ. eigenvalues --   -1.14156  -1.14137  -1.14084  -1.13706  -1.13616
  Beta  occ. eigenvalues --   -1.13609  -1.13607  -1.13589  -1.13558  -1.13357
  Beta  occ. eigenvalues --   -1.13346  -1.13286  -1.13109  -1.13104  -1.13079
  Beta  occ. eigenvalues --   -0.15776  -0.13101  -0.12032
  Beta virt. eigenvalues --   -0.07760  -0.06365  -0.05523  -0.04031  -0.02957
  Beta virt. eigenvalues --   -0.02881  -0.02272  -0.01621  -0.01542  -0.01031
  Beta virt. eigenvalues --   -0.00795  -0.00197   0.00191   0.00313   0.00560

 Mulliken charges and spin densities:
               1          2
     1  Na   0.168942  -0.019184
     2  Na  -0.421501   0.105573
     3  Na   0.006776   0.342723
     4  Na   0.009337   0.081794
     5  Na   0.516065   0.124840
     6  Na  -0.507369   0.369877
     7  Na   0.227751  -0.005622
 Sum of Mulliken charges =  -0.00000   1.00000

 Dipole moment (field-independent basis, Debye):
    X=              0.3662    Y=             -0.5349    Z=             -0.0574  Tot=              0.6507
 Quadrupole moment (field-independent basis, Debye-Ang):
   XX=            -66.3441   YY=            -62.6651   ZZ=            -71.0299
   XY=             -0.8464   XZ=             -0.0197   YZ=              3.0943

 Normal termination of Gaussian 16 at Sun Dec  3 15:24:54 2023.
