 Gaussian 16, Revision B.01,
 Gaussian 16:  ES64L-G16RevB.01 20-Dec-2017

 -------------------------
 #P B3LYP/6-311+g(d) force
 -------------------------

 -----
 DPGEN
 -----
 Symbolic Z-matrix:
 Charge =  0 Multiplicity = 2

                         Standard orientation:
 ---------------------------------------------------------------------
 Center     Atomic      Atomic             Coordinates (Angstroms)
 Number     Number       Type             X           Y           Z
 ---------------------------------------------------------------------
      1         11           0       -3.554958    0.465681   -0.011973
      2         11           0        2.114495   -2.450607   -0.087022
      3         11           0        2.885692    1.106035   -0.552852
      4         11           0       -1.637816   -2.434091   -0.041982
      5         11           0        0.578681    0.102788    2.177042
      6         11           0       -0.119323    3.091998    0.085124
      7         11           0       -0.266771    0.118196   -1.568338
 ---------------------------------------------------------------------

 SCF Done:  E(UB3LYP) =  -1136.13528813     A.U. after   21 cycles

 The electronic state is 2-A.
 Alpha  occ. eigenvalues --  -38.44489 -38.44118 -38.43679 -38.43648 -38.43639
 Alpha  occ. eigenvalues --  -38.43620 -38.43348  -2.20260  -2.19945  -2.19511
 Alpha  occ. eigenvalues --   -2.19495  -2.19445  -2.19419  -2.19280  -1.13935
 Alpha  occ. eigenvalues --   -1.13912  -1.13905  -1.13627  -1.13605  -1.13570
 Alpha  occ. eigenvalues --   -1.13226  -1.13181  -1.13155  -1.13132  -1.13129
 Alpha  occ. eigenvalues --   -1.13126  -1.13121  -1.13099  -1.13087  -1.13077
 Alpha  occ. eigenvalues --   -1.13072  -1.13067  -1.12968  -1.12919  -1.12895
 Alpha  occ. eigenvalues --   -0.18044  -0.12942  -0.12219  -0.10525
 Alpha virt. eigenvalues --   -0.05996  -0.05246  -0.04888  -0.03097  -0.02804
 Alpha virt. eigenvalues --   -0.02526  -0.01792  -0.01259  -0.00705  -0.00508
 Alpha virt. eigenvalues --   -0.00052   0.00315   0.00718   0.00788   0.00842

  Beta  occ. eigenvalues --  -38.44492 -38.44101 -38.43675 -38.43635 -38.43618
  Beta  occ. eigenvalues --  -38.43546 -38.43298  -2.20267  -2.19917  -2.19506
  Beta  occ. eigenvalues --   -2.19442  -2.19419  -2.19306  -2.19188  -1.13933
  Beta  occ. eigenvalues --   -1.13916  -1.13911  -1.13599  -1.13573  -1.13554
  Beta  occ. eigenvalues --   -1.13218  -1.13163  -1.13129  -1.13125  -1.13092
  Beta  occ. eigenvalues --   -1.13080  -1.13078  -1.13073  -1.13064  -1.13023
  Beta  occ. eigenvalues --   -1.12997  -1.12967  -1.12903  -1.12856  -1.12825
  Beta  occ. eigenvalues --   -0.17345  -0.12748  -0.12035
  Beta virt. eigenvalues --   -0.06598  -0.05945  -0.05251  -0.04786  -0.02420
  Beta virt. eigenvalues --   -0.02071  -0.01707  -0.01466  -0.01184  -0.00728
  Beta virt. eigenvalues --   -0.00543   0.00123   0.00362   0.00786   0.00797

 Mulliken charges and spin densities:
               1          2
     1  Na   0.042107  -0.059647
     2  Na   0.064657  -0.021140
     3  Na   0.270420   0.044747
     4  Na   0.042615  -0.070857
     5  Na  -0.500828   0.803435
     6  Na   0.019579  -0.059536
     7  Na   0.061450   0.362999
 Sum of Mulliken charges =  -0.00000   1.00000

 Dipole moment (field-independent basis, Debye):
    X=             -0.2422    Y=              0.1757    Z=              0.0553  Tot=              0.3043
 Quadrupole moment (field-independent basis, Debye-Ang):
   XX=            -54.9455   YY=            -62.2502   ZZ=            -75.7066
   XY=             -1.2313   XZ=             -1.8733   YZ=              0.0372

 Normal termination of Gaussian 16 at Thu Dec  7 15:13:44 2023.
