 Gaussian 16, Revision B.01,
 Gaussian 16:  ES64L-G16RevB.01 20-Dec-2017

 -------------------------
 #P B3LYP/6-311+g(d) force
 -------------------------

 -----
 DPGEN
 -----
 Symbolic Z-matrix:
 Charge =  0 Multiplicity = 2

                         Standard orientation:
 ---------------------------------------------------------------------
 Center     Atomic      Atomic             Coordinates (Angstroms)
 Number     Number       Type             X           Y           Z
 ---------------------------------------------------------------------
      1         11           0       -0.414486    2.163083    0.461629
      2         11           0        0.085513    0.180941   -1.697916
      3         11           0        4.221734    0.007541   -0.220798
      4         11           0        1.430290   -0.418991    0.742970
      5         11           0       -1.323911   -0.324549    1.810623
      6         11           0       -1.180623   -2.145058   -0.297582
      7         11           0       -2.818517    0.537034   -0.798927
 ---------------------------------------------------------------------

 SCF Done:  E(UB3LYP) =  -1136.09255932     A.U. after   28 cycles

 The electronic state is 2-A.
 Alpha  occ. eigenvalues --  -38.45742 -38.44646 -38.44600 -38.44136 -38.43257
 Alpha  occ. eigenvalues --  -38.42379 -38.42364  -2.21524  -2.20712  -2.20652
 Alpha  occ. eigenvalues --   -2.20289  -2.19379  -2.18423  -2.18419  -1.15228
 Alpha  occ. eigenvalues --   -1.15165  -1.15153  -1.14494  -1.14454  -1.14351
 Alpha  occ. eigenvalues --   -1.14335  -1.14244  -1.14223  -1.14025  -1.13952
 Alpha  occ. eigenvalues --   -1.13880  -1.13109  -1.13047  -1.12935  -1.12142
 Alpha  occ. eigenvalues --   -1.12125  -1.12090  -1.12076  -1.12015  -1.12011
 Alpha  occ. eigenvalues --   -0.20580  -0.13730  -0.12146  -0.11517
 Alpha virt. eigenvalues --   -0.07391  -0.03777  -0.03458  -0.03286  -0.02746
 Alpha virt. eigenvalues --   -0.02653  -0.02499  -0.00816  -0.00459   0.00044
 Alpha virt. eigenvalues --    0.00299   0.00325   0.00406   0.00853   0.01092

  Beta  occ. eigenvalues --  -38.45749 -38.44613 -38.44529 -38.44047 -38.43225
  Beta  occ. eigenvalues --  -38.42360 -38.42349  -2.21536  -2.20600  -2.20580
  Beta  occ. eigenvalues --   -2.20129  -2.19327  -2.18402  -2.18393  -1.15237
  Beta  occ. eigenvalues --   -1.15173  -1.15160  -1.14422  -1.14368  -1.14295
  Beta  occ. eigenvalues --   -1.14244  -1.14201  -1.14145  -1.13916  -1.13830
  Beta  occ. eigenvalues --   -1.13768  -1.13085  -1.12953  -1.12906  -1.12130
  Beta  occ. eigenvalues --   -1.12118  -1.12046  -1.12021  -1.11986  -1.11980
  Beta  occ. eigenvalues --   -0.19693  -0.13582  -0.11209
  Beta virt. eigenvalues --   -0.07795  -0.07265  -0.03386  -0.03299  -0.03043
  Beta virt. eigenvalues --   -0.02560  -0.01835  -0.01611  -0.00579  -0.00329
  Beta virt. eigenvalues --    0.00073   0.00307   0.00383   0.00521   0.00903

 Mulliken charges and spin densities:
               1          2
     1  Na  -0.777000  -0.073008
     2  Na   0.358516   0.671581
     3  Na   0.494395  -0.004933
     4  Na  -0.640404   0.291168
     5  Na   1.081447   0.065166
     6  Na  -0.836083  -0.001932
     7  Na   0.319129   0.051958
 Sum of Mulliken charges =  -0.00000   1.00000

 Dipole moment (field-independent basis, Debye):
    X=              0.8056    Y=              0.2610    Z=             -0.3697  Tot=              0.9240
 Quadrupole moment (field-independent basis, Debye-Ang):
   XX=            -45.4336   YY=            -77.5732   ZZ=            -67.6977
   XY=              0.5264   XZ=             -0.9566   YZ=              0.9387

 Normal termination of Gaussian 16 at Fri Dec  8 18:29:57 2023.
