 Gaussian 16, Revision B.01,
 Gaussian 16:  ES64L-G16RevB.01 20-Dec-2017

 -------------------------
 #P B3LYP/6-311+g(d) force
 -------------------------

 -----
 DPGEN
 -----
 Symbolic Z-matrix:
 Charge =  0 Multiplicity = 2

                         Standard orientation:
 ---------------------------------------------------------------------
 Center     Atomic      Atomic             Coordinates (Angstroms)
 Number     Number       Type             X           Y           Z
 ---------------------------------------------------------------------
      1         11           0       -0.043046   -2.718648   -0.148320
      2         11           0       -0.439159    0.065361   -1.730140
      3         11           0        2.764447   -1.396741    0.010874
      4         11           0       -3.154404   -0.787922    0.200063
      5         11           0        0.261054    0.245047    1.932031
      6         11           0        2.087760    2.245985   -0.297418
      7         11           0       -1.476652    2.346917    0.032910
 ---------------------------------------------------------------------

 SCF Done:  E(UB3LYP) =  -1136.13769038     A.U. after   19 cycles

 The electronic state is 2-A.
 Alpha  occ. eigenvalues --  -38.44006 -38.43766 -38.43676 -38.43549 -38.43415
 Alpha  occ. eigenvalues --  -38.43257 -38.43206  -2.19826  -2.19618  -2.19504
 Alpha  occ. eigenvalues --   -2.19454  -2.19338  -2.19240  -2.19103  -1.13496
 Alpha  occ. eigenvalues --   -1.13481  -1.13477  -1.13319  -1.13278  -1.13261
 Alpha  occ. eigenvalues --   -1.13218  -1.13177  -1.13169  -1.13147  -1.13139
 Alpha  occ. eigenvalues --   -1.13046  -1.13006  -1.12961  -1.12949  -1.12931
 Alpha  occ. eigenvalues --   -1.12887  -1.12836  -1.12767  -1.12755  -1.12723
 Alpha  occ. eigenvalues --   -0.18853  -0.13004  -0.12616  -0.10732
 Alpha virt. eigenvalues --   -0.05546  -0.05263  -0.04595  -0.03160  -0.02973
 Alpha virt. eigenvalues --   -0.02463  -0.01561  -0.01109  -0.00267  -0.00184
 Alpha virt. eigenvalues --   -0.00009   0.00358   0.00808   0.00882   0.00917

  Beta  occ. eigenvalues --  -38.44003 -38.43765 -38.43670 -38.43539 -38.43330
  Beta  occ. eigenvalues --  -38.43199 -38.43185  -2.19823  -2.19618  -2.19496
  Beta  occ. eigenvalues --   -2.19441  -2.19181  -2.19109  -2.19094  -1.13487
  Beta  occ. eigenvalues --   -1.13479  -1.13468  -1.13321  -1.13265  -1.13254
  Beta  occ. eigenvalues --   -1.13199  -1.13162  -1.13150  -1.13140  -1.13096
  Beta  occ. eigenvalues --   -1.13040  -1.12908  -1.12862  -1.12848  -1.12837
  Beta  occ. eigenvalues --   -1.12806  -1.12748  -1.12744  -1.12723  -1.12706
  Beta  occ. eigenvalues --   -0.18111  -0.12780  -0.12369
  Beta virt. eigenvalues --   -0.06817  -0.05502  -0.05247  -0.04566  -0.02384
  Beta virt. eigenvalues --   -0.02173  -0.01476  -0.01420  -0.01044  -0.00323
  Beta virt. eigenvalues --   -0.00227   0.00126   0.00377   0.00858   0.00882

 Mulliken charges and spin densities:
               1          2
     1  Na   0.143768  -0.081564
     2  Na  -0.254309   0.607014
     3  Na   0.042409  -0.070312
     4  Na   0.094162  -0.056994
     5  Na  -0.435520   0.746712
     6  Na   0.094552  -0.087959
     7  Na   0.314937  -0.056898
 Sum of Mulliken charges =  -0.00000   1.00000

 Dipole moment (field-independent basis, Debye):
    X=             -0.0676    Y=              0.1213    Z=              0.1111  Tot=              0.1778
 Quadrupole moment (field-independent basis, Debye-Ang):
   XX=            -55.5507   YY=            -63.5526   ZZ=            -74.2505
   XY=              1.0122   XZ=             -1.6293   YZ=             -0.5862

 Normal termination of Gaussian 16 at Fri Dec  8 06:52:25 2023.
