 Gaussian 16, Revision B.01,
 Gaussian 16:  ES64L-G16RevB.01 20-Dec-2017

 -------------------------
 #P B3LYP/6-311+g(d) force
 -------------------------

 -----
 DPGEN
 -----
 Symbolic Z-matrix:
 Charge =  0 Multiplicity = 2

                         Standard orientation:
 ---------------------------------------------------------------------
 Center     Atomic      Atomic             Coordinates (Angstroms)
 Number     Number       Type             X           Y           Z
 ---------------------------------------------------------------------
      1         11           0       -3.376544   -0.007247   -0.336384
      2         11           0       -0.088811    0.143944   -1.550576
      3         11           0        2.870127    1.323217   -0.058503
      4         11           0        2.435035   -1.912672   -0.264248
      5         11           0       -0.685784    2.782825    0.204604
      6         11           0        0.037857   -0.016916    1.681661
      7         11           0       -1.191879   -2.313150    0.323446
 ---------------------------------------------------------------------

 SCF Done:  E(UB3LYP) =  -1136.13227011     A.U. after   22 cycles

 The electronic state is 2-A.
 Alpha  occ. eigenvalues --  -38.44579 -38.44252 -38.43600 -38.43182 -38.43124
 Alpha  occ. eigenvalues --  -38.43076 -38.42960  -2.20406  -2.20095  -2.19457
 Alpha  occ. eigenvalues --   -2.19197  -2.19030  -2.18992  -2.18988  -1.14075
 Alpha  occ. eigenvalues --   -1.14070  -1.14037  -1.13770  -1.13768  -1.13726
 Alpha  occ. eigenvalues --   -1.13129  -1.13123  -1.13097  -1.12960  -1.12884
 Alpha  occ. eigenvalues --   -1.12849  -1.12799  -1.12712  -1.12670  -1.12650
 Alpha  occ. eigenvalues --   -1.12635  -1.12623  -1.12597  -1.12566  -1.12541
 Alpha  occ. eigenvalues --   -0.19088  -0.13483  -0.12271  -0.10431
 Alpha virt. eigenvalues --   -0.06193  -0.05080  -0.04278  -0.03178  -0.02593
 Alpha virt. eigenvalues --   -0.02080  -0.02029  -0.01121  -0.00379  -0.00123
 Alpha virt. eigenvalues --    0.00028   0.00311   0.00762   0.00843   0.00912

  Beta  occ. eigenvalues --  -38.44568 -38.44248 -38.43594 -38.43126 -38.43117
  Beta  occ. eigenvalues --  -38.43060 -38.42871  -2.20388  -2.20089  -2.19449
  Beta  occ. eigenvalues --   -2.19095  -2.19003  -2.18979  -2.18833  -1.14066
  Beta  occ. eigenvalues --   -1.14039  -1.14027  -1.13770  -1.13748  -1.13718
  Beta  occ. eigenvalues --   -1.13122  -1.13113  -1.13077  -1.12893  -1.12824
  Beta  occ. eigenvalues --   -1.12781  -1.12722  -1.12673  -1.12632  -1.12620
  Beta  occ. eigenvalues --   -1.12615  -1.12592  -1.12537  -1.12465  -1.12443
  Beta  occ. eigenvalues --   -0.18393  -0.13195  -0.11992
  Beta virt. eigenvalues --   -0.06595  -0.06081  -0.05073  -0.04272  -0.02448
  Beta virt. eigenvalues --   -0.01932  -0.01820  -0.01076  -0.01046  -0.00405
  Beta virt. eigenvalues --   -0.00136   0.00150   0.00351   0.00807   0.00850

 Mulliken charges and spin densities:
               1          2
     1  Na   0.069407   0.013039
     2  Na  -0.517337   0.598738
     3  Na   0.121941  -0.062156
     4  Na   0.094432  -0.001647
     5  Na  -0.011783  -0.109276
     6  Na  -0.170377   0.519426
     7  Na   0.413717   0.041877
 Sum of Mulliken charges =  -0.00000   1.00000

 Dipole moment (field-independent basis, Debye):
    X=             -0.0431    Y=              0.2303    Z=             -0.0540  Tot=              0.2404
 Quadrupole moment (field-independent basis, Debye-Ang):
   XX=            -50.6167   YY=            -64.5892   ZZ=            -75.9884
   XY=             -0.2406   XZ=              0.1352   YZ=              0.5089

 Normal termination of Gaussian 16 at Thu Dec  7 14:40:46 2023.
