 Gaussian 16, Revision B.01,
 Gaussian 16:  ES64L-G16RevB.01 20-Dec-2017

 -------------------------
 #P B3LYP/6-311+g(d) force
 -------------------------

 -----
 DPGEN
 -----
 Symbolic Z-matrix:
 Charge =  0 Multiplicity = 2

                         Standard orientation:
 ---------------------------------------------------------------------
 Center     Atomic      Atomic             Coordinates (Angstroms)
 Number     Number       Type             X           Y           Z
 ---------------------------------------------------------------------
      1         11           0       -3.319795   -0.702721    2.059238
      2         11           0       -2.092728   -0.698300   -0.810623
      3         11           0        0.159053   -3.533846   -1.595029
      4         11           0        2.223216   -2.067348    0.972745
      5         11           0        4.406004    1.058347    0.485358
      6         11           0       -2.371976    2.737522   -0.653140
      7         11           0        0.996226    3.206346   -0.458548
 ---------------------------------------------------------------------

 SCF Done:  E(UB3LYP) =  -1136.11036539     A.U. after   20 cycles

 The electronic state is 2-A.
 Alpha  occ. eigenvalues --  -38.44988 -38.44845 -38.44440 -38.44300 -38.44292
 Alpha  occ. eigenvalues --  -38.44250 -38.44029  -2.20713  -2.20666  -2.20182
 Alpha  occ. eigenvalues --   -2.20122  -2.20103  -2.20001  -2.19817  -1.14411
 Alpha  occ. eigenvalues --   -1.14392  -1.14335  -1.14334  -1.14296  -1.14275
 Alpha  occ. eigenvalues --   -1.13873  -1.13862  -1.13825  -1.13823  -1.13805
 Alpha  occ. eigenvalues --   -1.13781  -1.13760  -1.13733  -1.13705  -1.13667
 Alpha  occ. eigenvalues --   -1.13637  -1.13636  -1.13474  -1.13461  -1.13442
 Alpha  occ. eigenvalues --   -0.16041  -0.13276  -0.12806  -0.10912
 Alpha virt. eigenvalues --   -0.06427  -0.06098  -0.04785  -0.03119  -0.02940
 Alpha virt. eigenvalues --   -0.02334  -0.02105  -0.01617  -0.01486  -0.01047
 Alpha virt. eigenvalues --   -0.00535  -0.00238   0.00196   0.00441   0.00570

  Beta  occ. eigenvalues --  -38.44997 -38.44746 -38.44437 -38.44296 -38.44275
  Beta  occ. eigenvalues --  -38.44204 -38.43976  -2.20733  -2.20482  -2.20180
  Beta  occ. eigenvalues --   -2.20133  -2.20059  -2.19914  -2.19719  -1.14426
  Beta  occ. eigenvalues --   -1.14408  -1.14330  -1.14213  -1.14170  -1.14152
  Beta  occ. eigenvalues --   -1.13874  -1.13861  -1.13818  -1.13805  -1.13801
  Beta  occ. eigenvalues --   -1.13760  -1.13739  -1.13715  -1.13672  -1.13607
  Beta  occ. eigenvalues --   -1.13581  -1.13576  -1.13406  -1.13396  -1.13379
  Beta  occ. eigenvalues --   -0.15582  -0.12720  -0.12130
  Beta virt. eigenvalues --   -0.07753  -0.06415  -0.05645  -0.04390  -0.02882
  Beta virt. eigenvalues --   -0.02651  -0.01906  -0.01840  -0.01480  -0.01235
  Beta virt. eigenvalues --   -0.00869  -0.00240  -0.00001   0.00380   0.00492

 Mulliken charges and spin densities:
               1          2
     1  Na  -0.070074   0.424049
     2  Na  -0.077939   0.023597
     3  Na   0.116906   0.209622
     4  Na  -0.216597  -0.039394
     5  Na   0.122815   0.258116
     6  Na   0.322967   0.093481
     7  Na  -0.198078   0.030530
 Sum of Mulliken charges =  -0.00000   1.00000

 Dipole moment (field-independent basis, Debye):
    X=             -0.6536    Y=             -0.1640    Z=              0.4266  Tot=              0.7975
 Quadrupole moment (field-independent basis, Debye-Ang):
   XX=            -65.1565   YY=            -67.2797   ZZ=            -67.1084
   XY=             -1.6690   XZ=             -0.1459   YZ=             -0.2043

 Normal termination of Gaussian 16 at Sun Dec  3 14:09:40 2023.
