 Gaussian 16, Revision B.01,
 Gaussian 16:  ES64L-G16RevB.01 20-Dec-2017

 -------------------------
 #P B3LYP/6-311+g(d) force
 -------------------------

 -----
 DPGEN
 -----
 Symbolic Z-matrix:
 Charge =  0 Multiplicity = 2

                         Standard orientation:
 ---------------------------------------------------------------------
 Center     Atomic      Atomic             Coordinates (Angstroms)
 Number     Number       Type             X           Y           Z
 ---------------------------------------------------------------------
      1         11           0        3.486410    1.625235   -0.917041
      2         11           0       -0.101961    2.604459    0.213081
      3         11           0       -0.716024   -3.109789   -0.154085
      4         11           0        2.758207   -1.711124   -0.584162
      5         11           0        1.068071   -0.452426    2.157932
      6         11           0       -3.480357   -1.548037   -0.552678
      7         11           0       -3.014345    2.591683   -0.163046
 ---------------------------------------------------------------------

 SCF Done:  E(UB3LYP) =  -1136.11416303     A.U. after   20 cycles

 The electronic state is 2-A.
 Alpha  occ. eigenvalues --  -38.45132 -38.44731 -38.44625 -38.44247 -38.44202
 Alpha  occ. eigenvalues --  -38.43951 -38.43816  -2.20929  -2.20541  -2.20425
 Alpha  occ. eigenvalues --   -2.20051  -2.19985  -2.19778  -2.19612  -1.14616
 Alpha  occ. eigenvalues --   -1.14596  -1.14567  -1.14194  -1.14173  -1.14171
 Alpha  occ. eigenvalues --   -1.14162  -1.14076  -1.14050  -1.13706  -1.13693
 Alpha  occ. eigenvalues --   -1.13672  -1.13663  -1.13647  -1.13613  -1.13442
 Alpha  occ. eigenvalues --   -1.13436  -1.13412  -1.13293  -1.13286  -1.13244
 Alpha  occ. eigenvalues --   -0.16774  -0.13427  -0.12902  -0.10612
 Alpha virt. eigenvalues --   -0.07155  -0.06052  -0.04151  -0.03450  -0.03166
 Alpha virt. eigenvalues --   -0.02072  -0.01995  -0.01825  -0.01609  -0.00865
 Alpha virt. eigenvalues --   -0.00201   0.00010   0.00378   0.00460   0.00571

  Beta  occ. eigenvalues --  -38.45126 -38.44644 -38.44629 -38.44175 -38.44167
  Beta  occ. eigenvalues --  -38.43945 -38.43819  -2.20922  -2.20434  -2.20379
  Beta  occ. eigenvalues --   -2.19920  -2.19918  -2.19767  -2.19621  -1.14613
  Beta  occ. eigenvalues --   -1.14595  -1.14529  -1.14174  -1.14082  -1.14081
  Beta  occ. eigenvalues --   -1.14068  -1.14055  -1.14047  -1.13622  -1.13615
  Beta  occ. eigenvalues --   -1.13601  -1.13598  -1.13587  -1.13567  -1.13439
  Beta  occ. eigenvalues --   -1.13416  -1.13408  -1.13301  -1.13293  -1.13228
  Beta  occ. eigenvalues --   -0.16219  -0.13108  -0.12522
  Beta virt. eigenvalues --   -0.07198  -0.06857  -0.05803  -0.03865  -0.02925
  Beta virt. eigenvalues --   -0.02719  -0.01914  -0.01654  -0.01615  -0.01266
  Beta virt. eigenvalues --   -0.00842   0.00071   0.00186   0.00501   0.00560

 Mulliken charges and spin densities:
               1          2
     1  Na   0.466042   0.338542
     2  Na  -0.867630   0.086417
     3  Na   0.182350  -0.009560
     4  Na  -0.022881   0.085787
     5  Na   0.019412   0.388317
     6  Na  -0.293443   0.198012
     7  Na   0.516150  -0.087515
 Sum of Mulliken charges =  -0.00000   1.00000

 Dipole moment (field-independent basis, Debye):
    X=              0.2267    Y=             -0.0377    Z=              0.2268  Tot=              0.3229
 Quadrupole moment (field-independent basis, Debye-Ang):
   XX=            -62.2098   YY=            -66.6201   ZZ=            -72.5470
   XY=             -5.6732   XZ=              0.5669   YZ=              0.7350

 Normal termination of Gaussian 16 at Sun Dec  3 14:50:34 2023.
