 Gaussian 16, Revision B.01,
 Gaussian 16:  ES64L-G16RevB.01 20-Dec-2017

 -------------------------
 #P B3LYP/6-311+g(d) force
 -------------------------

 -----
 DPGEN
 -----
 Symbolic Z-matrix:
 Charge =  0 Multiplicity = 2

                         Standard orientation:
 ---------------------------------------------------------------------
 Center     Atomic      Atomic             Coordinates (Angstroms)
 Number     Number       Type             X           Y           Z
 ---------------------------------------------------------------------
      1         11           0        0.048591    0.260083   -1.943708
      2         11           0       -2.076237    0.866283    0.024059
      3         11           0        0.240198    2.267015    0.196736
      4         11           0       -1.588265   -1.671000   -0.114771
      5         11           0        2.181230    0.374301    0.008591
      6         11           0        1.173204   -1.896280   -0.123969
      7         11           0        0.021279   -0.200402    1.953063
 ---------------------------------------------------------------------

 SCF Done:  E(UB3LYP) =  -1136.06245583     A.U. after   19 cycles

 The electronic state is 2-A.
 Alpha  occ. eigenvalues --  -38.44617 -38.44612 -38.44203 -38.44065 -38.43945
 Alpha  occ. eigenvalues --  -38.43821 -38.43673  -2.20830  -2.20821  -2.20479
 Alpha  occ. eigenvalues --   -2.20246  -2.20161  -2.19967  -2.19841  -1.14833
 Alpha  occ. eigenvalues --   -1.14626  -1.14584  -1.14512  -1.14494  -1.14473
 Alpha  occ. eigenvalues --   -1.14456  -1.14259  -1.14152  -1.14011  -1.13991
 Alpha  occ. eigenvalues --   -1.13952  -1.13804  -1.13726  -1.13596  -1.13543
 Alpha  occ. eigenvalues --   -1.13503  -1.13432  -1.13422  -1.13414  -1.13271
 Alpha  occ. eigenvalues --   -0.22196  -0.13486  -0.13341  -0.13052
 Alpha virt. eigenvalues --   -0.04956  -0.04058  -0.04024  -0.03864  -0.03668
 Alpha virt. eigenvalues --   -0.03406  -0.00521  -0.00495  -0.00263   0.00330
 Alpha virt. eigenvalues --    0.01028   0.01056   0.01227   0.01243   0.01335

  Beta  occ. eigenvalues --  -38.44516 -38.44510 -38.44186 -38.44049 -38.43931
  Beta  occ. eigenvalues --  -38.43808 -38.43658  -2.20648  -2.20638  -2.20455
  Beta  occ. eigenvalues --   -2.20225  -2.20142  -2.19950  -2.19820  -1.14804
  Beta  occ. eigenvalues --   -1.14554  -1.14472  -1.14409  -1.14368  -1.14346
  Beta  occ. eigenvalues --   -1.14323  -1.14246  -1.14114  -1.13988  -1.13935
  Beta  occ. eigenvalues --   -1.13905  -1.13722  -1.13650  -1.13590  -1.13498
  Beta  occ. eigenvalues --   -1.13472  -1.13415  -1.13409  -1.13357  -1.13266
  Beta  occ. eigenvalues --   -0.21269  -0.13073  -0.12937
  Beta virt. eigenvalues --   -0.08798  -0.04962  -0.04046  -0.04013  -0.02852
  Beta virt. eigenvalues --   -0.02728  -0.02327  -0.00470  -0.00440  -0.00070
  Beta virt. eigenvalues --    0.00351   0.01004   0.01029   0.01290   0.01304

 Mulliken charges and spin densities:
               1          2
     1  Na  -0.112857   0.419451
     2  Na   0.083570   0.053454
     3  Na   0.015534   0.013725
     4  Na  -0.016138   0.017783
     5  Na   0.106989   0.034692
     6  Na   0.039071   0.038872
     7  Na  -0.116169   0.422023
 Sum of Mulliken charges =  -0.00000   1.00000

 Dipole moment (field-independent basis, Debye):
    X=             -0.1182    Y=              0.0318    Z=              0.0131  Tot=              0.1231
 Quadrupole moment (field-independent basis, Debye-Ang):
   XX=            -68.0934   YY=            -68.0942   ZZ=            -64.4332
   XY=              0.2513   XZ=              0.0610   YZ=              0.7902

 Normal termination of Gaussian 16 at Thu Dec  7 19:06:44 2023.
