 Gaussian 16, Revision B.01,
 Gaussian 16:  ES64L-G16RevB.01 20-Dec-2017

 -------------------------
 #P B3LYP/6-311+g(d) force
 -------------------------

 -----
 DPGEN
 -----
 Symbolic Z-matrix:
 Charge =  0 Multiplicity = 2

                         Standard orientation:
 ---------------------------------------------------------------------
 Center     Atomic      Atomic             Coordinates (Angstroms)
 Number     Number       Type             X           Y           Z
 ---------------------------------------------------------------------
      1         11           0        3.878522    0.250061   -0.576235
      2         11           0       -1.192643   -0.749583    0.981611
      3         11           0        2.380764   -1.593337    0.919056
      4         11           0       -0.376889   -3.264420   -0.857046
      5         11           0       -4.290821   -0.138160   -0.320411
      6         11           0       -2.005590    2.414819    0.067577
      7         11           0        1.606657    3.080620   -0.214551
 ---------------------------------------------------------------------

 SCF Done:  E(UB3LYP) =  -1136.11788519     A.U. after   20 cycles

 The electronic state is 2-A.
 Alpha  occ. eigenvalues --  -38.44348 -38.44324 -38.44126 -38.43983 -38.43958
 Alpha  occ. eigenvalues --  -38.43938 -38.43699  -2.20230  -2.20131  -2.20008
 Alpha  occ. eigenvalues --   -2.19820  -2.19780  -2.19711  -2.19576  -1.14035
 Alpha  occ. eigenvalues --   -1.13890  -1.13844  -1.13826  -1.13788  -1.13754
 Alpha  occ. eigenvalues --   -1.13700  -1.13694  -1.13612  -1.13478  -1.13472
 Alpha  occ. eigenvalues --   -1.13462  -1.13461  -1.13441  -1.13390  -1.13379
 Alpha  occ. eigenvalues --   -1.13360  -1.13336  -1.13242  -1.13195  -1.13162
 Alpha  occ. eigenvalues --   -0.16895  -0.14127  -0.12779  -0.10262
 Alpha virt. eigenvalues --   -0.06521  -0.05533  -0.04368  -0.03620  -0.02656
 Alpha virt. eigenvalues --   -0.02379  -0.02008  -0.01229  -0.01084  -0.00722
 Alpha virt. eigenvalues --   -0.00338   0.00206   0.00438   0.00607   0.00733

  Beta  occ. eigenvalues --  -38.44323 -38.44302 -38.44123 -38.43946 -38.43909
  Beta  occ. eigenvalues --  -38.43905 -38.43646  -2.20191  -2.20091  -2.20004
  Beta  occ. eigenvalues --   -2.19763  -2.19681  -2.19652  -2.19482  -1.13983
  Beta  occ. eigenvalues --   -1.13869  -1.13806  -1.13796  -1.13760  -1.13729
  Beta  occ. eigenvalues --   -1.13696  -1.13681  -1.13601  -1.13469  -1.13458
  Beta  occ. eigenvalues --   -1.13381  -1.13368  -1.13359  -1.13352  -1.13326
  Beta  occ. eigenvalues --   -1.13308  -1.13280  -1.13173  -1.13131  -1.13098
  Beta  occ. eigenvalues --   -0.16522  -0.13396  -0.12195
  Beta virt. eigenvalues --   -0.06948  -0.06410  -0.05439  -0.03972  -0.03245
  Beta virt. eigenvalues --   -0.02379  -0.02063  -0.01452  -0.01094  -0.00962
  Beta virt. eigenvalues --   -0.00567  -0.00040   0.00432   0.00546   0.00677

 Mulliken charges and spin densities:
               1          2
     1  Na  -0.064636   0.212842
     2  Na  -0.887286  -0.129327
     3  Na   0.186402   0.156633
     4  Na   0.136626   0.088818
     5  Na   0.635682   0.394511
     6  Na   0.240609   0.184014
     7  Na  -0.247398   0.092508
 Sum of Mulliken charges =  -0.00000   1.00000

 Dipole moment (field-independent basis, Debye):
    X=             -0.6614    Y=             -0.8973    Z=             -0.6364  Tot=              1.2836
 Quadrupole moment (field-independent basis, Debye-Ang):
   XX=            -69.4519   YY=            -65.4679   ZZ=            -66.4661
   XY=              2.6885   XZ=              0.7751   YZ=              2.0381

 Normal termination of Gaussian 16 at Mon Dec  4 01:20:32 2023.
