 Gaussian 16, Revision B.01,
 Gaussian 16:  ES64L-G16RevB.01 20-Dec-2017

 -------------------------
 #P B3LYP/6-311+g(d) force
 -------------------------

 -----
 DPGEN
 -----
 Symbolic Z-matrix:
 Charge =  0 Multiplicity = 2

                         Standard orientation:
 ---------------------------------------------------------------------
 Center     Atomic      Atomic             Coordinates (Angstroms)
 Number     Number       Type             X           Y           Z
 ---------------------------------------------------------------------
      1         11           0       -2.735985    1.404363   -0.250068
      2         11           0        0.437139   -0.002529   -1.855866
      3         11           0        0.556949   -2.603835   -0.095445
      4         11           0        3.547105   -0.412540    0.182855
      5         11           0        0.260704    0.766895    1.857889
      6         11           0        0.455663    2.920297   -0.183952
      7         11           0       -2.521576   -2.072651    0.344586
 ---------------------------------------------------------------------

 SCF Done:  E(UB3LYP) =  -1136.13068580     A.U. after   19 cycles

 The electronic state is 2-A.
 Alpha  occ. eigenvalues --  -38.44659 -38.44270 -38.43737 -38.43661 -38.43513
 Alpha  occ. eigenvalues --  -38.43462 -38.43461  -2.20423  -2.20080  -2.19625
 Alpha  occ. eigenvalues --   -2.19564  -2.19382  -2.19343  -2.19336  -1.14098
 Alpha  occ. eigenvalues --   -1.14078  -1.14060  -1.13756  -1.13747  -1.13717
 Alpha  occ. eigenvalues --   -1.13449  -1.13295  -1.13231  -1.13211  -1.13162
 Alpha  occ. eigenvalues --   -1.13149  -1.13143  -1.13085  -1.13035  -1.12998
 Alpha  occ. eigenvalues --   -1.12988  -1.12987  -1.12979  -1.12958  -1.12906
 Alpha  occ. eigenvalues --   -0.18346  -0.12830  -0.12657  -0.10586
 Alpha virt. eigenvalues --   -0.06191  -0.05101  -0.04694  -0.03198  -0.02965
 Alpha virt. eigenvalues --   -0.02444  -0.01947  -0.01087  -0.00520  -0.00240
 Alpha virt. eigenvalues --   -0.00036   0.00321   0.00768   0.00794   0.00829

  Beta  occ. eigenvalues --  -38.44658 -38.44266 -38.43727 -38.43588 -38.43511
  Beta  occ. eigenvalues --  -38.43454 -38.43379  -2.20424  -2.20074  -2.19611
  Beta  occ. eigenvalues --   -2.19430  -2.19337  -2.19331  -2.19230  -1.14091
  Beta  occ. eigenvalues --   -1.14073  -1.14063  -1.13745  -1.13731  -1.13716
  Beta  occ. eigenvalues --   -1.13409  -1.13257  -1.13223  -1.13124  -1.13103
  Beta  occ. eigenvalues --   -1.13081  -1.13068  -1.13058  -1.12986  -1.12980
  Beta  occ. eigenvalues --   -1.12967  -1.12935  -1.12910  -1.12897  -1.12862
  Beta  occ. eigenvalues --   -0.17632  -0.12611  -0.12450
  Beta virt. eigenvalues --   -0.06738  -0.06161  -0.04994  -0.04636  -0.02406
  Beta virt. eigenvalues --   -0.02289  -0.01865  -0.01425  -0.01024  -0.00574
  Beta virt. eigenvalues --   -0.00251   0.00115   0.00352   0.00779   0.00842

 Mulliken charges and spin densities:
               1          2
     1  Na   0.019472   0.035823
     2  Na   0.022460   0.502636
     3  Na   0.024416   0.041760
     4  Na   0.068997  -0.124385
     5  Na  -0.319746   0.748438
     6  Na   0.350589  -0.145431
     7  Na  -0.166189  -0.058841
 Sum of Mulliken charges =  -0.00000   1.00000

 Dipole moment (field-independent basis, Debye):
    X=              0.3743    Y=              0.3557    Z=              0.0107  Tot=              0.5165
 Quadrupole moment (field-independent basis, Debye-Ang):
   XX=            -54.4418   YY=            -64.2556   ZZ=            -74.9864
   XY=             -0.7916   XZ=              0.4729   YZ=             -1.7796

 Normal termination of Gaussian 16 at Thu Dec  7 07:26:40 2023.
