 Gaussian 16, Revision B.01,
 Gaussian 16:  ES64L-G16RevB.01 20-Dec-2017

 -------------------------
 #P B3LYP/6-311+g(d) force
 -------------------------

 -----
 DPGEN
 -----
 Symbolic Z-matrix:
 Charge =  0 Multiplicity = 2

                         Standard orientation:
 ---------------------------------------------------------------------
 Center     Atomic      Atomic             Coordinates (Angstroms)
 Number     Number       Type             X           Y           Z
 ---------------------------------------------------------------------
      1         11           0       -2.454717    1.994616   -0.596062
      2         11           0        3.402234    0.129987   -1.449960
      3         11           0        0.074802   -0.766926   -1.121018
      4         11           0       -1.325569   -0.039770    1.853284
      5         11           0        1.611739    1.892414    0.869151
      6         11           0       -2.887796   -1.450297   -0.874714
      7         11           0        1.579307   -1.760023    1.319318
 ---------------------------------------------------------------------

 SCF Done:  E(UB3LYP) =  -1136.12433766     A.U. after   27 cycles

 The electronic state is 2-A.
 Alpha  occ. eigenvalues --  -38.44695 -38.44033 -38.43976 -38.43755 -38.43549
 Alpha  occ. eigenvalues --  -38.43246 -38.43188  -2.20524  -2.19917  -2.19911
 Alpha  occ. eigenvalues --   -2.19647  -2.19371  -2.19206  -2.19078  -1.14192
 Alpha  occ. eigenvalues --   -1.14160  -1.14142  -1.13637  -1.13619  -1.13593
 Alpha  occ. eigenvalues --   -1.13541  -1.13519  -1.13512  -1.13381  -1.13296
 Alpha  occ. eigenvalues --   -1.13247  -1.13052  -1.13030  -1.13001  -1.12910
 Alpha  occ. eigenvalues --   -1.12840  -1.12825  -1.12763  -1.12754  -1.12701
 Alpha  occ. eigenvalues --   -0.18728  -0.14093  -0.11675  -0.10781
 Alpha virt. eigenvalues --   -0.05866  -0.05272  -0.04966  -0.03072  -0.02596
 Alpha virt. eigenvalues --   -0.02519  -0.01979  -0.00970  -0.00767  -0.00021
 Alpha virt. eigenvalues --    0.00257   0.00362   0.00471   0.00540   0.00730

  Beta  occ. eigenvalues --  -38.44644 -38.44014 -38.43915 -38.43715 -38.43543
  Beta  occ. eigenvalues --  -38.43237 -38.43167  -2.20430  -2.19877  -2.19807
  Beta  occ. eigenvalues --   -2.19579  -2.19362  -2.19169  -2.19066  -1.14121
  Beta  occ. eigenvalues --   -1.14098  -1.14083  -1.13606  -1.13559  -1.13538
  Beta  occ. eigenvalues --   -1.13496  -1.13455  -1.13443  -1.13340  -1.13225
  Beta  occ. eigenvalues --   -1.13194  -1.13042  -1.13026  -1.12987  -1.12860
  Beta  occ. eigenvalues --   -1.12815  -1.12803  -1.12754  -1.12725  -1.12690
  Beta  occ. eigenvalues --   -0.17989  -0.13730  -0.10602
  Beta virt. eigenvalues --   -0.07793  -0.05589  -0.05205  -0.04388  -0.02834
  Beta virt. eigenvalues --   -0.02069  -0.01841  -0.01670  -0.00739  -0.00541
  Beta virt. eigenvalues --    0.00116   0.00306   0.00404   0.00552   0.00617

 Mulliken charges and spin densities:
               1          2
     1  Na  -0.230346  -0.001881
     2  Na   0.670512   0.034397
     3  Na  -0.985401   0.240250
     4  Na   0.416872   0.281921
     5  Na  -0.420637   0.039233
     6  Na   0.637335   0.185768
     7  Na  -0.088335   0.220312
 Sum of Mulliken charges =  -0.00000   1.00000

 Dipole moment (field-independent basis, Debye):
    X=              0.2241    Y=             -0.2955    Z=             -0.1372  Tot=              0.3954
 Quadrupole moment (field-independent basis, Debye-Ang):
   XX=            -51.4270   YY=            -76.3345   ZZ=            -65.3526
   XY=              0.2210   XZ=             -0.4994   YZ=             -2.6296

 Normal termination of Gaussian 16 at Tue Dec  5 10:49:37 2023.
