 Gaussian 16, Revision B.01,
 Gaussian 16:  ES64L-G16RevB.01 20-Dec-2017

 -------------------------
 #P B3LYP/6-311+g(d) force
 -------------------------

 -----
 DPGEN
 -----
 Symbolic Z-matrix:
 Charge =  0 Multiplicity = 2

                         Standard orientation:
 ---------------------------------------------------------------------
 Center     Atomic      Atomic             Coordinates (Angstroms)
 Number     Number       Type             X           Y           Z
 ---------------------------------------------------------------------
      1         11           0        3.642276   -0.480924   -0.304922
      2         11           0        0.963224   -0.526729   -1.201904
      3         11           0       -1.295349    2.147366   -1.547471
      4         11           0       -2.707810    0.549248    1.040211
      5         11           0       -1.861727   -2.495145   -0.866210
      6         11           0        0.210085   -1.235266    1.852272
      7         11           0        1.049301    2.041450    1.028025
 ---------------------------------------------------------------------

 SCF Done:  E(UB3LYP) =  -1136.12742733     A.U. after   21 cycles

 The electronic state is 2-A.
 Alpha  occ. eigenvalues --  -38.44635 -38.44440 -38.43789 -38.43667 -38.43386
 Alpha  occ. eigenvalues --  -38.43179 -38.43128  -2.20476  -2.20264  -2.19686
 Alpha  occ. eigenvalues --   -2.19527  -2.19198  -2.19158  -2.19030  -1.14254
 Alpha  occ. eigenvalues --   -1.14097  -1.14087  -1.13954  -1.13928  -1.13883
 Alpha  occ. eigenvalues --   -1.13401  -1.13332  -1.13284  -1.13226  -1.13195
 Alpha  occ. eigenvalues --   -1.13126  -1.12889  -1.12848  -1.12838  -1.12828
 Alpha  occ. eigenvalues --   -1.12822  -1.12754  -1.12691  -1.12679  -1.12653
 Alpha  occ. eigenvalues --   -0.18523  -0.13105  -0.11735  -0.11354
 Alpha virt. eigenvalues --   -0.06161  -0.04862  -0.04088  -0.03327  -0.03143
 Alpha virt. eigenvalues --   -0.02635  -0.01897  -0.00915  -0.00469   0.00104
 Alpha virt. eigenvalues --    0.00234   0.00267   0.00420   0.00748   0.00827

  Beta  occ. eigenvalues --  -38.44632 -38.44429 -38.43727 -38.43642 -38.43371
  Beta  occ. eigenvalues --  -38.43146 -38.43086  -2.20472  -2.20246  -2.19574
  Beta  occ. eigenvalues --   -2.19483  -2.19171  -2.19084  -2.18968  -1.14245
  Beta  occ. eigenvalues --   -1.14095  -1.14079  -1.13920  -1.13914  -1.13877
  Beta  occ. eigenvalues --   -1.13331  -1.13235  -1.13214  -1.13190  -1.13135
  Beta  occ. eigenvalues --   -1.13102  -1.12858  -1.12829  -1.12812  -1.12779
  Beta  occ. eigenvalues --   -1.12758  -1.12704  -1.12643  -1.12639  -1.12609
  Beta  occ. eigenvalues --   -0.17745  -0.12931  -0.11560
  Beta virt. eigenvalues --   -0.07400  -0.06005  -0.04679  -0.03741  -0.02891
  Beta virt. eigenvalues --   -0.02660  -0.01867  -0.01627  -0.00784  -0.00194
  Beta virt. eigenvalues --    0.00124   0.00292   0.00315   0.00533   0.00806

 Mulliken charges and spin densities:
               1          2
     1  Na   0.497770   0.001205
     2  Na  -0.621868   0.350717
     3  Na   0.212476   0.016004
     4  Na   0.012066   0.087307
     5  Na   0.001470  -0.059947
     6  Na  -0.035619   0.488313
     7  Na  -0.066295   0.116402
 Sum of Mulliken charges =  -0.00000   1.00000

 Dipole moment (field-independent basis, Debye):
    X=              0.2667    Y=              0.0229    Z=              0.4180  Tot=              0.4964
 Quadrupole moment (field-independent basis, Debye-Ang):
   XX=            -53.9769   YY=            -71.2197   ZZ=            -67.6565
   XY=              0.1926   XZ=              0.9867   YZ=              1.2096

 Normal termination of Gaussian 16 at Tue Dec  5 16:18:45 2023.
