 Gaussian 16, Revision B.01,
 Gaussian 16:  ES64L-G16RevB.01 20-Dec-2017

 -------------------------
 #P B3LYP/6-311+g(d) force
 -------------------------

 -----
 DPGEN
 -----
 Symbolic Z-matrix:
 Charge =  0 Multiplicity = 2

                         Standard orientation:
 ---------------------------------------------------------------------
 Center     Atomic      Atomic             Coordinates (Angstroms)
 Number     Number       Type             X           Y           Z
 ---------------------------------------------------------------------
      1         11           0        2.936462   -2.073901    0.671879
      2         11           0        1.482279   -0.593070   -1.463687
      3         11           0       -1.120946    1.660842   -0.876296
      4         11           0       -0.034617    0.263584    2.005367
      5         11           0       -1.612091   -2.251164   -0.711035
      6         11           0       -3.729078    0.173946    0.454475
      7         11           0        2.077991    2.819764   -0.080702
 ---------------------------------------------------------------------

 SCF Done:  E(UB3LYP) =  -1136.12666379     A.U. after   21 cycles

 The electronic state is 2-A.
 Alpha  occ. eigenvalues --  -38.44534 -38.44346 -38.44200 -38.44125 -38.43765
 Alpha  occ. eigenvalues --  -38.43301 -38.43111  -2.20353  -2.20148  -2.20036
 Alpha  occ. eigenvalues --   -2.19936  -2.19550  -2.19207  -2.19036  -1.14038
 Alpha  occ. eigenvalues --   -1.14004  -1.13995  -1.13828  -1.13818  -1.13760
 Alpha  occ. eigenvalues --   -1.13723  -1.13667  -1.13664  -1.13646  -1.13569
 Alpha  occ. eigenvalues --   -1.13566  -1.13218  -1.13214  -1.13189  -1.12917
 Alpha  occ. eigenvalues --   -1.12889  -1.12801  -1.12726  -1.12701  -1.12632
 Alpha  occ. eigenvalues --   -0.18089  -0.13313  -0.11836  -0.10653
 Alpha virt. eigenvalues --   -0.06383  -0.05669  -0.04112  -0.03395  -0.02703
 Alpha virt. eigenvalues --   -0.02484  -0.02008  -0.01561  -0.00594  -0.00122
 Alpha virt. eigenvalues --    0.00003   0.00226   0.00446   0.00645   0.00730

  Beta  occ. eigenvalues --  -38.44532 -38.44322 -38.44118 -38.44117 -38.43767
  Beta  occ. eigenvalues --  -38.43279 -38.43074  -2.20350  -2.20108  -2.19924
  Beta  occ. eigenvalues --   -2.19884  -2.19556  -2.19171  -2.18971  -1.14037
  Beta  occ. eigenvalues --   -1.13999  -1.13983  -1.13796  -1.13776  -1.13736
  Beta  occ. eigenvalues --   -1.13658  -1.13619  -1.13561  -1.13558  -1.13551
  Beta  occ. eigenvalues --   -1.13532  -1.13222  -1.13207  -1.13195  -1.12896
  Beta  occ. eigenvalues --   -1.12829  -1.12781  -1.12675  -1.12647  -1.12586
  Beta  occ. eigenvalues --   -0.17357  -0.13178  -0.11643
  Beta virt. eigenvalues --   -0.06843  -0.06158  -0.05605  -0.03862  -0.02936
  Beta virt. eigenvalues --   -0.02133  -0.01889  -0.01556  -0.01412  -0.00357
  Beta virt. eigenvalues --   -0.00112   0.00066   0.00263   0.00562   0.00713

 Mulliken charges and spin densities:
               1          2
     1  Na  -0.058862   0.021676
     2  Na   0.286646   0.031957
     3  Na  -0.232144   0.240848
     4  Na  -0.450029   0.640552
     5  Na  -0.163495   0.107293
     6  Na   0.551250   0.017243
     7  Na   0.066634  -0.059568
 Sum of Mulliken charges =  -0.00000   1.00000

 Dipole moment (field-independent basis, Debye):
    X=             -0.4950    Y=             -0.0130    Z=              0.4040  Tot=              0.6391
 Quadrupole moment (field-independent basis, Debye-Ang):
   XX=            -52.0922   YY=            -67.4680   ZZ=            -73.2713
   XY=              1.6190   XZ=              0.6989   YZ=             -0.7628

 Normal termination of Gaussian 16 at Tue Dec  5 15:57:06 2023.
