 Gaussian 16, Revision B.01,
 Gaussian 16:  ES64L-G16RevB.01 20-Dec-2017

 -------------------------
 #P B3LYP/6-311+g(d) force
 -------------------------

 -----
 DPGEN
 -----
 Symbolic Z-matrix:
 Charge =  0 Multiplicity = 2

                         Standard orientation:
 ---------------------------------------------------------------------
 Center     Atomic      Atomic             Coordinates (Angstroms)
 Number     Number       Type             X           Y           Z
 ---------------------------------------------------------------------
      1         11           0       -4.251694   -0.370495   -0.334324
      2         11           0        0.808405   -2.808333   -0.785601
      3         11           0        0.678942    3.263909    0.047057
      4         11           0       -2.038764   -2.910519    0.832592
      5         11           0        3.580351    1.736341    0.056645
      6         11           0       -3.341768    2.357963    0.020470
      7         11           0        4.564527   -1.268866    0.163161
 ---------------------------------------------------------------------

 SCF Done:  E(UB3LYP) =  -1136.10685829     A.U. after   21 cycles

 The electronic state is 2-A.
 Alpha  occ. eigenvalues --  -38.45068 -38.44681 -38.44542 -38.44357 -38.44353
 Alpha  occ. eigenvalues --  -38.44246 -38.44236  -2.20822  -2.20529  -2.20356
 Alpha  occ. eigenvalues --   -2.20178  -2.20172  -2.20044  -2.20035  -1.14499
 Alpha  occ. eigenvalues --   -1.14496  -1.14452  -1.14344  -1.14173  -1.14151
 Alpha  occ. eigenvalues --   -1.14002  -1.13986  -1.13953  -1.13928  -1.13852
 Alpha  occ. eigenvalues --   -1.13846  -1.13811  -1.13794  -1.13763  -1.13708
 Alpha  occ. eigenvalues --   -1.13697  -1.13686  -1.13681  -1.13674  -1.13646
 Alpha  occ. eigenvalues --   -0.15723  -0.14395  -0.13117  -0.11105
 Alpha virt. eigenvalues --   -0.07332  -0.04997  -0.04020  -0.03648  -0.03481
 Alpha virt. eigenvalues --   -0.02854  -0.02288  -0.01818  -0.01063  -0.00507
 Alpha virt. eigenvalues --   -0.00400  -0.00230  -0.00069   0.00501   0.00575

  Beta  occ. eigenvalues --  -38.45056 -38.44649 -38.44531 -38.44343 -38.44278
  Beta  occ. eigenvalues --  -38.44227 -38.44156  -2.20804  -2.20473  -2.20340
  Beta  occ. eigenvalues --   -2.20165  -2.20031  -2.20010  -2.19888  -1.14489
  Beta  occ. eigenvalues --   -1.14485  -1.14423  -1.14300  -1.14137  -1.14111
  Beta  occ. eigenvalues --   -1.13994  -1.13977  -1.13914  -1.13859  -1.13847
  Beta  occ. eigenvalues --   -1.13832  -1.13714  -1.13696  -1.13685  -1.13682
  Beta  occ. eigenvalues --   -1.13675  -1.13655  -1.13582  -1.13577  -1.13547
  Beta  occ. eigenvalues --   -0.15225  -0.13602  -0.12355
  Beta virt. eigenvalues --   -0.07907  -0.07489  -0.04602  -0.03522  -0.03427
  Beta virt. eigenvalues --   -0.03097  -0.02631  -0.02111  -0.01634  -0.00913
  Beta virt. eigenvalues --   -0.00165  -0.00141  -0.00019   0.00133   0.00487

 Mulliken charges and spin densities:
               1          2
     1  Na  -0.167480   0.102483
     2  Na  -0.298612   0.052133
     3  Na   0.328082   0.383022
     4  Na  -0.055456   0.076289
     5  Na  -0.088199  -0.012081
     6  Na   0.226550   0.065938
     7  Na   0.055114   0.332216
 Sum of Mulliken charges =  -0.00000   1.00000

 Dipole moment (field-independent basis, Debye):
    X=             -0.4020    Y=             -0.6328    Z=             -0.0253  Tot=              0.7502
 Quadrupole moment (field-independent basis, Debye-Ang):
   XX=            -63.0398   YY=            -67.7021   ZZ=            -71.3542
   XY=             -0.2092   XZ=             -1.0775   YZ=              0.2587

 Normal termination of Gaussian 16 at Mon Dec  4 01:55:32 2023.
