 Gaussian 16, Revision B.01,
 Gaussian 16:  ES64L-G16RevB.01 20-Dec-2017

 -------------------------
 #P B3LYP/6-311+g(d) force
 -------------------------

 -----
 DPGEN
 -----
 Symbolic Z-matrix:
 Charge =  0 Multiplicity = 2

                         Standard orientation:
 ---------------------------------------------------------------------
 Center     Atomic      Atomic             Coordinates (Angstroms)
 Number     Number       Type             X           Y           Z
 ---------------------------------------------------------------------
      1         11           0       -0.239144   -0.291337   -1.198280
      2         11           0        0.268544    0.083310    2.153964
      3         11           0       -1.338073    2.657613   -0.101900
      4         11           0        2.964075   -1.424990   -0.384551
      5         11           0        2.190973    2.346053   -0.294516
      6         11           0       -0.456025   -3.026252    0.065232
      7         11           0       -3.390350   -0.344398   -0.239950
 ---------------------------------------------------------------------

 SCF Done:  E(UB3LYP) =  -1136.13401670     A.U. after   19 cycles

 The electronic state is 2-A.
 Alpha  occ. eigenvalues --  -38.44173 -38.44144 -38.43965 -38.43846 -38.43643
 Alpha  occ. eigenvalues --  -38.43346 -38.42891  -2.19966  -2.19946  -2.19802
 Alpha  occ. eigenvalues --   -2.19646  -2.19480  -2.19215  -2.18924  -1.13645
 Alpha  occ. eigenvalues --   -1.13628  -1.13620  -1.13601  -1.13600  -1.13584
 Alpha  occ. eigenvalues --   -1.13540  -1.13456  -1.13406  -1.13323  -1.13304
 Alpha  occ. eigenvalues --   -1.13290  -1.13175  -1.13147  -1.13098  -1.12890
 Alpha  occ. eigenvalues --   -1.12833  -1.12820  -1.12625  -1.12583  -1.12532
 Alpha  occ. eigenvalues --   -0.18275  -0.12755  -0.12612  -0.10250
 Alpha virt. eigenvalues --   -0.05829  -0.05403  -0.04999  -0.02785  -0.02746
 Alpha virt. eigenvalues --   -0.02225  -0.01758  -0.01366  -0.00759  -0.00635
 Alpha virt. eigenvalues --   -0.00020   0.00293   0.00736   0.00780   0.00820

  Beta  occ. eigenvalues --  -38.44162 -38.44140 -38.43961 -38.43841 -38.43639
  Beta  occ. eigenvalues --  -38.43234 -38.42859  -2.19947  -2.19941  -2.19798
  Beta  occ. eigenvalues --   -2.19638  -2.19475  -2.19008  -2.18867  -1.13622
  Beta  occ. eigenvalues --   -1.13618  -1.13606  -1.13593  -1.13588  -1.13581
  Beta  occ. eigenvalues --   -1.13536  -1.13431  -1.13408  -1.13310  -1.13295
  Beta  occ. eigenvalues --   -1.13283  -1.13171  -1.13126  -1.13097  -1.12754
  Beta  occ. eigenvalues --   -1.12691  -1.12672  -1.12563  -1.12544  -1.12491
  Beta  occ. eigenvalues --   -0.17602  -0.12513  -0.12421
  Beta virt. eigenvalues --   -0.06376  -0.05743  -0.05373  -0.04931  -0.02098
  Beta virt. eigenvalues --   -0.02045  -0.01669  -0.01311  -0.01164  -0.00775
  Beta virt. eigenvalues --   -0.00654   0.00161   0.00363   0.00776   0.00822

 Mulliken charges and spin densities:
               1          2
     1  Na  -0.736892   0.108379
     2  Na  -0.389361   0.690775
     3  Na   0.238663   0.031019
     4  Na   0.164754   0.056808
     5  Na   0.077440   0.035822
     6  Na   0.290331   0.038872
     7  Na   0.355064   0.038326
 Sum of Mulliken charges =  -0.00000   1.00000

 Dipole moment (field-independent basis, Debye):
    X=             -0.0376    Y=             -0.1834    Z=              0.1709  Tot=              0.2535
 Quadrupole moment (field-independent basis, Debye-Ang):
   XX=            -54.8785   YY=            -59.3012   ZZ=            -77.1672
   XY=              0.2558   XZ=             -0.9889   YZ=             -0.7304

 Normal termination of Gaussian 16 at Thu Dec  7 04:35:49 2023.
