 Gaussian 16, Revision B.01,
 Gaussian 16:  ES64L-G16RevB.01 20-Dec-2017

 -------------------------
 #P B3LYP/6-311+g(d) force
 -------------------------

 -----
 DPGEN
 -----
 Symbolic Z-matrix:
 Charge =  0 Multiplicity = 2

                         Standard orientation:
 ---------------------------------------------------------------------
 Center     Atomic      Atomic             Coordinates (Angstroms)
 Number     Number       Type             X           Y           Z
 ---------------------------------------------------------------------
      1         11           0       -3.927693   -0.055081    0.376213
      2         11           0        1.384471   -0.429185   -1.762074
      3         11           0       -1.492827   -1.796812   -0.810707
      4         11           0       -1.337949    1.520512   -0.309038
      5         11           0        0.024033   -0.379180    1.903640
      6         11           0        1.788870    2.437471   -0.058716
      7         11           0        3.561094   -1.297724    0.660683
 ---------------------------------------------------------------------

 SCF Done:  E(UB3LYP) =  -1136.11971339     A.U. after   27 cycles

 The electronic state is 2-A.
 Alpha  occ. eigenvalues --  -38.45488 -38.44893 -38.44544 -38.43648 -38.43446
 Alpha  occ. eigenvalues --  -38.42876 -38.42650  -2.21331  -2.20754  -2.20314
 Alpha  occ. eigenvalues --   -2.19571  -2.19369  -2.18729  -2.18638  -1.15020
 Alpha  occ. eigenvalues --   -1.14984  -1.14959  -1.14463  -1.14393  -1.14349
 Alpha  occ. eigenvalues --   -1.13994  -1.13975  -1.13956  -1.13279  -1.13227
 Alpha  occ. eigenvalues --   -1.13192  -1.13052  -1.13013  -1.12977  -1.12416
 Alpha  occ. eigenvalues --   -1.12396  -1.12372  -1.12347  -1.12303  -1.12234
 Alpha  occ. eigenvalues --   -0.18828  -0.14036  -0.11176  -0.11007
 Alpha virt. eigenvalues --   -0.07343  -0.05016  -0.04286  -0.03091  -0.03024
 Alpha virt. eigenvalues --   -0.02366  -0.02240  -0.01175  -0.00810  -0.00066
 Alpha virt. eigenvalues --    0.00024   0.00234   0.00316   0.00679   0.00773

  Beta  occ. eigenvalues --  -38.45485 -38.44824 -38.44550 -38.43604 -38.43383
  Beta  occ. eigenvalues --  -38.42872 -38.42638  -2.21327  -2.20628  -2.20326
  Beta  occ. eigenvalues --   -2.19495  -2.19257  -2.18722  -2.18621  -1.15017
  Beta  occ. eigenvalues --   -1.14979  -1.14951  -1.14375  -1.14303  -1.14254
  Beta  occ. eigenvalues --   -1.14001  -1.13981  -1.13959  -1.13227  -1.13153
  Beta  occ. eigenvalues --   -1.13130  -1.12973  -1.12926  -1.12898  -1.12414
  Beta  occ. eigenvalues --   -1.12386  -1.12360  -1.12340  -1.12250  -1.12231
  Beta  occ. eigenvalues --   -0.18047  -0.13945  -0.10862
  Beta virt. eigenvalues --   -0.07226  -0.07054  -0.04955  -0.03783  -0.02877
  Beta virt. eigenvalues --   -0.02699  -0.01638  -0.01556  -0.01097  -0.00467
  Beta virt. eigenvalues --   -0.00058   0.00047   0.00240   0.00463   0.00712

 Mulliken charges and spin densities:
               1          2
     1  Na   1.322977   0.061840
     2  Na   0.484603   0.045549
     3  Na  -0.224789   0.170679
     4  Na  -0.913203   0.162935
     5  Na  -0.224731   0.487926
     6  Na  -0.260254   0.070769
     7  Na  -0.184603   0.000301
 Sum of Mulliken charges =  -0.00000   1.00000

 Dipole moment (field-independent basis, Debye):
    X=             -0.8534    Y=             -0.1254    Z=              0.5030  Tot=              0.9985
 Quadrupole moment (field-independent basis, Debye-Ang):
   XX=            -44.7078   YY=            -76.6715   ZZ=            -71.1678
   XY=              1.5700   XZ=             -0.9475   YZ=             -0.2464

 Normal termination of Gaussian 16 at Tue Dec  5 20:49:26 2023.
