 Gaussian 16, Revision B.01,
 Gaussian 16:  ES64L-G16RevB.01 20-Dec-2017

 -------------------------
 #P B3LYP/6-311+g(d) force
 -------------------------

 -----
 DPGEN
 -----
 Symbolic Z-matrix:
 Charge =  0 Multiplicity = 2

                         Standard orientation:
 ---------------------------------------------------------------------
 Center     Atomic      Atomic             Coordinates (Angstroms)
 Number     Number       Type             X           Y           Z
 ---------------------------------------------------------------------
      1         11           0       -1.292232    0.376277    1.745181
      2         11           0        3.345111   -0.411843   -1.486162
      3         11           0        0.158883   -0.583000   -0.903990
      4         11           0       -3.325730   -1.952500   -0.438011
      5         11           0       -2.791846    1.956635   -0.784445
      6         11           0        2.031710   -1.432976    1.419237
      7         11           0        1.874103    2.047407    0.448189
 ---------------------------------------------------------------------

 SCF Done:  E(UB3LYP) =  -1136.11795209     A.U. after   28 cycles

 The electronic state is 2-A.
 Alpha  occ. eigenvalues --  -38.44679 -38.44314 -38.44177 -38.43829 -38.43743
 Alpha  occ. eigenvalues --  -38.43718 -38.43496  -2.20467  -2.20213  -2.20065
 Alpha  occ. eigenvalues --   -2.19730  -2.19622  -2.19589  -2.19339  -1.14154
 Alpha  occ. eigenvalues --   -1.14117  -1.14081  -1.13936  -1.13851  -1.13837
 Alpha  occ. eigenvalues --   -1.13745  -1.13693  -1.13681  -1.13506  -1.13386
 Alpha  occ. eigenvalues --   -1.13346  -1.13300  -1.13275  -1.13260  -1.13251
 Alpha  occ. eigenvalues --   -1.13230  -1.13209  -1.13023  -1.13005  -1.12959
 Alpha  occ. eigenvalues --   -0.18514  -0.14227  -0.11125  -0.10501
 Alpha virt. eigenvalues --   -0.06136  -0.06088  -0.04961  -0.02901  -0.02454
 Alpha virt. eigenvalues --   -0.02262  -0.02123  -0.01202  -0.01082  -0.00246
 Alpha virt. eigenvalues --    0.00164   0.00226   0.00323   0.00345   0.00517

  Beta  occ. eigenvalues --  -38.44658 -38.44263 -38.44126 -38.43840 -38.43723
  Beta  occ. eigenvalues --  -38.43679 -38.43480  -2.20426  -2.20122  -2.19970
  Beta  occ. eigenvalues --   -2.19701  -2.19612  -2.19552  -2.19312  -1.14124
  Beta  occ. eigenvalues --   -1.14091  -1.14052  -1.13877  -1.13786  -1.13751
  Beta  occ. eigenvalues --   -1.13676  -1.13629  -1.13614  -1.13447  -1.13356
  Beta  occ. eigenvalues --   -1.13330  -1.13289  -1.13263  -1.13257  -1.13242
  Beta  occ. eigenvalues --   -1.13185  -1.13167  -1.13007  -1.12971  -1.12933
  Beta  occ. eigenvalues --   -0.17734  -0.13969  -0.10388
  Beta virt. eigenvalues --   -0.07268  -0.05938  -0.05882  -0.04392  -0.02718
  Beta virt. eigenvalues --   -0.02283  -0.01692  -0.01489  -0.01135  -0.00628
  Beta virt. eigenvalues --   -0.00125   0.00226   0.00262   0.00397   0.00487

 Mulliken charges and spin densities:
               1          2
     1  Na   0.500340   0.160214
     2  Na   0.709460   0.195764
     3  Na  -1.411533   0.179134
     4  Na   0.250268  -0.025342
     5  Na   0.018215   0.100873
     6  Na   0.059635   0.249356
     7  Na  -0.126385   0.140001
 Sum of Mulliken charges =  -0.00000   1.00000

 Dipole moment (field-independent basis, Debye):
    X=              0.2247    Y=              0.3428    Z=              0.1299  Tot=              0.4300
 Quadrupole moment (field-independent basis, Debye-Ang):
   XX=            -51.3207   YY=            -74.7523   ZZ=            -67.2625
   XY=             -2.1129   XZ=              1.1119   YZ=             -3.9604

 Normal termination of Gaussian 16 at Tue Dec  5 18:34:52 2023.
