 Gaussian 16, Revision B.01,
 Gaussian 16:  ES64L-G16RevB.01 20-Dec-2017

 -------------------------
 #P B3LYP/6-311+g(d) force
 -------------------------

 -----
 DPGEN
 -----
 Symbolic Z-matrix:
 Charge =  0 Multiplicity = 2

                         Standard orientation:
 ---------------------------------------------------------------------
 Center     Atomic      Atomic             Coordinates (Angstroms)
 Number     Number       Type             X           Y           Z
 ---------------------------------------------------------------------
      1         11           0        2.648484    2.194063   -0.088497
      2         11           0       -1.583275    2.429116   -0.187799
      3         11           0       -3.469919   -0.410656   -0.034534
      4         11           0        2.869519   -1.437258    0.121478
      5         11           0        0.056359   -0.330148   -1.779385
      6         11           0       -0.218121    0.140561    1.949142
      7         11           0       -0.303047   -2.585678    0.019595
 ---------------------------------------------------------------------

 SCF Done:  E(UB3LYP) =  -1136.13056775     A.U. after   21 cycles

 The electronic state is 2-A.
 Alpha  occ. eigenvalues --  -38.44829 -38.44293 -38.43943 -38.43663 -38.43592
 Alpha  occ. eigenvalues --  -38.43569 -38.42882  -2.20619  -2.20115  -2.19701
 Alpha  occ. eigenvalues --   -2.19514  -2.19493  -2.19485  -2.18815  -1.14290
 Alpha  occ. eigenvalues --   -1.14279  -1.14260  -1.13789  -1.13778  -1.13755
 Alpha  occ. eigenvalues --   -1.13378  -1.13360  -1.13346  -1.13271  -1.13206
 Alpha  occ. eigenvalues --   -1.13181  -1.13159  -1.13140  -1.13116  -1.13108
 Alpha  occ. eigenvalues --   -1.13102  -1.13086  -1.12518  -1.12470  -1.12408
 Alpha  occ. eigenvalues --   -0.18436  -0.13221  -0.11979  -0.10586
 Alpha virt. eigenvalues --   -0.06249  -0.05542  -0.04194  -0.03270  -0.02696
 Alpha virt. eigenvalues --   -0.02453  -0.02081  -0.01268  -0.00510  -0.00249
 Alpha virt. eigenvalues --   -0.00063   0.00301   0.00689   0.00813   0.00834

  Beta  occ. eigenvalues --  -38.44828 -38.44291 -38.43946 -38.43655 -38.43504
  Beta  occ. eigenvalues --  -38.43495 -38.42870  -2.20620  -2.20114  -2.19708
  Beta  occ. eigenvalues --   -2.19483  -2.19379  -2.19322  -2.18799  -1.14285
  Beta  occ. eigenvalues --   -1.14269  -1.14262  -1.13781  -1.13767  -1.13759
  Beta  occ. eigenvalues --   -1.13371  -1.13367  -1.13352  -1.13185  -1.13180
  Beta  occ. eigenvalues --   -1.13141  -1.13112  -1.13062  -1.13045  -1.13005
  Beta  occ. eigenvalues --   -1.12999  -1.12972  -1.12503  -1.12417  -1.12403
  Beta  occ. eigenvalues --   -0.17684  -0.13039  -0.11752
  Beta virt. eigenvalues --   -0.06668  -0.06180  -0.05551  -0.04164  -0.02514
  Beta virt. eigenvalues --   -0.01990  -0.01926  -0.01441  -0.01191  -0.00557
  Beta virt. eigenvalues --   -0.00284   0.00092   0.00324   0.00752   0.00809

 Mulliken charges and spin densities:
               1          2
     1  Na  -0.124042  -0.135786
     2  Na  -0.063752  -0.141863
     3  Na   0.217873  -0.047760
     4  Na   0.123717  -0.072419
     5  Na  -0.201916   0.706346
     6  Na  -0.304351   0.749624
     7  Na   0.352470  -0.058142
 Sum of Mulliken charges =  -0.00000   1.00000

 Dipole moment (field-independent basis, Debye):
    X=             -0.2787    Y=             -0.0189    Z=              0.0778  Tot=              0.2900
 Quadrupole moment (field-independent basis, Debye-Ang):
   XX=            -50.8062   YY=            -66.4017   ZZ=            -75.3291
   XY=             -0.0671   XZ=              0.5919   YZ=             -1.1725

 Normal termination of Gaussian 16 at Thu Dec  7 17:52:19 2023.
