 Gaussian 16, Revision B.01,
 Gaussian 16:  ES64L-G16RevB.01 20-Dec-2017

 -------------------------
 #P B3LYP/6-311+g(d) force
 -------------------------

 -----
 DPGEN
 -----
 Symbolic Z-matrix:
 Charge =  0 Multiplicity = 2

                         Standard orientation:
 ---------------------------------------------------------------------
 Center     Atomic      Atomic             Coordinates (Angstroms)
 Number     Number       Type             X           Y           Z
 ---------------------------------------------------------------------
      1         11           0        0.512011   -1.006227    2.218327
      2         11           0        3.248058   -2.139690    0.121298
      3         11           0       -0.152489   -1.172733   -1.389413
      4         11           0        0.508968    2.775686    0.588791
      5         11           0       -3.953964   -0.713600   -1.364380
      6         11           0        2.708411    1.708158   -1.422622
      7         11           0       -2.870995    0.548406    1.247999
 ---------------------------------------------------------------------

 SCF Done:  E(UB3LYP) =  -1136.11940273     A.U. after   21 cycles

 The electronic state is 2-A.
 Alpha  occ. eigenvalues --  -38.45283 -38.44575 -38.44501 -38.44426 -38.44114
 Alpha  occ. eigenvalues --  -38.43719 -38.42930  -2.21051  -2.20388  -2.20321
 Alpha  occ. eigenvalues --   -2.20246  -2.19878  -2.19530  -2.18729  -1.14755
 Alpha  occ. eigenvalues --   -1.14726  -1.14646  -1.14063  -1.14055  -1.14041
 Alpha  occ. eigenvalues --   -1.13991  -1.13981  -1.13972  -1.13889  -1.13881
 Alpha  occ. eigenvalues --   -1.13842  -1.13556  -1.13543  -1.13509  -1.13195
 Alpha  occ. eigenvalues --   -1.13194  -1.13157  -1.12404  -1.12398  -1.12373
 Alpha  occ. eigenvalues --   -0.17220  -0.13569  -0.11540  -0.11372
 Alpha virt. eigenvalues --   -0.06622  -0.05360  -0.04912  -0.03237  -0.03016
 Alpha virt. eigenvalues --   -0.02715  -0.02469  -0.01237  -0.00913  -0.00202
 Alpha virt. eigenvalues --   -0.00002   0.00108   0.00180   0.00274   0.00586

  Beta  occ. eigenvalues --  -38.45255 -38.44495 -38.44485 -38.44394 -38.44118
  Beta  occ. eigenvalues --  -38.43690 -38.42932  -2.20999  -2.20296  -2.20241
  Beta  occ. eigenvalues --   -2.20186  -2.19886  -2.19475  -2.18735  -1.14712
  Beta  occ. eigenvalues --   -1.14689  -1.14607  -1.14022  -1.13973  -1.13966
  Beta  occ. eigenvalues --   -1.13952  -1.13944  -1.13866  -1.13848  -1.13834
  Beta  occ. eigenvalues --   -1.13806  -1.13562  -1.13539  -1.13516  -1.13163
  Beta  occ. eigenvalues --   -1.13155  -1.13118  -1.12410  -1.12402  -1.12360
  Beta  occ. eigenvalues --   -0.16487  -0.13315  -0.11305
  Beta virt. eigenvalues --   -0.07842  -0.06435  -0.04740  -0.04430  -0.03098
  Beta virt. eigenvalues --   -0.02409  -0.02344  -0.02268  -0.00997  -0.00696
  Beta virt. eigenvalues --   -0.00064   0.00075   0.00214   0.00359   0.00402

 Mulliken charges and spin densities:
               1          2
     1  Na  -0.082391   0.448591
     2  Na   0.511765  -0.009976
     3  Na  -0.664403   0.258805
     4  Na  -0.250009   0.036498
     5  Na   0.168824   0.197770
     6  Na   0.206949   0.102631
     7  Na   0.109266  -0.034319
 Sum of Mulliken charges =  -0.00000   1.00000

 Dipole moment (field-independent basis, Debye):
    X=             -0.3761    Y=             -0.7947    Z=             -0.1775  Tot=              0.8970
 Quadrupole moment (field-independent basis, Debye-Ang):
   XX=            -54.0820   YY=            -77.8070   ZZ=            -65.8033
   XY=             -3.2033   XZ=             -0.8156   YZ=              2.7924

 Normal termination of Gaussian 16 at Mon Dec  4 02:49:17 2023.
