 Gaussian 16, Revision B.01,
 Gaussian 16:  ES64L-G16RevB.01 20-Dec-2017

 -------------------------
 #P B3LYP/6-311+g(d) force
 -------------------------

 -----
 DPGEN
 -----
 Symbolic Z-matrix:
 Charge =  0 Multiplicity = 2

                         Standard orientation:
 ---------------------------------------------------------------------
 Center     Atomic      Atomic             Coordinates (Angstroms)
 Number     Number       Type             X           Y           Z
 ---------------------------------------------------------------------
      1         11           0        0.250460   -1.944169   -1.216667
      2         11           0        3.128977   -1.659651    0.450299
      3         11           0        0.160796    3.344588    0.457438
      4         11           0       -3.397779   -1.719288    0.436021
      5         11           0        2.257932    0.896258   -0.993313
      6         11           0       -2.336844    1.167698   -1.144403
      7         11           0       -0.063541   -0.085436    2.010626
 ---------------------------------------------------------------------

 SCF Done:  E(UB3LYP) =  -1136.12967439     A.U. after   19 cycles

 The electronic state is 2-A.
 Alpha  occ. eigenvalues --  -38.44325 -38.44274 -38.44226 -38.44201 -38.43975
 Alpha  occ. eigenvalues --  -38.43765 -38.42941  -2.20182  -2.20069  -2.20038
 Alpha  occ. eigenvalues --   -2.19996  -2.19856  -2.19600  -2.18740  -1.13908
 Alpha  occ. eigenvalues --   -1.13844  -1.13818  -1.13756  -1.13745  -1.13736
 Alpha  occ. eigenvalues --   -1.13714  -1.13700  -1.13663  -1.13655  -1.13628
 Alpha  occ. eigenvalues --   -1.13619  -1.13536  -1.13518  -1.13457  -1.13271
 Alpha  occ. eigenvalues --   -1.13226  -1.13217  -1.12409  -1.12402  -1.12389
 Alpha  occ. eigenvalues --   -0.17847  -0.13379  -0.12002  -0.10497
 Alpha virt. eigenvalues --   -0.06112  -0.05552  -0.04708  -0.03532  -0.02837
 Alpha virt. eigenvalues --   -0.02521  -0.01940  -0.01259  -0.00526  -0.00488
 Alpha virt. eigenvalues --    0.00077   0.00297   0.00605   0.00639   0.00721

  Beta  occ. eigenvalues --  -38.44324 -38.44251 -38.44229 -38.44174 -38.43954
  Beta  occ. eigenvalues --  -38.43667 -38.42941  -2.20183  -2.20026  -2.20003
  Beta  occ. eigenvalues --   -2.19991  -2.19818  -2.19421  -2.18743  -1.13908
  Beta  occ. eigenvalues --   -1.13844  -1.13795  -1.13720  -1.13716  -1.13708
  Beta  occ. eigenvalues --   -1.13684  -1.13662  -1.13660  -1.13648  -1.13620
  Beta  occ. eigenvalues --   -1.13593  -1.13506  -1.13486  -1.13429  -1.13150
  Beta  occ. eigenvalues --   -1.13099  -1.13089  -1.12412  -1.12394  -1.12388
  Beta  occ. eigenvalues --   -0.17146  -0.13197  -0.11866
  Beta virt. eigenvalues --   -0.06708  -0.05976  -0.05382  -0.04624  -0.02917
  Beta virt. eigenvalues --   -0.02241  -0.01865  -0.01574  -0.01137  -0.00561
  Beta virt. eigenvalues --   -0.00266   0.00171   0.00354   0.00706   0.00738

 Mulliken charges and spin densities:
               1          2
     1  Na  -0.214093   0.185096
     2  Na   0.700468  -0.038358
     3  Na   0.314938  -0.067094
     4  Na   0.273975  -0.078959
     5  Na  -0.251949   0.148783
     6  Na  -0.196470   0.101020
     7  Na  -0.626869   0.749512
 Sum of Mulliken charges =  -0.00000   1.00000

 Dipole moment (field-independent basis, Debye):
    X=              0.0906    Y=             -0.7167    Z=             -0.0313  Tot=              0.7231
 Quadrupole moment (field-independent basis, Debye-Ang):
   XX=            -55.2831   YY=            -65.6335   ZZ=            -73.3812
   XY=             -0.7284   XZ=              0.7033   YZ=             -1.2788

 Normal termination of Gaussian 16 at Thu Dec  7 08:43:05 2023.
