 Gaussian 16, Revision B.01,
 Gaussian 16:  ES64L-G16RevB.01 20-Dec-2017

 -------------------------
 #P B3LYP/6-311+g(d) force
 -------------------------

 -----
 DPGEN
 -----
 Symbolic Z-matrix:
 Charge =  0 Multiplicity = 2

                         Standard orientation:
 ---------------------------------------------------------------------
 Center     Atomic      Atomic             Coordinates (Angstroms)
 Number     Number       Type             X           Y           Z
 ---------------------------------------------------------------------
      1         11           0        0.139156    2.879806   -0.017108
      2         11           0       -2.517383   -2.033294   -0.453899
      3         11           0       -0.159816   -0.673235    2.082734
      4         11           0        2.088142   -2.190892   -0.060683
      5         11           0        2.956473    0.854697   -0.091929
      6         11           0        0.086338   -0.210347   -1.564713
      7         11           0       -2.592910    1.373265    0.105598
 ---------------------------------------------------------------------

 SCF Done:  E(UB3LYP) =  -1136.13491473     A.U. after   19 cycles

 The electronic state is 2-A.
 Alpha  occ. eigenvalues --  -38.44103 -38.43900 -38.43867 -38.43862 -38.43651
 Alpha  occ. eigenvalues --  -38.43200 -38.42914  -2.19966  -2.19745  -2.19742
 Alpha  occ. eigenvalues --   -2.19726  -2.19519  -2.19191  -2.18783  -1.13662
 Alpha  occ. eigenvalues --   -1.13627  -1.13620  -1.13437  -1.13434  -1.13421
 Alpha  occ. eigenvalues --   -1.13403  -1.13400  -1.13397  -1.13370  -1.13366
 Alpha  occ. eigenvalues --   -1.13344  -1.13180  -1.13146  -1.13135  -1.12875
 Alpha  occ. eigenvalues --   -1.12837  -1.12811  -1.12461  -1.12435  -1.12432
 Alpha  occ. eigenvalues --   -0.18712  -0.13439  -0.12327  -0.10715
 Alpha virt. eigenvalues --   -0.05717  -0.05511  -0.04448  -0.03358  -0.02826
 Alpha virt. eigenvalues --   -0.02457  -0.01619  -0.01178  -0.00451  -0.00187
 Alpha virt. eigenvalues --   -0.00016   0.00345   0.00751   0.00836   0.00895

  Beta  occ. eigenvalues --  -38.44099 -38.43890 -38.43862 -38.43856 -38.43555
  Beta  occ. eigenvalues --  -38.43140 -38.42912  -2.19963  -2.19738  -2.19736
  Beta  occ. eigenvalues --   -2.19709  -2.19342  -2.19083  -2.18783  -1.13662
  Beta  occ. eigenvalues --   -1.13623  -1.13602  -1.13436  -1.13427  -1.13414
  Beta  occ. eigenvalues --   -1.13377  -1.13374  -1.13371  -1.13360  -1.13349
  Beta  occ. eigenvalues --   -1.13339  -1.13064  -1.13020  -1.13011  -1.12798
  Beta  occ. eigenvalues --   -1.12761  -1.12729  -1.12463  -1.12437  -1.12414
  Beta  occ. eigenvalues --   -0.18009  -0.13205  -0.12096
  Beta virt. eigenvalues --   -0.06802  -0.05690  -0.05454  -0.04395  -0.02563
  Beta virt. eigenvalues --   -0.02071  -0.01515  -0.01443  -0.01101  -0.00512
  Beta virt. eigenvalues --   -0.00208   0.00152   0.00384   0.00819   0.00848

 Mulliken charges and spin densities:
               1          2
     1  Na  -0.083325  -0.001730
     2  Na   0.286535   0.005055
     3  Na  -0.556581   0.599931
     4  Na   0.469388   0.018023
     5  Na   0.078709   0.061049
     6  Na  -0.350107   0.235397
     7  Na   0.155381   0.082276
 Sum of Mulliken charges =  -0.00000   1.00000

 Dipole moment (field-independent basis, Debye):
    X=              0.0713    Y=             -0.3970    Z=              0.1470  Tot=              0.4293
 Quadrupole moment (field-independent basis, Debye-Ang):
   XX=            -55.4937   YY=            -64.0371   ZZ=            -74.6664
   XY=              0.6308   XZ=              0.2973   YZ=              1.0383

 Normal termination of Gaussian 16 at Thu Dec  7 09:29:56 2023.
