 Gaussian 16, Revision B.01,
 Gaussian 16:  ES64L-G16RevB.01 20-Dec-2017

 -------------------------
 #P B3LYP/6-311+g(d) force
 -------------------------

 -----
 DPGEN
 -----
 Symbolic Z-matrix:
 Charge =  0 Multiplicity = 2

                         Standard orientation:
 ---------------------------------------------------------------------
 Center     Atomic      Atomic             Coordinates (Angstroms)
 Number     Number       Type             X           Y           Z
 ---------------------------------------------------------------------
      1         11           0        3.601816   -1.110132   -0.470769
      2         11           0       -1.906831    1.212609    1.062443
      3         11           0        0.205927   -1.582024   -0.897095
      4         11           0       -1.315436    1.346855   -1.859581
      5         11           0        1.669460    1.894711   -0.196813
      6         11           0        0.921151   -0.085730    2.267381
      7         11           0       -3.176086   -1.676289    0.094434
 ---------------------------------------------------------------------

 SCF Done:  E(UB3LYP) =  -1136.12641506     A.U. after   22 cycles

 The electronic state is 2-A.
 Alpha  occ. eigenvalues --  -38.44654 -38.44295 -38.44007 -38.43694 -38.43641
 Alpha  occ. eigenvalues --  -38.43331 -38.43278  -2.20538  -2.20092  -2.19921
 Alpha  occ. eigenvalues --   -2.19581  -2.19507  -2.19206  -2.19156  -1.14215
 Alpha  occ. eigenvalues --   -1.14176  -1.14138  -1.13763  -1.13755  -1.13723
 Alpha  occ. eigenvalues --   -1.13656  -1.13591  -1.13497  -1.13268  -1.13250
 Alpha  occ. eigenvalues --   -1.13219  -1.13161  -1.13157  -1.13121  -1.12914
 Alpha  occ. eigenvalues --   -1.12899  -1.12851  -1.12839  -1.12795  -1.12759
 Alpha  occ. eigenvalues --   -0.18718  -0.13614  -0.11780  -0.11200
 Alpha virt. eigenvalues --   -0.06299  -0.05158  -0.04417  -0.03374  -0.02717
 Alpha virt. eigenvalues --   -0.02703  -0.02036  -0.01103  -0.00528   0.00034
 Alpha virt. eigenvalues --    0.00214   0.00314   0.00334   0.00711   0.00775

  Beta  occ. eigenvalues --  -38.44566 -38.44292 -38.43944 -38.43694 -38.43619
  Beta  occ. eigenvalues --  -38.43312 -38.43269  -2.20377  -2.20086  -2.19803
  Beta  occ. eigenvalues --   -2.19545  -2.19507  -2.19175  -2.19144  -1.14110
  Beta  occ. eigenvalues --   -1.14065  -1.14016  -1.13755  -1.13749  -1.13721
  Beta  occ. eigenvalues --   -1.13588  -1.13503  -1.13414  -1.13237  -1.13214
  Beta  occ. eigenvalues --   -1.13188  -1.13161  -1.13148  -1.13112  -1.12886
  Beta  occ. eigenvalues --   -1.12861  -1.12840  -1.12804  -1.12777  -1.12756
  Beta  occ. eigenvalues --   -0.17926  -0.13460  -0.10989
  Beta virt. eigenvalues --   -0.07756  -0.06086  -0.05118  -0.03704  -0.02991
  Beta virt. eigenvalues --   -0.02165  -0.02030  -0.01883  -0.01040  -0.00198
  Beta virt. eigenvalues --    0.00056   0.00257   0.00332   0.00594   0.00758

 Mulliken charges and spin densities:
               1          2
     1  Na   0.392688  -0.178165
     2  Na   0.466860   0.244731
     3  Na  -0.580400   0.343099
     4  Na   0.210794   0.137468
     5  Na  -0.246497   0.304559
     6  Na  -0.066307   0.241862
     7  Na  -0.177137  -0.093553
 Sum of Mulliken charges =  -0.00000   1.00000

 Dipole moment (field-independent basis, Debye):
    X=              0.4807    Y=              0.1119    Z=              0.1481  Tot=              0.5153
 Quadrupole moment (field-independent basis, Debye-Ang):
   XX=            -52.8735   YY=            -75.7021   ZZ=            -66.4020
   XY=             -0.0159   XZ=             -0.4368   YZ=             -2.0557

 Normal termination of Gaussian 16 at Mon Dec  4 04:49:39 2023.
