 Gaussian 16, Revision B.01,
 Gaussian 16:  ES64L-G16RevB.01 20-Dec-2017

 -------------------------
 #P B3LYP/6-311+g(d) force
 -------------------------

 -----
 DPGEN
 -----
 Symbolic Z-matrix:
 Charge =  0 Multiplicity = 2

                         Standard orientation:
 ---------------------------------------------------------------------
 Center     Atomic      Atomic             Coordinates (Angstroms)
 Number     Number       Type             X           Y           Z
 ---------------------------------------------------------------------
      1         11           0       -0.192476    0.115806   -1.471309
      2         11           0        1.033583   -2.419752    0.090474
      3         11           0        1.286756    2.390439    0.191204
      4         11           0       -2.272076    2.110150   -0.175554
      5         11           0       -0.401906   -0.017988    1.719315
      6         11           0       -3.018324   -1.822984   -0.141531
      7         11           0        3.564442   -0.355671   -0.212598
 ---------------------------------------------------------------------

 SCF Done:  E(UB3LYP) =  -1136.12985075     A.U. after   22 cycles

 The electronic state is 2-A.
 Alpha  occ. eigenvalues --  -38.44542 -38.44460 -38.43977 -38.43426 -38.43274
 Alpha  occ. eigenvalues --  -38.43161 -38.42792  -2.20345  -2.20232  -2.19840
 Alpha  occ. eigenvalues --   -2.19314  -2.19190  -2.19163  -2.18789  -1.14019
 Alpha  occ. eigenvalues --   -1.14006  -1.13983  -1.13910  -1.13887  -1.13869
 Alpha  occ. eigenvalues --   -1.13545  -1.13507  -1.13452  -1.13058  -1.12997
 Alpha  occ. eigenvalues --   -1.12952  -1.12915  -1.12866  -1.12842  -1.12809
 Alpha  occ. eigenvalues --   -1.12766  -1.12756  -1.12481  -1.12409  -1.12380
 Alpha  occ. eigenvalues --   -0.18830  -0.13279  -0.12285  -0.10138
 Alpha virt. eigenvalues --   -0.06280  -0.05611  -0.04173  -0.02971  -0.02536
 Alpha virt. eigenvalues --   -0.02162  -0.01892  -0.01522  -0.00503  -0.00133
 Alpha virt. eigenvalues --   -0.00018   0.00246   0.00688   0.00788   0.00862

  Beta  occ. eigenvalues --  -38.44540 -38.44458 -38.43968 -38.43415 -38.43264
  Beta  occ. eigenvalues --  -38.43106 -38.42702  -2.20343  -2.20231  -2.19826
  Beta  occ. eigenvalues --   -2.19300  -2.19149  -2.19090  -2.18626  -1.14020
  Beta  occ. eigenvalues --   -1.13992  -1.13982  -1.13899  -1.13882  -1.13869
  Beta  occ. eigenvalues --   -1.13533  -1.13476  -1.13442  -1.13044  -1.12952
  Beta  occ. eigenvalues --   -1.12915  -1.12908  -1.12807  -1.12800  -1.12765
  Beta  occ. eigenvalues --   -1.12737  -1.12695  -1.12372  -1.12293  -1.12260
  Beta  occ. eigenvalues --   -0.18122  -0.13043  -0.12026
  Beta virt. eigenvalues --   -0.06355  -0.06112  -0.05588  -0.04174  -0.02303
  Beta virt. eigenvalues --   -0.02059  -0.01758  -0.01488  -0.00904  -0.00522
  Beta virt. eigenvalues --   -0.00159   0.00133   0.00296   0.00736   0.00797

 Mulliken charges and spin densities:
               1          2
     1  Na  -0.734411   0.644340
     2  Na   0.341484  -0.055800
     3  Na   0.354716   0.020083
     4  Na   0.276024  -0.054852
     5  Na  -0.266826   0.549421
     6  Na   0.075965  -0.103201
     7  Na  -0.046954   0.000009
 Sum of Mulliken charges =  -0.00000   1.00000

 Dipole moment (field-independent basis, Debye):
    X=             -0.1999    Y=             -0.0182    Z=              0.0851  Tot=              0.2180
 Quadrupole moment (field-independent basis, Debye-Ang):
   XX=            -48.3326   YY=            -63.9854   ZZ=            -77.4930
   XY=              0.6130   XZ=              0.0719   YZ=              0.4626

 Normal termination of Gaussian 16 at Fri Dec  8 03:14:06 2023.
