 Gaussian 16, Revision B.01,
 Gaussian 16:  ES64L-G16RevB.01 20-Dec-2017

 -------------------------
 #P B3LYP/6-311+g(d) force
 -------------------------

 -----
 DPGEN
 -----
 Symbolic Z-matrix:
 Charge =  0 Multiplicity = 2

                         Standard orientation:
 ---------------------------------------------------------------------
 Center     Atomic      Atomic             Coordinates (Angstroms)
 Number     Number       Type             X           Y           Z
 ---------------------------------------------------------------------
      1         11           0       -5.421989   -1.525005   -0.330562
      2         11           0        1.252244    0.834315   -0.664737
      3         11           0        7.322270   -1.109128   -0.417644
      4         11           0        4.422558   -0.451173    0.869738
      5         11           0       -1.040865    3.979869    0.019426
      6         11           0       -3.395989    1.861276    0.327035
      7         11           0       -3.138230   -3.590153    0.196744
 ---------------------------------------------------------------------

 SCF Done:  E(UB3LYP) =  -1136.10642119     A.U. after   18 cycles

 The electronic state is 2-A.
 Alpha  occ. eigenvalues --  -38.45380 -38.44683 -38.44606 -38.44592 -38.44500
 Alpha  occ. eigenvalues --  -38.44023 -38.43441  -2.21157  -2.20474  -2.20386
 Alpha  occ. eigenvalues --   -2.20381  -2.20280  -2.19820  -2.19217  -1.14819
 Alpha  occ. eigenvalues --   -1.14812  -1.14805  -1.14137  -1.14129  -1.14125
 Alpha  occ. eigenvalues --   -1.14065  -1.14055  -1.14042  -1.14038  -1.14036
 Alpha  occ. eigenvalues --   -1.13971  -1.13949  -1.13924  -1.13900  -1.13461
 Alpha  occ. eigenvalues --   -1.13460  -1.13457  -1.12900  -1.12893  -1.12868
 Alpha  occ. eigenvalues --   -0.15228  -0.13826  -0.12899  -0.10815
 Alpha virt. eigenvalues --   -0.07111  -0.05313  -0.04886  -0.03414  -0.02910
 Alpha virt. eigenvalues --   -0.02371  -0.02192  -0.02025  -0.01723  -0.01050
 Alpha virt. eigenvalues --   -0.00838  -0.00617  -0.00030   0.00224   0.00376

  Beta  occ. eigenvalues --  -38.45363 -38.44686 -38.44548 -38.44512 -38.44512
  Beta  occ. eigenvalues --  -38.43950 -38.43453  -2.21125  -2.20481  -2.20306
  Beta  occ. eigenvalues --   -2.20302  -2.20205  -2.19684  -2.19246  -1.14799
  Beta  occ. eigenvalues --   -1.14790  -1.14784  -1.14142  -1.14131  -1.14123
  Beta  occ. eigenvalues --   -1.14038  -1.14000  -1.13979  -1.13967  -1.13934
  Beta  occ. eigenvalues --   -1.13921  -1.13915  -1.13885  -1.13853  -1.13371
  Beta  occ. eigenvalues --   -1.13368  -1.13366  -1.12926  -1.12918  -1.12841
  Beta  occ. eigenvalues --   -0.14775  -0.13330  -0.12465
  Beta virt. eigenvalues --   -0.07655  -0.06493  -0.05115  -0.04465  -0.03261
  Beta virt. eigenvalues --   -0.02632  -0.02183  -0.02074  -0.01983  -0.01528
  Beta virt. eigenvalues --   -0.00710  -0.00386  -0.00270   0.00078   0.00346

 Mulliken charges and spin densities:
               1          2
     1  Na   0.033577  -0.034848
     2  Na  -0.590469   0.397488
     3  Na   0.361977   0.320186
     4  Na  -0.189928  -0.002737
     5  Na   0.406650  -0.039235
     6  Na  -0.089925   0.259630
     7  Na   0.068119   0.099517
 Sum of Mulliken charges =  -0.00000   1.00000

 Dipole moment (field-independent basis, Debye):
    X=             -1.9611    Y=             -0.3876    Z=             -0.2565  Tot=              2.0154
 Quadrupole moment (field-independent basis, Debye-Ang):
   XX=            -65.1433   YY=            -60.5542   ZZ=            -72.9921
   XY=              1.7708   XZ=             -1.9793   YZ=             -0.6795

 Normal termination of Gaussian 16 at Mon Dec  4 05:45:30 2023.
