 Gaussian 16, Revision B.01,
 Gaussian 16:  ES64L-G16RevB.01 20-Dec-2017

 -------------------------
 #P B3LYP/6-311+g(d) force
 -------------------------

 -----
 DPGEN
 -----
 Symbolic Z-matrix:
 Charge =  0 Multiplicity = 2

                         Standard orientation:
 ---------------------------------------------------------------------
 Center     Atomic      Atomic             Coordinates (Angstroms)
 Number     Number       Type             X           Y           Z
 ---------------------------------------------------------------------
      1         11           0       -4.120010   -0.393561    0.772219
      2         11           0       -2.680760    2.946749   -0.143187
      3         11           0       -0.332300   -0.120044   -0.566835
      4         11           0        1.842363    2.028391   -0.323892
      5         11           0        4.614868    0.058263    1.105218
      6         11           0       -1.809722   -3.135179   -0.047090
      7         11           0        2.485561   -1.384619   -0.796433
 ---------------------------------------------------------------------

 SCF Done:  E(UB3LYP) =  -1136.11792199     A.U. after   22 cycles

 The electronic state is 2-A.
 Alpha  occ. eigenvalues --  -38.44793 -38.44741 -38.44583 -38.44539 -38.43820
 Alpha  occ. eigenvalues --  -38.43470 -38.43222  -2.20673  -2.20588  -2.20386
 Alpha  occ. eigenvalues --   -2.20360  -2.19559  -2.19250  -2.19199  -1.14400
 Alpha  occ. eigenvalues --   -1.14353  -1.14322  -1.14290  -1.14259  -1.14164
 Alpha  occ. eigenvalues --   -1.14038  -1.14030  -1.14018  -1.14001  -1.13985
 Alpha  occ. eigenvalues --   -1.13973  -1.13247  -1.13218  -1.13205  -1.12940
 Alpha  occ. eigenvalues --   -1.12927  -1.12890  -1.12886  -1.12858  -1.12802
 Alpha  occ. eigenvalues --   -0.17436  -0.14295  -0.11510  -0.11072
 Alpha virt. eigenvalues --   -0.06592  -0.05523  -0.04404  -0.03902  -0.02818
 Alpha virt. eigenvalues --   -0.02235  -0.01993  -0.01423  -0.01009  -0.00776
 Alpha virt. eigenvalues --   -0.00219   0.00134   0.00241   0.00354   0.00607

  Beta  occ. eigenvalues --  -38.44775 -38.44715 -38.44531 -38.44443 -38.43832
  Beta  occ. eigenvalues --  -38.43479 -38.43166  -2.20649  -2.20545  -2.20262
  Beta  occ. eigenvalues --   -2.20206  -2.19583  -2.19266  -2.19103  -1.14352
  Beta  occ. eigenvalues --   -1.14326  -1.14277  -1.14260  -1.14225  -1.14137
  Beta  occ. eigenvalues --   -1.13971  -1.13938  -1.13907  -1.13906  -1.13895
  Beta  occ. eigenvalues --   -1.13872  -1.13265  -1.13235  -1.13210  -1.12943
  Beta  occ. eigenvalues --   -1.12940  -1.12890  -1.12828  -1.12776  -1.12733
  Beta  occ. eigenvalues --   -0.16690  -0.13687  -0.11383
  Beta virt. eigenvalues --   -0.07541  -0.06365  -0.04952  -0.04299  -0.03539
  Beta virt. eigenvalues --   -0.02324  -0.01933  -0.01597  -0.01091  -0.00926
  Beta virt. eigenvalues --   -0.00742   0.00095   0.00345   0.00373   0.00495

 Mulliken charges and spin densities:
               1          2
     1  Na   0.467187   0.316520
     2  Na   0.555515  -0.025431
     3  Na  -2.413095   0.176149
     4  Na  -0.182384   0.028834
     5  Na   0.664383   0.511753
     6  Na   0.831474  -0.055299
     7  Na   0.076919   0.047474
 Sum of Mulliken charges =  -0.00000   1.00000

 Dipole moment (field-independent basis, Debye):
    X=              0.7659    Y=              0.0915    Z=              0.1986  Tot=              0.7965
 Quadrupole moment (field-independent basis, Debye-Ang):
   XX=            -60.4457   YY=            -64.7359   ZZ=            -71.0157
   XY=              1.8783   XZ=             -1.6767   YZ=              0.4750

 Normal termination of Gaussian 16 at Thu Nov 30 08:52:18 2023.
