 Gaussian 16, Revision B.01,
 Gaussian 16:  ES64L-G16RevB.01 20-Dec-2017

 -------------------------
 #P B3LYP/6-311+g(d) force
 -------------------------

 -----
 DPGEN
 -----
 Symbolic Z-matrix:
 Charge =  0 Multiplicity = 2

                         Standard orientation:
 ---------------------------------------------------------------------
 Center     Atomic      Atomic             Coordinates (Angstroms)
 Number     Number       Type             X           Y           Z
 ---------------------------------------------------------------------
      1         11           0       -1.134502    1.952065   -0.993524
      2         11           0       -3.728509   -0.230091   -0.313715
      3         11           0        2.723838    1.916231    0.542512
      4         11           0        1.516187   -0.271330   -2.025142
      5         11           0       -0.594752   -2.011247   -0.402714
      6         11           0        2.447570   -1.717185    0.811106
      7         11           0       -1.229832    0.361558    2.381477
 ---------------------------------------------------------------------

 SCF Done:  E(UB3LYP) =  -1136.12536417     A.U. after   24 cycles

 The electronic state is 2-A.
 Alpha  occ. eigenvalues --  -38.45143 -38.45050 -38.44083 -38.43818 -38.43679
 Alpha  occ. eigenvalues --  -38.43490 -38.42506  -2.20938  -2.20842  -2.19986
 Alpha  occ. eigenvalues --   -2.19667  -2.19456  -2.19311  -2.18407  -1.14599
 Alpha  occ. eigenvalues --   -1.14576  -1.14553  -1.14515  -1.14502  -1.14475
 Alpha  occ. eigenvalues --   -1.13690  -1.13638  -1.13588  -1.13336  -1.13325
 Alpha  occ. eigenvalues --   -1.13303  -1.13127  -1.13119  -1.13096  -1.13002
 Alpha  occ. eigenvalues --   -1.12984  -1.12923  -1.12116  -1.12089  -1.12009
 Alpha  occ. eigenvalues --   -0.18059  -0.13624  -0.11421  -0.11034
 Alpha virt. eigenvalues --   -0.06587  -0.05069  -0.04803  -0.03236  -0.02935
 Alpha virt. eigenvalues --   -0.02821  -0.02081  -0.00844  -0.00565  -0.00253
 Alpha virt. eigenvalues --    0.00081   0.00212   0.00306   0.00551   0.00764

  Beta  occ. eigenvalues --  -38.45063 -38.45054 -38.44032 -38.43808 -38.43675
  Beta  occ. eigenvalues --  -38.43465 -38.42491  -2.20851  -2.20788  -2.19894
  Beta  occ. eigenvalues --   -2.19649  -2.19448  -2.19268  -2.18384  -1.14510
  Beta  occ. eigenvalues --   -1.14508  -1.14500  -1.14487  -1.14470  -1.14438
  Beta  occ. eigenvalues --   -1.13624  -1.13570  -1.13523  -1.13324  -1.13308
  Beta  occ. eigenvalues --   -1.13284  -1.13116  -1.13111  -1.13090  -1.12972
  Beta  occ. eigenvalues --   -1.12934  -1.12898  -1.12098  -1.12042  -1.12001
  Beta  occ. eigenvalues --   -0.17310  -0.13489  -0.10867
  Beta virt. eigenvalues --   -0.07630  -0.06213  -0.04953  -0.04234  -0.03013
  Beta virt. eigenvalues --   -0.02211  -0.02145  -0.01980  -0.00762  -0.00213
  Beta virt. eigenvalues --   -0.00122   0.00197   0.00286   0.00385   0.00714

 Mulliken charges and spin densities:
               1          2
     1  Na  -0.330784   0.232417
     2  Na   0.611844  -0.106899
     3  Na  -0.164739   0.056281
     4  Na   0.398958  -0.074398
     5  Na  -0.236149   0.330936
     6  Na   0.080360   0.180958
     7  Na  -0.359490   0.380705
 Sum of Mulliken charges =  -0.00000   1.00000

 Dipole moment (field-independent basis, Debye):
    X=             -0.8811    Y=             -0.0356    Z=              0.4186  Tot=              0.9761
 Quadrupole moment (field-independent basis, Debye-Ang):
   XX=            -51.4360   YY=            -78.0505   ZZ=            -65.5051
   XY=             -0.3699   XZ=              2.1303   YZ=              0.3004

 Normal termination of Gaussian 16 at Thu Dec  7 10:37:56 2023.
