 Gaussian 16, Revision B.01,
 Gaussian 16:  ES64L-G16RevB.01 20-Dec-2017

 -------------------------
 #P B3LYP/6-311+g(d) force
 -------------------------

 -----
 DPGEN
 -----
 Symbolic Z-matrix:
 Charge =  0 Multiplicity = 2

                         Standard orientation:
 ---------------------------------------------------------------------
 Center     Atomic      Atomic             Coordinates (Angstroms)
 Number     Number       Type             X           Y           Z
 ---------------------------------------------------------------------
      1         11           0        2.323242    1.830029   -0.402695
      2         11           0       -1.189388    2.657953    0.275341
      3         11           0        2.814183   -1.522848    0.083444
      4         11           0       -0.399224    0.063220   -1.704781
      5         11           0       -0.463609   -2.665299    0.079525
      6         11           0        0.128569    0.244774    1.719997
      7         11           0       -3.213773   -0.607829   -0.050831
 ---------------------------------------------------------------------

 SCF Done:  E(UB3LYP) =  -1136.13824963     A.U. after   20 cycles

 The electronic state is 2-A.
 Alpha  occ. eigenvalues --  -38.44234 -38.43770 -38.43729 -38.43420 -38.43187
 Alpha  occ. eigenvalues --  -38.43129 -38.43047  -2.20064  -2.19599  -2.19586
 Alpha  occ. eigenvalues --   -2.19299  -2.19111  -2.19079  -2.19035  -1.13742
 Alpha  occ. eigenvalues --   -1.13720  -1.13703  -1.13292  -1.13268  -1.13259
 Alpha  occ. eigenvalues --   -1.13254  -1.13243  -1.13198  -1.13035  -1.12971
 Alpha  occ. eigenvalues --   -1.12909  -1.12849  -1.12775  -1.12764  -1.12726
 Alpha  occ. eigenvalues --   -1.12708  -1.12699  -1.12685  -1.12647  -1.12641
 Alpha  occ. eigenvalues --   -0.18920  -0.13111  -0.12586  -0.10521
 Alpha virt. eigenvalues --   -0.05756  -0.05209  -0.04571  -0.03081  -0.02829
 Alpha virt. eigenvalues --   -0.02223  -0.01708  -0.01160  -0.00345  -0.00224
 Alpha virt. eigenvalues --    0.00021   0.00341   0.00795   0.00867   0.00910

  Beta  occ. eigenvalues --  -38.44231 -38.43769 -38.43717 -38.43409 -38.43179
  Beta  occ. eigenvalues --  -38.43058 -38.42969  -2.20061  -2.19601  -2.19567
  Beta  occ. eigenvalues --   -2.19283  -2.19069  -2.18980  -2.18892  -1.13730
  Beta  occ. eigenvalues --   -1.13717  -1.13696  -1.13291  -1.13260  -1.13247
  Beta  occ. eigenvalues --   -1.13237  -1.13218  -1.13191  -1.13012  -1.12932
  Beta  occ. eigenvalues --   -1.12901  -1.12808  -1.12727  -1.12700  -1.12688
  Beta  occ. eigenvalues --   -1.12638  -1.12617  -1.12606  -1.12550  -1.12538
  Beta  occ. eigenvalues --   -0.18206  -0.12872  -0.12308
  Beta virt. eigenvalues --   -0.06630  -0.05710  -0.05198  -0.04552  -0.02329
  Beta virt. eigenvalues --   -0.02036  -0.01623  -0.01213  -0.01076  -0.00383
  Beta virt. eigenvalues --   -0.00261   0.00147   0.00372   0.00840   0.00866

 Mulliken charges and spin densities:
               1          2
     1  Na   0.150144   0.002037
     2  Na   0.175305  -0.095105
     3  Na  -0.023392  -0.068926
     4  Na  -0.300589   0.673207
     5  Na   0.070198  -0.098286
     6  Na  -0.283787   0.676859
     7  Na   0.212121  -0.089786
 Sum of Mulliken charges =  -0.00000   1.00000

 Dipole moment (field-independent basis, Debye):
    X=             -0.1849    Y=              0.0632    Z=             -0.0183  Tot=              0.1962
 Quadrupole moment (field-independent basis, Debye-Ang):
   XX=            -53.6141   YY=            -62.9005   ZZ=            -75.5853
   XY=             -0.2119   XZ=             -1.0666   YZ=             -0.5835

 Normal termination of Gaussian 16 at Thu Dec  7 22:15:18 2023.
