 Gaussian 16, Revision B.01,
 Gaussian 16:  ES64L-G16RevB.01 20-Dec-2017

 -------------------------
 #P B3LYP/6-311+g(d) force
 -------------------------

 -----
 DPGEN
 -----
 Symbolic Z-matrix:
 Charge =  0 Multiplicity = 2

                         Standard orientation:
 ---------------------------------------------------------------------
 Center     Atomic      Atomic             Coordinates (Angstroms)
 Number     Number       Type             X           Y           Z
 ---------------------------------------------------------------------
      1         11           0       -1.752921   -2.412258   -0.236038
      2         11           0        3.020703    1.162190    0.025476
      3         11           0       -0.038815    0.057820   -1.442750
      4         11           0       -0.010255    2.768616    0.019576
      5         11           0       -3.182257    0.838359   -0.391423
      6         11           0        2.495141   -2.089470   -0.236410
      7         11           0       -0.531598   -0.325257    2.261568
 ---------------------------------------------------------------------

 SCF Done:  E(UB3LYP) =  -1136.13330077     A.U. after   19 cycles

 The electronic state is 2-A.
 Alpha  occ. eigenvalues --  -38.44529 -38.44070 -38.43875 -38.43769 -38.43660
 Alpha  occ. eigenvalues --  -38.43214 -38.42962  -2.20348  -2.19903  -2.19678
 Alpha  occ. eigenvalues --   -2.19619  -2.19506  -2.19218  -2.18833  -1.14025
 Alpha  occ. eigenvalues --   -1.13999  -1.13985  -1.13577  -1.13571  -1.13555
 Alpha  occ. eigenvalues --   -1.13350  -1.13336  -1.13313  -1.13275  -1.13249
 Alpha  occ. eigenvalues --   -1.13238  -1.13210  -1.13160  -1.13127  -1.12936
 Alpha  occ. eigenvalues --   -1.12881  -1.12828  -1.12525  -1.12485  -1.12449
 Alpha  occ. eigenvalues --   -0.18399  -0.13330  -0.12063  -0.10693
 Alpha virt. eigenvalues --   -0.06029  -0.05483  -0.04301  -0.03222  -0.02759
 Alpha virt. eigenvalues --   -0.02543  -0.01894  -0.01164  -0.00576  -0.00318
 Alpha virt. eigenvalues --   -0.00056   0.00303   0.00713   0.00813   0.00878

  Beta  occ. eigenvalues --  -38.44518 -38.44071 -38.43874 -38.43657 -38.43653
  Beta  occ. eigenvalues --  -38.43169 -38.42958  -2.20330  -2.19906  -2.19678
  Beta  occ. eigenvalues --   -2.19497  -2.19413  -2.19136  -2.18828  -1.13999
  Beta  occ. eigenvalues --   -1.13980  -1.13975  -1.13579  -1.13566  -1.13554
  Beta  occ. eigenvalues --   -1.13340  -1.13336  -1.13313  -1.13208  -1.13155
  Beta  occ. eigenvalues --   -1.13126  -1.13121  -1.13096  -1.13082  -1.12877
  Beta  occ. eigenvalues --   -1.12827  -1.12763  -1.12518  -1.12460  -1.12449
  Beta  occ. eigenvalues --   -0.17711  -0.13124  -0.11854
  Beta virt. eigenvalues --   -0.06712  -0.05963  -0.05455  -0.04278  -0.02515
  Beta virt. eigenvalues --   -0.01941  -0.01796  -0.01505  -0.01105  -0.00618
  Beta virt. eigenvalues --   -0.00345   0.00132   0.00354   0.00799   0.00813

 Mulliken charges and spin densities:
               1          2
     1  Na   0.215992  -0.001814
     2  Na   0.063373   0.008634
     3  Na  -0.311356   0.145022
     4  Na   0.159779   0.054781
     5  Na   0.339825   0.066831
     6  Na   0.169426  -0.021334
     7  Na  -0.637039   0.747881
 Sum of Mulliken charges =  -0.00000   1.00000

 Dipole moment (field-independent basis, Debye):
    X=             -0.2238    Y=             -0.0893    Z=              0.1411  Tot=              0.2792
 Quadrupole moment (field-independent basis, Debye-Ang):
   XX=            -53.2299   YY=            -65.0328   ZZ=            -75.0501
   XY=             -0.3667   XZ=              1.2962   YZ=              0.9217

 Normal termination of Gaussian 16 at Thu Dec  7 06:03:37 2023.
