 Gaussian 16, Revision B.01,
 Gaussian 16:  ES64L-G16RevB.01 20-Dec-2017

 -------------------------
 #P B3LYP/6-311+g(d) force
 -------------------------

 -----
 DPGEN
 -----
 Symbolic Z-matrix:
 Charge =  0 Multiplicity = 2

                         Standard orientation:
 ---------------------------------------------------------------------
 Center     Atomic      Atomic             Coordinates (Angstroms)
 Number     Number       Type             X           Y           Z
 ---------------------------------------------------------------------
      1         11           0        1.268229   -2.714349    0.014924
      2         11           0        3.237024   -0.027949   -0.186858
      3         11           0       -2.447122   -2.059149   -0.060951
      4         11           0       -2.848955    1.378754   -0.393318
      5         11           0       -0.256686    0.056087    1.960563
      6         11           0        0.264147    0.387062   -1.665544
      7         11           0        0.783363    2.979543    0.331183
 ---------------------------------------------------------------------

 SCF Done:  E(UB3LYP) =  -1136.13807370     A.U. after   19 cycles

 The electronic state is 2-A.
 Alpha  occ. eigenvalues --  -38.44139 -38.44105 -38.43818 -38.43579 -38.43442
 Alpha  occ. eigenvalues --  -38.43418 -38.43321  -2.19967  -2.19921  -2.19623
 Alpha  occ. eigenvalues --   -2.19406  -2.19304  -2.19271  -2.19254  -1.13650
 Alpha  occ. eigenvalues --   -1.13629  -1.13602  -1.13600  -1.13581  -1.13554
 Alpha  occ. eigenvalues --   -1.13297  -1.13282  -1.13266  -1.13099  -1.13082
 Alpha  occ. eigenvalues --   -1.13036  -1.12984  -1.12949  -1.12948  -1.12929
 Alpha  occ. eigenvalues --   -1.12926  -1.12916  -1.12904  -1.12882  -1.12875
 Alpha  occ. eigenvalues --   -0.18309  -0.13030  -0.12359  -0.10516
 Alpha virt. eigenvalues --   -0.05731  -0.05347  -0.04866  -0.03111  -0.02862
 Alpha virt. eigenvalues --   -0.02390  -0.01638  -0.01252  -0.00601  -0.00499
 Alpha virt. eigenvalues --   -0.00010   0.00349   0.00776   0.00818   0.00862

  Beta  occ. eigenvalues --  -38.44134 -38.44093 -38.43817 -38.43570 -38.43440
  Beta  occ. eigenvalues --  -38.43327 -38.43263  -2.19961  -2.19901  -2.19623
  Beta  occ. eigenvalues --   -2.19392  -2.19269  -2.19149  -2.19137  -1.13639
  Beta  occ. eigenvalues --   -1.13618  -1.13596  -1.13577  -1.13560  -1.13541
  Beta  occ. eigenvalues --   -1.13286  -1.13284  -1.13261  -1.13087  -1.13043
  Beta  occ. eigenvalues --   -1.13030  -1.12948  -1.12932  -1.12901  -1.12877
  Beta  occ. eigenvalues --   -1.12846  -1.12816  -1.12811  -1.12796  -1.12792
  Beta  occ. eigenvalues --   -0.17610  -0.12786  -0.12135
  Beta virt. eigenvalues --   -0.06672  -0.05673  -0.05332  -0.04785  -0.02389
  Beta virt. eigenvalues --   -0.02119  -0.01525  -0.01378  -0.01168  -0.00645
  Beta virt. eigenvalues --   -0.00541   0.00131   0.00388   0.00812   0.00842

 Mulliken charges and spin densities:
               1          2
     1  Na  -0.057125  -0.091359
     2  Na   0.233231  -0.039289
     3  Na  -0.039617  -0.071264
     4  Na   0.151912  -0.014581
     5  Na  -0.259208   0.767672
     6  Na  -0.096871   0.529474
     7  Na   0.067679  -0.080652
 Sum of Mulliken charges =  -0.00000   1.00000

 Dipole moment (field-independent basis, Debye):
    X=             -0.0032    Y=              0.1642    Z=              0.0250  Tot=              0.1661
 Quadrupole moment (field-independent basis, Debye-Ang):
   XX=            -56.0858   YY=            -61.4739   ZZ=            -75.5006
   XY=              0.4444   XZ=              1.0112   YZ=              0.5906

 Normal termination of Gaussian 16 at Thu Dec  7 23:10:54 2023.
