 Gaussian 16, Revision B.01,
 Gaussian 16:  ES64L-G16RevB.01 20-Dec-2017

 -------------------------
 #P B3LYP/6-311+g(d) force
 -------------------------

 -----
 DPGEN
 -----
 Symbolic Z-matrix:
 Charge =  0 Multiplicity = 2

                         Standard orientation:
 ---------------------------------------------------------------------
 Center     Atomic      Atomic             Coordinates (Angstroms)
 Number     Number       Type             X           Y           Z
 ---------------------------------------------------------------------
      1         11           0        0.258695   -2.178261    0.434812
      2         11           0       -2.796492   -3.299415   -0.293127
      3         11           0       -2.920720    0.096291   -0.596037
      4         11           0       -2.742673    3.639579   -0.300594
      5         11           0       -0.504645    1.539781    1.131354
      6         11           0        3.054971   -0.475969    0.308000
      7         11           0        5.650863    0.677993   -0.684408
 ---------------------------------------------------------------------

 SCF Done:  E(UB3LYP) =  -1136.12404467     A.U. after   20 cycles

 The electronic state is 2-A.
 Alpha  occ. eigenvalues --  -38.44844 -38.44629 -38.44491 -38.43927 -38.43862
 Alpha  occ. eigenvalues --  -38.43583 -38.42866  -2.20674  -2.20427  -2.20339
 Alpha  occ. eigenvalues --   -2.19768  -2.19721  -2.19412  -2.18729  -1.14387
 Alpha  occ. eigenvalues --   -1.14356  -1.14264  -1.14095  -1.14091  -1.14047
 Alpha  occ. eigenvalues --   -1.14045  -1.14036  -1.13910  -1.13443  -1.13404
 Alpha  occ. eigenvalues --   -1.13385  -1.13385  -1.13384  -1.13357  -1.13069
 Alpha  occ. eigenvalues --   -1.13065  -1.13042  -1.12429  -1.12392  -1.12377
 Alpha  occ. eigenvalues --   -0.16995  -0.13883  -0.12912  -0.10922
 Alpha virt. eigenvalues --   -0.06230  -0.05507  -0.04216  -0.03985  -0.02664
 Alpha virt. eigenvalues --   -0.02148  -0.01921  -0.01598  -0.01431  -0.00876
 Alpha virt. eigenvalues --   -0.00469   0.00113   0.00402   0.00453   0.00601

  Beta  occ. eigenvalues --  -38.44813 -38.44623 -38.44468 -38.43832 -38.43831
  Beta  occ. eigenvalues --  -38.43560 -38.42860  -2.20619  -2.20417  -2.20298
  Beta  occ. eigenvalues --   -2.19665  -2.19591  -2.19368  -2.18732  -1.14354
  Beta  occ. eigenvalues --   -1.14322  -1.14211  -1.14085  -1.14083  -1.14038
  Beta  occ. eigenvalues --   -1.14015  -1.14005  -1.13875  -1.13371  -1.13345
  Beta  occ. eigenvalues --   -1.13330  -1.13303  -1.13265  -1.13264  -1.13036
  Beta  occ. eigenvalues --   -1.13031  -1.13016  -1.12414  -1.12403  -1.12325
  Beta  occ. eigenvalues --   -0.16459  -0.13301  -0.12449
  Beta virt. eigenvalues --   -0.07522  -0.06038  -0.05157  -0.03870  -0.03626
  Beta virt. eigenvalues --   -0.02455  -0.02020  -0.01710  -0.01324  -0.01033
  Beta virt. eigenvalues --   -0.00519  -0.00143   0.00260   0.00535   0.00575

 Mulliken charges and spin densities:
               1          2
     1  Na  -0.252036  -0.256149
     2  Na   1.268297   0.175087
     3  Na  -0.768000   0.271641
     4  Na   0.985888   0.028190
     5  Na  -0.546513   0.092522
     6  Na  -0.682038   0.258195
     7  Na  -0.005598   0.430513
 Sum of Mulliken charges =  -0.00000   1.00000

 Dipole moment (field-independent basis, Debye):
    X=             -1.7904    Y=              1.2619    Z=             -0.0588  Tot=              2.1912
 Quadrupole moment (field-independent basis, Debye-Ang):
   XX=            -68.4153   YY=            -56.2992   ZZ=            -70.9967
   XY=             -2.3615   XZ=              0.3406   YZ=             -1.4371

 Normal termination of Gaussian 16 at Tue Nov 28 23:12:06 2023.
