 Gaussian 16, Revision B.01,
 Gaussian 16:  ES64L-G16RevB.01 20-Dec-2017

 -------------------------
 #P B3LYP/6-311+g(d) force
 -------------------------

 -----
 DPGEN
 -----
 Symbolic Z-matrix:
 Charge =  0 Multiplicity = 2

                         Standard orientation:
 ---------------------------------------------------------------------
 Center     Atomic      Atomic             Coordinates (Angstroms)
 Number     Number       Type             X           Y           Z
 ---------------------------------------------------------------------
      1         11           0        4.167654   -1.970533    0.071863
      2         11           0       -3.462637   -1.940858    1.658253
      3         11           0       -4.115850   -0.387013   -1.022523
      4         11           0        0.665132   -2.321745   -1.012295
      5         11           0       -1.695797    2.862253   -0.813480
      6         11           0        0.678001    2.542750    1.192865
      7         11           0        3.763497    1.215147   -0.074684
 ---------------------------------------------------------------------

 SCF Done:  E(UB3LYP) =  -1136.10462556     A.U. after   21 cycles

 The electronic state is 2-A.
 Alpha  occ. eigenvalues --  -38.44862 -38.44812 -38.44657 -38.44525 -38.43978
 Alpha  occ. eigenvalues --  -38.43934 -38.43910  -2.20625  -2.20589  -2.20447
 Alpha  occ. eigenvalues --   -2.20305  -2.19801  -2.19737  -2.19706  -1.14289
 Alpha  occ. eigenvalues --   -1.14284  -1.14268  -1.14254  -1.14239  -1.14219
 Alpha  occ. eigenvalues --   -1.14096  -1.14091  -1.14058  -1.13997  -1.13980
 Alpha  occ. eigenvalues --   -1.13947  -1.13481  -1.13456  -1.13445  -1.13429
 Alpha  occ. eigenvalues --   -1.13393  -1.13384  -1.13363  -1.13360  -1.13295
 Alpha  occ. eigenvalues --   -0.15652  -0.13921  -0.12507  -0.10343
 Alpha virt. eigenvalues --   -0.07235  -0.05800  -0.04208  -0.03570  -0.03050
 Alpha virt. eigenvalues --   -0.02551  -0.02371  -0.01428  -0.01368  -0.00692
 Alpha virt. eigenvalues --   -0.00478  -0.00188   0.00149   0.00408   0.00503

  Beta  occ. eigenvalues --  -38.44815 -38.44763 -38.44618 -38.44541 -38.43922
  Beta  occ. eigenvalues --  -38.43916 -38.43903  -2.20597  -2.20442  -2.20375
  Beta  occ. eigenvalues --   -2.20339  -2.19733  -2.19684  -2.19677  -1.14280
  Beta  occ. eigenvalues --   -1.14262  -1.14235  -1.14159  -1.14143  -1.14096
  Beta  occ. eigenvalues --   -1.14047  -1.14037  -1.14016  -1.14015  -1.14006
  Beta  occ. eigenvalues --   -1.13945  -1.13465  -1.13399  -1.13398  -1.13373
  Beta  occ. eigenvalues --   -1.13358  -1.13354  -1.13342  -1.13330  -1.13278
  Beta  occ. eigenvalues --   -0.15166  -0.13511  -0.12051
  Beta virt. eigenvalues --   -0.07185  -0.06783  -0.05443  -0.03981  -0.03335
  Beta virt. eigenvalues --   -0.02744  -0.02405  -0.01954  -0.01249  -0.01152
  Beta virt. eigenvalues --   -0.00369  -0.00320   0.00011   0.00229   0.00521

 Mulliken charges and spin densities:
               1          2
     1  Na   0.323499  -0.159206
     2  Na   0.115297   0.132407
     3  Na  -0.017655   0.071987
     4  Na  -0.317713   0.552350
     5  Na   0.175018   0.081000
     6  Na  -0.255999  -0.025486
     7  Na  -0.022446   0.346948
 Sum of Mulliken charges =  -0.00000   1.00000

 Dipole moment (field-independent basis, Debye):
    X=             -0.4913    Y=             -0.6414    Z=              0.1297  Tot=              0.8183
 Quadrupole moment (field-independent basis, Debye-Ang):
   XX=            -65.3899   YY=            -73.6052   ZZ=            -64.2665
   XY=             -5.5865   XZ=              4.3883   YZ=             -5.0363

 Normal termination of Gaussian 16 at Sun Dec  3 18:24:15 2023.
