 Gaussian 16, Revision B.01,
 Gaussian 16:  ES64L-G16RevB.01 20-Dec-2017

 -------------------------
 #P B3LYP/6-311+g(d) force
 -------------------------

 -----
 DPGEN
 -----
 Symbolic Z-matrix:
 Charge =  0 Multiplicity = 2

                         Standard orientation:
 ---------------------------------------------------------------------
 Center     Atomic      Atomic             Coordinates (Angstroms)
 Number     Number       Type             X           Y           Z
 ---------------------------------------------------------------------
      1         11           0        1.225863   -2.120283   -0.221227
      2         11           0        2.515138    1.270919    0.275500
      3         11           0       -1.161683    1.128102    0.224345
      4         11           0       -2.117748   -2.542856    0.696715
      5         11           0       -4.320785   -0.560338   -0.631808
      6         11           0       -0.454540    4.042766   -0.013911
      7         11           0        4.313755   -1.218310   -0.329613
 ---------------------------------------------------------------------

 SCF Done:  E(UB3LYP) =  -1136.12683909     A.U. after   23 cycles

 The electronic state is 2-A.
 Alpha  occ. eigenvalues --  -38.44768 -38.44085 -38.43828 -38.43713 -38.43676
 Alpha  occ. eigenvalues --  -38.43667 -38.43488  -2.20603  -2.19899  -2.19704
 Alpha  occ. eigenvalues --   -2.19552  -2.19549  -2.19542  -2.19330  -1.14301
 Alpha  occ. eigenvalues --   -1.14295  -1.14214  -1.13632  -1.13550  -1.13522
 Alpha  occ. eigenvalues --   -1.13376  -1.13354  -1.13339  -1.13245  -1.13241
 Alpha  occ. eigenvalues --   -1.13236  -1.13228  -1.13223  -1.13216  -1.13207
 Alpha  occ. eigenvalues --   -1.13131  -1.13122  -1.12971  -1.12967  -1.12937
 Alpha  occ. eigenvalues --   -0.17068  -0.14171  -0.12972  -0.10294
 Alpha virt. eigenvalues --   -0.06080  -0.05582  -0.04488  -0.03732  -0.02553
 Alpha virt. eigenvalues --   -0.02171  -0.01775  -0.01654  -0.01297  -0.00788
 Alpha virt. eigenvalues --    0.00013   0.00085   0.00583   0.00629   0.00644

  Beta  occ. eigenvalues --  -38.44753 -38.44089 -38.43792 -38.43697 -38.43662
  Beta  occ. eigenvalues --  -38.43627 -38.43405  -2.20579  -2.19906  -2.19637
  Beta  occ. eigenvalues --   -2.19536  -2.19529  -2.19461  -2.19173  -1.14285
  Beta  occ. eigenvalues --   -1.14277  -1.14180  -1.13636  -1.13555  -1.13526
  Beta  occ. eigenvalues --   -1.13328  -1.13305  -1.13294  -1.13239  -1.13224
  Beta  occ. eigenvalues --   -1.13217  -1.13203  -1.13168  -1.13164  -1.13148
  Beta  occ. eigenvalues --   -1.13121  -1.13052  -1.12864  -1.12859  -1.12841
  Beta  occ. eigenvalues --   -0.16585  -0.13605  -0.12671
  Beta virt. eigenvalues --   -0.06647  -0.06004  -0.05379  -0.04217  -0.03166
  Beta virt. eigenvalues --   -0.02214  -0.02061  -0.01729  -0.01247  -0.01105
  Beta virt. eigenvalues --   -0.00358   0.00246   0.00412   0.00614   0.00721

 Mulliken charges and spin densities:
               1          2
     1  Na  -0.593205   0.193078
     2  Na  -0.594907   0.153278
     3  Na  -2.127461  -0.008450
     4  Na   0.931368  -0.046826
     5  Na   0.809769   0.393541
     6  Na   0.312078   0.008031
     7  Na   1.262358   0.307348
 Sum of Mulliken charges =  -0.00000   1.00000

 Dipole moment (field-independent basis, Debye):
    X=              1.0182    Y=              0.4813    Z=             -0.0671  Tot=              1.1282
 Quadrupole moment (field-independent basis, Debye-Ang):
   XX=            -66.8938   YY=            -58.0995   ZZ=            -71.2422
   XY=             -1.9672   XZ=             -0.2087   YZ=             -0.6726

 Normal termination of Gaussian 16 at Wed Nov 29 02:48:48 2023.
