 Gaussian 16, Revision B.01,
 Gaussian 16:  ES64L-G16RevB.01 20-Dec-2017

 -------------------------
 #P B3LYP/6-311+g(d) force
 -------------------------

 -----
 DPGEN
 -----
 Symbolic Z-matrix:
 Charge =  0 Multiplicity = 2

                         Standard orientation:
 ---------------------------------------------------------------------
 Center     Atomic      Atomic             Coordinates (Angstroms)
 Number     Number       Type             X           Y           Z
 ---------------------------------------------------------------------
      1         11           0        0.369581    0.080434    1.707160
      2         11           0        2.910455    0.632350   -0.487942
      3         11           0        1.699513   -2.392756    0.258530
      4         11           0       -2.412254   -1.998344    0.069983
      5         11           0        0.330839    2.801331    0.189455
      6         11           0       -2.871980    1.239710   -0.144256
      7         11           0       -0.026154   -0.362725   -1.592932
 ---------------------------------------------------------------------

 SCF Done:  E(UB3LYP) =  -1136.13567924     A.U. after   19 cycles

 The electronic state is 2-A.
 Alpha  occ. eigenvalues --  -38.44051 -38.43942 -38.43908 -38.43488 -38.43069
 Alpha  occ. eigenvalues --  -38.43005 -38.42972  -2.19887  -2.19846  -2.19745
 Alpha  occ. eigenvalues --   -2.19387  -2.19076  -2.19018  -2.18859  -1.13571
 Alpha  occ. eigenvalues --   -1.13561  -1.13533  -1.13531  -1.13506  -1.13480
 Alpha  occ. eigenvalues --   -1.13422  -1.13400  -1.13371  -1.13101  -1.13058
 Alpha  occ. eigenvalues --   -1.13005  -1.12795  -1.12720  -1.12700  -1.12692
 Alpha  occ. eigenvalues --   -1.12666  -1.12622  -1.12509  -1.12508  -1.12485
 Alpha  occ. eigenvalues --   -0.19085  -0.13459  -0.12416  -0.10510
 Alpha virt. eigenvalues --   -0.05656  -0.05422  -0.04476  -0.03214  -0.02682
 Alpha virt. eigenvalues --   -0.02144  -0.01629  -0.01158  -0.00361  -0.00261
 Alpha virt. eigenvalues --    0.00049   0.00350   0.00804   0.00864   0.00904

  Beta  occ. eigenvalues --  -38.44049 -38.43923 -38.43907 -38.43476 -38.43005
  Beta  occ. eigenvalues --  -38.42964 -38.42924  -2.19887  -2.19816  -2.19745
  Beta  occ. eigenvalues --   -2.19370  -2.18961  -2.18870  -2.18848  -1.13574
  Beta  occ. eigenvalues --   -1.13551  -1.13525  -1.13512  -1.13467  -1.13452
  Beta  occ. eigenvalues --   -1.13415  -1.13395  -1.13368  -1.13087  -1.13017
  Beta  occ. eigenvalues --   -1.12992  -1.12715  -1.12642  -1.12618  -1.12603
  Beta  occ. eigenvalues --   -1.12569  -1.12522  -1.12489  -1.12479  -1.12452
  Beta  occ. eigenvalues --   -0.18372  -0.13208  -0.12149
  Beta virt. eigenvalues --   -0.06587  -0.05588  -0.05425  -0.04469  -0.02444
  Beta virt. eigenvalues --   -0.01924  -0.01547  -0.01124  -0.01069  -0.00407
  Beta virt. eigenvalues --   -0.00276   0.00172   0.00385   0.00857   0.00860

 Mulliken charges and spin densities:
               1          2
     1  Na  -0.294887   0.674605
     2  Na   0.275467   0.099767
     3  Na   0.170817  -0.051867
     4  Na   0.078032  -0.085257
     5  Na   0.086818  -0.051682
     6  Na  -0.048603  -0.065121
     7  Na  -0.267645   0.479555
 Sum of Mulliken charges =  -0.00000   1.00000

 Dipole moment (field-independent basis, Debye):
    X=             -0.1985    Y=             -0.1655    Z=             -0.0332  Tot=              0.2606
 Quadrupole moment (field-independent basis, Debye-Ang):
   XX=            -54.3636   YY=            -62.2507   ZZ=            -75.7566
   XY=             -0.1490   XZ=             -0.9827   YZ=             -1.2502

 Normal termination of Gaussian 16 at Tue Dec  5 10:53:19 2023.
