 Gaussian 16, Revision B.01,
 Gaussian 16:  ES64L-G16RevB.01 20-Dec-2017

 -------------------------
 #P B3LYP/6-311+g(d) force
 -------------------------

 -----
 DPGEN
 -----
 Symbolic Z-matrix:
 Charge =  0 Multiplicity = 2

                         Standard orientation:
 ---------------------------------------------------------------------
 Center     Atomic      Atomic             Coordinates (Angstroms)
 Number     Number       Type             X           Y           Z
 ---------------------------------------------------------------------
      1         11           0        0.271140    2.514721    0.826699
      2         11           0        2.957206   -1.622134    0.380676
      3         11           0        2.894502    0.996922   -1.905021
      4         11           0        0.747178   -1.211887    2.258143
      5         11           0       -3.093691    0.994003    0.877479
      6         11           0       -3.399626   -1.515249   -1.413603
      7         11           0       -0.376710   -0.156375   -1.024373
 ---------------------------------------------------------------------

 SCF Done:  E(UB3LYP) =  -1136.11924576     A.U. after   24 cycles

 The electronic state is 2-A.
 Alpha  occ. eigenvalues --  -38.44951 -38.44422 -38.44029 -38.43985 -38.43868
 Alpha  occ. eigenvalues --  -38.43501 -38.43215  -2.20759  -2.20237  -2.19906
 Alpha  occ. eigenvalues --   -2.19858  -2.19743  -2.19364  -2.19035  -1.14442
 Alpha  occ. eigenvalues --   -1.14426  -1.14388  -1.13903  -1.13882  -1.13844
 Alpha  occ. eigenvalues --   -1.13640  -1.13573  -1.13560  -1.13500  -1.13496
 Alpha  occ. eigenvalues --   -1.13485  -1.13462  -1.13374  -1.13361  -1.13024
 Alpha  occ. eigenvalues --   -1.13009  -1.12994  -1.12722  -1.12700  -1.12652
 Alpha  occ. eigenvalues --   -0.17818  -0.13982  -0.11733  -0.11167
 Alpha virt. eigenvalues --   -0.06397  -0.05179  -0.04571  -0.03336  -0.03179
 Alpha virt. eigenvalues --   -0.02393  -0.02276  -0.01065  -0.00728  -0.00369
 Alpha virt. eigenvalues --   -0.00044   0.00128   0.00427   0.00535   0.00720

  Beta  occ. eigenvalues --  -38.44944 -38.44358 -38.43985 -38.43970 -38.43806
  Beta  occ. eigenvalues --  -38.43504 -38.43198  -2.20751  -2.20118  -2.19881
  Beta  occ. eigenvalues --   -2.19778  -2.19627  -2.19376  -2.19005  -1.14435
  Beta  occ. eigenvalues --   -1.14423  -1.14361  -1.13819  -1.13800  -1.13770
  Beta  occ. eigenvalues --   -1.13590  -1.13559  -1.13533  -1.13451  -1.13441
  Beta  occ. eigenvalues --   -1.13421  -1.13418  -1.13297  -1.13276  -1.13027
  Beta  occ. eigenvalues --   -1.13010  -1.12978  -1.12704  -1.12678  -1.12620
  Beta  occ. eigenvalues --   -0.17181  -0.13540  -0.10824
  Beta virt. eigenvalues --   -0.08179  -0.06141  -0.04784  -0.04110  -0.02967
  Beta virt. eigenvalues --   -0.02739  -0.02196  -0.01858  -0.00802  -0.00601
  Beta virt. eigenvalues --   -0.00122   0.00162   0.00242   0.00476   0.00613

 Mulliken charges and spin densities:
               1          2
     1  Na  -0.040620   0.228854
     2  Na  -0.079211  -0.007339
     3  Na   1.506897   0.388659
     4  Na   0.190924   0.291432
     5  Na   0.251978  -0.025836
     6  Na   0.752384  -0.031480
     7  Na  -2.582352   0.155709
 Sum of Mulliken charges =  -0.00000   1.00000

 Dipole moment (field-independent basis, Debye):
    X=             -0.7179    Y=              0.3281    Z=              0.0495  Tot=              0.7909
 Quadrupole moment (field-independent basis, Debye-Ang):
   XX=            -54.3845   YY=            -75.2021   ZZ=            -66.3580
   XY=              1.4204   XZ=             -5.5506   YZ=              4.7222

 Normal termination of Gaussian 16 at Tue Dec  5 15:12:53 2023.
