 Gaussian 16, Revision B.01,
 Gaussian 16:  ES64L-G16RevB.01 20-Dec-2017

 -------------------------
 #P B3LYP/6-311+g(d) force
 -------------------------

 -----
 DPGEN
 -----
 Symbolic Z-matrix:
 Charge =  0 Multiplicity = 2

                         Standard orientation:
 ---------------------------------------------------------------------
 Center     Atomic      Atomic             Coordinates (Angstroms)
 Number     Number       Type             X           Y           Z
 ---------------------------------------------------------------------
      1         11           0        0.936912   -2.610747   -0.469136
      2         11           0        4.364001   -2.322925    0.353628
      3         11           0        1.410119    3.410443   -0.425805
      4         11           0        4.359022    1.249718    0.272233
      5         11           0       -0.290381    0.425807   -0.307039
      6         11           0       -4.283849    0.660484    0.887570
      7         11           0       -6.495824   -0.812779   -0.311451
 ---------------------------------------------------------------------

 SCF Done:  E(UB3LYP) =  -1136.10912034     A.U. after   21 cycles

 The electronic state is 2-A.
 Alpha  occ. eigenvalues --  -38.45485 -38.44641 -38.44496 -38.44451 -38.44339
 Alpha  occ. eigenvalues --  -38.43965 -38.43436  -2.21261  -2.20460  -2.20316
 Alpha  occ. eigenvalues --   -2.20260  -2.20148  -2.19744  -2.19216  -1.14936
 Alpha  occ. eigenvalues --   -1.14905  -1.14860  -1.14217  -1.14095  -1.14093
 Alpha  occ. eigenvalues --   -1.14024  -1.13991  -1.13934  -1.13918  -1.13897
 Alpha  occ. eigenvalues --   -1.13863  -1.13797  -1.13790  -1.13772  -1.13417
 Alpha  occ. eigenvalues --   -1.13410  -1.13379  -1.12888  -1.12875  -1.12867
 Alpha  occ. eigenvalues --   -0.16060  -0.13876  -0.12167  -0.11892
 Alpha virt. eigenvalues --   -0.06339  -0.05671  -0.04452  -0.03667  -0.03309
 Alpha virt. eigenvalues --   -0.02498  -0.01874  -0.01472  -0.01148  -0.01099
 Alpha virt. eigenvalues --   -0.00818  -0.00153  -0.00069   0.00257   0.00702

  Beta  occ. eigenvalues --  -38.45400 -38.44616 -38.44437 -38.44401 -38.44344
  Beta  occ. eigenvalues --  -38.43952 -38.43438  -2.21104  -2.20412  -2.20209
  Beta  occ. eigenvalues --   -2.20169  -2.20159  -2.19721  -2.19220  -1.14831
  Beta  occ. eigenvalues --   -1.14804  -1.14739  -1.14190  -1.14063  -1.14061
  Beta  occ. eigenvalues --   -1.13939  -1.13922  -1.13864  -1.13859  -1.13829
  Beta  occ. eigenvalues --   -1.13806  -1.13798  -1.13793  -1.13760  -1.13404
  Beta  occ. eigenvalues --   -1.13387  -1.13358  -1.12891  -1.12877  -1.12863
  Beta  occ. eigenvalues --   -0.15144  -0.13455  -0.11880
  Beta virt. eigenvalues --   -0.08495  -0.05886  -0.05088  -0.04068  -0.03394
  Beta virt. eigenvalues --   -0.03070  -0.02395  -0.01634  -0.01355  -0.00995
  Beta virt. eigenvalues --   -0.00694  -0.00497   0.00030   0.00138   0.00389

 Mulliken charges and spin densities:
               1          2
     1  Na   0.600954  -0.099358
     2  Na   0.040164   0.094843
     3  Na   0.321720   0.128995
     4  Na   0.040625   0.488850
     5  Na  -1.004062   0.276173
     6  Na  -0.380876   0.044684
     7  Na   0.381475   0.065813
 Sum of Mulliken charges =  -0.00000   1.00000

 Dipole moment (field-independent basis, Debye):
    X=             -0.3556    Y=             -0.3679    Z=             -0.1131  Tot=              0.5240
 Quadrupole moment (field-independent basis, Debye-Ang):
   XX=            -55.1679   YY=            -65.9100   ZZ=            -72.5790
   XY=              5.4089   XZ=              4.4311   YZ=              2.1547

 Normal termination of Gaussian 16 at Sun Dec  3 19:07:53 2023.
