 Gaussian 16, Revision B.01,
 Gaussian 16:  ES64L-G16RevB.01 20-Dec-2017

 -------------------------
 #P B3LYP/6-311+g(d) force
 -------------------------

 -----
 DPGEN
 -----
 Symbolic Z-matrix:
 Charge =  0 Multiplicity = 2

                         Standard orientation:
 ---------------------------------------------------------------------
 Center     Atomic      Atomic             Coordinates (Angstroms)
 Number     Number       Type             X           Y           Z
 ---------------------------------------------------------------------
      1         11           0       -3.165876   -1.873692    0.237971
      2         11           0        2.928613   -2.204874   -0.226669
      3         11           0        0.169839    2.704817   -0.607035
      4         11           0        2.974360    1.117647    0.611070
      5         11           0        0.123847   -0.810682   -1.701945
      6         11           0       -2.692155    1.188292   -0.205939
      7         11           0       -0.338629   -0.121507    1.892547
 ---------------------------------------------------------------------

 SCF Done:  E(UB3LYP) =  -1136.12839336     A.U. after   22 cycles

 The electronic state is 2-A.
 Alpha  occ. eigenvalues --  -38.44513 -38.44437 -38.44250 -38.44117 -38.43867
 Alpha  occ. eigenvalues --  -38.43858 -38.42447  -2.20333  -2.20288  -2.20070
 Alpha  occ. eigenvalues --   -2.20024  -2.19723  -2.19654  -2.18315  -1.14008
 Alpha  occ. eigenvalues --   -1.13992  -1.13976  -1.13968  -1.13941  -1.13891
 Alpha  occ. eigenvalues --   -1.13811  -1.13721  -1.13716  -1.13693  -1.13681
 Alpha  occ. eigenvalues --   -1.13615  -1.13412  -1.13367  -1.13356  -1.13318
 Alpha  occ. eigenvalues --   -1.13308  -1.13287  -1.11991  -1.11981  -1.11956
 Alpha  occ. eigenvalues --   -0.18246  -0.13783  -0.11710  -0.10694
 Alpha virt. eigenvalues --   -0.06420  -0.05874  -0.04144  -0.03425  -0.02712
 Alpha virt. eigenvalues --   -0.02412  -0.02195  -0.01379  -0.00724  -0.00219
 Alpha virt. eigenvalues --   -0.00001   0.00256   0.00550   0.00644   0.00722

  Beta  occ. eigenvalues --  -38.44496 -38.44367 -38.44249 -38.44107 -38.43859
  Beta  occ. eigenvalues --  -38.43794 -38.42437  -2.20303  -2.20160  -2.20070
  Beta  occ. eigenvalues --   -2.20010  -2.19657  -2.19590  -2.18299  -1.13975
  Beta  occ. eigenvalues --   -1.13970  -1.13951  -1.13890  -1.13856  -1.13816
  Beta  occ. eigenvalues --   -1.13791  -1.13715  -1.13703  -1.13686  -1.13647
  Beta  occ. eigenvalues --   -1.13605  -1.13331  -1.13324  -1.13311  -1.13300
  Beta  occ. eigenvalues --   -1.13268  -1.13224  -1.11982  -1.11971  -1.11924
  Beta  occ. eigenvalues --   -0.17540  -0.13585  -0.11465
  Beta virt. eigenvalues --   -0.06940  -0.06207  -0.05813  -0.03922  -0.02885
  Beta virt. eigenvalues --   -0.02076  -0.01988  -0.01627  -0.01151  -0.00761
  Beta virt. eigenvalues --   -0.00111   0.00089   0.00295   0.00663   0.00735

 Mulliken charges and spin densities:
               1          2
     1  Na   0.226433  -0.005453
     2  Na  -0.002055  -0.054556
     3  Na  -0.196604   0.007229
     4  Na   0.243476   0.146716
     5  Na  -0.295198   0.408840
     6  Na   0.298781   0.123145
     7  Na  -0.274833   0.374080
 Sum of Mulliken charges =  -0.00000   1.00000

 Dipole moment (field-independent basis, Debye):
    X=             -0.1390    Y=             -0.4108    Z=              0.2384  Tot=              0.4949
 Quadrupole moment (field-independent basis, Debye-Ang):
   XX=            -53.0757   YY=            -67.6012   ZZ=            -74.1974
   XY=              1.6863   XZ=              1.6290   YZ=             -0.8563

 Normal termination of Gaussian 16 at Thu Dec  7 06:12:27 2023.
