 Gaussian 16, Revision B.01,
 Gaussian 16:  ES64L-G16RevB.01 20-Dec-2017

 -------------------------
 #P B3LYP/6-311+g(d) force
 -------------------------

 -----
 DPGEN
 -----
 Symbolic Z-matrix:
 Charge =  0 Multiplicity = 2

                         Standard orientation:
 ---------------------------------------------------------------------
 Center     Atomic      Atomic             Coordinates (Angstroms)
 Number     Number       Type             X           Y           Z
 ---------------------------------------------------------------------
      1         11           0       -1.433652   -2.058628   -0.901169
      2         11           0        1.204326    2.247708   -0.403043
      3         11           0        0.035289   -0.472925    2.040330
      4         11           0        3.791955   -0.406459    0.625740
      5         11           0       -3.554107   -0.258137    0.518510
      6         11           0       -1.693960    1.968500   -0.506675
      7         11           0        1.650148   -1.020059   -1.373692
 ---------------------------------------------------------------------

 SCF Done:  E(UB3LYP) =  -1136.11742578     A.U. after   22 cycles

 The electronic state is 2-A.
 Alpha  occ. eigenvalues --  -38.45506 -38.45178 -38.45025 -38.43635 -38.43333
 Alpha  occ. eigenvalues --  -38.42989 -38.42932  -2.21323  -2.21042  -2.20839
 Alpha  occ. eigenvalues --   -2.19564  -2.19216  -2.18903  -2.18822  -1.15036
 Alpha  occ. eigenvalues --   -1.14962  -1.14949  -1.14734  -1.14704  -1.14671
 Alpha  occ. eigenvalues --   -1.14520  -1.14487  -1.14442  -1.13261  -1.13214
 Alpha  occ. eigenvalues --   -1.13190  -1.12889  -1.12864  -1.12856  -1.12754
 Alpha  occ. eigenvalues --   -1.12549  -1.12534  -1.12472  -1.12459  -1.12390
 Alpha  occ. eigenvalues --   -0.18538  -0.14264  -0.11614  -0.10884
 Alpha virt. eigenvalues --   -0.07405  -0.04950  -0.04510  -0.03498  -0.02898
 Alpha virt. eigenvalues --   -0.02459  -0.02361  -0.00872  -0.00844  -0.00148
 Alpha virt. eigenvalues --    0.00099   0.00168   0.00264   0.00809   0.00837

  Beta  occ. eigenvalues --  -38.45501 -38.45176 -38.44951 -38.43589 -38.43299
  Beta  occ. eigenvalues --  -38.42983 -38.42924  -2.21313  -2.21039  -2.20700
  Beta  occ. eigenvalues --   -2.19483  -2.19157  -2.18894  -2.18811  -1.15030
  Beta  occ. eigenvalues --   -1.14952  -1.14935  -1.14732  -1.14704  -1.14659
  Beta  occ. eigenvalues --   -1.14422  -1.14393  -1.14338  -1.13195  -1.13151
  Beta  occ. eigenvalues --   -1.13128  -1.12847  -1.12826  -1.12793  -1.12749
  Beta  occ. eigenvalues --   -1.12541  -1.12515  -1.12461  -1.12439  -1.12386
  Beta  occ. eigenvalues --   -0.17855  -0.14167  -0.11330
  Beta virt. eigenvalues --   -0.07239  -0.06997  -0.04958  -0.03890  -0.03270
  Beta virt. eigenvalues --   -0.02648  -0.01820  -0.01523  -0.00832  -0.00502
  Beta virt. eigenvalues --   -0.00145   0.00133   0.00204   0.00440   0.00817

 Mulliken charges and spin densities:
               1          2
     1  Na  -0.236774   0.086045
     2  Na  -0.090446   0.140951
     3  Na  -0.657862   0.443882
     4  Na   0.913223   0.120678
     5  Na   1.148452   0.127023
     6  Na  -0.730319  -0.051749
     7  Na  -0.346273   0.133171
 Sum of Mulliken charges =  -0.00000   1.00000

 Dipole moment (field-independent basis, Debye):
    X=              0.3817    Y=             -0.3564    Z=              0.7439  Tot=              0.9088
 Quadrupole moment (field-independent basis, Debye-Ang):
   XX=            -44.2851   YY=            -78.4209   ZZ=            -72.0747
   XY=              0.5643   XZ=              0.4669   YZ=              0.2985

 Normal termination of Gaussian 16 at Thu Dec  7 20:20:37 2023.
