 Gaussian 16, Revision B.01,
 Gaussian 16:  ES64L-G16RevB.01 20-Dec-2017

 -------------------------
 #P B3LYP/6-311+g(d) force
 -------------------------

 -----
 DPGEN
 -----
 Symbolic Z-matrix:
 Charge =  0 Multiplicity = 2

                         Standard orientation:
 ---------------------------------------------------------------------
 Center     Atomic      Atomic             Coordinates (Angstroms)
 Number     Number       Type             X           Y           Z
 ---------------------------------------------------------------------
      1         11           0        3.276484    1.497806   -1.062539
      2         11           0        2.034670   -2.044031   -0.414207
      3         11           0       -1.154595   -2.881941    0.617549
      4         11           0       -0.151270    0.433463   -0.838377
      5         11           0       -3.629698   -0.824013   -0.460993
      6         11           0       -2.851242    3.089088    0.395496
      7         11           0        2.475652    0.729627    1.763071
 ---------------------------------------------------------------------

 SCF Done:  E(UB3LYP) =  -1136.11401636     A.U. after   28 cycles

 The electronic state is 2-A.
 Alpha  occ. eigenvalues --  -38.45273 -38.44613 -38.44533 -38.44009 -38.43942
 Alpha  occ. eigenvalues --  -38.43624 -38.43205  -2.21107  -2.20400  -2.20262
 Alpha  occ. eigenvalues --   -2.19900  -2.19810  -2.19507  -2.19029  -1.14809
 Alpha  occ. eigenvalues --   -1.14769  -1.14742  -1.14082  -1.14064  -1.14013
 Alpha  occ. eigenvalues --   -1.13938  -1.13924  -1.13883  -1.13547  -1.13540
 Alpha  occ. eigenvalues --   -1.13532  -1.13492  -1.13477  -1.13417  -1.13229
 Alpha  occ. eigenvalues --   -1.13155  -1.13113  -1.12703  -1.12692  -1.12672
 Alpha  occ. eigenvalues --   -0.17638  -0.14035  -0.11772  -0.09653
 Alpha virt. eigenvalues --   -0.07244  -0.05923  -0.04969  -0.03277  -0.02525
 Alpha virt. eigenvalues --   -0.02154  -0.01828  -0.01582  -0.01465  -0.00707
 Alpha virt. eigenvalues --   -0.00100   0.00093   0.00200   0.00428   0.00578

  Beta  occ. eigenvalues --  -38.45276 -38.44585 -38.44520 -38.43931 -38.43915
  Beta  occ. eigenvalues --  -38.43589 -38.43197  -2.21118  -2.20349  -2.20238
  Beta  occ. eigenvalues --   -2.19763  -2.19755  -2.19444  -2.19016  -1.14805
  Beta  occ. eigenvalues --   -1.14780  -1.14719  -1.14047  -1.14030  -1.13968
  Beta  occ. eigenvalues --   -1.13922  -1.13906  -1.13869  -1.13473  -1.13451
  Beta  occ. eigenvalues --   -1.13443  -1.13428  -1.13412  -1.13388  -1.13182
  Beta  occ. eigenvalues --   -1.13120  -1.13056  -1.12697  -1.12684  -1.12646
  Beta  occ. eigenvalues --   -0.17139  -0.13541  -0.11621
  Beta virt. eigenvalues --   -0.06979  -0.06031  -0.05758  -0.04894  -0.02800
  Beta virt. eigenvalues --   -0.02350  -0.01967  -0.01541  -0.01246  -0.01076
  Beta virt. eigenvalues --   -0.00482   0.00087   0.00259   0.00328   0.00516

 Mulliken charges and spin densities:
               1          2
     1  Na   0.963749   0.139174
     2  Na   0.445498   0.132679
     3  Na  -0.126837  -0.016893
     4  Na  -1.771610   0.161310
     5  Na   0.770811   0.184981
     6  Na   0.117437   0.005278
     7  Na  -0.399049   0.393471
 Sum of Mulliken charges =  -0.00000   1.00000

 Dipole moment (field-independent basis, Debye):
    X=              0.4552    Y=              0.2994    Z=             -0.6632  Tot=              0.8582
 Quadrupole moment (field-independent basis, Debye-Ang):
   XX=            -59.4977   YY=            -67.1857   ZZ=            -71.0993
   XY=             -2.1574   XZ=             -6.5663   YZ=             -1.7791

 Normal termination of Gaussian 16 at Tue Dec  5 15:49:28 2023.
