 Gaussian 16, Revision B.01,
 Gaussian 16:  ES64L-G16RevB.01 20-Dec-2017

 -------------------------
 #P B3LYP/6-311+g(d) force
 -------------------------

 -----
 DPGEN
 -----
 Symbolic Z-matrix:
 Charge =  0 Multiplicity = 2

                         Standard orientation:
 ---------------------------------------------------------------------
 Center     Atomic      Atomic             Coordinates (Angstroms)
 Number     Number       Type             X           Y           Z
 ---------------------------------------------------------------------
      1         11           0       -1.946003   -2.156109   -0.731509
      2         11           0        0.144996   -0.304974    1.874120
      3         11           0       -2.980743    1.053617    0.327644
      4         11           0        0.103477   -0.150390   -1.621523
      5         11           0        1.709688   -2.475937    0.537986
      6         11           0        3.028047    1.126309   -0.483764
      7         11           0       -0.059462    2.907484    0.097046
 ---------------------------------------------------------------------

 SCF Done:  E(UB3LYP) =  -1136.13555956     A.U. after   19 cycles

 The electronic state is 2-A.
 Alpha  occ. eigenvalues --  -38.43931 -38.43728 -38.43689 -38.43650 -38.43604
 Alpha  occ. eigenvalues --  -38.43391 -38.43294  -2.19744  -2.19592  -2.19553
 Alpha  occ. eigenvalues --   -2.19551  -2.19479  -2.19287  -2.19229  -1.13430
 Alpha  occ. eigenvalues --   -1.13410  -1.13393  -1.13377  -1.13271  -1.13249
 Alpha  occ. eigenvalues --   -1.13225  -1.13212  -1.13204  -1.13201  -1.13187
 Alpha  occ. eigenvalues --   -1.13157  -1.13133  -1.13110  -1.13081  -1.12962
 Alpha  occ. eigenvalues --   -1.12925  -1.12905  -1.12895  -1.12881  -1.12850
 Alpha  occ. eigenvalues --   -0.18638  -0.12844  -0.12613  -0.10944
 Alpha virt. eigenvalues --   -0.05427  -0.05130  -0.04724  -0.03174  -0.03031
 Alpha virt. eigenvalues --   -0.02523  -0.01524  -0.01209  -0.00386  -0.00211
 Alpha virt. eigenvalues --    0.00038   0.00325   0.00811   0.00862   0.00897

  Beta  occ. eigenvalues --  -38.43919 -38.43724 -38.43670 -38.43579 -38.43569
  Beta  occ. eigenvalues --  -38.43389 -38.43230  -2.19723  -2.19547  -2.19526
  Beta  occ. eigenvalues --   -2.19441  -2.19434  -2.19229  -2.19171  -1.13404
  Beta  occ. eigenvalues --   -1.13381  -1.13363  -1.13341  -1.13225  -1.13218
  Beta  occ. eigenvalues --   -1.13203  -1.13187  -1.13168  -1.13153  -1.13136
  Beta  occ. eigenvalues --   -1.13096  -1.13072  -1.13053  -1.13049  -1.12920
  Beta  occ. eigenvalues --   -1.12897  -1.12871  -1.12844  -1.12819  -1.12806
  Beta  occ. eigenvalues --   -0.17966  -0.12553  -0.12300
  Beta virt. eigenvalues --   -0.07096  -0.05384  -0.05037  -0.04665  -0.02463
  Beta virt. eigenvalues --   -0.02317  -0.01524  -0.01411  -0.01087  -0.00345
  Beta virt. eigenvalues --   -0.00241   0.00134   0.00373   0.00870   0.00874

 Mulliken charges and spin densities:
               1          2
     1  Na   0.232563   0.054451
     2  Na  -0.118637   0.565449
     3  Na  -0.062270  -0.005143
     4  Na  -0.077747   0.435702
     5  Na   0.102586   0.011741
     6  Na   0.022971  -0.036615
     7  Na  -0.099466  -0.025585
 Sum of Mulliken charges =  -0.00000   1.00000

 Dipole moment (field-independent basis, Debye):
    X=              0.1484    Y=             -0.0367    Z=              0.1087  Tot=              0.1876
 Quadrupole moment (field-independent basis, Debye-Ang):
   XX=            -57.0823   YY=            -62.4788   ZZ=            -73.8937
   XY=             -0.1296   XZ=             -0.6968   YZ=              0.6453

 Normal termination of Gaussian 16 at Thu Dec  7 14:54:29 2023.
