 Gaussian 16, Revision B.01,
 Gaussian 16:  ES64L-G16RevB.01 20-Dec-2017

 -------------------------
 #P B3LYP/6-311+g(d) force
 -------------------------

 -----
 DPGEN
 -----
 Symbolic Z-matrix:
 Charge =  0 Multiplicity = 2

                         Standard orientation:
 ---------------------------------------------------------------------
 Center     Atomic      Atomic             Coordinates (Angstroms)
 Number     Number       Type             X           Y           Z
 ---------------------------------------------------------------------
      1         11           0       -0.430427    1.820909    0.253297
      2         11           0        2.742453    3.566578   -0.342015
      3         11           0        2.559703    0.220232    0.752113
      4         11           0        3.216377   -2.899021   -1.017186
      5         11           0        0.323473   -2.379887    1.188685
      6         11           0       -2.826896   -0.472577   -0.962248
      7         11           0       -5.584683    0.143766    0.127354
 ---------------------------------------------------------------------

 SCF Done:  E(UB3LYP) =  -1136.11924331     A.U. after   20 cycles

 The electronic state is 2-A.
 Alpha  occ. eigenvalues --  -38.44493 -38.44341 -38.44338 -38.44131 -38.44048
 Alpha  occ. eigenvalues --  -38.43858 -38.43585  -2.20283  -2.20154  -2.20123
 Alpha  occ. eigenvalues --   -2.19982  -2.19874  -2.19647  -2.19419  -1.13982
 Alpha  occ. eigenvalues --   -1.13945  -1.13893  -1.13853  -1.13846  -1.13786
 Alpha  occ. eigenvalues --   -1.13782  -1.13746  -1.13728  -1.13696  -1.13681
 Alpha  occ. eigenvalues --   -1.13563  -1.13558  -1.13504  -1.13500  -1.13312
 Alpha  occ. eigenvalues --   -1.13311  -1.13261  -1.13097  -1.13080  -1.13057
 Alpha  occ. eigenvalues --   -0.16635  -0.13656  -0.12561  -0.10338
 Alpha virt. eigenvalues --   -0.06422  -0.05669  -0.04711  -0.03270  -0.03001
 Alpha virt. eigenvalues --   -0.02610  -0.01655  -0.01394  -0.01244  -0.00685
 Alpha virt. eigenvalues --   -0.00617  -0.00095   0.00314   0.00392   0.00452

  Beta  occ. eigenvalues --  -38.44473 -38.44318 -38.44289 -38.44124 -38.43974
  Beta  occ. eigenvalues --  -38.43838 -38.43588  -2.20246  -2.20112  -2.20029
  Beta  occ. eigenvalues --   -2.19972  -2.19736  -2.19608  -2.19431  -1.13959
  Beta  occ. eigenvalues --   -1.13920  -1.13853  -1.13826  -1.13813  -1.13722
  Beta  occ. eigenvalues --   -1.13714  -1.13711  -1.13684  -1.13668  -1.13652
  Beta  occ. eigenvalues --   -1.13556  -1.13479  -1.13409  -1.13405  -1.13286
  Beta  occ. eigenvalues --   -1.13281  -1.13239  -1.13106  -1.13092  -1.13019
  Beta  occ. eigenvalues --   -0.16089  -0.13044  -0.12351
  Beta virt. eigenvalues --   -0.07153  -0.05859  -0.05352  -0.04465  -0.02975
  Beta virt. eigenvalues --   -0.02772  -0.02409  -0.01482  -0.01175  -0.00902
  Beta virt. eigenvalues --   -0.00435  -0.00245   0.00132   0.00446   0.00481

 Mulliken charges and spin densities:
               1          2
     1  Na  -0.730870  -0.109710
     2  Na   0.722998   0.163608
     3  Na  -0.208736   0.263776
     4  Na   0.226202   0.293666
     5  Na  -0.064629   0.039871
     6  Na  -0.209488  -0.015778
     7  Na   0.264523   0.364565
 Sum of Mulliken charges =  -0.00000   1.00000

 Dipole moment (field-independent basis, Debye):
    X=              0.5417    Y=             -0.1660    Z=              0.0989  Tot=              0.5751
 Quadrupole moment (field-independent basis, Debye-Ang):
   XX=            -69.6077   YY=            -62.5937   ZZ=            -67.3826
   XY=              0.6982   XZ=             -5.4252   YZ=              0.0562

 Normal termination of Gaussian 16 at Tue Nov 28 23:04:33 2023.
