 Gaussian 16, Revision B.01,
 Gaussian 16:  ES64L-G16RevB.01 20-Dec-2017

 -------------------------
 #P B3LYP/6-311+g(d) force
 -------------------------

 -----
 DPGEN
 -----
 Symbolic Z-matrix:
 Charge =  0 Multiplicity = 2

                         Standard orientation:
 ---------------------------------------------------------------------
 Center     Atomic      Atomic             Coordinates (Angstroms)
 Number     Number       Type             X           Y           Z
 ---------------------------------------------------------------------
      1         11           0       -2.771498   -1.537320    1.608104
      2         11           0       -0.067992    1.484005    2.093831
      3         11           0       -0.102582    2.810095   -0.892290
      4         11           0        2.760618    0.887482   -0.127238
      5         11           0        3.332688   -2.379843   -0.266542
      6         11           0       -3.026117   -0.500365   -1.876931
      7         11           0       -0.125117   -0.764055   -0.538935
 ---------------------------------------------------------------------

 SCF Done:  E(UB3LYP) =  -1136.12762255     A.U. after   20 cycles

 The electronic state is 2-A.
 Alpha  occ. eigenvalues --  -38.44404 -38.44260 -38.44099 -38.43739 -38.43591
 Alpha  occ. eigenvalues --  -38.43330 -38.43090  -2.20200  -2.20082  -2.19958
 Alpha  occ. eigenvalues --   -2.19616  -2.19442  -2.19274  -2.18881  -1.13875
 Alpha  occ. eigenvalues --   -1.13851  -1.13821  -1.13770  -1.13721  -1.13686
 Alpha  occ. eigenvalues --   -1.13638  -1.13624  -1.13561  -1.13326  -1.13310
 Alpha  occ. eigenvalues --   -1.13207  -1.13112  -1.13102  -1.13058  -1.13003
 Alpha  occ. eigenvalues --   -1.12943  -1.12881  -1.12548  -1.12545  -1.12516
 Alpha  occ. eigenvalues --   -0.17857  -0.13364  -0.11661  -0.11207
 Alpha virt. eigenvalues --   -0.05593  -0.05348  -0.05063  -0.03344  -0.02836
 Alpha virt. eigenvalues --   -0.02388  -0.01812  -0.01213  -0.00824  -0.00181
 Alpha virt. eigenvalues --    0.00214   0.00279   0.00376   0.00509   0.00735

  Beta  occ. eigenvalues --  -38.44363 -38.44210 -38.44048 -38.43736 -38.43570
  Beta  occ. eigenvalues --  -38.43311 -38.43094  -2.20126  -2.19990  -2.19864
  Beta  occ. eigenvalues --   -2.19612  -2.19403  -2.19247  -2.18889  -1.13824
  Beta  occ. eigenvalues --   -1.13797  -1.13764  -1.13702  -1.13659  -1.13623
  Beta  occ. eigenvalues --   -1.13576  -1.13562  -1.13483  -1.13322  -1.13299
  Beta  occ. eigenvalues --   -1.13208  -1.13081  -1.13076  -1.13026  -1.12945
  Beta  occ. eigenvalues --   -1.12918  -1.12869  -1.12553  -1.12550  -1.12521
  Beta  occ. eigenvalues --   -0.17215  -0.13106  -0.11613
  Beta virt. eigenvalues --   -0.07369  -0.05401  -0.05025  -0.04498  -0.03137
  Beta virt. eigenvalues --   -0.02129  -0.02014  -0.01683  -0.01121  -0.00362
  Beta virt. eigenvalues --   -0.00137   0.00276   0.00439   0.00566   0.00726

 Mulliken charges and spin densities:
               1          2
     1  Na  -0.114992   0.271627
     2  Na  -0.082588   0.216297
     3  Na   0.096945   0.264180
     4  Na   0.116438  -0.060405
     5  Na   0.344568  -0.117705
     6  Na   0.833257   0.129891
     7  Na  -1.193628   0.296115
 Sum of Mulliken charges =  -0.00000   1.00000

 Dipole moment (field-independent basis, Debye):
    X=             -0.9016    Y=              0.5502    Z=              0.2961  Tot=              1.0970
 Quadrupole moment (field-independent basis, Debye-Ang):
   XX=            -60.5831   YY=            -66.2146   ZZ=            -66.8474
   XY=              2.2117   XZ=              1.1213   YZ=             -3.0123

 Normal termination of Gaussian 16 at Tue Dec  5 13:16:23 2023.
