 Gaussian 16, Revision B.01,
 Gaussian 16:  ES64L-G16RevB.01 20-Dec-2017

 -------------------------
 #P B3LYP/6-311+g(d) force
 -------------------------

 -----
 DPGEN
 -----
 Symbolic Z-matrix:
 Charge =  0 Multiplicity = 2

                         Standard orientation:
 ---------------------------------------------------------------------
 Center     Atomic      Atomic             Coordinates (Angstroms)
 Number     Number       Type             X           Y           Z
 ---------------------------------------------------------------------
      1         11           0        0.081209   -3.115422   -0.030978
      2         11           0       -3.118058   -0.906835   -0.322671
      3         11           0        1.299396    2.985433   -0.286181
      4         11           0       -2.280010    1.998058    0.268022
      5         11           0        3.557483   -0.503408   -0.167060
      6         11           0        0.352441   -0.237356    2.105859
      7         11           0        0.107539   -0.220470   -1.566991
 ---------------------------------------------------------------------

 SCF Done:  E(UB3LYP) =  -1136.13006083     A.U. after   21 cycles

 The electronic state is 2-A.
 Alpha  occ. eigenvalues --  -38.45201 -38.44050 -38.43960 -38.43804 -38.43583
 Alpha  occ. eigenvalues --  -38.43563 -38.43327  -2.20939  -2.19887  -2.19728
 Alpha  occ. eigenvalues --   -2.19616  -2.19425  -2.19409  -2.19245  -1.14621
 Alpha  occ. eigenvalues --   -1.14584  -1.14582  -1.13600  -1.13549  -1.13515
 Alpha  occ. eigenvalues --   -1.13411  -1.13389  -1.13365  -1.13313  -1.13285
 Alpha  occ. eigenvalues --   -1.13240  -1.13097  -1.13084  -1.13074  -1.13061
 Alpha  occ. eigenvalues --   -1.13031  -1.13024  -1.12939  -1.12884  -1.12862
 Alpha  occ. eigenvalues --   -0.17945  -0.12870  -0.12225  -0.10376
 Alpha virt. eigenvalues --   -0.06487  -0.05136  -0.04847  -0.03092  -0.02759
 Alpha virt. eigenvalues --   -0.02419  -0.02052  -0.01305  -0.00775  -0.00555
 Alpha virt. eigenvalues --   -0.00048   0.00303   0.00669   0.00706   0.00802

  Beta  occ. eigenvalues --  -38.45199 -38.44045 -38.43958 -38.43799 -38.43579
  Beta  occ. eigenvalues --  -38.43461 -38.43274  -2.20938  -2.19880  -2.19726
  Beta  occ. eigenvalues --   -2.19610  -2.19420  -2.19221  -2.19149  -1.14606
  Beta  occ. eigenvalues --   -1.14584  -1.14583  -1.13598  -1.13526  -1.13512
  Beta  occ. eigenvalues --   -1.13400  -1.13385  -1.13365  -1.13306  -1.13261
  Beta  occ. eigenvalues --   -1.13237  -1.13095  -1.13062  -1.13057  -1.12950
  Beta  occ. eigenvalues --   -1.12901  -1.12890  -1.12867  -1.12817  -1.12791
  Beta  occ. eigenvalues --   -0.17255  -0.12677  -0.12016
  Beta virt. eigenvalues --   -0.06508  -0.06473  -0.05057  -0.04792  -0.02386
  Beta virt. eigenvalues --   -0.02065  -0.01956  -0.01369  -0.01234  -0.00817
  Beta virt. eigenvalues --   -0.00579   0.00115   0.00351   0.00686   0.00794

 Mulliken charges and spin densities:
               1          2
     1  Na   0.145299  -0.096062
     2  Na   0.194046   0.018298
     3  Na  -0.010739  -0.034842
     4  Na   0.058778   0.025901
     5  Na   0.033286  -0.101593
     6  Na  -0.357062   0.775452
     7  Na  -0.063608   0.412845
 Sum of Mulliken charges =  -0.00000   1.00000

 Dipole moment (field-independent basis, Debye):
    X=              0.6796    Y=             -0.2737    Z=             -0.0011  Tot=              0.7326
 Quadrupole moment (field-independent basis, Debye-Ang):
   XX=            -53.8656   YY=            -61.7025   ZZ=            -76.7898
   XY=              0.1396   XZ=             -0.3151   YZ=              0.2638

 Normal termination of Gaussian 16 at Thu Dec  7 14:19:14 2023.
