 Gaussian 16, Revision B.01,
 Gaussian 16:  ES64L-G16RevB.01 20-Dec-2017

 -------------------------
 #P B3LYP/6-311+g(d) force
 -------------------------

 -----
 DPGEN
 -----
 Symbolic Z-matrix:
 Charge =  0 Multiplicity = 2

                         Standard orientation:
 ---------------------------------------------------------------------
 Center     Atomic      Atomic             Coordinates (Angstroms)
 Number     Number       Type             X           Y           Z
 ---------------------------------------------------------------------
      1         11           0       -0.792323   -0.183247    1.703459
      2         11           0        0.993996    1.772763   -0.445485
      3         11           0        4.101264    0.610700   -0.392074
      4         11           0        2.289308   -1.486676    0.625121
      5         11           0       -0.650318   -2.498821   -1.060940
      6         11           0       -3.777166   -0.763570   -0.216095
      7         11           0       -2.164760    2.548852   -0.213986
 ---------------------------------------------------------------------

 SCF Done:  E(UB3LYP) =  -1136.12385878     A.U. after   22 cycles

 The electronic state is 2-A.
 Alpha  occ. eigenvalues --  -38.44248 -38.44241 -38.43984 -38.43870 -38.43720
 Alpha  occ. eigenvalues --  -38.43695 -38.43635  -2.20143  -2.20035  -2.19809
 Alpha  occ. eigenvalues --   -2.19781  -2.19610  -2.19522  -2.19517  -1.13843
 Alpha  occ. eigenvalues --   -1.13800  -1.13749  -1.13725  -1.13684  -1.13680
 Alpha  occ. eigenvalues --   -1.13547  -1.13477  -1.13449  -1.13440  -1.13438
 Alpha  occ. eigenvalues --   -1.13428  -1.13271  -1.13231  -1.13222  -1.13205
 Alpha  occ. eigenvalues --   -1.13202  -1.13197  -1.13180  -1.13160  -1.13087
 Alpha  occ. eigenvalues --   -0.18023  -0.14270  -0.12112  -0.10408
 Alpha virt. eigenvalues --   -0.06879  -0.05680  -0.04011  -0.03635  -0.02861
 Alpha virt. eigenvalues --   -0.02455  -0.01811  -0.01420  -0.00783  -0.00550
 Alpha virt. eigenvalues --   -0.00122   0.00025   0.00414   0.00587   0.00730

  Beta  occ. eigenvalues --  -38.44254 -38.44185 -38.43912 -38.43854 -38.43693
  Beta  occ. eigenvalues --  -38.43660 -38.43627  -2.20050  -2.20044  -2.19759
  Beta  occ. eigenvalues --   -2.19674  -2.19521  -2.19506  -2.19498  -1.13767
  Beta  occ. eigenvalues --   -1.13738  -1.13730  -1.13697  -1.13678  -1.13660
  Beta  occ. eigenvalues --   -1.13502  -1.13439  -1.13401  -1.13383  -1.13352
  Beta  occ. eigenvalues --   -1.13335  -1.13244  -1.13197  -1.13188  -1.13181
  Beta  occ. eigenvalues --   -1.13163  -1.13153  -1.13148  -1.13138  -1.13062
  Beta  occ. eigenvalues --   -0.17437  -0.13615  -0.11905
  Beta virt. eigenvalues --   -0.06899  -0.06668  -0.05528  -0.03683  -0.03147
  Beta virt. eigenvalues --   -0.02491  -0.02236  -0.01440  -0.01094  -0.00570
  Beta virt. eigenvalues --   -0.00166  -0.00054   0.00209   0.00576   0.00643

 Mulliken charges and spin densities:
               1          2
     1  Na  -0.065338   0.177185
     2  Na  -1.155006  -0.096653
     3  Na   1.050388   0.252030
     4  Na  -0.370328   0.143936
     5  Na   0.057041  -0.063551
     6  Na   0.077471   0.476090
     7  Na   0.405772   0.110964
 Sum of Mulliken charges =  -0.00000   1.00000

 Dipole moment (field-independent basis, Debye):
    X=             -0.1288    Y=             -0.1651    Z=              0.2441  Tot=              0.3216
 Quadrupole moment (field-independent basis, Debye-Ang):
   XX=            -66.4253   YY=            -70.5368   ZZ=            -65.7848
   XY=             -3.8743   XZ=             -0.6491   YZ=             -0.3070

 Normal termination of Gaussian 16 at Sun Dec  3 16:01:13 2023.
