 Gaussian 16, Revision B.01,
 Gaussian 16:  ES64L-G16RevB.01 20-Dec-2017

 -------------------------
 #P B3LYP/6-311+g(d) force
 -------------------------

 -----
 DPGEN
 -----
 Symbolic Z-matrix:
 Charge =  0 Multiplicity = 2

                         Standard orientation:
 ---------------------------------------------------------------------
 Center     Atomic      Atomic             Coordinates (Angstroms)
 Number     Number       Type             X           Y           Z
 ---------------------------------------------------------------------
      1         11           0       -0.183702    1.915161   -0.385878
      2         11           0        3.465020    1.209530    0.232915
      3         11           0        1.560547   -0.943251    1.410273
      4         11           0       -1.632666   -0.588718    1.904282
      5         11           0       -1.422547   -1.606298   -1.112958
      6         11           0       -3.782835    0.976040   -0.438920
      7         11           0        1.996183   -0.962463   -1.609713
 ---------------------------------------------------------------------

 SCF Done:  E(UB3LYP) =  -1136.12090465     A.U. after   26 cycles

 The electronic state is 2-A.
 Alpha  occ. eigenvalues --  -38.44350 -38.44306 -38.44188 -38.44148 -38.43812
 Alpha  occ. eigenvalues --  -38.43514 -38.43388  -2.20159  -2.20120  -2.20098
 Alpha  occ. eigenvalues --   -2.20029  -2.19729  -2.19406  -2.19364  -1.13845
 Alpha  occ. eigenvalues --   -1.13835  -1.13818  -1.13816  -1.13809  -1.13787
 Alpha  occ. eigenvalues --   -1.13779  -1.13757  -1.13722  -1.13688  -1.13648
 Alpha  occ. eigenvalues --   -1.13630  -1.13427  -1.13399  -1.13329  -1.13092
 Alpha  occ. eigenvalues --   -1.13062  -1.13039  -1.13030  -1.13009  -1.12966
 Alpha  occ. eigenvalues --   -0.18820  -0.14529  -0.11486  -0.10873
 Alpha virt. eigenvalues --   -0.06952  -0.05083  -0.04891  -0.03269  -0.02639
 Alpha virt. eigenvalues --   -0.02350  -0.02218  -0.01153  -0.00801  -0.00151
 Alpha virt. eigenvalues --    0.00123   0.00291   0.00326   0.00660   0.00709

  Beta  occ. eigenvalues --  -38.44336 -38.44317 -38.44133 -38.44133 -38.43758
  Beta  occ. eigenvalues --  -38.43480 -38.43350  -2.20133  -2.20121  -2.20021
  Beta  occ. eigenvalues --   -2.20001  -2.19632  -2.19344  -2.19299  -1.13830
  Beta  occ. eigenvalues --   -1.13809  -1.13805  -1.13802  -1.13790  -1.13773
  Beta  occ. eigenvalues --   -1.13713  -1.13709  -1.13699  -1.13686  -1.13628
  Beta  occ. eigenvalues --   -1.13585  -1.13360  -1.13330  -1.13256  -1.13048
  Beta  occ. eigenvalues --   -1.13007  -1.12993  -1.12965  -1.12961  -1.12915
  Beta  occ. eigenvalues --   -0.18145  -0.14326  -0.10639
  Beta virt. eigenvalues --   -0.07473  -0.06772  -0.04988  -0.04263  -0.02894
  Beta virt. eigenvalues --   -0.02563  -0.01794  -0.01598  -0.01032  -0.00305
  Beta virt. eigenvalues --   -0.00031   0.00165   0.00313   0.00502   0.00733

 Mulliken charges and spin densities:
               1          2
     1  Na  -0.963440   0.029969
     2  Na   1.096152   0.053628
     3  Na  -0.678309   0.356452
     4  Na   0.228499   0.063575
     5  Na  -0.461599   0.266562
     6  Na   0.715936   0.063285
     7  Na   0.062763   0.166529
 Sum of Mulliken charges =  -0.00000   1.00000

 Dipole moment (field-independent basis, Debye):
    X=             -0.1418    Y=             -0.0827    Z=             -0.1034  Tot=              0.1940
 Quadrupole moment (field-independent basis, Debye-Ang):
   XX=            -49.3668   YY=            -77.8491   ZZ=            -68.8048
   XY=              1.3340   XZ=             -0.1595   YZ=              2.3180

 Normal termination of Gaussian 16 at Tue Dec  5 16:15:03 2023.
