 Gaussian 16, Revision B.01,
 Gaussian 16:  ES64L-G16RevB.01 20-Dec-2017

 -------------------------
 #P B3LYP/6-311+g(d) force
 -------------------------

 -----
 DPGEN
 -----
 Symbolic Z-matrix:
 Charge =  0 Multiplicity = 2

                         Standard orientation:
 ---------------------------------------------------------------------
 Center     Atomic      Atomic             Coordinates (Angstroms)
 Number     Number       Type             X           Y           Z
 ---------------------------------------------------------------------
      1         11           0       -1.242745   -0.260722    2.029334
      2         11           0       -2.768354    1.987212   -0.296080
      3         11           0        3.364129    0.388852   -0.149826
      4         11           0       -1.775239   -2.004433   -1.097172
      5         11           0        0.913936   -2.330053    0.873706
      6         11           0        0.482379   -0.301212   -1.573554
      7         11           0        1.025893    2.520357    0.213592
 ---------------------------------------------------------------------

 SCF Done:  E(UB3LYP) =  -1136.13014829     A.U. after   19 cycles

 The electronic state is 2-A.
 Alpha  occ. eigenvalues --  -38.43849 -38.43848 -38.43817 -38.43783 -38.43674
 Alpha  occ. eigenvalues --  -38.43488 -38.43371  -2.19769  -2.19730  -2.19635
 Alpha  occ. eigenvalues --   -2.19589  -2.19515  -2.19512  -2.19289  -1.13616
 Alpha  occ. eigenvalues --   -1.13423  -1.13397  -1.13368  -1.13353  -1.13348
 Alpha  occ. eigenvalues --   -1.13343  -1.13313  -1.13277  -1.13262  -1.13244
 Alpha  occ. eigenvalues --   -1.13232  -1.13214  -1.13187  -1.13175  -1.13119
 Alpha  occ. eigenvalues --   -1.13106  -1.13102  -1.12968  -1.12931  -1.12897
 Alpha  occ. eigenvalues --   -0.18605  -0.13088  -0.12286  -0.11301
 Alpha virt. eigenvalues --   -0.05489  -0.05118  -0.04465  -0.03353  -0.03163
 Alpha virt. eigenvalues --   -0.02811  -0.01480  -0.01058  -0.00369   0.00007
 Alpha virt. eigenvalues --    0.00057   0.00342   0.00794   0.00852   0.00883

  Beta  occ. eigenvalues --  -38.43818 -38.43808 -38.43783 -38.43771 -38.43672
  Beta  occ. eigenvalues --  -38.43429 -38.43342  -2.19697  -2.19637  -2.19593
  Beta  occ. eigenvalues --   -2.19589  -2.19513  -2.19407  -2.19239  -1.13548
  Beta  occ. eigenvalues --   -1.13346  -1.13336  -1.13321  -1.13313  -1.13307
  Beta  occ. eigenvalues --   -1.13274  -1.13273  -1.13265  -1.13248  -1.13243
  Beta  occ. eigenvalues --   -1.13215  -1.13204  -1.13176  -1.13114  -1.13107
  Beta  occ. eigenvalues --   -1.13053  -1.13019  -1.12928  -1.12868  -1.12867
  Beta  occ. eigenvalues --   -0.17894  -0.12873  -0.12122
  Beta virt. eigenvalues --   -0.07204  -0.05448  -0.05029  -0.04354  -0.02773
  Beta virt. eigenvalues --   -0.02463  -0.01768  -0.01435  -0.00931  -0.00202
  Beta virt. eigenvalues --    0.00028   0.00130   0.00394   0.00853   0.00880

 Mulliken charges and spin densities:
               1          2
     1  Na  -0.215372   0.413784
     2  Na  -0.141646  -0.073384
     3  Na   0.331225  -0.028084
     4  Na   0.295026   0.015631
     5  Na   0.045187   0.308895
     6  Na  -0.110060   0.404593
     7  Na  -0.204360  -0.041435
 Sum of Mulliken charges =  -0.00000   1.00000

 Dipole moment (field-independent basis, Debye):
    X=              0.0465    Y=              0.0136    Z=              0.1703  Tot=              0.1771
 Quadrupole moment (field-independent basis, Debye-Ang):
   XX=            -57.3083   YY=            -66.2059   ZZ=            -71.3658
   XY=             -0.3386   XZ=              2.6308   YZ=             -0.3166

 Normal termination of Gaussian 16 at Fri Dec  8 05:56:52 2023.
