 Gaussian 16, Revision B.01,
 Gaussian 16:  ES64L-G16RevB.01 20-Dec-2017

 -------------------------
 #P B3LYP/6-311+g(d) force
 -------------------------

 -----
 DPGEN
 -----
 Symbolic Z-matrix:
 Charge =  0 Multiplicity = 2

                         Standard orientation:
 ---------------------------------------------------------------------
 Center     Atomic      Atomic             Coordinates (Angstroms)
 Number     Number       Type             X           Y           Z
 ---------------------------------------------------------------------
      1         11           0       -0.011872    0.025984   -1.590392
      2         11           0       -3.000060   -0.673151   -0.107213
      3         11           0       -0.212825   -2.930105    0.004553
      4         11           0       -1.416023    2.701016   -0.071371
      5         11           0       -0.210642    0.025079    1.781288
      6         11           0        2.705034   -1.145187   -0.052288
      7         11           0        2.146387    1.996364    0.035424
 ---------------------------------------------------------------------

 SCF Done:  E(UB3LYP) =  -1136.14053090     A.U. after   19 cycles

 The electronic state is 2-A.
 Alpha  occ. eigenvalues --  -38.43933 -38.43688 -38.43539 -38.43486 -38.43455
 Alpha  occ. eigenvalues --  -38.42962 -38.42807  -2.19778  -2.19531  -2.19424
 Alpha  occ. eigenvalues --   -2.19380  -2.19326  -2.18935  -2.18836  -1.13455
 Alpha  occ. eigenvalues --   -1.13450  -1.13407  -1.13212  -1.13203  -1.13164
 Alpha  occ. eigenvalues --   -1.13158  -1.13090  -1.13073  -1.13063  -1.13035
 Alpha  occ. eigenvalues --   -1.13002  -1.12994  -1.12988  -1.12944  -1.12639
 Alpha  occ. eigenvalues --   -1.12552  -1.12550  -1.12514  -1.12458  -1.12456
 Alpha  occ. eigenvalues --   -0.19089  -0.13055  -0.12774  -0.10431
 Alpha virt. eigenvalues --   -0.05512  -0.05099  -0.04922  -0.02979  -0.02817
 Alpha virt. eigenvalues --   -0.02142  -0.01416  -0.01278  -0.00350  -0.00298
 Alpha virt. eigenvalues --    0.00040   0.00369   0.00851   0.00880   0.00926

  Beta  occ. eigenvalues --  -38.43928 -38.43683 -38.43534 -38.43481 -38.43449
  Beta  occ. eigenvalues --  -38.42878 -38.42738  -2.19771  -2.19526  -2.19418
  Beta  occ. eigenvalues --   -2.19374  -2.19319  -2.18781  -2.18709  -1.13451
  Beta  occ. eigenvalues --   -1.13421  -1.13407  -1.13208  -1.13175  -1.13164
  Beta  occ. eigenvalues --   -1.13157  -1.13076  -1.13060  -1.13051  -1.13005
  Beta  occ. eigenvalues --   -1.12996  -1.12989  -1.12959  -1.12944  -1.12538
  Beta  occ. eigenvalues --   -1.12441  -1.12439  -1.12421  -1.12366  -1.12363
  Beta  occ. eigenvalues --   -0.18361  -0.12794  -0.12514
  Beta virt. eigenvalues --   -0.06514  -0.05516  -0.05080  -0.04916  -0.02168
  Beta virt. eigenvalues --   -0.02026  -0.01337  -0.01210  -0.01106  -0.00412
  Beta virt. eigenvalues --   -0.00358   0.00170   0.00395   0.00865   0.00897

 Mulliken charges and spin densities:
               1          2
     1  Na  -0.442793   0.621989
     2  Na   0.137557  -0.122022
     3  Na   0.203883  -0.072679
     4  Na   0.125121  -0.121794
     5  Na  -0.433982   0.775553
     6  Na   0.196739  -0.028002
     7  Na   0.213475  -0.053044
 Sum of Mulliken charges =  -0.00000   1.00000

 Dipole moment (field-independent basis, Debye):
    X=             -0.2804    Y=              0.0630    Z=              0.0651  Tot=              0.2947
 Quadrupole moment (field-independent basis, Debye-Ang):
   XX=            -56.8749   YY=            -58.7829   ZZ=            -76.1893
   XY=             -0.0533   XZ=              0.4747   YZ=              0.0121

 Normal termination of Gaussian 16 at Thu Dec  7 16:24:16 2023.
