 Gaussian 16, Revision B.01,
 Gaussian 16:  ES64L-G16RevB.01 20-Dec-2017

 -------------------------
 #P B3LYP/6-311+g(d) force
 -------------------------

 -----
 DPGEN
 -----
 Symbolic Z-matrix:
 Charge =  0 Multiplicity = 2

                         Standard orientation:
 ---------------------------------------------------------------------
 Center     Atomic      Atomic             Coordinates (Angstroms)
 Number     Number       Type             X           Y           Z
 ---------------------------------------------------------------------
      1         11           0        1.179513   -1.717603   -0.920738
      2         11           0        1.453434    1.265557   -1.072266
      3         11           0        3.294251   -0.368822    0.590886
      4         11           0        0.583601   -0.194601    1.725605
      5         11           0       -0.841361    2.184338    0.055937
      6         11           0       -1.491735   -0.569730   -0.687706
      7         11           0       -4.177704   -0.599138    0.308283
 ---------------------------------------------------------------------

 SCF Done:  E(UB3LYP) =  -1136.08636335     A.U. after   33 cycles

 The electronic state is 2-A.
 Alpha  occ. eigenvalues --  -38.45445 -38.44978 -38.44559 -38.43766 -38.43485
 Alpha  occ. eigenvalues --  -38.43437 -38.42890  -2.21239  -2.20980  -2.20626
 Alpha  occ. eigenvalues --   -2.19856  -2.19641  -2.19559  -2.18911  -1.14986
 Alpha  occ. eigenvalues --   -1.14881  -1.14872  -1.14754  -1.14663  -1.14606
 Alpha  occ. eigenvalues --   -1.14346  -1.14239  -1.14213  -1.13656  -1.13548
 Alpha  occ. eigenvalues --   -1.13460  -1.13450  -1.13259  -1.13242  -1.13226
 Alpha  occ. eigenvalues --   -1.13211  -1.13156  -1.12561  -1.12527  -1.12498
 Alpha  occ. eigenvalues --   -0.20519  -0.14313  -0.11701  -0.11454
 Alpha virt. eigenvalues --   -0.07696  -0.04376  -0.03887  -0.03297  -0.02974
 Alpha virt. eigenvalues --   -0.02246  -0.02212  -0.00899  -0.00599  -0.00115
 Alpha virt. eigenvalues --    0.00173   0.00336   0.00428   0.00790   0.00954

  Beta  occ. eigenvalues --  -38.45475 -38.44957 -38.44486 -38.43701 -38.43438
  Beta  occ. eigenvalues --  -38.43400 -38.42887  -2.21294  -2.20946  -2.20494
  Beta  occ. eigenvalues --   -2.19744  -2.19559  -2.19498  -2.18909  -1.15024
  Beta  occ. eigenvalues --   -1.14917  -1.14907  -1.14729  -1.14606  -1.14575
  Beta  occ. eigenvalues --   -1.14253  -1.14141  -1.14118  -1.13575  -1.13477
  Beta  occ. eigenvalues --   -1.13421  -1.13342  -1.13217  -1.13200  -1.13157
  Beta  occ. eigenvalues --   -1.13114  -1.13073  -1.12564  -1.12497  -1.12491
  Beta  occ. eigenvalues --   -0.19598  -0.14284  -0.11350
  Beta virt. eigenvalues --   -0.07541  -0.07197  -0.04365  -0.03393  -0.03053
  Beta virt. eigenvalues --   -0.02790  -0.01549  -0.01208  -0.00787  -0.00378
  Beta virt. eigenvalues --   -0.00048   0.00167   0.00407   0.00555   0.00856

 Mulliken charges and spin densities:
               1          2
     1  Na   0.152805   0.071575
     2  Na  -0.184755   0.301083
     3  Na   1.297377   0.059928
     4  Na  -0.845794   0.533682
     5  Na   0.176480  -0.040415
     6  Na  -1.406238   0.040028
     7  Na   0.810124   0.034118
 Sum of Mulliken charges =  -0.00000   1.00000

 Dipole moment (field-independent basis, Debye):
    X=             -0.1705    Y=              0.3558    Z=              0.4218  Tot=              0.5775
 Quadrupole moment (field-independent basis, Debye-Ang):
   XX=            -47.6152   YY=            -75.3775   ZZ=            -71.0372
   XY=             -0.2953   XZ=             -2.6099   YZ=              0.0372

 Normal termination of Gaussian 16 at Fri Dec  8 20:23:49 2023.
