 Gaussian 16, Revision B.01,
 Gaussian 16:  ES64L-G16RevB.01 20-Dec-2017

 -------------------------
 #P B3LYP/6-311+g(d) force
 -------------------------

 -----
 DPGEN
 -----
 Symbolic Z-matrix:
 Charge =  0 Multiplicity = 2

                         Standard orientation:
 ---------------------------------------------------------------------
 Center     Atomic      Atomic             Coordinates (Angstroms)
 Number     Number       Type             X           Y           Z
 ---------------------------------------------------------------------
      1         11           0        2.854016   -0.536933   -1.784993
      2         11           0        2.586640   -0.263661    2.093604
      3         11           0       -1.441990    3.627455    0.305048
      4         11           0       -3.516267    0.268006   -0.334351
      5         11           0        1.272924    2.592903   -0.407049
      6         11           0        1.212450   -2.821149   -0.038166
      7         11           0       -2.967774   -2.866620    0.165908
 ---------------------------------------------------------------------

 SCF Done:  E(UB3LYP) =  -1136.11013328     A.U. after   21 cycles

 The electronic state is 2-A.
 Alpha  occ. eigenvalues --  -38.45391 -38.45033 -38.44587 -38.44503 -38.44431
 Alpha  occ. eigenvalues --  -38.43989 -38.43842  -2.21158  -2.20788  -2.20398
 Alpha  occ. eigenvalues --   -2.20305  -2.20203  -2.19802  -2.19677  -1.14845
 Alpha  occ. eigenvalues --   -1.14830  -1.14795  -1.14470  -1.14462  -1.14426
 Alpha  occ. eigenvalues --   -1.14182  -1.14062  -1.14048  -1.13952  -1.13937
 Alpha  occ. eigenvalues --   -1.13903  -1.13867  -1.13861  -1.13849  -1.13455
 Alpha  occ. eigenvalues --   -1.13441  -1.13412  -1.13337  -1.13322  -1.13293
 Alpha  occ. eigenvalues --   -0.16450  -0.13582  -0.12997  -0.10236
 Alpha virt. eigenvalues --   -0.07208  -0.06752  -0.04226  -0.03216  -0.02820
 Alpha virt. eigenvalues --   -0.02598  -0.02122  -0.01933  -0.01433  -0.01328
 Alpha virt. eigenvalues --   -0.00443  -0.00112   0.00373   0.00428   0.00477

  Beta  occ. eigenvalues --  -38.45389 -38.45036 -38.44580 -38.44505 -38.44432
  Beta  occ. eigenvalues --  -38.43889 -38.43769  -2.21160  -2.20793  -2.20387
  Beta  occ. eigenvalues --   -2.20309  -2.20205  -2.19615  -2.19541  -1.14839
  Beta  occ. eigenvalues --   -1.14813  -1.14796  -1.14473  -1.14465  -1.14431
  Beta  occ. eigenvalues --   -1.14178  -1.14045  -1.14038  -1.13952  -1.13939
  Beta  occ. eigenvalues --   -1.13901  -1.13867  -1.13863  -1.13851  -1.13325
  Beta  occ. eigenvalues --   -1.13310  -1.13288  -1.13243  -1.13227  -1.13200
  Beta  occ. eigenvalues --   -0.15929  -0.13357  -0.12977
  Beta virt. eigenvalues --   -0.07019  -0.06697  -0.06173  -0.04023  -0.02996
  Beta virt. eigenvalues --   -0.02412  -0.02268  -0.01910  -0.01555  -0.01419
  Beta virt. eigenvalues --   -0.00969  -0.00008   0.00241   0.00478   0.00520

 Mulliken charges and spin densities:
               1          2
     1  Na   0.352511   0.224094
     2  Na   0.078907   0.458477
     3  Na   0.367463  -0.081510
     4  Na  -0.411553   0.009089
     5  Na  -0.499660   0.168946
     6  Na  -0.260348   0.298598
     7  Na   0.372679  -0.077694
 Sum of Mulliken charges =  -0.00000   1.00000

 Dipole moment (field-independent basis, Debye):
    X=             -0.9308    Y=             -0.1615    Z=             -0.0266  Tot=              0.9451
 Quadrupole moment (field-independent basis, Debye-Ang):
   XX=            -65.0156   YY=            -58.1530   ZZ=            -78.5095
   XY=             -1.2854   XZ=             -1.3316   YZ=              0.3996

 Normal termination of Gaussian 16 at Sun Dec  3 12:15:37 2023.
