 Gaussian 16, Revision B.01,
 Gaussian 16:  ES64L-G16RevB.01 20-Dec-2017

 -------------------------
 #P B3LYP/6-311+g(d) force
 -------------------------

 -----
 DPGEN
 -----
 Symbolic Z-matrix:
 Charge =  0 Multiplicity = 2

                         Standard orientation:
 ---------------------------------------------------------------------
 Center     Atomic      Atomic             Coordinates (Angstroms)
 Number     Number       Type             X           Y           Z
 ---------------------------------------------------------------------
      1         11           0        2.151780    1.932107   -0.399491
      2         11           0        0.138699    0.533730   -1.866842
      3         11           0        2.386765   -1.949375   -0.866417
      4         11           0       -1.491048   -1.902559    1.072786
      5         11           0       -1.416546    1.929293    1.258854
      6         11           0       -3.443091   -0.239681   -1.021917
      7         11           0        1.673441   -0.303516    1.823027
 ---------------------------------------------------------------------

 SCF Done:  E(UB3LYP) =  -1136.12601439     A.U. after   21 cycles

 The electronic state is 2-A.
 Alpha  occ. eigenvalues --  -38.44440 -38.44265 -38.43894 -38.43797 -38.43793
 Alpha  occ. eigenvalues --  -38.43536 -38.43490  -2.20251  -2.20069  -2.19827
 Alpha  occ. eigenvalues --   -2.19706  -2.19624  -2.19399  -2.19350  -1.13917
 Alpha  occ. eigenvalues --   -1.13909  -1.13885  -1.13754  -1.13722  -1.13684
 Alpha  occ. eigenvalues --   -1.13621  -1.13468  -1.13437  -1.13404  -1.13370
 Alpha  occ. eigenvalues --   -1.13359  -1.13294  -1.13251  -1.13239  -1.13069
 Alpha  occ. eigenvalues --   -1.13044  -1.13038  -1.13024  -1.12978  -1.12970
 Alpha  occ. eigenvalues --   -0.18423  -0.13548  -0.11694  -0.11274
 Alpha virt. eigenvalues --   -0.05825  -0.05324  -0.04658  -0.03284  -0.03032
 Alpha virt. eigenvalues --   -0.02919  -0.01597  -0.00949  -0.00586   0.00050
 Alpha virt. eigenvalues --    0.00223   0.00331   0.00398   0.00539   0.00767

  Beta  occ. eigenvalues --  -38.44425 -38.44229 -38.43835 -38.43775 -38.43748
  Beta  occ. eigenvalues --  -38.43526 -38.43485  -2.20223  -2.20005  -2.19719
  Beta  occ. eigenvalues --   -2.19617  -2.19591  -2.19395  -2.19335  -1.13896
  Beta  occ. eigenvalues --   -1.13886  -1.13869  -1.13703  -1.13671  -1.13640
  Beta  occ. eigenvalues --   -1.13556  -1.13398  -1.13357  -1.13349  -1.13307
  Beta  occ. eigenvalues --   -1.13300  -1.13259  -1.13223  -1.13198  -1.13042
  Beta  occ. eigenvalues --   -1.13035  -1.13021  -1.13000  -1.12968  -1.12964
  Beta  occ. eigenvalues --   -0.17647  -0.13352  -0.11095
  Beta virt. eigenvalues --   -0.07803  -0.05522  -0.05210  -0.04132  -0.03073
  Beta virt. eigenvalues --   -0.02442  -0.02028  -0.01501  -0.00725  -0.00407
  Beta virt. eigenvalues --    0.00141   0.00274   0.00404   0.00534   0.00612

 Mulliken charges and spin densities:
               1          2
     1  Na   0.596940  -0.050201
     2  Na  -0.437383   0.530302
     3  Na  -0.021699  -0.095626
     4  Na  -0.303591   0.072270
     5  Na  -0.234638   0.129689
     6  Na   0.313778  -0.060030
     7  Na   0.086593   0.473595
 Sum of Mulliken charges =  -0.00000   1.00000

 Dipole moment (field-independent basis, Debye):
    X=             -0.5681    Y=              0.1360    Z=             -0.1185  Tot=              0.5961
 Quadrupole moment (field-independent basis, Debye-Ang):
   XX=            -56.0680   YY=            -73.0935   ZZ=            -66.5026
   XY=             -0.4432   XZ=              0.8314   YZ=              4.2892

 Normal termination of Gaussian 16 at Thu Dec  7 03:22:37 2023.
