 Gaussian 16, Revision B.01,
 Gaussian 16:  ES64L-G16RevB.01 20-Dec-2017

 -------------------------
 #P B3LYP/6-311+g(d) force
 -------------------------

 -----
 DPGEN
 -----
 Symbolic Z-matrix:
 Charge =  0 Multiplicity = 2

                         Standard orientation:
 ---------------------------------------------------------------------
 Center     Atomic      Atomic             Coordinates (Angstroms)
 Number     Number       Type             X           Y           Z
 ---------------------------------------------------------------------
      1         11           0        0.615871   -2.045221   -1.461016
      2         11           0       -3.520671    1.858313    0.608438
      3         11           0        3.136385    1.952765   -1.000974
      4         11           0       -0.418164   -1.738659    1.783864
      5         11           0        2.950896   -0.290958    1.229191
      6         11           0       -2.510890   -0.830962   -1.331686
      7         11           0       -0.253427    1.094722    0.172183
 ---------------------------------------------------------------------

 SCF Done:  E(UB3LYP) =  -1136.12895837     A.U. after   21 cycles

 The electronic state is 2-A.
 Alpha  occ. eigenvalues --  -38.44356 -38.44081 -38.43633 -38.43622 -38.43619
 Alpha  occ. eigenvalues --  -38.43550 -38.43377  -2.20202  -2.19961  -2.19552
 Alpha  occ. eigenvalues --   -2.19511  -2.19445  -2.19359  -2.19244  -1.13883
 Alpha  occ. eigenvalues --   -1.13870  -1.13835  -1.13668  -1.13621  -1.13564
 Alpha  occ. eigenvalues --   -1.13305  -1.13257  -1.13168  -1.13161  -1.13135
 Alpha  occ. eigenvalues --   -1.13126  -1.13105  -1.13090  -1.13080  -1.13024
 Alpha  occ. eigenvalues --   -1.13014  -1.12987  -1.12922  -1.12880  -1.12869
 Alpha  occ. eigenvalues --   -0.18184  -0.13692  -0.11641  -0.11030
 Alpha virt. eigenvalues --   -0.06001  -0.05290  -0.04695  -0.03201  -0.02889
 Alpha virt. eigenvalues --   -0.02181  -0.02112  -0.01104  -0.00800  -0.00219
 Alpha virt. eigenvalues --    0.00007   0.00181   0.00459   0.00538   0.00758

  Beta  occ. eigenvalues --  -38.44341 -38.44046 -38.43603 -38.43601 -38.43576
  Beta  occ. eigenvalues --  -38.43546 -38.43339  -2.20177  -2.19899  -2.19526
  Beta  occ. eigenvalues --   -2.19408  -2.19406  -2.19352  -2.19176  -1.13862
  Beta  occ. eigenvalues --   -1.13853  -1.13802  -1.13624  -1.13579  -1.13508
  Beta  occ. eigenvalues --   -1.13259  -1.13217  -1.13147  -1.13106  -1.13081
  Beta  occ. eigenvalues --   -1.13066  -1.13062  -1.13056  -1.13045  -1.13018
  Beta  occ. eigenvalues --   -1.13006  -1.12983  -1.12872  -1.12830  -1.12813
  Beta  occ. eigenvalues --   -0.17507  -0.13487  -0.11381
  Beta virt. eigenvalues --   -0.07212  -0.05855  -0.05072  -0.04278  -0.02823
  Beta virt. eigenvalues --   -0.02372  -0.02094  -0.01516  -0.00917  -0.00428
  Beta virt. eigenvalues --   -0.00086   0.00116   0.00259   0.00536   0.00622

 Mulliken charges and spin densities:
               1          2
     1  Na   0.047807   0.282925
     2  Na   0.479218   0.051695
     3  Na   0.799933   0.021242
     4  Na  -0.069479   0.329819
     5  Na   0.876873   0.018346
     6  Na   0.241498  -0.018956
     7  Na  -2.375851   0.314929
 Sum of Mulliken charges =  -0.00000   1.00000

 Dipole moment (field-independent basis, Debye):
    X=              0.0087    Y=             -0.5803    Z=              0.0920  Tot=              0.5876
 Quadrupole moment (field-independent basis, Debye-Ang):
   XX=            -56.0248   YY=            -70.6550   ZZ=            -67.8162
   XY=             -0.8668   XZ=             -0.8463   YZ=             -1.0939

 Normal termination of Gaussian 16 at Tue Dec  5 12:00:18 2023.
