 Gaussian 16, Revision B.01,
 Gaussian 16:  ES64L-G16RevB.01 20-Dec-2017

 -------------------------
 #P B3LYP/6-311+g(d) force
 -------------------------

 -----
 DPGEN
 -----
 Symbolic Z-matrix:
 Charge =  0 Multiplicity = 2

                         Standard orientation:
 ---------------------------------------------------------------------
 Center     Atomic      Atomic             Coordinates (Angstroms)
 Number     Number       Type             X           Y           Z
 ---------------------------------------------------------------------
      1         11           0       -0.145672   -2.200905   -1.244903
      2         11           0       -3.008835   -1.186082   -0.437534
      3         11           0       -0.701576   -0.533869    2.085296
      4         11           0       -0.657869    2.192130    1.693240
      5         11           0        3.004239   -1.710484    0.637482
      6         11           0       -0.852521    1.806442   -1.748597
      7         11           0        2.362233    1.632768   -0.984983
 ---------------------------------------------------------------------

 SCF Done:  E(UB3LYP) =  -1136.12198110     A.U. after   21 cycles

 The electronic state is 2-A.
 Alpha  occ. eigenvalues --  -38.44787 -38.44213 -38.44207 -38.44088 -38.43800
 Alpha  occ. eigenvalues --  -38.43792 -38.43513  -2.20712  -2.20099  -2.20058
 Alpha  occ. eigenvalues --   -2.19877  -2.19645  -2.19625  -2.19282  -1.14567
 Alpha  occ. eigenvalues --   -1.14310  -1.14306  -1.13776  -1.13746  -1.13728
 Alpha  occ. eigenvalues --   -1.13690  -1.13684  -1.13656  -1.13565  -1.13531
 Alpha  occ. eigenvalues --   -1.13491  -1.13393  -1.13309  -1.13298  -1.13281
 Alpha  occ. eigenvalues --   -1.13272  -1.13205  -1.12955  -1.12935  -1.12924
 Alpha  occ. eigenvalues --   -0.17993  -0.12578  -0.12427  -0.12023
 Alpha virt. eigenvalues --   -0.05286  -0.05117  -0.04517  -0.03751  -0.03579
 Alpha virt. eigenvalues --   -0.03377  -0.01259  -0.00857  -0.00494   0.00009
 Alpha virt. eigenvalues --    0.00025   0.00364   0.00568   0.00733   0.00838

  Beta  occ. eigenvalues --  -38.44702 -38.44160 -38.44158 -38.44074 -38.43790
  Beta  occ. eigenvalues --  -38.43778 -38.43506  -2.20559  -2.20019  -2.19957
  Beta  occ. eigenvalues --   -2.19853  -2.19627  -2.19601  -2.19269  -1.14449
  Beta  occ. eigenvalues --   -1.14203  -1.14198  -1.13704  -1.13675  -1.13666
  Beta  occ. eigenvalues --   -1.13635  -1.13611  -1.13589  -1.13535  -1.13517
  Beta  occ. eigenvalues --   -1.13472  -1.13376  -1.13285  -1.13280  -1.13262
  Beta  occ. eigenvalues --   -1.13259  -1.13186  -1.12941  -1.12926  -1.12916
  Beta  occ. eigenvalues --   -0.17225  -0.12335  -0.11948
  Beta virt. eigenvalues --   -0.08281  -0.05235  -0.04875  -0.04067  -0.03349
  Beta virt. eigenvalues --   -0.02986  -0.02527  -0.01200  -0.00748  -0.00235
  Beta virt. eigenvalues --    0.00077   0.00138   0.00436   0.00653   0.00806

 Mulliken charges and spin densities:
               1          2
     1  Na  -0.483263   0.045752
     2  Na   0.289647  -0.026067
     3  Na   0.593295   0.716708
     4  Na  -0.346868  -0.238686
     5  Na  -0.046064  -0.030660
     6  Na   0.044351   0.523042
     7  Na  -0.051099   0.009910
 Sum of Mulliken charges =  -0.00000   1.00000

 Dipole moment (field-independent basis, Debye):
    X=             -0.4289    Y=              0.2552    Z=             -0.1620  Tot=              0.5247
 Quadrupole moment (field-independent basis, Debye-Ang):
   XX=            -62.9879   YY=            -69.9708   ZZ=            -65.7294
   XY=              0.6681   XZ=              2.1050   YZ=             -0.8755

 Normal termination of Gaussian 16 at Mon Dec  4 01:36:26 2023.
