 Gaussian 16, Revision B.01,
 Gaussian 16:  ES64L-G16RevB.01 20-Dec-2017

 -------------------------
 #P B3LYP/6-311+g(d) force
 -------------------------

 -----
 DPGEN
 -----
 Symbolic Z-matrix:
 Charge =  0 Multiplicity = 2

                         Standard orientation:
 ---------------------------------------------------------------------
 Center     Atomic      Atomic             Coordinates (Angstroms)
 Number     Number       Type             X           Y           Z
 ---------------------------------------------------------------------
      1         11           0       -2.293329    1.902084   -0.056158
      2         11           0       -2.199254   -2.016707   -0.154892
      3         11           0       -0.676292   -0.136896    2.007391
      4         11           0        3.087651    0.063143    0.370695
      5         11           0        1.021778    2.483941   -0.192370
      6         11           0       -0.160259    0.071604   -1.701958
      7         11           0        1.219706   -2.367171   -0.272707
 ---------------------------------------------------------------------

 SCF Done:  E(UB3LYP) =  -1136.13529172     A.U. after   19 cycles

 The electronic state is 2-A.
 Alpha  occ. eigenvalues --  -38.43678 -38.43674 -38.43653 -38.43636 -38.43353
 Alpha  occ. eigenvalues --  -38.43334 -38.43260  -2.19599  -2.19556  -2.19518
 Alpha  occ. eigenvalues --   -2.19516  -2.19300  -2.19267  -2.19244  -1.13309
 Alpha  occ. eigenvalues --   -1.13272  -1.13250  -1.13238  -1.13226  -1.13205
 Alpha  occ. eigenvalues --   -1.13195  -1.13191  -1.13172  -1.13162  -1.13155
 Alpha  occ. eigenvalues --   -1.13138  -1.13052  -1.13035  -1.12930  -1.12913
 Alpha  occ. eigenvalues --   -1.12892  -1.12876  -1.12873  -1.12857  -1.12842
 Alpha  occ. eigenvalues --   -0.19178  -0.13076  -0.12776  -0.11046
 Alpha virt. eigenvalues --   -0.05325  -0.05188  -0.04471  -0.03296  -0.03101
 Alpha virt. eigenvalues --   -0.02669  -0.01277  -0.01095  -0.00102  -0.00004
 Alpha virt. eigenvalues --    0.00042   0.00360   0.00880   0.00916   0.00968

  Beta  occ. eigenvalues --  -38.43668 -38.43648 -38.43629 -38.43591 -38.43345
  Beta  occ. eigenvalues --  -38.43328 -38.43183  -2.19549  -2.19512  -2.19508
  Beta  occ. eigenvalues --   -2.19438  -2.19256  -2.19237  -2.19159  -1.13267
  Beta  occ. eigenvalues --   -1.13231  -1.13225  -1.13206  -1.13191  -1.13184
  Beta  occ. eigenvalues --   -1.13169  -1.13143  -1.13142  -1.13132  -1.13092
  Beta  occ. eigenvalues --   -1.13080  -1.13005  -1.12992  -1.12888  -1.12876
  Beta  occ. eigenvalues --   -1.12870  -1.12857  -1.12840  -1.12797  -1.12773
  Beta  occ. eigenvalues --   -0.18439  -0.12838  -0.12491
  Beta virt. eigenvalues --   -0.07111  -0.05334  -0.05087  -0.04464  -0.02507
  Beta virt. eigenvalues --   -0.02266  -0.01607  -0.01208  -0.01039  -0.00089
  Beta virt. eigenvalues --   -0.00047   0.00139   0.00389   0.00909   0.00912

 Mulliken charges and spin densities:
               1          2
     1  Na   0.270791  -0.094520
     2  Na   0.304296  -0.108415
     3  Na  -0.617241   0.754470
     4  Na  -0.147497  -0.006509
     5  Na   0.231075   0.051038
     6  Na  -0.294256   0.353249
     7  Na   0.252832   0.050688
 Sum of Mulliken charges =  -0.00000   1.00000

 Dipole moment (field-independent basis, Debye):
    X=             -0.3082    Y=             -0.0042    Z=              0.2218  Tot=              0.3797
 Quadrupole moment (field-independent basis, Debye-Ang):
   XX=            -58.3998   YY=            -63.6579   ZZ=            -72.6720
   XY=              0.1468   XZ=              1.3316   YZ=              0.4835

 Normal termination of Gaussian 16 at Thu Dec  7 21:14:00 2023.
