 Gaussian 16, Revision B.01,
 Gaussian 16:  ES64L-G16RevB.01 20-Dec-2017

 -------------------------
 #P B3LYP/6-311+g(d) force
 -------------------------

 -----
 DPGEN
 -----
 Symbolic Z-matrix:
 Charge =  0 Multiplicity = 2

                         Standard orientation:
 ---------------------------------------------------------------------
 Center     Atomic      Atomic             Coordinates (Angstroms)
 Number     Number       Type             X           Y           Z
 ---------------------------------------------------------------------
      1         11           0        1.067331   -0.697472    1.477425
      2         11           0       -0.465781   -0.949836   -1.655636
      3         11           0       -2.011564   -0.981191    1.365844
      4         11           0       -0.897204    1.867157    0.507301
      5         11           0       -3.897826    0.051583   -0.884682
      6         11           0        3.761254   -1.161269   -0.465806
      7         11           0        2.443790    1.871027   -0.344446
 ---------------------------------------------------------------------

 SCF Done:  E(UB3LYP) =  -1136.11559413     A.U. after   37 cycles

 The electronic state is 2-A.
 Alpha  occ. eigenvalues --  -38.45536 -38.44603 -38.44192 -38.44125 -38.43802
 Alpha  occ. eigenvalues --  -38.43377 -38.42195  -2.21346  -2.20449  -2.20197
 Alpha  occ. eigenvalues --   -2.19995  -2.19624  -2.19381  -2.18132  -1.15065
 Alpha  occ. eigenvalues --   -1.15032  -1.14931  -1.14164  -1.14089  -1.14070
 Alpha  occ. eigenvalues --   -1.13912  -1.13836  -1.13787  -1.13673  -1.13655
 Alpha  occ. eigenvalues --   -1.13612  -1.13309  -1.13288  -1.13257  -1.13095
 Alpha  occ. eigenvalues --   -1.13019  -1.12968  -1.11831  -1.11804  -1.11747
 Alpha  occ. eigenvalues --   -0.18997  -0.14546  -0.11503  -0.10696
 Alpha virt. eigenvalues --   -0.07408  -0.05201  -0.04522  -0.03124  -0.02982
 Alpha virt. eigenvalues --   -0.02329  -0.02098  -0.01155  -0.01089  -0.00141
 Alpha virt. eigenvalues --   -0.00037   0.00272   0.00316   0.00671   0.00675

  Beta  occ. eigenvalues --  -38.45525 -38.44577 -38.44138 -38.44086 -38.43804
  Beta  occ. eigenvalues --  -38.43311 -38.42183  -2.21329  -2.20400  -2.20104
  Beta  occ. eigenvalues --   -2.19921  -2.19628  -2.19265  -2.18113  -1.15045
  Beta  occ. eigenvalues --   -1.15009  -1.14920  -1.14130  -1.14051  -1.14036
  Beta  occ. eigenvalues --   -1.13832  -1.13770  -1.13713  -1.13619  -1.13609
  Beta  occ. eigenvalues --   -1.13561  -1.13307  -1.13282  -1.13259  -1.13013
  Beta  occ. eigenvalues --   -1.12912  -1.12892  -1.11823  -1.11768  -1.11731
  Beta  occ. eigenvalues --   -0.18281  -0.14320  -0.10456
  Beta virt. eigenvalues --   -0.07553  -0.07220  -0.04739  -0.04240  -0.02885
  Beta virt. eigenvalues --   -0.02775  -0.01751  -0.01472  -0.00993  -0.00675
  Beta virt. eigenvalues --   -0.00035  -0.00001   0.00340   0.00402   0.00724

 Mulliken charges and spin densities:
               1          2
     1  Na  -0.456222   0.248900
     2  Na  -0.803036   0.177399
     3  Na   0.315710  -0.034008
     4  Na  -0.725052   0.276130
     5  Na   0.958353   0.157382
     6  Na   0.745806   0.010250
     7  Na  -0.035559   0.163946
 Sum of Mulliken charges =  -0.00000   1.00000

 Dipole moment (field-independent basis, Debye):
    X=             -0.4849    Y=              0.2799    Z=             -0.1332  Tot=              0.5755
 Quadrupole moment (field-independent basis, Debye-Ang):
   XX=            -52.3161   YY=            -74.6282   ZZ=            -70.7371
   XY=              0.0244   XZ=             -1.7845   YZ=             -4.9301

 Normal termination of Gaussian 16 at Tue Dec  5 14:29:15 2023.
