 Gaussian 16, Revision B.01,
 Gaussian 16:  ES64L-G16RevB.01 20-Dec-2017

 -------------------------
 #P B3LYP/6-311+g(d) force
 -------------------------

 -----
 DPGEN
 -----
 Symbolic Z-matrix:
 Charge =  0 Multiplicity = 2

                         Standard orientation:
 ---------------------------------------------------------------------
 Center     Atomic      Atomic             Coordinates (Angstroms)
 Number     Number       Type             X           Y           Z
 ---------------------------------------------------------------------
      1         11           0        3.124338    1.469071    0.796847
      2         11           0       -0.672861    1.554188    1.487832
      3         11           0       -1.708135    2.145053   -1.527169
      4         11           0        3.628941   -1.464156   -0.620837
      5         11           0       -1.797100   -1.705209    1.811691
      6         11           0        0.798773   -1.048602   -1.237093
      7         11           0       -3.373956   -0.950344   -0.711271
 ---------------------------------------------------------------------

 SCF Done:  E(UB3LYP) =  -1136.11498614     A.U. after   24 cycles

 The electronic state is 2-A.
 Alpha  occ. eigenvalues --  -38.45181 -38.44807 -38.44784 -38.44146 -38.43606
 Alpha  occ. eigenvalues --  -38.43452 -38.43338  -2.20967  -2.20655  -2.20606
 Alpha  occ. eigenvalues --   -2.20015  -2.19474  -2.19289  -2.19189  -1.14641
 Alpha  occ. eigenvalues --   -1.14613  -1.14603  -1.14372  -1.14322  -1.14307
 Alpha  occ. eigenvalues --   -1.14289  -1.14268  -1.14243  -1.13690  -1.13645
 Alpha  occ. eigenvalues --   -1.13640  -1.13133  -1.13123  -1.13096  -1.12976
 Alpha  occ. eigenvalues --   -1.12947  -1.12924  -1.12870  -1.12821  -1.12817
 Alpha  occ. eigenvalues --   -0.17648  -0.14274  -0.11323  -0.11215
 Alpha virt. eigenvalues --   -0.06908  -0.05637  -0.03836  -0.03611  -0.03263
 Alpha virt. eigenvalues --   -0.02476  -0.02390  -0.01317  -0.00576  -0.00367
 Alpha virt. eigenvalues --   -0.00064   0.00125   0.00201   0.00567   0.00665

  Beta  occ. eigenvalues --  -38.45155 -38.44787 -38.44773 -38.44138 -38.43552
  Beta  occ. eigenvalues --  -38.43410 -38.43313  -2.20917  -2.20616  -2.20593
  Beta  occ. eigenvalues --   -2.20003  -2.19373  -2.19210  -2.19145  -1.14605
  Beta  occ. eigenvalues --   -1.14581  -1.14568  -1.14325  -1.14300  -1.14278
  Beta  occ. eigenvalues --   -1.14269  -1.14250  -1.14238  -1.13671  -1.13637
  Beta  occ. eigenvalues --   -1.13632  -1.13070  -1.13050  -1.13025  -1.12934
  Beta  occ. eigenvalues --   -1.12893  -1.12860  -1.12840  -1.12781  -1.12773
  Beta  occ. eigenvalues --   -0.17032  -0.14023  -0.11059
  Beta virt. eigenvalues --   -0.07589  -0.06592  -0.05296  -0.03383  -0.03172
  Beta virt. eigenvalues --   -0.02990  -0.02306  -0.01786  -0.01104  -0.00363
  Beta virt. eigenvalues --   -0.00225   0.00046   0.00197   0.00346   0.00703

 Mulliken charges and spin densities:
               1          2
     1  Na  -0.166921   0.013007
     2  Na   0.116305   0.336043
     3  Na  -0.062781   0.309290
     4  Na   0.438720   0.033777
     5  Na  -0.046747   0.208272
     6  Na  -0.659040   0.246172
     7  Na   0.380464  -0.146562
 Sum of Mulliken charges =  -0.00000   1.00000

 Dipole moment (field-independent basis, Debye):
    X=              0.8829    Y=             -0.0943    Z=             -0.1486  Tot=              0.9003
 Quadrupole moment (field-independent basis, Debye-Ang):
   XX=            -52.4356   YY=            -75.0360   ZZ=            -69.4186
   XY=              0.8304   XZ=              4.1308   YZ=             -0.4173

 Normal termination of Gaussian 16 at Sun Dec  3 15:28:43 2023.
