 Gaussian 16, Revision B.01,
 Gaussian 16:  ES64L-G16RevB.01 20-Dec-2017

 -------------------------
 #P B3LYP/6-311+g(d) force
 -------------------------

 -----
 DPGEN
 -----
 Symbolic Z-matrix:
 Charge =  0 Multiplicity = 2

                         Standard orientation:
 ---------------------------------------------------------------------
 Center     Atomic      Atomic             Coordinates (Angstroms)
 Number     Number       Type             X           Y           Z
 ---------------------------------------------------------------------
      1         11           0        3.846381   -1.804252    0.621429
      2         11           0        4.098723    1.477567   -0.278996
      3         11           0        0.992370   -3.360126   -0.714318
      4         11           0       -5.289568   -0.307768   -0.130876
      5         11           0       -2.307362    2.210907   -0.068459
      6         11           0        1.208757    3.256658    0.018126
      7         11           0       -2.549301   -1.472987    0.553094
 ---------------------------------------------------------------------

 SCF Done:  E(UB3LYP) =  -1136.11248934     A.U. after   20 cycles

 The electronic state is 2-A.
 Alpha  occ. eigenvalues --  -38.45382 -38.45169 -38.44821 -38.44436 -38.43976
 Alpha  occ. eigenvalues --  -38.43739 -38.43694  -2.21187  -2.20949  -2.20661
 Alpha  occ. eigenvalues --   -2.20205  -2.19783  -2.19512  -2.19461  -1.14889
 Alpha  occ. eigenvalues --   -1.14860  -1.14829  -1.14635  -1.14629  -1.14534
 Alpha  occ. eigenvalues --   -1.14320  -1.14298  -1.14263  -1.13889  -1.13881
 Alpha  occ. eigenvalues --   -1.13849  -1.13445  -1.13437  -1.13413  -1.13174
 Alpha  occ. eigenvalues --   -1.13162  -1.13147  -1.13140  -1.13138  -1.13099
 Alpha  occ. eigenvalues --   -0.16034  -0.14231  -0.12574  -0.10896
 Alpha virt. eigenvalues --   -0.07037  -0.05728  -0.04414  -0.03436  -0.03041
 Alpha virt. eigenvalues --   -0.02755  -0.02245  -0.01846  -0.00971  -0.00821
 Alpha virt. eigenvalues --   -0.00485  -0.00121   0.00042   0.00449   0.00546

  Beta  occ. eigenvalues --  -38.45370 -38.45118 -38.44763 -38.44443 -38.43934
  Beta  occ. eigenvalues --  -38.43702 -38.43692  -2.21169  -2.20857  -2.20553
  Beta  occ. eigenvalues --   -2.20220  -2.19705  -2.19479  -2.19422  -1.14866
  Beta  occ. eigenvalues --   -1.14845  -1.14799  -1.14575  -1.14568  -1.14452
  Beta  occ. eigenvalues --   -1.14243  -1.14224  -1.14196  -1.13903  -1.13892
  Beta  occ. eigenvalues --   -1.13836  -1.13392  -1.13388  -1.13365  -1.13162
  Beta  occ. eigenvalues --   -1.13153  -1.13113  -1.13099  -1.13088  -1.13084
  Beta  occ. eigenvalues --   -0.15471  -0.13841  -0.12033
  Beta virt. eigenvalues --   -0.07599  -0.06928  -0.05163  -0.04101  -0.03136
  Beta virt. eigenvalues --   -0.02693  -0.02530  -0.02028  -0.01663  -0.00805
  Beta virt. eigenvalues --   -0.00483  -0.00112   0.00084   0.00200   0.00500

 Mulliken charges and spin densities:
               1          2
     1  Na  -0.111474  -0.060739
     2  Na  -0.019673   0.257688
     3  Na   0.009523   0.192618
     4  Na   1.115337   0.329738
     5  Na   0.096743   0.371659
     6  Na  -0.126752  -0.263547
     7  Na  -0.963704   0.172584
 Sum of Mulliken charges =  -0.00000   1.00000

 Dipole moment (field-independent basis, Debye):
    X=             -2.0527    Y=              0.0603    Z=              0.0268  Tot=              2.0538
 Quadrupole moment (field-independent basis, Debye-Ang):
   XX=            -53.8913   YY=            -71.6604   ZZ=            -71.7146
   XY=             -2.1769   XZ=              1.9752   YZ=             -1.1189

 Normal termination of Gaussian 16 at Sun Dec  3 17:23:15 2023.
