 Gaussian 16, Revision B.01,
 Gaussian 16:  ES64L-G16RevB.01 20-Dec-2017

 -------------------------
 #P B3LYP/6-311+g(d) force
 -------------------------

 -----
 DPGEN
 -----
 Symbolic Z-matrix:
 Charge =  0 Multiplicity = 2

                         Standard orientation:
 ---------------------------------------------------------------------
 Center     Atomic      Atomic             Coordinates (Angstroms)
 Number     Number       Type             X           Y           Z
 ---------------------------------------------------------------------
      1         11           0        2.462115   -1.687278   -0.364544
      2         11           0        0.686398   -0.474030    1.837268
      3         11           0        2.672093    1.599240   -0.459270
      4         11           0       -1.503057   -2.011069    0.509825
      5         11           0       -0.877984    2.313527    0.965523
      6         11           0       -0.013914    0.030526   -1.772730
      7         11           0       -3.425652    0.229084   -0.716071
 ---------------------------------------------------------------------

 SCF Done:  E(UB3LYP) =  -1136.12907893     A.U. after   20 cycles

 The electronic state is 2-A.
 Alpha  occ. eigenvalues --  -38.44473 -38.43985 -38.43840 -38.43735 -38.43514
 Alpha  occ. eigenvalues --  -38.43157 -38.43151  -2.20305  -2.19927  -2.19693
 Alpha  occ. eigenvalues --   -2.19642  -2.19529  -2.19069  -2.18999  -1.13979
 Alpha  occ. eigenvalues --   -1.13966  -1.13933  -1.13625  -1.13567  -1.13565
 Alpha  occ. eigenvalues --   -1.13405  -1.13368  -1.13355  -1.13325  -1.13303
 Alpha  occ. eigenvalues --   -1.13255  -1.13234  -1.13140  -1.13120  -1.12756
 Alpha  occ. eigenvalues --   -1.12727  -1.12694  -1.12672  -1.12647  -1.12611
 Alpha  occ. eigenvalues --   -0.19026  -0.13736  -0.11582  -0.11484
 Alpha virt. eigenvalues --   -0.06095  -0.05048  -0.04060  -0.03351  -0.02925
 Alpha virt. eigenvalues --   -0.02748  -0.01940  -0.00886  -0.00397   0.00055
 Alpha virt. eigenvalues --    0.00247   0.00350   0.00651   0.00826   0.00864

  Beta  occ. eigenvalues --  -38.44460 -38.43927 -38.43834 -38.43726 -38.43429
  Beta  occ. eigenvalues --  -38.43139 -38.43126  -2.20282  -2.19821  -2.19684
  Beta  occ. eigenvalues --   -2.19628  -2.19376  -2.19052  -2.18944  -1.13966
  Beta  occ. eigenvalues --   -1.13937  -1.13920  -1.13556  -1.13498  -1.13484
  Beta  occ. eigenvalues --   -1.13392  -1.13346  -1.13334  -1.13310  -1.13281
  Beta  occ. eigenvalues --   -1.13221  -1.13157  -1.13037  -1.13015  -1.12735
  Beta  occ. eigenvalues --   -1.12687  -1.12663  -1.12647  -1.12600  -1.12578
  Beta  occ. eigenvalues --   -0.18284  -0.13439  -0.11307
  Beta virt. eigenvalues --   -0.07558  -0.05938  -0.05051  -0.03631  -0.03000
  Beta virt. eigenvalues --   -0.02186  -0.01794  -0.01742  -0.00874  -0.00208
  Beta virt. eigenvalues --    0.00107   0.00241   0.00373   0.00803   0.00880

 Mulliken charges and spin densities:
               1          2
     1  Na   0.162120  -0.046152
     2  Na   0.474530   0.650823
     3  Na  -0.007194  -0.025231
     4  Na  -0.309463  -0.167113
     5  Na  -0.423527  -0.054367
     6  Na  -0.224317   0.512789
     7  Na   0.327849   0.129252
 Sum of Mulliken charges =  -0.00000   1.00000

 Dipole moment (field-independent basis, Debye):
    X=             -0.0604    Y=              0.1157    Z=             -0.4087  Tot=              0.4290
 Quadrupole moment (field-independent basis, Debye-Ang):
   XX=            -52.0737   YY=            -71.8577   ZZ=            -70.1716
   XY=             -0.6199   XZ=              0.0366   YZ=              1.0476

 Normal termination of Gaussian 16 at Fri Dec  8 03:54:50 2023.
