 Gaussian 16, Revision B.01,
 Gaussian 16:  ES64L-G16RevB.01 20-Dec-2017

 -------------------------
 #P B3LYP/6-311+g(d) force
 -------------------------

 -----
 DPGEN
 -----
 Symbolic Z-matrix:
 Charge =  0 Multiplicity = 2

                         Standard orientation:
 ---------------------------------------------------------------------
 Center     Atomic      Atomic             Coordinates (Angstroms)
 Number     Number       Type             X           Y           Z
 ---------------------------------------------------------------------
      1         11           0        0.129339   -1.109869   -1.737321
      2         11           0       -2.949166    2.078909    0.568770
      3         11           0        2.719897   -1.133636    1.500805
      4         11           0       -1.117103   -0.867207    1.881716
      5         11           0        0.245749    2.101930   -0.480680
      6         11           0        3.966192    0.670544   -0.739938
      7         11           0       -2.994907   -1.740673   -0.993352
 ---------------------------------------------------------------------

 SCF Done:  E(UB3LYP) =  -1136.11906200     A.U. after   23 cycles

 The electronic state is 2-A.
 Alpha  occ. eigenvalues --  -38.45248 -38.44543 -38.44453 -38.44250 -38.44060
 Alpha  occ. eigenvalues --  -38.43440 -38.43429  -2.21038  -2.20364  -2.20276
 Alpha  occ. eigenvalues --   -2.20097  -2.19871  -2.19246  -2.19240  -1.14733
 Alpha  occ. eigenvalues --   -1.14697  -1.14668  -1.14020  -1.14012  -1.14001
 Alpha  occ. eigenvalues --   -1.13962  -1.13912  -1.13898  -1.13787  -1.13749
 Alpha  occ. eigenvalues --   -1.13720  -1.13537  -1.13520  -1.13506  -1.12957
 Alpha  occ. eigenvalues --   -1.12929  -1.12914  -1.12906  -1.12889  -1.12816
 Alpha  occ. eigenvalues --   -0.17704  -0.13862  -0.11364  -0.11111
 Alpha virt. eigenvalues --   -0.07150  -0.05505  -0.04611  -0.03264  -0.02751
 Alpha virt. eigenvalues --   -0.02561  -0.02419  -0.01481  -0.01087  -0.00255
 Alpha virt. eigenvalues --    0.00018   0.00146   0.00239   0.00579   0.00653

  Beta  occ. eigenvalues --  -38.45248 -38.44499 -38.44393 -38.44190 -38.44057
  Beta  occ. eigenvalues --  -38.43437 -38.43417  -2.21039  -2.20281  -2.20164
  Beta  occ. eigenvalues --   -2.19988  -2.19866  -2.19234  -2.19226  -1.14730
  Beta  occ. eigenvalues --   -1.14698  -1.14662  -1.13963  -1.13953  -1.13942
  Beta  occ. eigenvalues --   -1.13887  -1.13834  -1.13812  -1.13715  -1.13664
  Beta  occ. eigenvalues --   -1.13645  -1.13525  -1.13511  -1.13497  -1.12942
  Beta  occ. eigenvalues --   -1.12912  -1.12907  -1.12897  -1.12884  -1.12804
  Beta  occ. eigenvalues --   -0.17004  -0.13756  -0.10938
  Beta virt. eigenvalues --   -0.07540  -0.06899  -0.05051  -0.04227  -0.02955
  Beta virt. eigenvalues --   -0.02593  -0.02078  -0.01837  -0.01323  -0.00696
  Beta virt. eigenvalues --   -0.00110   0.00091   0.00217   0.00317   0.00732

 Mulliken charges and spin densities:
               1          2
     1  Na  -0.270588   0.440256
     2  Na   0.285190  -0.011392
     3  Na  -0.131631   0.140490
     4  Na  -0.118398   0.435625
     5  Na  -0.571182   0.052678
     6  Na   0.511990   0.027062
     7  Na   0.294621  -0.084719
 Sum of Mulliken charges =  -0.00000   1.00000

 Dipole moment (field-independent basis, Debye):
    X=              0.7705    Y=             -0.2714    Z=             -0.2065  Tot=              0.8426
 Quadrupole moment (field-independent basis, Debye-Ang):
   XX=            -46.3278   YY=            -79.1427   ZZ=            -70.1983
   XY=              2.4666   XZ=             -2.3418   YZ=             -2.4761

 Normal termination of Gaussian 16 at Sun Dec  3 15:18:54 2023.
