 Gaussian 16, Revision B.01,
 Gaussian 16:  ES64L-G16RevB.01 20-Dec-2017

 -------------------------
 #P B3LYP/6-311+g(d) force
 -------------------------

 -----
 DPGEN
 -----
 Symbolic Z-matrix:
 Charge =  0 Multiplicity = 2

                         Standard orientation:
 ---------------------------------------------------------------------
 Center     Atomic      Atomic             Coordinates (Angstroms)
 Number     Number       Type             X           Y           Z
 ---------------------------------------------------------------------
      1         11           0       -1.095131    2.805901   -0.050136
      2         11           0       -0.371623   -2.527785    0.827560
      3         11           0        2.612441   -1.345619   -0.644563
      4         11           0        0.272763   -0.009640    1.769780
      5         11           0       -3.320500   -0.157053   -0.150021
      6         11           0       -0.506969   -0.739623   -1.775637
      7         11           0        2.409019    1.973818    0.023017
 ---------------------------------------------------------------------

 SCF Done:  E(UB3LYP) =  -1136.13152355     A.U. after   19 cycles

 The electronic state is 2-A.
 Alpha  occ. eigenvalues --  -38.44194 -38.43676 -38.43663 -38.43608 -38.43586
 Alpha  occ. eigenvalues --  -38.43586 -38.43534  -2.20002  -2.19614  -2.19549
 Alpha  occ. eigenvalues --   -2.19526  -2.19493  -2.19460  -2.19417  -1.13692
 Alpha  occ. eigenvalues --   -1.13651  -1.13640  -1.13575  -1.13288  -1.13241
 Alpha  occ. eigenvalues --   -1.13233  -1.13217  -1.13199  -1.13179  -1.13169
 Alpha  occ. eigenvalues --   -1.13145  -1.13133  -1.13125  -1.13095  -1.13092
 Alpha  occ. eigenvalues --   -1.13075  -1.13069  -1.13055  -1.13042  -1.13035
 Alpha  occ. eigenvalues --   -0.18754  -0.13008  -0.12519  -0.11049
 Alpha virt. eigenvalues --   -0.05690  -0.05087  -0.04575  -0.03268  -0.02998
 Alpha virt. eigenvalues --   -0.02652  -0.01594  -0.00966  -0.00332  -0.00271
 Alpha virt. eigenvalues --    0.00038   0.00340   0.00816   0.00888   0.00894

  Beta  occ. eigenvalues --  -38.44190 -38.43663 -38.43654 -38.43585 -38.43524
  Beta  occ. eigenvalues --  -38.43523 -38.43497  -2.19998  -2.19513  -2.19475
  Beta  occ. eigenvalues --   -2.19463  -2.19421  -2.19417  -2.19408  -1.13677
  Beta  occ. eigenvalues --   -1.13646  -1.13638  -1.13481  -1.13227  -1.13191
  Beta  occ. eigenvalues --   -1.13176  -1.13163  -1.13148  -1.13140  -1.13122
  Beta  occ. eigenvalues --   -1.13100  -1.13095  -1.13090  -1.13073  -1.13063
  Beta  occ. eigenvalues --   -1.13044  -1.13039  -1.13016  -1.13012  -1.12947
  Beta  occ. eigenvalues --   -0.18051  -0.12759  -0.12293
  Beta virt. eigenvalues --   -0.07065  -0.05625  -0.05052  -0.04496  -0.02567
  Beta virt. eigenvalues --   -0.02300  -0.01628  -0.01437  -0.00900  -0.00328
  Beta virt. eigenvalues --   -0.00232   0.00143   0.00395   0.00850   0.00899

 Mulliken charges and spin densities:
               1          2
     1  Na  -0.225000  -0.103915
     2  Na   0.326638   0.020462
     3  Na   0.103195   0.133943
     4  Na   0.058252   0.464740
     5  Na   0.046764  -0.069227
     6  Na  -0.150280   0.626713
     7  Na  -0.159569  -0.072716
 Sum of Mulliken charges =  -0.00000   1.00000

 Dipole moment (field-independent basis, Debye):
    X=             -0.2672    Y=              0.0566    Z=             -0.2414  Tot=              0.3645
 Quadrupole moment (field-independent basis, Debye-Ang):
   XX=            -56.5639   YY=            -64.5872   ZZ=            -73.2716
   XY=             -0.1635   XZ=             -1.5854   YZ=             -0.7590

 Normal termination of Gaussian 16 at Tue Dec  5 23:57:26 2023.
