 Gaussian 16, Revision B.01,
 Gaussian 16:  ES64L-G16RevB.01 20-Dec-2017

 -------------------------
 #P B3LYP/6-311+g(d) force
 -------------------------

 -----
 DPGEN
 -----
 Symbolic Z-matrix:
 Charge =  0 Multiplicity = 2

                         Standard orientation:
 ---------------------------------------------------------------------
 Center     Atomic      Atomic             Coordinates (Angstroms)
 Number     Number       Type             X           Y           Z
 ---------------------------------------------------------------------
      1         11           0       -0.902004    2.870226   -0.345374
      2         11           0       -4.404081    0.826080    0.294014
      3         11           0       -0.661501   -0.887020   -0.526979
      4         11           0        3.000829   -1.652717   -1.103289
      5         11           0       -3.845563   -2.472038    0.465208
      6         11           0        4.909430   -0.468891    1.137450
      7         11           0        1.902891    1.784360    0.078970
 ---------------------------------------------------------------------

 SCF Done:  E(UB3LYP) =  -1136.12078689     A.U. after   21 cycles

 The electronic state is 2-A.
 Alpha  occ. eigenvalues --  -38.44893 -38.44429 -38.44409 -38.44158 -38.43968
 Alpha  occ. eigenvalues --  -38.43861 -38.42976  -2.20678  -2.20224  -2.20206
 Alpha  occ. eigenvalues --   -2.20004  -2.19798  -2.19689  -2.18814  -1.14348
 Alpha  occ. eigenvalues --   -1.14319  -1.14306  -1.13909  -1.13887  -1.13881
 Alpha  occ. eigenvalues --   -1.13879  -1.13870  -1.13848  -1.13698  -1.13681
 Alpha  occ. eigenvalues --   -1.13641  -1.13496  -1.13436  -1.13407  -1.13337
 Alpha  occ. eigenvalues --   -1.13332  -1.13309  -1.12488  -1.12467  -1.12454
 Alpha  occ. eigenvalues --   -0.16701  -0.14315  -0.11967  -0.10672
 Alpha virt. eigenvalues --   -0.06883  -0.05293  -0.04603  -0.03789  -0.02834
 Alpha virt. eigenvalues --   -0.02390  -0.01902  -0.01785  -0.01048  -0.00590
 Alpha virt. eigenvalues --   -0.00356   0.00154   0.00196   0.00398   0.00607

  Beta  occ. eigenvalues --  -38.44847 -38.44437 -38.44403 -38.44156 -38.43893
  Beta  occ. eigenvalues --  -38.43805 -38.42971  -2.20590  -2.20224  -2.20218
  Beta  occ. eigenvalues --   -2.20003  -2.19661  -2.19583  -2.18804  -1.14288
  Beta  occ. eigenvalues --   -1.14259  -1.14247  -1.13909  -1.13892  -1.13888
  Beta  occ. eigenvalues --   -1.13872  -1.13856  -1.13836  -1.13699  -1.13661
  Beta  occ. eigenvalues --   -1.13646  -1.13407  -1.13330  -1.13308  -1.13267
  Beta  occ. eigenvalues --   -1.13259  -1.13242  -1.12480  -1.12458  -1.12448
  Beta  occ. eigenvalues --   -0.16082  -0.13950  -0.11833
  Beta virt. eigenvalues --   -0.07211  -0.06403  -0.04781  -0.04407  -0.03573
  Beta virt. eigenvalues --   -0.02487  -0.02013  -0.01705  -0.01449  -0.01010
  Beta virt. eigenvalues --   -0.00262  -0.00172   0.00321   0.00413   0.00492

 Mulliken charges and spin densities:
               1          2
     1  Na   0.323222   0.235326
     2  Na   0.286250   0.338084
     3  Na  -1.502422   0.502643
     4  Na   0.044891  -0.187580
     5  Na   0.788681   0.002338
     6  Na   0.813042   0.190051
     7  Na  -0.753663  -0.080862
 Sum of Mulliken charges =  -0.00000   1.00000

 Dipole moment (field-independent basis, Debye):
    X=             -0.5498    Y=             -0.5251    Z=              0.1725  Tot=              0.7796
 Quadrupole moment (field-independent basis, Debye-Ang):
   XX=            -61.0822   YY=            -65.5396   ZZ=            -69.9352
   XY=             -0.1562   XZ=              0.1832   YZ=              0.3745

 Normal termination of Gaussian 16 at Sun Dec  3 22:55:37 2023.
