 Gaussian 16, Revision B.01,
 Gaussian 16:  ES64L-G16RevB.01 20-Dec-2017

 -------------------------
 #P B3LYP/6-311+g(d) force
 -------------------------

 -----
 DPGEN
 -----
 Symbolic Z-matrix:
 Charge =  0 Multiplicity = 2

                         Standard orientation:
 ---------------------------------------------------------------------
 Center     Atomic      Atomic             Coordinates (Angstroms)
 Number     Number       Type             X           Y           Z
 ---------------------------------------------------------------------
      1         11           0        3.129043    1.378532    0.644235
      2         11           0        2.499757   -1.644089   -0.615284
      3         11           0        0.060454   -0.320534    1.868822
      4         11           0        0.217369   -0.114314   -1.729641
      5         11           0       -3.422250    0.580701    0.082039
      6         11           0       -0.844686    2.546084   -0.432991
      7         11           0       -1.639687   -2.426381    0.182820
 ---------------------------------------------------------------------

 SCF Done:  E(UB3LYP) =  -1136.12745588     A.U. after   21 cycles

 The electronic state is 2-A.
 Alpha  occ. eigenvalues --  -38.44855 -38.44450 -38.44125 -38.43942 -38.43579
 Alpha  occ. eigenvalues --  -38.43029 -38.42844  -2.20664  -2.20253  -2.20010
 Alpha  occ. eigenvalues --   -2.19839  -2.19561  -2.18886  -2.18708  -1.14341
 Alpha  occ. eigenvalues --   -1.14319  -1.14304  -1.13924  -1.13915  -1.13887
 Alpha  occ. eigenvalues --   -1.13778  -1.13641  -1.13615  -1.13529  -1.13482
 Alpha  occ. eigenvalues --   -1.13453  -1.13231  -1.13206  -1.13161  -1.12575
 Alpha  occ. eigenvalues --   -1.12552  -1.12510  -1.12412  -1.12364  -1.12326
 Alpha  occ. eigenvalues --   -0.18565  -0.13618  -0.11740  -0.10940
 Alpha virt. eigenvalues --   -0.06467  -0.05294  -0.03828  -0.03570  -0.02692
 Alpha virt. eigenvalues --   -0.02569  -0.02169  -0.01258  -0.00261  -0.00169
 Alpha virt. eigenvalues --   -0.00025   0.00267   0.00673   0.00701   0.00837

  Beta  occ. eigenvalues --  -38.44858 -38.44429 -38.44102 -38.43874 -38.43499
  Beta  occ. eigenvalues --  -38.43028 -38.42836  -2.20670  -2.20215  -2.19972
  Beta  occ. eigenvalues --   -2.19713  -2.19415  -2.18887  -2.18697  -1.14344
  Beta  occ. eigenvalues --   -1.14320  -1.14306  -1.13901  -1.13873  -1.13863
  Beta  occ. eigenvalues --   -1.13731  -1.13602  -1.13591  -1.13444  -1.13394
  Beta  occ. eigenvalues --   -1.13359  -1.13126  -1.13100  -1.13065  -1.12571
  Beta  occ. eigenvalues --   -1.12544  -1.12504  -1.12398  -1.12348  -1.12316
  Beta  occ. eigenvalues --   -0.17874  -0.13373  -0.11463
  Beta virt. eigenvalues --   -0.07086  -0.06365  -0.05182  -0.03828  -0.02875
  Beta virt. eigenvalues --   -0.02060  -0.01945  -0.01587  -0.01138  -0.00268
  Beta virt. eigenvalues --   -0.00126   0.00065   0.00307   0.00759   0.00822

 Mulliken charges and spin densities:
               1          2
     1  Na  -0.166329   0.138289
     2  Na   0.414172   0.028245
     3  Na  -0.376222   0.569850
     4  Na  -0.110631   0.364509
     5  Na  -0.071876  -0.071404
     6  Na   0.147964   0.003268
     7  Na   0.162922  -0.032757
 Sum of Mulliken charges =  -0.00000   1.00000

 Dipole moment (field-independent basis, Debye):
    X=              0.0113    Y=             -0.0317    Z=              0.2689  Tot=              0.2710
 Quadrupole moment (field-independent basis, Debye-Ang):
   XX=            -50.0407   YY=            -69.5546   ZZ=            -73.8751
   XY=              0.7177   XZ=              0.2886   YZ=              1.9230

 Normal termination of Gaussian 16 at Tue Dec  5 10:37:59 2023.
