 Gaussian 16, Revision B.01,
 Gaussian 16:  ES64L-G16RevB.01 20-Dec-2017

 -------------------------
 #P B3LYP/6-311+g(d) force
 -------------------------

 -----
 DPGEN
 -----
 Symbolic Z-matrix:
 Charge =  0 Multiplicity = 2

                         Standard orientation:
 ---------------------------------------------------------------------
 Center     Atomic      Atomic             Coordinates (Angstroms)
 Number     Number       Type             X           Y           Z
 ---------------------------------------------------------------------
      1         11           0        2.991269    1.523958   -1.088351
      2         11           0       -1.242265   -0.570965    2.150892
      3         11           0       -2.768774    1.113259   -1.026358
      4         11           0       -0.707486    2.587569    0.846214
      5         11           0        0.472057   -0.774527   -0.371400
      6         11           0        3.646559   -1.534634    0.436873
      7         11           0       -2.391360   -2.344660   -0.947869
 ---------------------------------------------------------------------

 SCF Done:  E(UB3LYP) =  -1136.12259533     A.U. after   22 cycles

 The electronic state is 2-A.
 Alpha  occ. eigenvalues --  -38.45114 -38.44812 -38.44132 -38.43977 -38.43258
 Alpha  occ. eigenvalues --  -38.43120 -38.42537  -2.20895  -2.20599  -2.19997
 Alpha  occ. eigenvalues --   -2.19875  -2.19229  -2.18961  -2.18395  -1.14567
 Alpha  occ. eigenvalues --   -1.14560  -1.14527  -1.14283  -1.14253  -1.14209
 Alpha  occ. eigenvalues --   -1.13668  -1.13655  -1.13621  -1.13603  -1.13485
 Alpha  occ. eigenvalues --   -1.13466  -1.12967  -1.12884  -1.12853  -1.12632
 Alpha  occ. eigenvalues --   -1.12613  -1.12590  -1.12078  -1.12057  -1.12034
 Alpha  occ. eigenvalues --   -0.17919  -0.13859  -0.11471  -0.10746
 Alpha virt. eigenvalues --   -0.06484  -0.05587  -0.04039  -0.03246  -0.02894
 Alpha virt. eigenvalues --   -0.02473  -0.02025  -0.01226  -0.00580  -0.00495
 Alpha virt. eigenvalues --    0.00031   0.00232   0.00340   0.00562   0.00650

  Beta  occ. eigenvalues --  -38.45119 -38.44793 -38.44086 -38.43884 -38.43244
  Beta  occ. eigenvalues --  -38.43101 -38.42530  -2.20905  -2.20562  -2.19912
  Beta  occ. eigenvalues --   -2.19705  -2.19210  -2.18927  -2.18385  -1.14573
  Beta  occ. eigenvalues --   -1.14563  -1.14531  -1.14256  -1.14229  -1.14186
  Beta  occ. eigenvalues --   -1.13611  -1.13592  -1.13557  -1.13486  -1.13369
  Beta  occ. eigenvalues --   -1.13343  -1.12906  -1.12872  -1.12851  -1.12610
  Beta  occ. eigenvalues --   -1.12585  -1.12557  -1.12076  -1.12040  -1.12012
  Beta  occ. eigenvalues --   -0.17254  -0.13602  -0.11280
  Beta virt. eigenvalues --   -0.07010  -0.06247  -0.05249  -0.03939  -0.02932
  Beta virt. eigenvalues --   -0.02239  -0.02192  -0.01390  -0.01138  -0.00421
  Beta virt. eigenvalues --   -0.00187   0.00111   0.00294   0.00437   0.00664

 Mulliken charges and spin densities:
               1          2
     1  Na   0.314947  -0.057747
     2  Na  -0.069964   0.220564
     3  Na   0.271174   0.217216
     4  Na   0.115462   0.150487
     5  Na  -1.870419   0.514192
     6  Na   0.755725  -0.237792
     7  Na   0.483075   0.193081
 Sum of Mulliken charges =  -0.00000   1.00000

 Dipole moment (field-independent basis, Debye):
    X=              1.4114    Y=             -0.3168    Z=              0.2597  Tot=              1.4696
 Quadrupole moment (field-independent basis, Debye-Ang):
   XX=            -53.5828   YY=            -68.6905   ZZ=            -69.8160
   XY=             -0.4043   XZ=              0.5564   YZ=             -2.8449

 Normal termination of Gaussian 16 at Tue Dec  5 10:24:52 2023.
