 Gaussian 16, Revision B.01,
 Gaussian 16:  ES64L-G16RevB.01 20-Dec-2017

 -------------------------
 #P B3LYP/6-311+g(d) force
 -------------------------

 -----
 DPGEN
 -----
 Symbolic Z-matrix:
 Charge =  0 Multiplicity = 2

                         Standard orientation:
 ---------------------------------------------------------------------
 Center     Atomic      Atomic             Coordinates (Angstroms)
 Number     Number       Type             X           Y           Z
 ---------------------------------------------------------------------
      1         11           0       -2.809290   -0.053047   -0.235024
      2         11           0        0.549932    0.159040    1.938005
      3         11           0        2.221404   -2.180171   -0.365007
      4         11           0       -0.039542    0.045195   -1.343112
      5         11           0       -1.210043    2.920167   -0.009836
      6         11           0       -1.412305   -2.565064    0.248199
      7         11           0        2.699845    1.673880   -0.233226
 ---------------------------------------------------------------------

 SCF Done:  E(UB3LYP) =  -1136.13149740     A.U. after   19 cycles

 The electronic state is 2-A.
 Alpha  occ. eigenvalues --  -38.44310 -38.44034 -38.43835 -38.43547 -38.43536
 Alpha  occ. eigenvalues --  -38.43165 -38.42758  -2.20126  -2.19857  -2.19660
 Alpha  occ. eigenvalues --   -2.19503  -2.19436  -2.19079  -2.18838  -1.13808
 Alpha  occ. eigenvalues --   -1.13797  -1.13748  -1.13545  -1.13515  -1.13483
 Alpha  occ. eigenvalues --   -1.13360  -1.13344  -1.13328  -1.13297  -1.13207
 Alpha  occ. eigenvalues --   -1.13121  -1.13076  -1.13063  -1.12996  -1.12774
 Alpha  occ. eigenvalues --   -1.12700  -1.12688  -1.12526  -1.12481  -1.12445
 Alpha  occ. eigenvalues --   -0.18889  -0.13129  -0.12639  -0.10340
 Alpha virt. eigenvalues --   -0.05909  -0.05156  -0.04712  -0.03070  -0.02728
 Alpha virt. eigenvalues --   -0.02106  -0.01530  -0.01471  -0.00419  -0.00288
 Alpha virt. eigenvalues --    0.00037   0.00346   0.00771   0.00864   0.00915

  Beta  occ. eigenvalues --  -38.44304 -38.44024 -38.43833 -38.43539 -38.43530
  Beta  occ. eigenvalues --  -38.43074 -38.42705  -2.20119  -2.19840  -2.19659
  Beta  occ. eigenvalues --   -2.19494  -2.19427  -2.18911  -2.18745  -1.13797
  Beta  occ. eigenvalues --   -1.13777  -1.13745  -1.13526  -1.13490  -1.13474
  Beta  occ. eigenvalues --   -1.13358  -1.13342  -1.13315  -1.13292  -1.13190
  Beta  occ. eigenvalues --   -1.13097  -1.13070  -1.13033  -1.12993  -1.12663
  Beta  occ. eigenvalues --   -1.12579  -1.12568  -1.12447  -1.12412  -1.12378
  Beta  occ. eigenvalues --   -0.18184  -0.12865  -0.12408
  Beta virt. eigenvalues --   -0.06452  -0.05899  -0.05082  -0.04701  -0.02275
  Beta virt. eigenvalues --   -0.02010  -0.01447  -0.01408  -0.01078  -0.00462
  Beta virt. eigenvalues --   -0.00313   0.00179   0.00389   0.00782   0.00889

 Mulliken charges and spin densities:
               1          2
     1  Na   0.365274   0.079822
     2  Na  -0.493732   0.723560
     3  Na   0.175346   0.026804
     4  Na  -0.648403   0.185442
     5  Na   0.208532  -0.031544
     6  Na   0.292376   0.088691
     7  Na   0.100608  -0.072776
 Sum of Mulliken charges =  -0.00000   1.00000

 Dipole moment (field-independent basis, Debye):
    X=              0.5912    Y=              0.2485    Z=              0.1656  Tot=              0.6623
 Quadrupole moment (field-independent basis, Debye-Ang):
   XX=            -57.6957   YY=            -57.3871   ZZ=            -76.5432
   XY=             -0.0569   XZ=             -1.3324   YZ=             -0.3328

 Normal termination of Gaussian 16 at Thu Dec  7 14:57:36 2023.
