 Gaussian 16, Revision B.01,
 Gaussian 16:  ES64L-G16RevB.01 20-Dec-2017

 -------------------------
 #P B3LYP/6-311+g(d) force
 -------------------------

 -----
 DPGEN
 -----
 Symbolic Z-matrix:
 Charge =  0 Multiplicity = 2

                         Standard orientation:
 ---------------------------------------------------------------------
 Center     Atomic      Atomic             Coordinates (Angstroms)
 Number     Number       Type             X           Y           Z
 ---------------------------------------------------------------------
      1         11           0       -4.493704   -1.101113    0.405406
      2         11           0        3.894024   -0.693165    1.044104
      3         11           0        1.935904   -3.300843   -0.616657
      4         11           0       -1.406090   -3.101878   -0.145185
      5         11           0       -0.278921    3.985789    0.075571
      6         11           0       -2.790071    2.079119   -0.196061
      7         11           0        3.138857    2.132092   -0.567178
 ---------------------------------------------------------------------

 SCF Done:  E(UB3LYP) =  -1136.11137100     A.U. after   21 cycles

 The electronic state is 2-A.
 Alpha  occ. eigenvalues --  -38.45155 -38.44868 -38.44826 -38.44771 -38.44224
 Alpha  occ. eigenvalues --  -38.43916 -38.43821  -2.20918  -2.20627  -2.20608
 Alpha  occ. eigenvalues --   -2.20556  -2.20023  -2.19712  -2.19631  -1.14593
 Alpha  occ. eigenvalues --   -1.14585  -1.14550  -1.14317  -1.14309  -1.14276
 Alpha  occ. eigenvalues --   -1.14263  -1.14255  -1.14245  -1.14241  -1.14234
 Alpha  occ. eigenvalues --   -1.14198  -1.13684  -1.13676  -1.13648  -1.13363
 Alpha  occ. eigenvalues --   -1.13352  -1.13339  -1.13296  -1.13280  -1.13258
 Alpha  occ. eigenvalues --   -0.15504  -0.13884  -0.13497  -0.10975
 Alpha virt. eigenvalues --   -0.07367  -0.04845  -0.04512  -0.03469  -0.03232
 Alpha virt. eigenvalues --   -0.02521  -0.02344  -0.01922  -0.01600  -0.00760
 Alpha virt. eigenvalues --   -0.00270  -0.00115   0.00065   0.00451   0.00642

  Beta  occ. eigenvalues --  -38.45130 -38.44853 -38.44806 -38.44753 -38.44177
  Beta  occ. eigenvalues --  -38.43850 -38.43779  -2.20874  -2.20605  -2.20574
  Beta  occ. eigenvalues --   -2.20529  -2.19937  -2.19588  -2.19555  -1.14564
  Beta  occ. eigenvalues --   -1.14557  -1.14505  -1.14307  -1.14299  -1.14256
  Beta  occ. eigenvalues --   -1.14242  -1.14226  -1.14218  -1.14205  -1.14198
  Beta  occ. eigenvalues --   -1.14140  -1.13627  -1.13618  -1.13582  -1.13279
  Beta  occ. eigenvalues --   -1.13268  -1.13259  -1.13239  -1.13230  -1.13207
  Beta  occ. eigenvalues --   -0.14969  -0.13112  -0.12666
  Beta virt. eigenvalues --   -0.07847  -0.07574  -0.04535  -0.04047  -0.03177
  Beta virt. eigenvalues --   -0.02850  -0.02261  -0.02128  -0.01742  -0.01414
  Beta virt. eigenvalues --   -0.00451  -0.00015   0.00113   0.00196   0.00441

 Mulliken charges and spin densities:
               1          2
     1  Na   0.446852   0.348647
     2  Na   0.045985   0.071182
     3  Na   0.033545   0.102109
     4  Na  -0.141623   0.125145
     5  Na   0.103042   0.129539
     6  Na  -0.308503   0.121980
     7  Na  -0.179298   0.101398
 Sum of Mulliken charges =  -0.00000   1.00000

 Dipole moment (field-independent basis, Debye):
    X=              0.8917    Y=             -0.0225    Z=              0.0676  Tot=              0.8946
 Quadrupole moment (field-independent basis, Debye-Ang):
   XX=            -62.0094   YY=            -67.0314   ZZ=            -70.8096
   XY=              0.4811   XZ=             -0.0458   YZ=             -1.4694

 Normal termination of Gaussian 16 at Sun Dec  3 23:36:02 2023.
