 Gaussian 16, Revision B.01,
 Gaussian 16:  ES64L-G16RevB.01 20-Dec-2017

 -------------------------
 #P B3LYP/6-311+g(d) force
 -------------------------

 -----
 DPGEN
 -----
 Symbolic Z-matrix:
 Charge =  0 Multiplicity = 2

                         Standard orientation:
 ---------------------------------------------------------------------
 Center     Atomic      Atomic             Coordinates (Angstroms)
 Number     Number       Type             X           Y           Z
 ---------------------------------------------------------------------
      1         11           0       -1.540816   -1.572854    1.318639
      2         11           0        4.435384    2.184358    0.480230
      3         11           0        1.472749   -2.276659   -0.682610
      4         11           0        5.239696   -0.719625   -0.413459
      5         11           0       -4.435928    2.114949   -0.452072
      6         11           0       -0.027749    1.130118   -0.043288
      7         11           0       -5.143336   -0.860287   -0.207439
 ---------------------------------------------------------------------

 SCF Done:  E(UB3LYP) =  -1136.10663863     A.U. after   22 cycles

 The electronic state is 2-A.
 Alpha  occ. eigenvalues --  -38.44902 -38.44853 -38.44519 -38.44350 -38.44175
 Alpha  occ. eigenvalues --  -38.44013 -38.43834  -2.20678  -2.20630  -2.20289
 Alpha  occ. eigenvalues --   -2.20125  -2.19992  -2.19829  -2.19629  -1.14369
 Alpha  occ. eigenvalues --   -1.14345  -1.14325  -1.14324  -1.14302  -1.14249
 Alpha  occ. eigenvalues --   -1.13975  -1.13949  -1.13891  -1.13800  -1.13790
 Alpha  occ. eigenvalues --   -1.13772  -1.13644  -1.13636  -1.13630  -1.13504
 Alpha  occ. eigenvalues --   -1.13463  -1.13436  -1.13291  -1.13276  -1.13272
 Alpha  occ. eigenvalues --   -0.16007  -0.13961  -0.11851  -0.10423
 Alpha virt. eigenvalues --   -0.07421  -0.05441  -0.04761  -0.03746  -0.03038
 Alpha virt. eigenvalues --   -0.02518  -0.02253  -0.01616  -0.01273  -0.00553
 Alpha virt. eigenvalues --   -0.00351  -0.00280  -0.00193   0.00394   0.00522

  Beta  occ. eigenvalues --  -38.44915 -38.44857 -38.44477 -38.44345 -38.44147
  Beta  occ. eigenvalues --  -38.43928 -38.43816  -2.20704  -2.20640  -2.20211
  Beta  occ. eigenvalues --   -2.20114  -2.19937  -2.19671  -2.19596  -1.14381
  Beta  occ. eigenvalues --   -1.14364  -1.14335  -1.14319  -1.14305  -1.14256
  Beta  occ. eigenvalues --   -1.13920  -1.13895  -1.13835  -1.13792  -1.13783
  Beta  occ. eigenvalues --   -1.13759  -1.13608  -1.13601  -1.13593  -1.13396
  Beta  occ. eigenvalues --   -1.13353  -1.13324  -1.13269  -1.13256  -1.13242
  Beta  occ. eigenvalues --   -0.15470  -0.13675  -0.11860
  Beta virt. eigenvalues --   -0.07062  -0.06933  -0.04967  -0.04303  -0.03502
  Beta virt. eigenvalues --   -0.02740  -0.02139  -0.02027  -0.01446  -0.01194
  Beta virt. eigenvalues --   -0.00305  -0.00165  -0.00108   0.00098   0.00470

 Mulliken charges and spin densities:
               1          2
     1  Na  -0.152880   0.064413
     2  Na   0.295036   0.060943
     3  Na   0.371519   0.298110
     4  Na  -0.062577   0.024107
     5  Na   0.208534  -0.087818
     6  Na  -0.691126   0.492076
     7  Na   0.031494   0.148171
 Sum of Mulliken charges =  -0.00000   1.00000

 Dipole moment (field-independent basis, Debye):
    X=             -0.9426    Y=             -0.0775    Z=              0.1650  Tot=              0.9601
 Quadrupole moment (field-independent basis, Debye-Ang):
   XX=            -70.6321   YY=            -61.7837   ZZ=            -70.3906
   XY=              0.2151   XZ=             -1.3811   YZ=             -0.0152

 Normal termination of Gaussian 16 at Mon Dec  4 03:47:08 2023.
