 Gaussian 16, Revision B.01,
 Gaussian 16:  ES64L-G16RevB.01 20-Dec-2017

 -------------------------
 #P B3LYP/6-311+g(d) force
 -------------------------

 -----
 DPGEN
 -----
 Symbolic Z-matrix:
 Charge =  0 Multiplicity = 2

                         Standard orientation:
 ---------------------------------------------------------------------
 Center     Atomic      Atomic             Coordinates (Angstroms)
 Number     Number       Type             X           Y           Z
 ---------------------------------------------------------------------
      1         11           0       -2.962352    1.256737   -0.154122
      2         11           0        3.167474    0.477104    0.062615
      3         11           0       -1.849942   -2.444301    0.044624
      4         11           0        0.229702    2.879813   -0.126421
      5         11           0        0.124583   -0.031840   -1.655244
      6         11           0        1.334182   -2.221583   -0.186728
      7         11           0       -0.043647    0.084071    2.015276
 ---------------------------------------------------------------------

 SCF Done:  E(UB3LYP) =  -1136.13610806     A.U. after   19 cycles

 The electronic state is 2-A.
 Alpha  occ. eigenvalues --  -38.44099 -38.43831 -38.43570 -38.43517 -38.43489
 Alpha  occ. eigenvalues --  -38.43264 -38.43197  -2.19894  -2.19670  -2.19421
 Alpha  occ. eigenvalues --   -2.19417  -2.19338  -2.19280  -2.19170  -1.13571
 Alpha  occ. eigenvalues --   -1.13550  -1.13537  -1.13353  -1.13332  -1.13313
 Alpha  occ. eigenvalues --   -1.13151  -1.13128  -1.13101  -1.13083  -1.13041
 Alpha  occ. eigenvalues --   -1.13038  -1.13029  -1.13023  -1.12997  -1.12979
 Alpha  occ. eigenvalues --   -1.12922  -1.12864  -1.12805  -1.12769  -1.12758
 Alpha  occ. eigenvalues --   -0.18873  -0.12850  -0.12657  -0.10769
 Alpha virt. eigenvalues --   -0.05651  -0.05070  -0.04648  -0.03076  -0.02945
 Alpha virt. eigenvalues --   -0.02544  -0.01576  -0.01142  -0.00341  -0.00136
 Alpha virt. eigenvalues --   -0.00004   0.00350   0.00787   0.00897   0.00923

  Beta  occ. eigenvalues --  -38.44098 -38.43829 -38.43564 -38.43486 -38.43423
  Beta  occ. eigenvalues --  -38.43195 -38.43184  -2.19894  -2.19669  -2.19410
  Beta  occ. eigenvalues --   -2.19337  -2.19247  -2.19168  -2.19138  -1.13556
  Beta  occ. eigenvalues --   -1.13549  -1.13539  -1.13354  -1.13317  -1.13305
  Beta  occ. eigenvalues --   -1.13119  -1.13090  -1.13065  -1.13029  -1.13020
  Beta  occ. eigenvalues --   -1.12987  -1.12981  -1.12968  -1.12923  -1.12904
  Beta  occ. eigenvalues --   -1.12836  -1.12784  -1.12769  -1.12746  -1.12707
  Beta  occ. eigenvalues --   -0.18121  -0.12615  -0.12413
  Beta virt. eigenvalues --   -0.06820  -0.05643  -0.05048  -0.04631  -0.02274
  Beta virt. eigenvalues --   -0.02157  -0.01504  -0.01462  -0.01078  -0.00400
  Beta virt. eigenvalues --   -0.00181   0.00129   0.00367   0.00811   0.00906

 Mulliken charges and spin densities:
               1          2
     1  Na   0.002162  -0.109020
     2  Na   0.183044  -0.044566
     3  Na   0.070868  -0.075758
     4  Na   0.087295  -0.118006
     5  Na  -0.299328   0.479212
     6  Na   0.505116   0.077340
     7  Na  -0.549156   0.790798
 Sum of Mulliken charges =  -0.00000   1.00000

 Dipole moment (field-independent basis, Debye):
    X=             -0.2082    Y=              0.3314    Z=              0.1841  Tot=              0.4325
 Quadrupole moment (field-independent basis, Debye-Ang):
   XX=            -55.7295   YY=            -62.8482   ZZ=            -74.4097
   XY=              1.2031   XZ=              0.4487   YZ=             -0.2918

 Normal termination of Gaussian 16 at Thu Dec  7 17:01:50 2023.
