 Gaussian 16, Revision B.01,
 Gaussian 16:  ES64L-G16RevB.01 20-Dec-2017

 -------------------------
 #P B3LYP/6-311+g(d) force
 -------------------------

 -----
 DPGEN
 -----
 Symbolic Z-matrix:
 Charge =  0 Multiplicity = 2

                         Standard orientation:
 ---------------------------------------------------------------------
 Center     Atomic      Atomic             Coordinates (Angstroms)
 Number     Number       Type             X           Y           Z
 ---------------------------------------------------------------------
      1         11           0        0.064962    1.768146    0.577952
      2         11           0        2.882618    3.911244    0.077968
      3         11           0        2.563123    0.256293   -0.925405
      4         11           0        1.073696   -2.439991    1.277043
      5         11           0       -2.539377   -0.774266    0.492200
      6         11           0        2.884407   -3.082451   -0.856354
      7         11           0       -6.929429    0.361025   -0.643405
 ---------------------------------------------------------------------

 SCF Done:  E(UB3LYP) =  -1136.11079130     A.U. after   19 cycles

 The electronic state is 2-A.
 Alpha  occ. eigenvalues --  -38.45035 -38.45018 -38.44789 -38.44624 -38.43933
 Alpha  occ. eigenvalues --  -38.43884 -38.43104  -2.20863  -2.20812  -2.20621
 Alpha  occ. eigenvalues --   -2.20389  -2.19816  -2.19712  -2.18851  -1.14598
 Alpha  occ. eigenvalues --   -1.14528  -1.14483  -1.14435  -1.14434  -1.14413
 Alpha  occ. eigenvalues --   -1.14343  -1.14320  -1.14201  -1.14061  -1.14060
 Alpha  occ. eigenvalues --   -1.14002  -1.13495  -1.13449  -1.13440  -1.13436
 Alpha  occ. eigenvalues --   -1.13408  -1.13273  -1.12541  -1.12531  -1.12483
 Alpha  occ. eigenvalues --   -0.16747  -0.13228  -0.12697  -0.11064
 Alpha virt. eigenvalues --   -0.06636  -0.05394  -0.04864  -0.03681  -0.02722
 Alpha virt. eigenvalues --   -0.02235  -0.02192  -0.01731  -0.01457  -0.01121
 Alpha virt. eigenvalues --   -0.00349  -0.00233  -0.00029   0.00353   0.00418

  Beta  occ. eigenvalues --  -38.45012 -38.44874 -38.44781 -38.44620 -38.43924
  Beta  occ. eigenvalues --  -38.43873 -38.43117  -2.20852  -2.20609  -2.20511
  Beta  occ. eigenvalues --   -2.20381  -2.19798  -2.19691  -2.18878  -1.14589
  Beta  occ. eigenvalues --   -1.14522  -1.14470  -1.14327  -1.14313  -1.14231
  Beta  occ. eigenvalues --   -1.14231  -1.14211  -1.14192  -1.14056  -1.14054
  Beta  occ. eigenvalues --   -1.13998  -1.13485  -1.13436  -1.13426  -1.13423
  Beta  occ. eigenvalues --   -1.13394  -1.13255  -1.12563  -1.12553  -1.12481
  Beta  occ. eigenvalues --   -0.16553  -0.13190  -0.11658
  Beta virt. eigenvalues --   -0.07133  -0.06537  -0.04999  -0.04727  -0.03540
  Beta virt. eigenvalues --   -0.02627  -0.02078  -0.01814  -0.01307  -0.00880
  Beta virt. eigenvalues --   -0.00620  -0.00101   0.00108   0.00174   0.00471

 Mulliken charges and spin densities:
               1          2
     1  Na  -0.369324   0.002192
     2  Na   0.718081   0.042409
     3  Na  -0.762331   0.090494
     4  Na   0.072591  -0.038219
     5  Na  -0.491917   0.055292
     6  Na   0.939607   0.034385
     7  Na  -0.106707   0.813446
 Sum of Mulliken charges =  -0.00000   1.00000

 Dipole moment (field-independent basis, Debye):
    X=              2.3271    Y=              0.1919    Z=              0.0045  Tot=              2.3350
 Quadrupole moment (field-independent basis, Debye-Ang):
   XX=            -73.5210   YY=            -56.6049   ZZ=            -69.4856
   XY=              2.3477   XZ=             -0.0771   YZ=              0.6929

 Normal termination of Gaussian 16 at Wed Nov 29 01:29:39 2023.
