 Gaussian 16, Revision B.01,
 Gaussian 16:  ES64L-G16RevB.01 20-Dec-2017

 -------------------------
 #P B3LYP/6-311+g(d) force
 -------------------------

 -----
 DPGEN
 -----
 Symbolic Z-matrix:
 Charge =  0 Multiplicity = 2

                         Standard orientation:
 ---------------------------------------------------------------------
 Center     Atomic      Atomic             Coordinates (Angstroms)
 Number     Number       Type             X           Y           Z
 ---------------------------------------------------------------------
      1         11           0        1.053048   -2.646024    0.350047
      2         11           0        3.413530    0.023011   -0.411630
      3         11           0        1.200721    2.576388    0.270590
      4         11           0       -2.594995    1.962708   -0.101210
      5         11           0        0.074614    0.196861   -1.488894
      6         11           0       -0.649333   -0.316196    2.169322
      7         11           0       -2.497584   -1.796749   -0.788224
 ---------------------------------------------------------------------

 SCF Done:  E(UB3LYP) =  -1136.13662558     A.U. after   19 cycles

 The electronic state is 2-A.
 Alpha  occ. eigenvalues --  -38.44016 -38.43997 -38.43956 -38.43717 -38.43510
 Alpha  occ. eigenvalues --  -38.43326 -38.43215  -2.19828  -2.19797  -2.19780
 Alpha  occ. eigenvalues --   -2.19582  -2.19354  -2.19195  -2.19160  -1.13503
 Alpha  occ. eigenvalues --   -1.13483  -1.13478  -1.13472  -1.13472  -1.13458
 Alpha  occ. eigenvalues --   -1.13439  -1.13424  -1.13400  -1.13248  -1.13208
 Alpha  occ. eigenvalues --   -1.13198  -1.13091  -1.13021  -1.12962  -1.12886
 Alpha  occ. eigenvalues --   -1.12850  -1.12839  -1.12819  -1.12800  -1.12783
 Alpha  occ. eigenvalues --   -0.18304  -0.12990  -0.12227  -0.10821
 Alpha virt. eigenvalues --   -0.05659  -0.05438  -0.04492  -0.03150  -0.02941
 Alpha virt. eigenvalues --   -0.02602  -0.01692  -0.01230  -0.00511  -0.00223
 Alpha virt. eigenvalues --   -0.00037   0.00321   0.00727   0.00831   0.00861

  Beta  occ. eigenvalues --  -38.44013 -38.43995 -38.43930 -38.43618 -38.43506
  Beta  occ. eigenvalues --  -38.43318 -38.43169  -2.19824  -2.19797  -2.19735
  Beta  occ. eigenvalues --   -2.19401  -2.19349  -2.19149  -2.19112  -1.13491
  Beta  occ. eigenvalues --   -1.13481  -1.13470  -1.13466  -1.13459  -1.13432
  Beta  occ. eigenvalues --   -1.13427  -1.13394  -1.13368  -1.13127  -1.13085
  Beta  occ. eigenvalues --   -1.13081  -1.13065  -1.13005  -1.12956  -1.12848
  Beta  occ. eigenvalues --   -1.12813  -1.12801  -1.12780  -1.12768  -1.12744
  Beta  occ. eigenvalues --   -0.17617  -0.12743  -0.12013
  Beta virt. eigenvalues --   -0.06910  -0.05610  -0.05374  -0.04392  -0.02526
  Beta virt. eigenvalues --   -0.02185  -0.01616  -0.01570  -0.01145  -0.00473
  Beta virt. eigenvalues --   -0.00243   0.00112   0.00369   0.00821   0.00837

 Mulliken charges and spin densities:
               1          2
     1  Na   0.096984   0.052508
     2  Na   0.111769  -0.014020
     3  Na   0.030899   0.060075
     4  Na   0.066239  -0.009079
     5  Na  -0.083675   0.215863
     6  Na  -0.357918   0.632368
     7  Na   0.135701   0.062285
 Sum of Mulliken charges =  -0.00000   1.00000

 Dipole moment (field-independent basis, Debye):
    X=             -0.1452    Y=              0.0718    Z=              0.1033  Tot=              0.1921
 Quadrupole moment (field-independent basis, Debye-Ang):
   XX=            -54.7528   YY=            -64.4705   ZZ=            -73.7488
   XY=             -0.7050   XZ=              0.7768   YZ=              1.4235

 Normal termination of Gaussian 16 at Thu Dec  7 13:06:17 2023.
