 Gaussian 16, Revision B.01,
 Gaussian 16:  ES64L-G16RevB.01 20-Dec-2017

 -------------------------
 #P B3LYP/6-311+g(d) force
 -------------------------

 -----
 DPGEN
 -----
 Symbolic Z-matrix:
 Charge =  0 Multiplicity = 2

                         Standard orientation:
 ---------------------------------------------------------------------
 Center     Atomic      Atomic             Coordinates (Angstroms)
 Number     Number       Type             X           Y           Z
 ---------------------------------------------------------------------
      1         11           0       -0.807039    0.087384    1.685740
      2         11           0       -3.186502    1.085068   -0.522709
      3         11           0        0.385598   -1.103524   -1.289627
      4         11           0       -3.453045   -2.087780    0.300261
      5         11           0        4.186519   -1.472860   -0.572547
      6         11           0        0.141439    2.559194   -0.978458
      7         11           0        2.733030    0.932518    1.377339
 ---------------------------------------------------------------------

 SCF Done:  E(UB3LYP) =  -1136.11903739     A.U. after   25 cycles

 The electronic state is 2-A.
 Alpha  occ. eigenvalues --  -38.45292 -38.45168 -38.44245 -38.44194 -38.44178
 Alpha  occ. eigenvalues --  -38.43689 -38.42757  -2.21089  -2.21008  -2.20066
 Alpha  occ. eigenvalues --   -2.20062  -2.19957  -2.19497  -2.18580  -1.14807
 Alpha  occ. eigenvalues --   -1.14737  -1.14705  -1.14679  -1.14667  -1.14618
 Alpha  occ. eigenvalues --   -1.13787  -1.13749  -1.13719  -1.13715  -1.13699
 Alpha  occ. eigenvalues --   -1.13638  -1.13631  -1.13618  -1.13591  -1.13175
 Alpha  occ. eigenvalues --   -1.13157  -1.13138  -1.12256  -1.12235  -1.12219
 Alpha  occ. eigenvalues --   -0.17880  -0.13869  -0.11313  -0.10620
 Alpha virt. eigenvalues --   -0.07307  -0.05684  -0.04446  -0.03205  -0.03094
 Alpha virt. eigenvalues --   -0.02434  -0.02081  -0.01680  -0.00862  -0.00594
 Alpha virt. eigenvalues --   -0.00065   0.00060   0.00268   0.00481   0.00601

  Beta  occ. eigenvalues --  -38.45237 -38.45153 -38.44207 -38.44205 -38.44119
  Beta  occ. eigenvalues --  -38.43693 -38.42741  -2.20989  -2.20981  -2.19995
  Beta  occ. eigenvalues --   -2.19978  -2.19956  -2.19507  -2.18552  -1.14725
  Beta  occ. eigenvalues --   -1.14681  -1.14668  -1.14650  -1.14605  -1.14595
  Beta  occ. eigenvalues --   -1.13714  -1.13691  -1.13680  -1.13667  -1.13644
  Beta  occ. eigenvalues --   -1.13635  -1.13616  -1.13594  -1.13553  -1.13183
  Beta  occ. eigenvalues --   -1.13158  -1.13142  -1.12235  -1.12214  -1.12190
  Beta  occ. eigenvalues --   -0.17228  -0.13801  -0.11030
  Beta virt. eigenvalues --   -0.07122  -0.06892  -0.05510  -0.04014  -0.02945
  Beta virt. eigenvalues --   -0.02773  -0.01914  -0.01713  -0.01100  -0.00763
  Beta virt. eigenvalues --   -0.00444  -0.00044   0.00139   0.00398   0.00582

 Mulliken charges and spin densities:
               1          2
     1  Na  -0.316935   0.324508
     2  Na   0.354921   0.098731
     3  Na  -0.543571   0.519443
     4  Na   0.411935  -0.099365
     5  Na   0.072397  -0.114435
     6  Na  -0.151519   0.075576
     7  Na   0.172772   0.195542
 Sum of Mulliken charges =  -0.00000   1.00000

 Dipole moment (field-independent basis, Debye):
    X=             -0.4770    Y=              0.2309    Z=             -0.2293  Tot=              0.5774
 Quadrupole moment (field-independent basis, Debye-Ang):
   XX=            -53.5435   YY=            -69.3974   ZZ=            -73.8939
   XY=              0.2597   XZ=              1.6228   YZ=              0.6238

 Normal termination of Gaussian 16 at Tue Dec  5 14:12:35 2023.
