 Gaussian 16, Revision B.01,
 Gaussian 16:  ES64L-G16RevB.01 20-Dec-2017

 -------------------------
 #P B3LYP/6-311+g(d) force
 -------------------------

 -----
 DPGEN
 -----
 Symbolic Z-matrix:
 Charge =  0 Multiplicity = 2

                         Standard orientation:
 ---------------------------------------------------------------------
 Center     Atomic      Atomic             Coordinates (Angstroms)
 Number     Number       Type             X           Y           Z
 ---------------------------------------------------------------------
      1         11           0       -2.988620   -1.056054    0.364497
      2         11           0       -2.169767    2.103336   -0.492256
      3         11           0        0.098060   -0.026010   -1.600868
      4         11           0        1.444668    2.787421    0.241870
      5         11           0        3.432454   -0.801726   -0.230407
      6         11           0       -0.083346   -2.676953   -0.462920
      7         11           0        0.266550   -0.330016    2.180084
 ---------------------------------------------------------------------

 SCF Done:  E(UB3LYP) =  -1136.13104756     A.U. after   20 cycles

 The electronic state is 2-A.
 Alpha  occ. eigenvalues --  -38.44760 -38.43972 -38.43919 -38.43808 -38.43485
 Alpha  occ. eigenvalues --  -38.43418 -38.43389  -2.20513  -2.19817  -2.19754
 Alpha  occ. eigenvalues --   -2.19588  -2.19376  -2.19319  -2.19316  -1.14194
 Alpha  occ. eigenvalues --   -1.14162  -1.14154  -1.13482  -1.13451  -1.13435
 Alpha  occ. eigenvalues --   -1.13422  -1.13413  -1.13403  -1.13271  -1.13264
 Alpha  occ. eigenvalues --   -1.13251  -1.13221  -1.13061  -1.13011  -1.12978
 Alpha  occ. eigenvalues --   -1.12954  -1.12951  -1.12942  -1.12905  -1.12888
 Alpha  occ. eigenvalues --   -0.18296  -0.12793  -0.12260  -0.10856
 Alpha virt. eigenvalues --   -0.06121  -0.05211  -0.04387  -0.03217  -0.02885
 Alpha virt. eigenvalues --   -0.02739  -0.01907  -0.01108  -0.00484  -0.00251
 Alpha virt. eigenvalues --   -0.00041   0.00321   0.00724   0.00814   0.00818

  Beta  occ. eigenvalues --  -38.44761 -38.43914 -38.43874 -38.43806 -38.43477
  Beta  occ. eigenvalues --  -38.43403 -38.43326  -2.20516  -2.19747  -2.19636
  Beta  occ. eigenvalues --   -2.19587  -2.19307  -2.19302  -2.19254  -1.14186
  Beta  occ. eigenvalues --   -1.14162  -1.14158  -1.13423  -1.13408  -1.13387
  Beta  occ. eigenvalues --   -1.13358  -1.13326  -1.13295  -1.13257  -1.13252
  Beta  occ. eigenvalues --   -1.13221  -1.13207  -1.13019  -1.12962  -1.12949
  Beta  occ. eigenvalues --   -1.12936  -1.12913  -1.12905  -1.12866  -1.12835
  Beta  occ. eigenvalues --   -0.17570  -0.12607  -0.12021
  Beta virt. eigenvalues --   -0.06925  -0.06091  -0.05127  -0.04344  -0.02495
  Beta virt. eigenvalues --   -0.02169  -0.01842  -0.01636  -0.01029  -0.00500
  Beta virt. eigenvalues --   -0.00279   0.00099   0.00350   0.00775   0.00841

 Mulliken charges and spin densities:
               1          2
     1  Na   0.084485   0.099006
     2  Na   0.091312  -0.010967
     3  Na   0.047981   0.281523
     4  Na  -0.094839  -0.028334
     5  Na  -0.005267  -0.090937
     6  Na   0.354821   0.016730
     7  Na  -0.478493   0.732978
 Sum of Mulliken charges =  -0.00000   1.00000

 Dipole moment (field-independent basis, Debye):
    X=              0.5052    Y=             -0.0746    Z=              0.2771  Tot=              0.5810
 Quadrupole moment (field-independent basis, Debye-Ang):
   XX=            -53.7937   YY=            -65.1059   ZZ=            -74.1234
   XY=              0.2359   XZ=             -0.5757   YZ=              0.3712

 Normal termination of Gaussian 16 at Thu Dec  7 08:15:10 2023.
