 Gaussian 16, Revision B.01,
 Gaussian 16:  ES64L-G16RevB.01 20-Dec-2017

 -------------------------
 #P B3LYP/6-311+g(d) force
 -------------------------

 -----
 DPGEN
 -----
 Symbolic Z-matrix:
 Charge =  0 Multiplicity = 2

                         Standard orientation:
 ---------------------------------------------------------------------
 Center     Atomic      Atomic             Coordinates (Angstroms)
 Number     Number       Type             X           Y           Z
 ---------------------------------------------------------------------
      1         11           0        1.794551    2.432265   -0.254667
      2         11           0       -3.287379    0.536703    1.351010
      3         11           0        0.412965   -0.654548    1.731688
      4         11           0       -1.918930   -1.882258   -1.119433
      5         11           0       -1.443751    1.232011   -0.894759
      6         11           0        1.267195   -0.587455   -1.743815
      7         11           0        3.175349   -1.076719    0.929976
 ---------------------------------------------------------------------

 SCF Done:  E(UB3LYP) =  -1136.12230912     A.U. after   25 cycles

 The electronic state is 2-A.
 Alpha  occ. eigenvalues --  -38.44767 -38.44720 -38.43900 -38.43633 -38.43543
 Alpha  occ. eigenvalues --  -38.43181 -38.42829  -2.20620  -2.20593  -2.19839
 Alpha  occ. eigenvalues --   -2.19517  -2.19442  -2.19013  -2.18814  -1.14331
 Alpha  occ. eigenvalues --   -1.14285  -1.14255  -1.14235  -1.14226  -1.14188
 Alpha  occ. eigenvalues --   -1.13544  -1.13496  -1.13449  -1.13347  -1.13173
 Alpha  occ. eigenvalues --   -1.13136  -1.13107  -1.13084  -1.12989  -1.12691
 Alpha  occ. eigenvalues --   -1.12660  -1.12646  -1.12523  -1.12494  -1.12418
 Alpha  occ. eigenvalues --   -0.18831  -0.14034  -0.11981  -0.10919
 Alpha virt. eigenvalues --   -0.06111  -0.05231  -0.04689  -0.03387  -0.02648
 Alpha virt. eigenvalues --   -0.02473  -0.01906  -0.01089  -0.00727   0.00136
 Alpha virt. eigenvalues --    0.00208   0.00299   0.00357   0.00681   0.00813

  Beta  occ. eigenvalues --  -38.44724 -38.44652 -38.43853 -38.43634 -38.43524
  Beta  occ. eigenvalues --  -38.43166 -38.42814  -2.20541  -2.20471  -2.19756
  Beta  occ. eigenvalues --   -2.19520  -2.19411  -2.18984  -2.18793  -1.14275
  Beta  occ. eigenvalues --   -1.14199  -1.14194  -1.14171  -1.14152  -1.14091
  Beta  occ. eigenvalues --   -1.13488  -1.13430  -1.13381  -1.13338  -1.13168
  Beta  occ. eigenvalues --   -1.13133  -1.13086  -1.13054  -1.12975  -1.12666
  Beta  occ. eigenvalues --   -1.12644  -1.12626  -1.12492  -1.12445  -1.12414
  Beta  occ. eigenvalues --   -0.18058  -0.13807  -0.10784
  Beta virt. eigenvalues --   -0.07942  -0.05880  -0.04732  -0.04426  -0.02934
  Beta virt. eigenvalues --   -0.02127  -0.02000  -0.01668  -0.00734  -0.00529
  Beta virt. eigenvalues --    0.00247   0.00294   0.00412   0.00448   0.00739

 Mulliken charges and spin densities:
               1          2
     1  Na  -0.208376  -0.016072
     2  Na   0.565890  -0.097897
     3  Na  -0.854030   0.312863
     4  Na   0.037134   0.156954
     5  Na  -0.313516   0.570778
     6  Na   0.073067   0.150397
     7  Na   0.699830  -0.077023
 Sum of Mulliken charges =  -0.00000   1.00000

 Dipole moment (field-independent basis, Debye):
    X=             -0.5793    Y=             -0.2481    Z=              0.0619  Tot=              0.6332
 Quadrupole moment (field-independent basis, Debye-Ang):
   XX=            -52.6779   YY=            -71.5903   ZZ=            -70.9451
   XY=              1.6530   XZ=             -2.6226   YZ=              8.5493

 Normal termination of Gaussian 16 at Thu Dec  7 13:02:13 2023.
