 Gaussian 16, Revision B.01,
 Gaussian 16:  ES64L-G16RevB.01 20-Dec-2017

 -------------------------
 #P B3LYP/6-311+g(d) force
 -------------------------

 -----
 DPGEN
 -----
 Symbolic Z-matrix:
 Charge =  0 Multiplicity = 2

                         Standard orientation:
 ---------------------------------------------------------------------
 Center     Atomic      Atomic             Coordinates (Angstroms)
 Number     Number       Type             X           Y           Z
 ---------------------------------------------------------------------
      1         11           0        0.333005   -0.165770    2.176841
      2         11           0       -1.774317    2.450537    0.000045
      3         11           0       -0.344128    0.096050   -1.695737
      4         11           0        0.046725   -2.982774   -0.394240
      5         11           0        1.754230    2.454680   -0.212933
      6         11           0        3.003791   -0.883990   -0.088975
      7         11           0       -3.019305   -0.968734    0.215000
 ---------------------------------------------------------------------

 SCF Done:  E(UB3LYP) =  -1136.13974738     A.U. after   18 cycles

 The electronic state is 2-A.
 Alpha  occ. eigenvalues --  -38.43931 -38.43847 -38.43816 -38.43604 -38.43569
 Alpha  occ. eigenvalues --  -38.43555 -38.43279  -2.19741  -2.19695  -2.19632
 Alpha  occ. eigenvalues --   -2.19446  -2.19397  -2.19386  -2.19231  -1.13416
 Alpha  occ. eigenvalues --   -1.13406  -1.13381  -1.13357  -1.13331  -1.13321
 Alpha  occ. eigenvalues --   -1.13300  -1.13283  -1.13277  -1.13159  -1.13109
 Alpha  occ. eigenvalues --   -1.13094  -1.13082  -1.13067  -1.13056  -1.13045
 Alpha  occ. eigenvalues --   -1.13022  -1.13012  -1.12905  -1.12859  -1.12849
 Alpha  occ. eigenvalues --   -0.18343  -0.12739  -0.12544  -0.10787
 Alpha virt. eigenvalues --   -0.05481  -0.05230  -0.04907  -0.03185  -0.02997
 Alpha virt. eigenvalues --   -0.02683  -0.01386  -0.01176  -0.00483  -0.00431
 Alpha virt. eigenvalues --   -0.00037   0.00369   0.00806   0.00865   0.00875

  Beta  occ. eigenvalues --  -38.43928 -38.43814 -38.43749 -38.43601 -38.43560
  Beta  occ. eigenvalues --  -38.43551 -38.43218  -2.19737  -2.19631  -2.19514
  Beta  occ. eigenvalues --   -2.19443  -2.19383  -2.19381  -2.19120  -1.13409
  Beta  occ. eigenvalues --   -1.13390  -1.13381  -1.13303  -1.13287  -1.13277
  Beta  occ. eigenvalues --   -1.13230  -1.13197  -1.13181  -1.13149  -1.13096
  Beta  occ. eigenvalues --   -1.13078  -1.13074  -1.13055  -1.13033  -1.13032
  Beta  occ. eigenvalues --   -1.13016  -1.13011  -1.12832  -1.12780  -1.12769
  Beta  occ. eigenvalues --   -0.17620  -0.12547  -0.12312
  Beta virt. eigenvalues --   -0.06879  -0.05443  -0.05251  -0.04787  -0.02414
  Beta virt. eigenvalues --   -0.02241  -0.01634  -0.01292  -0.01096  -0.00535
  Beta virt. eigenvalues --   -0.00486   0.00118   0.00395   0.00855   0.00860

 Mulliken charges and spin densities:
               1          2
     1  Na  -0.557530   0.794616
     2  Na   0.144112  -0.037295
     3  Na  -0.047063   0.438828
     4  Na   0.130428  -0.058380
     5  Na   0.110040  -0.071465
     6  Na   0.146467  -0.052503
     7  Na   0.073547  -0.013800
 Sum of Mulliken charges =  -0.00000   1.00000

 Dipole moment (field-independent basis, Debye):
    X=             -0.0661    Y=             -0.0571    Z=              0.1478  Tot=              0.1717
 Quadrupole moment (field-independent basis, Debye-Ang):
   XX=            -58.2347   YY=            -61.7069   ZZ=            -73.9493
   XY=              0.0889   XZ=             -1.5939   YZ=              0.5157

 Normal termination of Gaussian 16 at Tue Dec  5 19:17:52 2023.
