 Gaussian 16, Revision B.01,
 Gaussian 16:  ES64L-G16RevB.01 20-Dec-2017

 -------------------------
 #P B3LYP/6-311+g(d) force
 -------------------------

 -----
 DPGEN
 -----
 Symbolic Z-matrix:
 Charge =  0 Multiplicity = 2

                         Standard orientation:
 ---------------------------------------------------------------------
 Center     Atomic      Atomic             Coordinates (Angstroms)
 Number     Number       Type             X           Y           Z
 ---------------------------------------------------------------------
      1         11           0        0.729407   -0.990637    1.434670
      2         11           0       -2.553011   -1.598955    0.244735
      3         11           0        0.990694   -1.437929   -1.440252
      4         11           0        3.827747    0.093531    0.176940
      5         11           0       -1.594320    1.245434    1.794636
      6         11           0       -2.373337    0.873509   -1.595796
      7         11           0        0.972821    1.815047   -0.614932
 ---------------------------------------------------------------------

 SCF Done:  E(UB3LYP) =  -1136.12282588     A.U. after   25 cycles

 The electronic state is 2-A.
 Alpha  occ. eigenvalues --  -38.45470 -38.44067 -38.44031 -38.43754 -38.43499
 Alpha  occ. eigenvalues --  -38.43358 -38.42525  -2.21274  -2.19946  -2.19938
 Alpha  occ. eigenvalues --   -2.19663  -2.19382  -2.19347  -2.18426  -1.14954
 Alpha  occ. eigenvalues --   -1.14925  -1.14903  -1.13724  -1.13646  -1.13602
 Alpha  occ. eigenvalues --   -1.13592  -1.13559  -1.13510  -1.13371  -1.13303
 Alpha  occ. eigenvalues --   -1.13264  -1.13064  -1.13053  -1.13036  -1.13001
 Alpha  occ. eigenvalues --   -1.12994  -1.12919  -1.12143  -1.12106  -1.12023
 Alpha  occ. eigenvalues --   -0.19016  -0.14104  -0.11737  -0.10746
 Alpha virt. eigenvalues --   -0.06853  -0.04685  -0.04461  -0.03181  -0.02629
 Alpha virt. eigenvalues --   -0.02575  -0.02407  -0.00744  -0.00555   0.00011
 Alpha virt. eigenvalues --    0.00226   0.00239   0.00385   0.00816   0.00911

  Beta  occ. eigenvalues --  -38.45475 -38.44023 -38.44001 -38.43689 -38.43487
  Beta  occ. eigenvalues --  -38.43316 -38.42510  -2.21284  -2.19886  -2.19864
  Beta  occ. eigenvalues --   -2.19547  -2.19365  -2.19272  -2.18402  -1.14954
  Beta  occ. eigenvalues --   -1.14935  -1.14910  -1.13690  -1.13594  -1.13547
  Beta  occ. eigenvalues --   -1.13533  -1.13499  -1.13471  -1.13281  -1.13228
  Beta  occ. eigenvalues --   -1.13175  -1.13045  -1.13014  -1.12996  -1.12989
  Beta  occ. eigenvalues --   -1.12914  -1.12871  -1.12130  -1.12058  -1.12010
  Beta  occ. eigenvalues --   -0.18234  -0.13915  -0.10575
  Beta virt. eigenvalues --   -0.07653  -0.06667  -0.04478  -0.03992  -0.02811
  Beta virt. eigenvalues --   -0.02436  -0.01996  -0.01688  -0.00579  -0.00275
  Beta virt. eigenvalues --    0.00045   0.00253   0.00370   0.00423   0.00893

 Mulliken charges and spin densities:
               1          2
     1  Na  -0.109237   0.201688
     2  Na   0.175642   0.015195
     3  Na  -0.221794   0.305595
     4  Na   0.662770  -0.083548
     5  Na   0.172220   0.138744
     6  Na  -0.082378   0.317115
     7  Na  -0.597223   0.105211
 Sum of Mulliken charges =  -0.00000   1.00000

 Dipole moment (field-independent basis, Debye):
    X=              1.1223    Y=             -0.0772    Z=             -0.0402  Tot=              1.1257
 Quadrupole moment (field-independent basis, Debye-Ang):
   XX=            -45.9245   YY=            -80.3184   ZZ=            -65.9491
   XY=              0.0663   XZ=              1.0472   YZ=              1.9262

 Normal termination of Gaussian 16 at Fri Dec  8 06:45:09 2023.
