 Gaussian 16, Revision B.01,
 Gaussian 16:  ES64L-G16RevB.01 20-Dec-2017

 -------------------------
 #P B3LYP/6-311+g(d) force
 -------------------------

 -----
 DPGEN
 -----
 Symbolic Z-matrix:
 Charge =  0 Multiplicity = 2

                         Standard orientation:
 ---------------------------------------------------------------------
 Center     Atomic      Atomic             Coordinates (Angstroms)
 Number     Number       Type             X           Y           Z
 ---------------------------------------------------------------------
      1         11           0        1.611107   -1.582051   -1.136092
      2         11           0       -0.483955    2.589310    0.359957
      3         11           0        3.631719    1.477020   -1.246360
      4         11           0       -3.312832    2.164115    0.371915
      5         11           0       -4.475857   -1.237419   -0.419452
      6         11           0       -0.822170   -2.825686    0.446724
      7         11           0        3.851987   -0.585287    1.623309
 ---------------------------------------------------------------------

 SCF Done:  E(UB3LYP) =  -1136.10339934     A.U. after   24 cycles

 The electronic state is 2-A.
 Alpha  occ. eigenvalues --  -38.46509 -38.45607 -38.44257 -38.43960 -38.43660
 Alpha  occ. eigenvalues --  -38.43566 -38.43087  -2.22274  -2.21365  -2.20040
 Alpha  occ. eigenvalues --   -2.19806  -2.19495  -2.19398  -2.18876  -1.15942
 Alpha  occ. eigenvalues --   -1.15917  -1.15885  -1.15052  -1.15027  -1.14996
 Alpha  occ. eigenvalues --   -1.13689  -1.13667  -1.13657  -1.13488  -1.13476
 Alpha  occ. eigenvalues --   -1.13424  -1.13364  -1.13151  -1.13126  -1.13032
 Alpha  occ. eigenvalues --   -1.13014  -1.12949  -1.12556  -1.12544  -1.12512
 Alpha  occ. eigenvalues --   -0.16269  -0.14010  -0.11966  -0.10495
 Alpha virt. eigenvalues --   -0.07570  -0.05741  -0.04336  -0.03328  -0.02906
 Alpha virt. eigenvalues --   -0.02554  -0.02194  -0.01818  -0.01136  -0.00760
 Alpha virt. eigenvalues --   -0.00369  -0.00220   0.00166   0.00189   0.00436

  Beta  occ. eigenvalues --  -38.46465 -38.45616 -38.44152 -38.43928 -38.43663
  Beta  occ. eigenvalues --  -38.43523 -38.43087  -2.22193  -2.21385  -2.19845
  Beta  occ. eigenvalues --   -2.19749  -2.19505  -2.19317  -2.18879  -1.15887
  Beta  occ. eigenvalues --   -1.15853  -1.15832  -1.15065  -1.15038  -1.15003
  Beta  occ. eigenvalues --   -1.13557  -1.13535  -1.13526  -1.13450  -1.13434
  Beta  occ. eigenvalues --   -1.13382  -1.13336  -1.13162  -1.13123  -1.12977
  Beta  occ. eigenvalues --   -1.12960  -1.12907  -1.12551  -1.12548  -1.12502
  Beta  occ. eigenvalues --   -0.15918  -0.13269  -0.11519
  Beta virt. eigenvalues --   -0.07385  -0.07115  -0.05661  -0.03995  -0.02989
  Beta virt. eigenvalues --   -0.02414  -0.02289  -0.01988  -0.01581  -0.01039
  Beta virt. eigenvalues --   -0.00456  -0.00241   0.00017   0.00236   0.00340

 Mulliken charges and spin densities:
               1          2
     1  Na  -0.373982   0.084794
     2  Na  -0.331289   0.080960
     3  Na   0.378902   0.107391
     4  Na   0.177041   0.088569
     5  Na  -0.031079   0.495626
     6  Na  -0.144184  -0.086711
     7  Na   0.324591   0.229371
 Sum of Mulliken charges =  -0.00000   1.00000

 Dipole moment (field-independent basis, Debye):
    X=              3.0514    Y=              0.0551    Z=              0.3368  Tot=              3.0704
 Quadrupole moment (field-independent basis, Debye-Ang):
   XX=            -62.9807   YY=            -76.6903   ZZ=            -62.1691
   XY=              1.0262   XZ=              1.0448   YZ=             -5.1994

 Normal termination of Gaussian 16 at Sun Dec  3 19:21:22 2023.
