 Gaussian 16, Revision B.01,
 Gaussian 16:  ES64L-G16RevB.01 20-Dec-2017

 -------------------------
 #P B3LYP/6-311+g(d) force
 -------------------------

 -----
 DPGEN
 -----
 Symbolic Z-matrix:
 Charge =  0 Multiplicity = 2

                         Standard orientation:
 ---------------------------------------------------------------------
 Center     Atomic      Atomic             Coordinates (Angstroms)
 Number     Number       Type             X           Y           Z
 ---------------------------------------------------------------------
      1         11           0       -0.527686   -0.510857    1.690711
      2         11           0        3.531587   -0.424878    0.912109
      3         11           0        5.663003    0.744021   -1.153857
      4         11           0       -3.542627   -1.829159   -0.627194
      5         11           0       -3.901858    1.752583   -0.543015
      6         11           0       -1.050234    2.936019    0.208886
      7         11           0       -0.172184   -2.667728   -0.487639
 ---------------------------------------------------------------------

 SCF Done:  E(UB3LYP) =  -1136.11527165     A.U. after   18 cycles

 The electronic state is 2-A.
 Alpha  occ. eigenvalues --  -38.44871 -38.44500 -38.44275 -38.44087 -38.44043
 Alpha  occ. eigenvalues --  -38.43999 -38.43894  -2.20712  -2.20316  -2.20099
 Alpha  occ. eigenvalues --   -2.19887  -2.19847  -2.19809  -2.19665  -1.14412
 Alpha  occ. eigenvalues --   -1.14352  -1.14337  -1.13986  -1.13963  -1.13928
 Alpha  occ. eigenvalues --   -1.13778  -1.13762  -1.13715  -1.13558  -1.13549
 Alpha  occ. eigenvalues --   -1.13529  -1.13528  -1.13507  -1.13497  -1.13475
 Alpha  occ. eigenvalues --   -1.13460  -1.13400  -1.13347  -1.13341  -1.13292
 Alpha  occ. eigenvalues --   -0.16700  -0.13545  -0.12244  -0.11409
 Alpha virt. eigenvalues --   -0.06079  -0.05747  -0.04745  -0.03765  -0.02739
 Alpha virt. eigenvalues --   -0.02399  -0.02001  -0.01802  -0.00981  -0.00665
 Alpha virt. eigenvalues --   -0.00495  -0.00153   0.00063   0.00353   0.00534

  Beta  occ. eigenvalues --  -38.44819 -38.44429 -38.44276 -38.44030 -38.44021
  Beta  occ. eigenvalues --  -38.43986 -38.43905  -2.20617  -2.20184  -2.20104
  Beta  occ. eigenvalues --   -2.19806  -2.19786  -2.19780  -2.19692  -1.14350
  Beta  occ. eigenvalues --   -1.14279  -1.14269  -1.13897  -1.13875  -1.13838
  Beta  occ. eigenvalues --   -1.13775  -1.13764  -1.13709  -1.13538  -1.13488
  Beta  occ. eigenvalues --   -1.13480  -1.13465  -1.13457  -1.13457  -1.13456
  Beta  occ. eigenvalues --   -1.13438  -1.13373  -1.13369  -1.13360  -1.13271
  Beta  occ. eigenvalues --   -0.16046  -0.12975  -0.12024
  Beta virt. eigenvalues --   -0.08046  -0.05663  -0.05360  -0.04197  -0.03578
  Beta virt. eigenvalues --   -0.02365  -0.02220  -0.01723  -0.01594  -0.00638
  Beta virt. eigenvalues --   -0.00598  -0.00256  -0.00002   0.00250   0.00474

 Mulliken charges and spin densities:
               1          2
     1  Na   0.026001   0.131904
     2  Na  -0.510333  -0.021555
     3  Na   0.254300   0.236977
     4  Na   0.149433   0.380009
     5  Na  -0.002328   0.068182
     6  Na   0.064933   0.145218
     7  Na   0.017994   0.059265
 Sum of Mulliken charges =  -0.00000   1.00000

 Dipole moment (field-independent basis, Debye):
    X=             -0.5601    Y=             -0.3204    Z=             -0.3450  Tot=              0.7317
 Quadrupole moment (field-independent basis, Debye-Ang):
   XX=            -66.8598   YY=            -68.7753   ZZ=            -66.4946
   XY=              2.9978   XZ=             -3.4605   YZ=             -0.4918

 Normal termination of Gaussian 16 at Mon Dec  4 01:01:01 2023.
