 Gaussian 16, Revision B.01,
 Gaussian 16:  ES64L-G16RevB.01 20-Dec-2017

 -------------------------
 #P B3LYP/6-311+g(d) force
 -------------------------

 -----
 DPGEN
 -----
 Symbolic Z-matrix:
 Charge =  0 Multiplicity = 2

                         Standard orientation:
 ---------------------------------------------------------------------
 Center     Atomic      Atomic             Coordinates (Angstroms)
 Number     Number       Type             X           Y           Z
 ---------------------------------------------------------------------
      1         11           0       -4.918402   -1.761606    0.048513
      2         11           0        1.805198    2.972314   -0.128499
      3         11           0       -2.996136    0.652112   -1.233993
      4         11           0        2.807010   -2.969239    0.870571
      5         11           0        3.543969   -0.215744   -1.235324
      6         11           0        0.665720   -1.129717    0.146732
      7         11           0       -0.907358    2.451881    1.532001
 ---------------------------------------------------------------------

 SCF Done:  E(UB3LYP) =  -1136.11484728     A.U. after   21 cycles

 The electronic state is 2-A.
 Alpha  occ. eigenvalues --  -38.44654 -38.44281 -38.44254 -38.44148 -38.44112
 Alpha  occ. eigenvalues --  -38.43852 -38.43763  -2.20531  -2.20120  -2.20052
 Alpha  occ. eigenvalues --   -2.19960  -2.19920  -2.19652  -2.19579  -1.14276
 Alpha  occ. eigenvalues --   -1.14199  -1.14175  -1.13772  -1.13753  -1.13742
 Alpha  occ. eigenvalues --   -1.13722  -1.13721  -1.13693  -1.13641  -1.13614
 Alpha  occ. eigenvalues --   -1.13576  -1.13574  -1.13550  -1.13531  -1.13347
 Alpha  occ. eigenvalues --   -1.13331  -1.13307  -1.13239  -1.13214  -1.13187
 Alpha  occ. eigenvalues --   -0.16746  -0.13797  -0.12365  -0.10422
 Alpha virt. eigenvalues --   -0.06324  -0.05620  -0.04787  -0.03572  -0.02933
 Alpha virt. eigenvalues --   -0.02364  -0.02076  -0.01467  -0.01045  -0.00440
 Alpha virt. eigenvalues --   -0.00346  -0.00211   0.00199   0.00391   0.00572

  Beta  occ. eigenvalues --  -38.44632 -38.44289 -38.44222 -38.44111 -38.44041
  Beta  occ. eigenvalues --  -38.43843 -38.43732  -2.20494  -2.20070  -2.20062
  Beta  occ. eigenvalues --   -2.19851  -2.19830  -2.19638  -2.19520  -1.14236
  Beta  occ. eigenvalues --   -1.14168  -1.14147  -1.13757  -1.13735  -1.13723
  Beta  occ. eigenvalues --   -1.13713  -1.13688  -1.13686  -1.13554  -1.13529
  Beta  occ. eigenvalues --   -1.13527  -1.13526  -1.13491  -1.13447  -1.13334
  Beta  occ. eigenvalues --   -1.13322  -1.13279  -1.13198  -1.13172  -1.13155
  Beta  occ. eigenvalues --   -0.16220  -0.13497  -0.11942
  Beta virt. eigenvalues --   -0.06965  -0.06087  -0.05379  -0.04328  -0.03368
  Beta virt. eigenvalues --   -0.02445  -0.02221  -0.01851  -0.01181  -0.00872
  Beta virt. eigenvalues --   -0.00138  -0.00062   0.00040   0.00270   0.00534

 Mulliken charges and spin densities:
               1          2
     1  Na  -0.173012   0.152832
     2  Na   0.024485   0.077317
     3  Na   0.872521  -0.018526
     4  Na   0.057600   0.081670
     5  Na   0.761980   0.396811
     6  Na  -1.931862   0.187961
     7  Na   0.388287   0.121935
 Sum of Mulliken charges =  -0.00000   1.00000

 Dipole moment (field-independent basis, Debye):
    X=              0.5850    Y=             -0.6861    Z=              0.5583  Tot=              1.0605
 Quadrupole moment (field-independent basis, Debye-Ang):
   XX=            -65.4771   YY=            -64.6707   ZZ=            -68.4546
   XY=             -3.8111   XZ=             -2.1129   YZ=             -3.1306

 Normal termination of Gaussian 16 at Sun Dec  3 15:57:38 2023.
