 Gaussian 16, Revision B.01,
 Gaussian 16:  ES64L-G16RevB.01 20-Dec-2017

 -------------------------
 #P B3LYP/6-311+g(d) force
 -------------------------

 -----
 DPGEN
 -----
 Symbolic Z-matrix:
 Charge =  0 Multiplicity = 2

                         Standard orientation:
 ---------------------------------------------------------------------
 Center     Atomic      Atomic             Coordinates (Angstroms)
 Number     Number       Type             X           Y           Z
 ---------------------------------------------------------------------
      1         11           0       -3.649978   -1.916577   -0.903458
      2         11           0        0.990002    2.267262   -0.645595
      3         11           0       -1.338754    3.591228    0.469395
      4         11           0       -3.319112    0.592956    0.636895
      5         11           0        3.066022   -1.607000    1.059407
      6         11           0        4.418678    0.430563   -0.712499
      7         11           0       -0.166857   -3.358432    0.095856
 ---------------------------------------------------------------------

 SCF Done:  E(UB3LYP) =  -1136.11005594     A.U. after   21 cycles

 The electronic state is 2-A.
 Alpha  occ. eigenvalues --  -38.45050 -38.44768 -38.44744 -38.44357 -38.43910
 Alpha  occ. eigenvalues --  -38.43855 -38.43631  -2.20862  -2.20575  -2.20572
 Alpha  occ. eigenvalues --   -2.20131  -2.19754  -2.19686  -2.19490  -1.14571
 Alpha  occ. eigenvalues --   -1.14522  -1.14506  -1.14289  -1.14279  -1.14237
 Alpha  occ. eigenvalues --   -1.14229  -1.14223  -1.14200  -1.13794  -1.13781
 Alpha  occ. eigenvalues --   -1.13734  -1.13414  -1.13387  -1.13374  -1.13373
 Alpha  occ. eigenvalues --   -1.13331  -1.13303  -1.13182  -1.13122  -1.13115
 Alpha  occ. eigenvalues --   -0.16021  -0.14141  -0.13272  -0.10673
 Alpha virt. eigenvalues --   -0.07015  -0.04805  -0.04474  -0.03848  -0.03237
 Alpha virt. eigenvalues --   -0.02418  -0.01914  -0.01508  -0.01257  -0.00995
 Alpha virt. eigenvalues --   -0.00525  -0.00044   0.00325   0.00529   0.00639

  Beta  occ. eigenvalues --  -38.45038 -38.44762 -38.44710 -38.44271 -38.43857
  Beta  occ. eigenvalues --  -38.43836 -38.43617  -2.20844  -2.20568  -2.20515
  Beta  occ. eigenvalues --   -2.19972  -2.19655  -2.19654  -2.19466  -1.14547
  Beta  occ. eigenvalues --   -1.14511  -1.14489  -1.14267  -1.14241  -1.14240
  Beta  occ. eigenvalues --   -1.14193  -1.14184  -1.14149  -1.13687  -1.13674
  Beta  occ. eigenvalues --   -1.13621  -1.13353  -1.13339  -1.13319  -1.13312
  Beta  occ. eigenvalues --   -1.13307  -1.13277  -1.13159  -1.13106  -1.13100
  Beta  occ. eigenvalues --   -0.15603  -0.13572  -0.12609
  Beta virt. eigenvalues --   -0.07245  -0.07013  -0.04552  -0.04053  -0.03700
  Beta virt. eigenvalues --   -0.02726  -0.02271  -0.01656  -0.01336  -0.01020
  Beta virt. eigenvalues --   -0.00583  -0.00324   0.00209   0.00395   0.00561

 Mulliken charges and spin densities:
               1          2
     1  Na   0.566314   0.020064
     2  Na  -1.367034   0.050223
     3  Na   1.486966   0.053943
     4  Na  -0.663896   0.218823
     5  Na   0.014678   0.034673
     6  Na   0.291700   0.234638
     7  Na  -0.328730   0.387638
 Sum of Mulliken charges =  -0.00000   1.00000

 Dipole moment (field-independent basis, Debye):
    X=              0.1025    Y=              0.4683    Z=             -0.0811  Tot=              0.4862
 Quadrupole moment (field-independent basis, Debye-Ang):
   XX=            -66.2167   YY=            -68.3436   ZZ=            -67.5059
   XY=             -1.0623   XZ=             -1.1136   YZ=              1.6426

 Normal termination of Gaussian 16 at Sun Dec  3 21:17:25 2023.
