 Gaussian 16, Revision B.01,
 Gaussian 16:  ES64L-G16RevB.01 20-Dec-2017

 -------------------------
 #P B3LYP/6-311+g(d) force
 -------------------------

 -----
 DPGEN
 -----
 Symbolic Z-matrix:
 Charge =  0 Multiplicity = 2

                         Standard orientation:
 ---------------------------------------------------------------------
 Center     Atomic      Atomic             Coordinates (Angstroms)
 Number     Number       Type             X           Y           Z
 ---------------------------------------------------------------------
      1         11           0        0.010628    0.049302   -1.663411
      2         11           0        0.115574    3.215920   -0.352970
      3         11           0        0.046366    0.107096    2.133357
      4         11           0       -2.263424   -2.203117   -0.380984
      5         11           0        3.326396    0.411852   -0.062181
      6         11           0        1.480887   -2.627527    0.045300
      7         11           0       -2.716427    1.046474    0.280890
 ---------------------------------------------------------------------

 SCF Done:  E(UB3LYP) =  -1136.13757128     A.U. after   19 cycles

 The electronic state is 2-A.
 Alpha  occ. eigenvalues --  -38.44339 -38.43820 -38.43753 -38.43681 -38.43651
 Alpha  occ. eigenvalues --  -38.43475 -38.43291  -2.20115  -2.19677  -2.19572
 Alpha  occ. eigenvalues --   -2.19546  -2.19451  -2.19306  -2.19226  -1.13793
 Alpha  occ. eigenvalues --   -1.13769  -1.13759  -1.13347  -1.13310  -1.13300
 Alpha  occ. eigenvalues --   -1.13254  -1.13242  -1.13226  -1.13213  -1.13197
 Alpha  occ. eigenvalues --   -1.13183  -1.13134  -1.13103  -1.13088  -1.12988
 Alpha  occ. eigenvalues --   -1.12958  -1.12949  -1.12910  -1.12858  -1.12843
 Alpha  occ. eigenvalues --   -0.18249  -0.12849  -0.12311  -0.10740
 Alpha virt. eigenvalues --   -0.05760  -0.05061  -0.04981  -0.03189  -0.02852
 Alpha virt. eigenvalues --   -0.02638  -0.01541  -0.01282  -0.00510  -0.00491
 Alpha virt. eigenvalues --   -0.00026   0.00353   0.00769   0.00840   0.00852

  Beta  occ. eigenvalues --  -38.44339 -38.43750 -38.43721 -38.43673 -38.43646
  Beta  occ. eigenvalues --  -38.43469 -38.43231  -2.20119  -2.19568  -2.19534
  Beta  occ. eigenvalues --   -2.19494  -2.19443  -2.19298  -2.19115  -1.13783
  Beta  occ. eigenvalues --   -1.13772  -1.13761  -1.13253  -1.13246  -1.13230
  Beta  occ. eigenvalues --   -1.13205  -1.13197  -1.13186  -1.13183  -1.13170
  Beta  occ. eigenvalues --   -1.13147  -1.13117  -1.13095  -1.13083  -1.12971
  Beta  occ. eigenvalues --   -1.12946  -1.12942  -1.12836  -1.12780  -1.12761
  Beta  occ. eigenvalues --   -0.17523  -0.12655  -0.12077
  Beta virt. eigenvalues --   -0.06828  -0.05758  -0.04972  -0.04937  -0.02407
  Beta virt. eigenvalues --   -0.02148  -0.01599  -0.01452  -0.01193  -0.00550
  Beta virt. eigenvalues --   -0.00528   0.00117   0.00380   0.00786   0.00858

 Mulliken charges and spin densities:
               1          2
     1  Na  -0.085217   0.509660
     2  Na   0.006924  -0.090803
     3  Na  -0.336516   0.676116
     4  Na   0.073763  -0.026560
     5  Na  -0.006941  -0.114113
     6  Na   0.072322  -0.037609
     7  Na   0.275665   0.083308
 Sum of Mulliken charges =  -0.00000   1.00000

 Dipole moment (field-independent basis, Debye):
    X=              0.3847    Y=              0.0588    Z=              0.1173  Tot=              0.4064
 Quadrupole moment (field-independent basis, Debye-Ang):
   XX=            -57.8128   YY=            -60.8969   ZZ=            -74.6761
   XY=              0.8109   XZ=             -0.0509   YZ=             -0.0207

 Normal termination of Gaussian 16 at Thu Dec  7 19:04:28 2023.
