 Gaussian 16, Revision B.01,
 Gaussian 16:  ES64L-G16RevB.01 20-Dec-2017

 -------------------------
 #P B3LYP/6-311+g(d) force
 -------------------------

 -----
 DPGEN
 -----
 Symbolic Z-matrix:
 Charge =  0 Multiplicity = 2

                         Standard orientation:
 ---------------------------------------------------------------------
 Center     Atomic      Atomic             Coordinates (Angstroms)
 Number     Number       Type             X           Y           Z
 ---------------------------------------------------------------------
      1         11           0        2.099248   -1.658351   -0.199133
      2         11           0        1.011422    2.155772    1.488316
      3         11           0        3.400473    0.885753   -0.743832
      4         11           0       -1.693271    2.670247   -0.426180
      5         11           0       -0.544546   -1.530204   -1.845879
      6         11           0       -0.576573   -2.355829    1.954537
      7         11           0       -3.696753   -0.167387   -0.227828
 ---------------------------------------------------------------------

 SCF Done:  E(UB3LYP) =  -1136.11724156     A.U. after   20 cycles

 The electronic state is 2-A.
 Alpha  occ. eigenvalues --  -38.44891 -38.44562 -38.44507 -38.44094 -38.44060
 Alpha  occ. eigenvalues --  -38.43828 -38.43629  -2.20653  -2.20405  -2.20315
 Alpha  occ. eigenvalues --   -2.19901  -2.19843  -2.19628  -2.19552  -1.14324
 Alpha  occ. eigenvalues --   -1.14306  -1.14296  -1.14157  -1.14041  -1.14022
 Alpha  occ. eigenvalues --   -1.14016  -1.13964  -1.13943  -1.13554  -1.13540
 Alpha  occ. eigenvalues --   -1.13527  -1.13517  -1.13510  -1.13480  -1.13293
 Alpha  occ. eigenvalues --   -1.13282  -1.13256  -1.13231  -1.13203  -1.13185
 Alpha  occ. eigenvalues --   -0.17213  -0.13308  -0.12488  -0.10748
 Alpha virt. eigenvalues --   -0.06699  -0.05537  -0.04241  -0.03670  -0.03345
 Alpha virt. eigenvalues --   -0.02542  -0.01988  -0.01084  -0.00604  -0.00472
 Alpha virt. eigenvalues --   -0.00244   0.00154   0.00298   0.00498   0.00726

  Beta  occ. eigenvalues --  -38.44882 -38.44548 -38.44483 -38.44061 -38.43998
  Beta  occ. eigenvalues --  -38.43800 -38.43615  -2.20638  -2.20380  -2.20270
  Beta  occ. eigenvalues --   -2.19847  -2.19722  -2.19575  -2.19534  -1.14305
  Beta  occ. eigenvalues --   -1.14295  -1.14288  -1.14138  -1.14023  -1.13998
  Beta  occ. eigenvalues --   -1.13987  -1.13932  -1.13905  -1.13526  -1.13520
  Beta  occ. eigenvalues --   -1.13475  -1.13430  -1.13418  -1.13391  -1.13259
  Beta  occ. eigenvalues --   -1.13242  -1.13223  -1.13220  -1.13193  -1.13132
  Beta  occ. eigenvalues --   -0.16668  -0.13042  -0.12162
  Beta virt. eigenvalues --   -0.07210  -0.06469  -0.05366  -0.03720  -0.03424
  Beta virt. eigenvalues --   -0.02808  -0.01919  -0.01724  -0.01024  -0.00528
  Beta virt. eigenvalues --   -0.00322  -0.00017   0.00314   0.00386   0.00701

 Mulliken charges and spin densities:
               1          2
     1  Na   0.128973   0.427491
     2  Na  -0.196507   0.174262
     3  Na   0.238101  -0.068587
     4  Na  -0.137647  -0.057089
     5  Na  -0.031463   0.048338
     6  Na  -0.166249   0.434006
     7  Na   0.164792   0.041579
 Sum of Mulliken charges =  -0.00000   1.00000

 Dipole moment (field-independent basis, Debye):
    X=             -0.5054    Y=              0.1212    Z=             -0.3247  Tot=              0.6128
 Quadrupole moment (field-independent basis, Debye-Ang):
   XX=            -57.5172   YY=            -71.4736   ZZ=            -69.8761
   XY=              2.7096   XZ=             -1.8469   YZ=             -1.8395

 Normal termination of Gaussian 16 at Mon Dec  4 03:49:42 2023.
