 Gaussian 16, Revision B.01,
 Gaussian 16:  ES64L-G16RevB.01 20-Dec-2017

 -------------------------
 #P B3LYP/6-311+g(d) force
 -------------------------

 -----
 DPGEN
 -----
 Symbolic Z-matrix:
 Charge =  0 Multiplicity = 2

                         Standard orientation:
 ---------------------------------------------------------------------
 Center     Atomic      Atomic             Coordinates (Angstroms)
 Number     Number       Type             X           Y           Z
 ---------------------------------------------------------------------
      1         11           0       -0.288549   -0.631618   -1.626690
      2         11           0        0.143479    2.977729   -0.103674
      3         11           0        2.990247    0.791159   -0.354489
      4         11           0       -3.164316    0.799312   -0.395578
      5         11           0        2.220529   -2.120413    0.150797
      6         11           0       -1.773025   -2.449947    0.414694
      7         11           0       -0.128367    0.633778    1.914939
 ---------------------------------------------------------------------

 SCF Done:  E(UB3LYP) =  -1136.13391670     A.U. after   20 cycles

 The electronic state is 2-A.
 Alpha  occ. eigenvalues --  -38.44501 -38.43961 -38.43830 -38.43711 -38.43377
 Alpha  occ. eigenvalues --  -38.43358 -38.43290  -2.20307  -2.19815  -2.19674
 Alpha  occ. eigenvalues --   -2.19564  -2.19299  -2.19219  -2.19192  -1.13987
 Alpha  occ. eigenvalues --   -1.13961  -1.13938  -1.13547  -1.13475  -1.13448
 Alpha  occ. eigenvalues --   -1.13395  -1.13329  -1.13294  -1.13229  -1.13216
 Alpha  occ. eigenvalues --   -1.13194  -1.12994  -1.12979  -1.12941  -1.12911
 Alpha  occ. eigenvalues --   -1.12877  -1.12847  -1.12841  -1.12805  -1.12782
 Alpha  occ. eigenvalues --   -0.18434  -0.13247  -0.12404  -0.10430
 Alpha virt. eigenvalues --   -0.05955  -0.05289  -0.04675  -0.03245  -0.02946
 Alpha virt. eigenvalues --   -0.02229  -0.01738  -0.01135  -0.00514  -0.00440
 Alpha virt. eigenvalues --   -0.00007   0.00351   0.00769   0.00828   0.00876

  Beta  occ. eigenvalues --  -38.44488 -38.43954 -38.43819 -38.43709 -38.43373
  Beta  occ. eigenvalues --  -38.43306 -38.43208  -2.20285  -2.19804  -2.19657
  Beta  occ. eigenvalues --   -2.19563  -2.19216  -2.19204  -2.19042  -1.13957
  Beta  occ. eigenvalues --   -1.13942  -1.13926  -1.13544  -1.13457  -1.13435
  Beta  occ. eigenvalues --   -1.13381  -1.13302  -1.13279  -1.13225  -1.13211
  Beta  occ. eigenvalues --   -1.13180  -1.12958  -1.12914  -1.12877  -1.12858
  Beta  occ. eigenvalues --   -1.12843  -1.12839  -1.12748  -1.12705  -1.12689
  Beta  occ. eigenvalues --   -0.17745  -0.13008  -0.12193
  Beta virt. eigenvalues --   -0.06627  -0.05887  -0.05240  -0.04583  -0.02515
  Beta virt. eigenvalues --   -0.02227  -0.01632  -0.01263  -0.01044  -0.00528
  Beta virt. eigenvalues --   -0.00471   0.00141   0.00397   0.00811   0.00872

 Mulliken charges and spin densities:
               1          2
     1  Na  -0.138098   0.439335
     2  Na   0.150175  -0.068141
     3  Na   0.027058  -0.020274
     4  Na   0.108172  -0.050832
     5  Na   0.119406   0.019251
     6  Na   0.102248   0.028491
     7  Na  -0.368961   0.652170
 Sum of Mulliken charges =  -0.00000   1.00000

 Dipole moment (field-independent basis, Debye):
    X=             -0.3905    Y=             -0.0321    Z=              0.0056  Tot=              0.3919
 Quadrupole moment (field-independent basis, Debye-Ang):
   XX=            -55.5790   YY=            -62.7788   ZZ=            -75.1991
   XY=             -0.1923   XZ=             -0.3331   YZ=             -3.0922

 Normal termination of Gaussian 16 at Thu Dec  7 05:47:37 2023.
