 Gaussian 16, Revision B.01,
 Gaussian 16:  ES64L-G16RevB.01 20-Dec-2017

 -------------------------
 #P B3LYP/6-311+g(d) force
 -------------------------

 -----
 DPGEN
 -----
 Symbolic Z-matrix:
 Charge =  0 Multiplicity = 2

                         Standard orientation:
 ---------------------------------------------------------------------
 Center     Atomic      Atomic             Coordinates (Angstroms)
 Number     Number       Type             X           Y           Z
 ---------------------------------------------------------------------
      1         11           0        0.370440   -0.765170    2.067772
      2         11           0        0.237076    3.365733    0.187320
      3         11           0        0.292889   -3.161397   -0.708225
      4         11           0        3.927167   -0.064598    0.165998
      5         11           0        1.237344    0.313845   -1.463138
      6         11           0       -3.430343   -1.379432    0.128657
      7         11           0       -2.634574    1.691020   -0.378384
 ---------------------------------------------------------------------

 SCF Done:  E(UB3LYP) =  -1136.11574559     A.U. after   26 cycles

 The electronic state is 2-A.
 Alpha  occ. eigenvalues --  -38.45888 -38.44796 -38.44648 -38.44072 -38.43761
 Alpha  occ. eigenvalues --  -38.43602 -38.43405  -2.21646  -2.20552  -2.20413
 Alpha  occ. eigenvalues --   -2.19853  -2.19577  -2.19472  -2.19227  -1.15333
 Alpha  occ. eigenvalues --   -1.15297  -1.15285  -1.14232  -1.14214  -1.14179
 Alpha  occ. eigenvalues --   -1.14109  -1.14080  -1.14040  -1.13523  -1.13520
 Alpha  occ. eigenvalues --   -1.13501  -1.13248  -1.13243  -1.13214  -1.13150
 Alpha  occ. eigenvalues --   -1.13144  -1.13089  -1.12883  -1.12860  -1.12840
 Alpha  occ. eigenvalues --   -0.17162  -0.13105  -0.12219  -0.09932
 Alpha virt. eigenvalues --   -0.07431  -0.05200  -0.05037  -0.03065  -0.02779
 Alpha virt. eigenvalues --   -0.02568  -0.02141  -0.01500  -0.01105  -0.00700
 Alpha virt. eigenvalues --   -0.00186   0.00146   0.00309   0.00550   0.00720

  Beta  occ. eigenvalues --  -38.45889 -38.44779 -38.44649 -38.44074 -38.43757
  Beta  occ. eigenvalues --  -38.43563 -38.43299  -2.21650  -2.20522  -2.20418
  Beta  occ. eigenvalues --   -2.19858  -2.19570  -2.19402  -2.19031  -1.15329
  Beta  occ. eigenvalues --   -1.15296  -1.15279  -1.14206  -1.14183  -1.14159
  Beta  occ. eigenvalues --   -1.14112  -1.14075  -1.14043  -1.13528  -1.13517
  Beta  occ. eigenvalues --   -1.13504  -1.13241  -1.13235  -1.13211  -1.13098
  Beta  occ. eigenvalues --   -1.13091  -1.13034  -1.12749  -1.12724  -1.12703
  Beta  occ. eigenvalues --   -0.16561  -0.12941  -0.12068
  Beta virt. eigenvalues --   -0.07348  -0.06107  -0.05037  -0.05018  -0.02614
  Beta virt. eigenvalues --   -0.02333  -0.02155  -0.01473  -0.01186  -0.01072
  Beta virt. eigenvalues --   -0.00699   0.00016   0.00251   0.00401   0.00607

 Mulliken charges and spin densities:
               1          2
     1  Na  -0.223604   0.769840
     2  Na   0.042588  -0.056181
     3  Na  -0.164213  -0.000797
     4  Na  -0.003444  -0.109940
     5  Na   0.472340   0.396887
     6  Na   0.102452   0.007144
     7  Na  -0.226119  -0.006953
 Sum of Mulliken charges =  -0.00000   1.00000

 Dipole moment (field-independent basis, Debye):
    X=              1.0551    Y=             -0.2739    Z=              0.0617  Tot=              1.0918
 Quadrupole moment (field-independent basis, Debye-Ang):
   XX=            -51.7030   YY=            -62.5412   ZZ=            -78.8557
   XY=              1.9864   XZ=              1.7658   YZ=              2.1596

 Normal termination of Gaussian 16 at Thu Dec  7 03:19:56 2023.
