 Gaussian 16, Revision B.01,
 Gaussian 16:  ES64L-G16RevB.01 20-Dec-2017

 -------------------------
 #P B3LYP/6-311+g(d) force
 -------------------------

 -----
 DPGEN
 -----
 Symbolic Z-matrix:
 Charge =  0 Multiplicity = 2

                         Standard orientation:
 ---------------------------------------------------------------------
 Center     Atomic      Atomic             Coordinates (Angstroms)
 Number     Number       Type             X           Y           Z
 ---------------------------------------------------------------------
      1         11           0        2.812960    1.285471    0.153634
      2         11           0       -3.063549    0.686481   -0.099019
      3         11           0       -0.326362    2.989935   -0.001566
      4         11           0        0.089280    0.056952   -1.571214
      5         11           0       -0.323286   -0.264470    1.689857
      6         11           0        2.363907   -2.045260   -0.080695
      7         11           0       -1.552949   -2.709109   -0.090998
 ---------------------------------------------------------------------

 SCF Done:  E(UB3LYP) =  -1136.13898905     A.U. after   20 cycles

 The electronic state is 2-A.
 Alpha  occ. eigenvalues --  -38.44139 -38.43892 -38.43827 -38.43822 -38.43435
 Alpha  occ. eigenvalues --  -38.42871 -38.42767  -2.19975  -2.19724  -2.19666
 Alpha  occ. eigenvalues --   -2.19661  -2.19282  -2.18837  -2.18763  -1.13652
 Alpha  occ. eigenvalues --   -1.13643  -1.13606  -1.13413  -1.13395  -1.13369
 Alpha  occ. eigenvalues --   -1.13348  -1.13335  -1.13326  -1.13323  -1.13293
 Alpha  occ. eigenvalues --   -1.13287  -1.12967  -1.12945  -1.12916  -1.12565
 Alpha  occ. eigenvalues --   -1.12458  -1.12452  -1.12440  -1.12383  -1.12379
 Alpha  occ. eigenvalues --   -0.18731  -0.13111  -0.12600  -0.10074
 Alpha virt. eigenvalues --   -0.05706  -0.05377  -0.04971  -0.02954  -0.02670
 Alpha virt. eigenvalues --   -0.01915  -0.01610  -0.01358  -0.00606  -0.00521
 Alpha virt. eigenvalues --    0.00045   0.00357   0.00809   0.00828   0.00866

  Beta  occ. eigenvalues --  -38.44133 -38.43888 -38.43822 -38.43818 -38.43431
  Beta  occ. eigenvalues --  -38.42795 -38.42698  -2.19968  -2.19720  -2.19661
  Beta  occ. eigenvalues --   -2.19654  -2.19277  -2.18698  -2.18637  -1.13644
  Beta  occ. eigenvalues --   -1.13616  -1.13605  -1.13413  -1.13373  -1.13364
  Beta  occ. eigenvalues --   -1.13339  -1.13327  -1.13303  -1.13300  -1.13293
  Beta  occ. eigenvalues --   -1.13287  -1.12962  -1.12921  -1.12915  -1.12470
  Beta  occ. eigenvalues --   -1.12357  -1.12353  -1.12345  -1.12292  -1.12286
  Beta  occ. eigenvalues --   -0.18027  -0.12872  -0.12352
  Beta virt. eigenvalues --   -0.06216  -0.05701  -0.05351  -0.04951  -0.02176
  Beta virt. eigenvalues --   -0.01918  -0.01524  -0.01284  -0.00931  -0.00666
  Beta virt. eigenvalues --   -0.00573   0.00185   0.00392   0.00823   0.00846

 Mulliken charges and spin densities:
               1          2
     1  Na   0.078694  -0.034416
     2  Na   0.202316  -0.084314
     3  Na   0.110297  -0.071874
     4  Na  -0.328044   0.663917
     5  Na  -0.345746   0.765376
     6  Na   0.144736  -0.095734
     7  Na   0.137747  -0.142956
 Sum of Mulliken charges =  -0.00000   1.00000

 Dipole moment (field-independent basis, Debye):
    X=             -0.1218    Y=             -0.1436    Z=              0.0136  Tot=              0.1888
 Quadrupole moment (field-independent basis, Debye-Ang):
   XX=            -54.4347   YY=            -58.3313   ZZ=            -77.9236
   XY=             -0.0796   XZ=              1.0072   YZ=              0.8416

 Normal termination of Gaussian 16 at Sat Dec  9 06:59:45 2023.
