 Gaussian 16, Revision B.01,
 Gaussian 16:  ES64L-G16RevB.01 20-Dec-2017

 -------------------------
 #P B3LYP/6-311+g(d) force
 -------------------------

 -----
 DPGEN
 -----
 Symbolic Z-matrix:
 Charge =  0 Multiplicity = 2

                         Standard orientation:
 ---------------------------------------------------------------------
 Center     Atomic      Atomic             Coordinates (Angstroms)
 Number     Number       Type             X           Y           Z
 ---------------------------------------------------------------------
      1         11           0        2.580480   -1.928227   -0.057231
      2         11           0       -2.868054    0.347511    0.419902
      3         11           0       -0.307758   -0.079931   -1.728817
      4         11           0        2.302433    1.330942    0.127440
      5         11           0        0.006764    0.026690    1.956891
      6         11           0       -0.294474    2.945412   -0.449914
      7         11           0       -1.419391   -2.642396   -0.268271
 ---------------------------------------------------------------------

 SCF Done:  E(UB3LYP) =  -1136.13661544     A.U. after   19 cycles

 The electronic state is 2-A.
 Alpha  occ. eigenvalues --  -38.43762 -38.43714 -38.43671 -38.43655 -38.43311
 Alpha  occ. eigenvalues --  -38.43284 -38.43263  -2.19617  -2.19597  -2.19592
 Alpha  occ. eigenvalues --   -2.19483  -2.19299  -2.19225  -2.19150  -1.13352
 Alpha  occ. eigenvalues --   -1.13326  -1.13281  -1.13276  -1.13261  -1.13247
 Alpha  occ. eigenvalues --   -1.13213  -1.13193  -1.13189  -1.13168  -1.13145
 Alpha  occ. eigenvalues --   -1.13122  -1.12998  -1.12954  -1.12931  -1.12918
 Alpha  occ. eigenvalues --   -1.12892  -1.12865  -1.12801  -1.12775  -1.12752
 Alpha  occ. eigenvalues --   -0.18997  -0.13104  -0.12501  -0.11049
 Alpha virt. eigenvalues --   -0.05391  -0.04990  -0.04675  -0.03331  -0.02941
 Alpha virt. eigenvalues --   -0.02679  -0.01291  -0.01192  -0.00232  -0.00081
 Alpha virt. eigenvalues --    0.00054   0.00364   0.00866   0.00920   0.00933

  Beta  occ. eigenvalues --  -38.43754 -38.43700 -38.43673 -38.43565 -38.43276
  Beta  occ. eigenvalues --  -38.43253 -38.43239  -2.19606  -2.19575  -2.19489
  Beta  occ. eigenvalues --   -2.19428  -2.19215  -2.19169  -2.19135  -1.13333
  Beta  occ. eigenvalues --   -1.13286  -1.13250  -1.13248  -1.13224  -1.13185
  Beta  occ. eigenvalues --   -1.13180  -1.13164  -1.13138  -1.13126  -1.13109
  Beta  occ. eigenvalues --   -1.13075  -1.12961  -1.12892  -1.12871  -1.12860
  Beta  occ. eigenvalues --   -1.12845  -1.12818  -1.12763  -1.12752  -1.12746
  Beta  occ. eigenvalues --   -0.18251  -0.12838  -0.12254
  Beta virt. eigenvalues --   -0.07100  -0.05367  -0.04920  -0.04673  -0.02494
  Beta virt. eigenvalues --   -0.02211  -0.01626  -0.01205  -0.01099  -0.00261
  Beta virt. eigenvalues --   -0.00075   0.00131   0.00385   0.00873   0.00932

 Mulliken charges and spin densities:
               1          2
     1  Na  -0.114164  -0.121714
     2  Na   0.201387   0.027311
     3  Na  -0.258092   0.589711
     4  Na   0.215536   0.023408
     5  Na  -0.268291   0.592687
     6  Na   0.191893   0.001248
     7  Na   0.031731  -0.112649
 Sum of Mulliken charges =  -0.00000   1.00000

 Dipole moment (field-independent basis, Debye):
    X=             -0.2420    Y=             -0.2962    Z=              0.0948  Tot=              0.3941
 Quadrupole moment (field-independent basis, Debye-Ang):
   XX=            -60.6672   YY=            -60.4908   ZZ=            -73.0447
   XY=             -0.9709   XZ=             -0.6821   YZ=             -0.1622

 Normal termination of Gaussian 16 at Thu Dec  7 10:08:17 2023.
