 Gaussian 16, Revision B.01,
 Gaussian 16:  ES64L-G16RevB.01 20-Dec-2017

 -------------------------
 #P B3LYP/6-311+g(d) force
 -------------------------

 -----
 DPGEN
 -----
 Symbolic Z-matrix:
 Charge =  0 Multiplicity = 2

                         Standard orientation:
 ---------------------------------------------------------------------
 Center     Atomic      Atomic             Coordinates (Angstroms)
 Number     Number       Type             X           Y           Z
 ---------------------------------------------------------------------
      1         11           0        0.054941    0.244646   -1.730093
      2         11           0       -2.847808    1.081801   -0.339203
      3         11           0        3.347718    0.140585    0.375915
      4         11           0        0.464882    3.303411    0.046816
      5         11           0        1.399463   -2.619681   -0.731391
      6         11           0       -2.441896   -1.937824    0.479419
      7         11           0        0.022699   -0.212938    1.898538
 ---------------------------------------------------------------------

 SCF Done:  E(UB3LYP) =  -1136.13359383     A.U. after   20 cycles

 The electronic state is 2-A.
 Alpha  occ. eigenvalues --  -38.44612 -38.44046 -38.43764 -38.43603 -38.43564
 Alpha  occ. eigenvalues --  -38.43544 -38.43369  -2.20391  -2.19899  -2.19645
 Alpha  occ. eigenvalues --   -2.19402  -2.19395  -2.19371  -2.19293  -1.14070
 Alpha  occ. eigenvalues --   -1.14041  -1.14030  -1.13598  -1.13566  -1.13531
 Alpha  occ. eigenvalues --   -1.13330  -1.13281  -1.13269  -1.13103  -1.13065
 Alpha  occ. eigenvalues --   -1.13058  -1.13055  -1.13043  -1.13033  -1.13032
 Alpha  occ. eigenvalues --   -1.13022  -1.13015  -1.12971  -1.12925  -1.12901
 Alpha  occ. eigenvalues --   -0.18213  -0.13085  -0.12061  -0.10754
 Alpha virt. eigenvalues --   -0.05991  -0.05064  -0.04791  -0.03311  -0.02850
 Alpha virt. eigenvalues --   -0.02516  -0.01734  -0.01238  -0.00498  -0.00463
 Alpha virt. eigenvalues --   -0.00006   0.00346   0.00744   0.00781   0.00821

  Beta  occ. eigenvalues --  -38.44605 -38.44039 -38.43687 -38.43607 -38.43540
  Beta  occ. eigenvalues --  -38.43535 -38.43300  -2.20381  -2.19889  -2.19503
  Beta  occ. eigenvalues --   -2.19387  -2.19382  -2.19355  -2.19166  -1.14050
  Beta  occ. eigenvalues --   -1.14036  -1.14021  -1.13591  -1.13538  -1.13529
  Beta  occ. eigenvalues --   -1.13236  -1.13180  -1.13170  -1.13061  -1.13055
  Beta  occ. eigenvalues --   -1.13053  -1.13038  -1.13036  -1.13017  -1.13014
  Beta  occ. eigenvalues --   -1.13003  -1.12999  -1.12889  -1.12837  -1.12807
  Beta  occ. eigenvalues --   -0.17498  -0.12847  -0.11831
  Beta virt. eigenvalues --   -0.06919  -0.05911  -0.04976  -0.04722  -0.02592
  Beta virt. eigenvalues --   -0.02185  -0.01622  -0.01545  -0.01132  -0.00485
  Beta virt. eigenvalues --   -0.00467   0.00109   0.00382   0.00782   0.00858

 Mulliken charges and spin densities:
               1          2
     1  Na   0.163300   0.446519
     2  Na   0.057808  -0.069603
     3  Na  -0.050189  -0.028382
     4  Na  -0.229958  -0.104700
     5  Na   0.024782   0.048769
     6  Na   0.170107   0.056345
     7  Na  -0.135850   0.651053
 Sum of Mulliken charges =  -0.00000   1.00000

 Dipole moment (field-independent basis, Debye):
    X=              0.3122    Y=              0.0360    Z=              0.1424  Tot=              0.3450
 Quadrupole moment (field-independent basis, Debye-Ang):
   XX=            -55.9370   YY=            -62.7447   ZZ=            -74.6169
   XY=              0.4762   XZ=              0.8117   YZ=              1.1040

 Normal termination of Gaussian 16 at Mon Dec  4 03:14:39 2023.
