 Gaussian 16, Revision B.01,
 Gaussian 16:  ES64L-G16RevB.01 20-Dec-2017

 -------------------------
 #P B3LYP/6-311+g(d) force
 -------------------------

 -----
 DPGEN
 -----
 Symbolic Z-matrix:
 Charge =  0 Multiplicity = 2

                         Standard orientation:
 ---------------------------------------------------------------------
 Center     Atomic      Atomic             Coordinates (Angstroms)
 Number     Number       Type             X           Y           Z
 ---------------------------------------------------------------------
      1         11           0       -0.533164    2.878457    0.217692
      2         11           0        0.479312   -0.515255    2.259503
      3         11           0       -0.135314    0.062975   -1.105468
      4         11           0       -3.388969    0.574775   -0.474354
      5         11           0        2.668284   -1.694643   -0.808538
      6         11           0        2.516226    1.494551   -0.172074
      7         11           0       -1.606375   -2.800860    0.083239
 ---------------------------------------------------------------------

 SCF Done:  E(UB3LYP) =  -1136.13176751     A.U. after   19 cycles

 The electronic state is 2-A.
 Alpha  occ. eigenvalues --  -38.44300 -38.43963 -38.43862 -38.43835 -38.43630
 Alpha  occ. eigenvalues --  -38.43190 -38.42861  -2.20094  -2.19746  -2.19710
 Alpha  occ. eigenvalues --   -2.19685  -2.19538  -2.19050  -2.18921  -1.13776
 Alpha  occ. eigenvalues --   -1.13749  -1.13718  -1.13426  -1.13413  -1.13401
 Alpha  occ. eigenvalues --   -1.13380  -1.13372  -1.13349  -1.13335  -1.13310
 Alpha  occ. eigenvalues --   -1.13290  -1.13246  -1.13185  -1.13158  -1.12792
 Alpha  occ. eigenvalues --   -1.12705  -1.12673  -1.12616  -1.12558  -1.12539
 Alpha  occ. eigenvalues --   -0.18394  -0.13124  -0.12241  -0.10670
 Alpha virt. eigenvalues --   -0.05866  -0.05274  -0.04651  -0.02956  -0.02859
 Alpha virt. eigenvalues --   -0.02396  -0.01744  -0.01237  -0.00661  -0.00320
 Alpha virt. eigenvalues --   -0.00065   0.00298   0.00736   0.00779   0.00874

  Beta  occ. eigenvalues --  -38.44289 -38.43963 -38.43834 -38.43727 -38.43621
  Beta  occ. eigenvalues --  -38.43187 -38.42834  -2.20075  -2.19748  -2.19659
  Beta  occ. eigenvalues --   -2.19527  -2.19486  -2.19047  -2.18875  -1.13756
  Beta  occ. eigenvalues --   -1.13737  -1.13707  -1.13425  -1.13405  -1.13380
  Beta  occ. eigenvalues --   -1.13366  -1.13335  -1.13292  -1.13243  -1.13213
  Beta  occ. eigenvalues --   -1.13181  -1.13164  -1.13144  -1.13130  -1.12786
  Beta  occ. eigenvalues --   -1.12695  -1.12664  -1.12566  -1.12527  -1.12508
  Beta  occ. eigenvalues --   -0.17732  -0.12815  -0.12048
  Beta virt. eigenvalues --   -0.06821  -0.05679  -0.05214  -0.04567  -0.02367
  Beta virt. eigenvalues --   -0.02111  -0.01653  -0.01389  -0.01174  -0.00614
  Beta virt. eigenvalues --   -0.00339   0.00127   0.00365   0.00786   0.00829

 Mulliken charges and spin densities:
               1          2
     1  Na   0.015810   0.145239
     2  Na  -0.528171   0.651758
     3  Na  -0.577056  -0.191263
     4  Na   0.267049   0.112104
     5  Na   0.408884   0.126813
     6  Na   0.418024   0.128081
     7  Na  -0.004540   0.027267
 Sum of Mulliken charges =  -0.00000   1.00000

 Dipole moment (field-independent basis, Debye):
    X=             -0.2482    Y=             -0.2707    Z=              0.2966  Tot=              0.4721
 Quadrupole moment (field-independent basis, Debye-Ang):
   XX=            -55.8875   YY=            -62.0068   ZZ=            -74.4154
   XY=             -0.0444   XZ=             -0.3983   YZ=              1.4502

 Normal termination of Gaussian 16 at Thu Dec  7 11:44:46 2023.
