 Gaussian 16, Revision B.01,
 Gaussian 16:  ES64L-G16RevB.01 20-Dec-2017

 -------------------------
 #P B3LYP/6-311+g(d) force
 -------------------------

 -----
 DPGEN
 -----
 Symbolic Z-matrix:
 Charge =  0 Multiplicity = 2

                         Standard orientation:
 ---------------------------------------------------------------------
 Center     Atomic      Atomic             Coordinates (Angstroms)
 Number     Number       Type             X           Y           Z
 ---------------------------------------------------------------------
      1         11           0        2.935780   -1.750491   -1.401464
      2         11           0        3.263215    0.562102    1.554534
      3         11           0        0.282303   -0.629219    0.877955
      4         11           0        1.111037    2.239314   -0.590646
      5         11           0       -3.017924   -0.630931    2.118227
      6         11           0       -2.171709   -1.761671   -1.320060
      7         11           0       -2.402701    1.970896   -1.238546
 ---------------------------------------------------------------------

 SCF Done:  E(UB3LYP) =  -1136.11797160     A.U. after   23 cycles

 The electronic state is 2-A.
 Alpha  occ. eigenvalues --  -38.44931 -38.44796 -38.44675 -38.44543 -38.43639
 Alpha  occ. eigenvalues --  -38.43337 -38.43009  -2.20710  -2.20628  -2.20457
 Alpha  occ. eigenvalues --   -2.20341  -2.19557  -2.19118  -2.18835  -1.14399
 Alpha  occ. eigenvalues --   -1.14359  -1.14341  -1.14316  -1.14271  -1.14248
 Alpha  occ. eigenvalues --   -1.14115  -1.14105  -1.14067  -1.14006  -1.13985
 Alpha  occ. eigenvalues --   -1.13946  -1.13279  -1.13234  -1.13175  -1.12800
 Alpha  occ. eigenvalues --   -1.12770  -1.12757  -1.12543  -1.12512  -1.12439
 Alpha  occ. eigenvalues --   -0.17460  -0.13972  -0.11040  -0.10822
 Alpha virt. eigenvalues --   -0.06485  -0.06044  -0.05012  -0.03163  -0.02599
 Alpha virt. eigenvalues --   -0.02382  -0.02105  -0.01424  -0.00914  -0.00527
 Alpha virt. eigenvalues --   -0.00019   0.00087   0.00154   0.00198   0.00565

  Beta  occ. eigenvalues --  -38.44923 -38.44774 -38.44609 -38.44481 -38.43622
  Beta  occ. eigenvalues --  -38.43331 -38.43013  -2.20696  -2.20588  -2.20333
  Beta  occ. eigenvalues --   -2.20224  -2.19530  -2.19106  -2.18845  -1.14389
  Beta  occ. eigenvalues --   -1.14345  -1.14324  -1.14285  -1.14243  -1.14217
  Beta  occ. eigenvalues --   -1.14030  -1.14017  -1.13985  -1.13920  -1.13905
  Beta  occ. eigenvalues --   -1.13872  -1.13236  -1.13205  -1.13157  -1.12783
  Beta  occ. eigenvalues --   -1.12763  -1.12755  -1.12551  -1.12510  -1.12445
  Beta  occ. eigenvalues --   -0.16946  -0.13640  -0.10793
  Beta virt. eigenvalues --   -0.07431  -0.05891  -0.05612  -0.04841  -0.02991
  Beta virt. eigenvalues --   -0.02279  -0.02014  -0.01675  -0.00884  -0.00789
  Beta virt. eigenvalues --   -0.00219   0.00065   0.00214   0.00300   0.00357

 Mulliken charges and spin densities:
               1          2
     1  Na   0.119712   0.267052
     2  Na   1.144592  -0.072955
     3  Na  -1.672293   0.367159
     4  Na  -0.043166   0.042940
     5  Na   0.360035   0.132309
     6  Na   0.249115   0.303819
     7  Na  -0.157996  -0.040325
 Sum of Mulliken charges =  -0.00000   1.00000

 Dipole moment (field-independent basis, Debye):
    X=              0.3303    Y=             -0.4047    Z=              0.2319  Tot=              0.5716
 Quadrupole moment (field-independent basis, Debye-Ang):
   XX=            -49.8682   YY=            -77.3133   ZZ=            -67.0431
   XY=              1.9398   XZ=              1.5714   YZ=              5.6309

 Normal termination of Gaussian 16 at Tue Dec  5 15:47:36 2023.
