 Gaussian 16, Revision B.01,
 Gaussian 16:  ES64L-G16RevB.01 20-Dec-2017

 -------------------------
 #P B3LYP/6-311+g(d) force
 -------------------------

 -----
 DPGEN
 -----
 Symbolic Z-matrix:
 Charge =  0 Multiplicity = 2

                         Standard orientation:
 ---------------------------------------------------------------------
 Center     Atomic      Atomic             Coordinates (Angstroms)
 Number     Number       Type             X           Y           Z
 ---------------------------------------------------------------------
      1         11           0        0.029633   -0.182238    2.203475
      2         11           0       -1.931508   -2.450560   -0.066480
      3         11           0       -0.310042    0.045767   -1.617558
      4         11           0        1.801384   -2.058066   -0.343573
      5         11           0       -0.077268    2.875369   -0.122081
      6         11           0       -2.998623    1.072339   -0.015693
      7         11           0        3.486424    0.697389   -0.038090
 ---------------------------------------------------------------------

 SCF Done:  E(UB3LYP) =  -1136.13416024     A.U. after   19 cycles

 The electronic state is 2-A.
 Alpha  occ. eigenvalues --  -38.44494 -38.44289 -38.43865 -38.43447 -38.43373
 Alpha  occ. eigenvalues --  -38.43306 -38.43289  -2.20274  -2.20127  -2.19714
 Alpha  occ. eigenvalues --   -2.19324  -2.19290  -2.19203  -2.19128  -1.13954
 Alpha  occ. eigenvalues --   -1.13939  -1.13910  -1.13815  -1.13786  -1.13756
 Alpha  occ. eigenvalues --   -1.13373  -1.13342  -1.13329  -1.13065  -1.12993
 Alpha  occ. eigenvalues --   -1.12980  -1.12962  -1.12934  -1.12909  -1.12866
 Alpha  occ. eigenvalues --   -1.12853  -1.12843  -1.12795  -1.12787  -1.12746
 Alpha  occ. eigenvalues --   -0.18417  -0.13122  -0.12138  -0.10774
 Alpha virt. eigenvalues --   -0.06111  -0.05118  -0.04456  -0.03241  -0.02757
 Alpha virt. eigenvalues --   -0.02721  -0.01842  -0.01189  -0.00469  -0.00230
 Alpha virt. eigenvalues --   -0.00059   0.00315   0.00734   0.00844   0.00871

  Beta  occ. eigenvalues --  -38.44497 -38.44286 -38.43760 -38.43436 -38.43370
  Beta  occ. eigenvalues --  -38.43285 -38.43247  -2.20282  -2.20123  -2.19519
  Beta  occ. eigenvalues --   -2.19309  -2.19201  -2.19183  -2.19123  -1.13960
  Beta  occ. eigenvalues --   -1.13932  -1.13916  -1.13806  -1.13770  -1.13757
  Beta  occ. eigenvalues --   -1.13243  -1.13204  -1.13191  -1.13038  -1.12956
  Beta  occ. eigenvalues --   -1.12939  -1.12921  -1.12907  -1.12851  -1.12844
  Beta  occ. eigenvalues --   -1.12842  -1.12822  -1.12774  -1.12761  -1.12744
  Beta  occ. eigenvalues --   -0.17686  -0.12941  -0.11922
  Beta virt. eigenvalues --   -0.06799  -0.06047  -0.05138  -0.04410  -0.02488
  Beta virt. eigenvalues --   -0.01999  -0.01766  -0.01606  -0.01134  -0.00513
  Beta virt. eigenvalues --   -0.00266   0.00105   0.00345   0.00799   0.00842

 Mulliken charges and spin densities:
               1          2
     1  Na  -0.633941   0.810079
     2  Na   0.210498  -0.030632
     3  Na  -0.104420   0.370575
     4  Na   0.279838  -0.003912
     5  Na   0.040547  -0.072868
     6  Na   0.243958  -0.010108
     7  Na  -0.036481  -0.063133
 Sum of Mulliken charges =  -0.00000   1.00000

 Dipole moment (field-independent basis, Debye):
    X=             -0.0232    Y=              0.1861    Z=              0.2083  Tot=              0.2803
 Quadrupole moment (field-independent basis, Debye-Ang):
   XX=            -53.4773   YY=            -65.2884   ZZ=            -74.6007
   XY=              1.5647   XZ=             -0.5254   YZ=              0.5464

 Normal termination of Gaussian 16 at Thu Dec  7 14:27:00 2023.
