 Gaussian 16, Revision B.01,
 Gaussian 16:  ES64L-G16RevB.01 20-Dec-2017

 -------------------------
 #P B3LYP/6-311+g(d) force
 -------------------------

 -----
 DPGEN
 -----
 Symbolic Z-matrix:
 Charge =  0 Multiplicity = 2

                         Standard orientation:
 ---------------------------------------------------------------------
 Center     Atomic      Atomic             Coordinates (Angstroms)
 Number     Number       Type             X           Y           Z
 ---------------------------------------------------------------------
      1         11           0       -2.180319    1.562678   -0.106527
      2         11           0        0.388972   -0.164812   -1.436459
      3         11           0       -3.779489   -0.896067   -1.022906
      4         11           0       -1.145287   -1.366378    1.296523
      5         11           0        0.589759    2.232949    1.391265
      6         11           0        3.914725    0.134528   -1.529934
      7         11           0        2.211640   -1.502898    1.408036
 ---------------------------------------------------------------------

 SCF Done:  E(UB3LYP) =  -1136.12140673     A.U. after   28 cycles

 The electronic state is 2-A.
 Alpha  occ. eigenvalues --  -38.44938 -38.44643 -38.44484 -38.44411 -38.43587
 Alpha  occ. eigenvalues --  -38.43363 -38.42149  -2.20805  -2.20473  -2.20397
 Alpha  occ. eigenvalues --   -2.20200  -2.19433  -2.19335  -2.17991  -1.14536
 Alpha  occ. eigenvalues --   -1.14457  -1.14419  -1.14179  -1.14121  -1.14094
 Alpha  occ. eigenvalues --   -1.14088  -1.14034  -1.13986  -1.13861  -1.13852
 Alpha  occ. eigenvalues --   -1.13812  -1.13180  -1.13087  -1.13065  -1.13023
 Alpha  occ. eigenvalues --   -1.12998  -1.12901  -1.11662  -1.11652  -1.11636
 Alpha  occ. eigenvalues --   -0.18440  -0.13982  -0.11882  -0.10895
 Alpha virt. eigenvalues --   -0.06649  -0.05335  -0.04399  -0.03344  -0.02719
 Alpha virt. eigenvalues --   -0.02611  -0.02107  -0.01429  -0.00893  -0.00192
 Alpha virt. eigenvalues --    0.00050   0.00237   0.00411   0.00550   0.00708

  Beta  occ. eigenvalues --  -38.44916 -38.44594 -38.44413 -38.44363 -38.43584
  Beta  occ. eigenvalues --  -38.43345 -38.42149  -2.20769  -2.20388  -2.20270
  Beta  occ. eigenvalues --   -2.20110  -2.19430  -2.19301  -2.17993  -1.14487
  Beta  occ. eigenvalues --   -1.14431  -1.14395  -1.14103  -1.14067  -1.14023
  Beta  occ. eigenvalues --   -1.14007  -1.13942  -1.13879  -1.13795  -1.13789
  Beta  occ. eigenvalues --   -1.13758  -1.13171  -1.13081  -1.13062  -1.12997
  Beta  occ. eigenvalues --   -1.12977  -1.12881  -1.11661  -1.11650  -1.11634
  Beta  occ. eigenvalues --   -0.17777  -0.13632  -0.10727
  Beta virt. eigenvalues --   -0.07901  -0.06469  -0.04763  -0.04294  -0.02882
  Beta virt. eigenvalues --   -0.02495  -0.02050  -0.01722  -0.01004  -0.00716
  Beta virt. eigenvalues --   -0.00042   0.00088   0.00355   0.00509   0.00652

 Mulliken charges and spin densities:
               1          2
     1  Na   0.259416   0.119016
     2  Na  -1.155260   0.352691
     3  Na   1.074662   0.047200
     4  Na  -0.314882   0.304397
     5  Na  -0.417965  -0.052854
     6  Na   0.466440   0.131121
     7  Na   0.087590   0.098430
 Sum of Mulliken charges =  -0.00000   1.00000

 Dipole moment (field-independent basis, Debye):
    X=              0.5178    Y=             -0.1337    Z=              0.1760  Tot=              0.5630
 Quadrupole moment (field-independent basis, Debye-Ang):
   XX=            -55.0305   YY=            -74.4342   ZZ=            -68.1045
   XY=              1.1823   XZ=              2.9501   YZ=             -4.6846

 Normal termination of Gaussian 16 at Thu Dec  7 22:14:57 2023.
