 Gaussian 16, Revision B.01,
 Gaussian 16:  ES64L-G16RevB.01 20-Dec-2017

 -------------------------
 #P B3LYP/6-311+g(d) force
 -------------------------

 -----
 DPGEN
 -----
 Symbolic Z-matrix:
 Charge =  0 Multiplicity = 2

                         Standard orientation:
 ---------------------------------------------------------------------
 Center     Atomic      Atomic             Coordinates (Angstroms)
 Number     Number       Type             X           Y           Z
 ---------------------------------------------------------------------
      1         11           0        2.196245   -1.966505    0.411425
      2         11           0       -4.096011   -0.779248   -0.562828
      3         11           0       -1.829762    2.134729    0.064320
      4         11           0       -0.339273   -0.434480   -1.519293
      5         11           0       -0.781409   -1.277663    1.556318
      6         11           0        3.633054    0.438645   -1.014743
      7         11           0        1.217157    1.884523    1.064801
 ---------------------------------------------------------------------

 SCF Done:  E(UB3LYP) =  -1136.12358297     A.U. after   23 cycles

 The electronic state is 2-A.
 Alpha  occ. eigenvalues --  -38.45399 -38.44855 -38.44331 -38.43591 -38.43324
 Alpha  occ. eigenvalues --  -38.43173 -38.42729  -2.21260  -2.20632  -2.20181
 Alpha  occ. eigenvalues --   -2.19500  -2.19217  -2.19039  -2.18601  -1.14992
 Alpha  occ. eigenvalues --   -1.14917  -1.14864  -1.14300  -1.14285  -1.14242
 Alpha  occ. eigenvalues --   -1.13852  -1.13821  -1.13805  -1.13204  -1.13127
 Alpha  occ. eigenvalues --   -1.13117  -1.12881  -1.12878  -1.12864  -1.12742
 Alpha  occ. eigenvalues --   -1.12717  -1.12659  -1.12275  -1.12263  -1.12238
 Alpha  occ. eigenvalues --   -0.18425  -0.14082  -0.11347  -0.10952
 Alpha virt. eigenvalues --   -0.07057  -0.05095  -0.04400  -0.03191  -0.03032
 Alpha virt. eigenvalues --   -0.02500  -0.02060  -0.01139  -0.00910  -0.00302
 Alpha virt. eigenvalues --   -0.00038   0.00229   0.00358   0.00678   0.00777

  Beta  occ. eigenvalues --  -38.45397 -38.44811 -38.44275 -38.43521 -38.43311
  Beta  occ. eigenvalues --  -38.43169 -38.42714  -2.21257  -2.20551  -2.20077
  Beta  occ. eigenvalues --   -2.19374  -2.19198  -2.19037  -2.18578  -1.14972
  Beta  occ. eigenvalues --   -1.14920  -1.14864  -1.14243  -1.14227  -1.14191
  Beta  occ. eigenvalues --   -1.13785  -1.13748  -1.13735  -1.13121  -1.13032
  Beta  occ. eigenvalues --   -1.13023  -1.12874  -1.12863  -1.12811  -1.12743
  Beta  occ. eigenvalues --   -1.12700  -1.12652  -1.12257  -1.12233  -1.12219
  Beta  occ. eigenvalues --   -0.17831  -0.13539  -0.11074
  Beta virt. eigenvalues --   -0.07438  -0.06727  -0.05047  -0.03780  -0.03051
  Beta virt. eigenvalues --   -0.02686  -0.01985  -0.01434  -0.01080  -0.00549
  Beta virt. eigenvalues --   -0.00199   0.00073   0.00264   0.00473   0.00752

 Mulliken charges and spin densities:
               1          2
     1  Na   0.093064   0.088839
     2  Na   0.353397   0.262300
     3  Na  -0.012194  -0.009233
     4  Na  -0.415352   0.018393
     5  Na  -0.102948   0.277451
     6  Na   0.456598   0.331725
     7  Na  -0.372565   0.030525
 Sum of Mulliken charges =  -0.00000   1.00000

 Dipole moment (field-independent basis, Debye):
    X=             -0.6225    Y=             -0.2536    Z=             -0.1700  Tot=              0.6933
 Quadrupole moment (field-independent basis, Debye-Ang):
   XX=            -53.0961   YY=            -76.8159   ZZ=            -67.0195
   XY=              0.3269   XZ=             -0.7807   YZ=             -0.8953

 Normal termination of Gaussian 16 at Thu Dec  7 13:57:35 2023.
