 Gaussian 16, Revision B.01,
 Gaussian 16:  ES64L-G16RevB.01 20-Dec-2017

 -------------------------
 #P B3LYP/6-311+g(d) force
 -------------------------

 -----
 DPGEN
 -----
 Symbolic Z-matrix:
 Charge =  0 Multiplicity = 2

                         Standard orientation:
 ---------------------------------------------------------------------
 Center     Atomic      Atomic             Coordinates (Angstroms)
 Number     Number       Type             X           Y           Z
 ---------------------------------------------------------------------
      1         11           0        3.319437   -2.181708   -0.575838
      2         11           0       -0.108128   -3.447782    0.332126
      3         11           0       -3.212891   -2.677223    0.248211
      4         11           0       -1.442411    3.466150   -0.963006
      5         11           0        1.056214    3.273034    1.261980
      6         11           0       -3.566639    0.849409   -0.162601
      7         11           0        3.954419    0.718119   -0.140872
 ---------------------------------------------------------------------

 SCF Done:  E(UB3LYP) =  -1136.10815649     A.U. after   22 cycles

 The electronic state is 2-A.
 Alpha  occ. eigenvalues --  -38.45143 -38.44717 -38.44622 -38.44384 -38.44207
 Alpha  occ. eigenvalues --  -38.44199 -38.44099  -2.20941  -2.20494  -2.20418
 Alpha  occ. eigenvalues --   -2.20178  -2.20032  -2.19995  -2.19900  -1.14642
 Alpha  occ. eigenvalues --   -1.14598  -1.14575  -1.14173  -1.14168  -1.14153
 Alpha  occ. eigenvalues --   -1.14088  -1.14078  -1.14058  -1.13847  -1.13838
 Alpha  occ. eigenvalues --   -1.13826  -1.13701  -1.13678  -1.13666  -1.13642
 Alpha  occ. eigenvalues --   -1.13632  -1.13623  -1.13557  -1.13543  -1.13518
 Alpha  occ. eigenvalues --   -0.15611  -0.13882  -0.13642  -0.10584
 Alpha virt. eigenvalues --   -0.07717  -0.05000  -0.04270  -0.03634  -0.03278
 Alpha virt. eigenvalues --   -0.02462  -0.02241  -0.01730  -0.01543  -0.00968
 Alpha virt. eigenvalues --   -0.00317  -0.00023   0.00098   0.00337   0.00722

  Beta  occ. eigenvalues --  -38.45123 -38.44726 -38.44576 -38.44387 -38.44184
  Beta  occ. eigenvalues --  -38.44126 -38.44026  -2.20910  -2.20516  -2.20335
  Beta  occ. eigenvalues --   -2.20189  -2.19993  -2.19859  -2.19763  -1.14610
  Beta  occ. eigenvalues --   -1.14581  -1.14540  -1.14193  -1.14187  -1.14125
  Beta  occ. eigenvalues --   -1.14035  -1.14022  -1.13999  -1.13859  -1.13848
  Beta  occ. eigenvalues --   -1.13796  -1.13668  -1.13653  -1.13634  -1.13547
  Beta  occ. eigenvalues --   -1.13541  -1.13536  -1.13463  -1.13452  -1.13431
  Beta  occ. eigenvalues --   -0.15101  -0.13248  -0.12971
  Beta virt. eigenvalues --   -0.07772  -0.07375  -0.04589  -0.03871  -0.03397
  Beta virt. eigenvalues --   -0.02850  -0.02315  -0.01976  -0.01587  -0.01460
  Beta virt. eigenvalues --   -0.00678  -0.00044   0.00157   0.00263   0.00442

 Mulliken charges and spin densities:
               1          2
     1  Na   0.425736   0.098806
     2  Na  -0.346554   0.195785
     3  Na   0.536380  -0.048967
     4  Na   0.087960  -0.058830
     5  Na  -0.053759   0.374652
     6  Na  -0.387251   0.346193
     7  Na  -0.262511   0.092362
 Sum of Mulliken charges =  -0.00000   1.00000

 Dipole moment (field-independent basis, Debye):
    X=              0.4573    Y=             -0.0197    Z=             -0.1075  Tot=              0.4702
 Quadrupole moment (field-independent basis, Debye-Ang):
   XX=            -65.2131   YY=            -66.1100   ZZ=            -70.5805
   XY=              2.0382   XZ=              0.3065   YZ=             -1.4800

 Normal termination of Gaussian 16 at Sun Dec  3 19:25:22 2023.
