 Gaussian 16, Revision B.01,
 Gaussian 16:  ES64L-G16RevB.01 20-Dec-2017

 -------------------------
 #P B3LYP/6-311+g(d) force
 -------------------------

 -----
 DPGEN
 -----
 Symbolic Z-matrix:
 Charge =  0 Multiplicity = 2

                         Standard orientation:
 ---------------------------------------------------------------------
 Center     Atomic      Atomic             Coordinates (Angstroms)
 Number     Number       Type             X           Y           Z
 ---------------------------------------------------------------------
      1         11           0        0.138690    2.658121   -0.607345
      2         11           0       -5.754029    0.038506    0.110512
      3         11           0       -2.886462    0.746815    0.755821
      4         11           0       -2.765492   -2.349412   -0.473183
      5         11           0        0.401918   -0.281888    0.108478
      6         11           0        3.886740   -0.417940   -0.262567
      7         11           0        6.978634   -0.394203    0.368284
 ---------------------------------------------------------------------

 SCF Done:  E(UB3LYP) =  -1136.11490468     A.U. after   20 cycles

 The electronic state is 2-A.
 Alpha  occ. eigenvalues --  -38.44686 -38.44559 -38.44353 -38.44288 -38.43975
 Alpha  occ. eigenvalues --  -38.43887 -38.43562  -2.20513  -2.20388  -2.20202
 Alpha  occ. eigenvalues --   -2.20183  -2.19780  -2.19751  -2.19370  -1.14182
 Alpha  occ. eigenvalues --   -1.14175  -1.14110  -1.14076  -1.14034  -1.14019
 Alpha  occ. eigenvalues --   -1.13987  -1.13876  -1.13871  -1.13826  -1.13805
 Alpha  occ. eigenvalues --   -1.13723  -1.13457  -1.13445  -1.13423  -1.13412
 Alpha  occ. eigenvalues --   -1.13409  -1.13408  -1.13041  -1.13034  -1.12990
 Alpha  occ. eigenvalues --   -0.17197  -0.13992  -0.12076  -0.11173
 Alpha virt. eigenvalues --   -0.06851  -0.05857  -0.04044  -0.03424  -0.03073
 Alpha virt. eigenvalues --   -0.02611  -0.01933  -0.01711  -0.01273  -0.00898
 Alpha virt. eigenvalues --   -0.00326  -0.00129   0.00071   0.00285   0.00589

  Beta  occ. eigenvalues --  -38.44607 -38.44524 -38.44313 -38.44266 -38.43981
  Beta  occ. eigenvalues --  -38.43870 -38.43560  -2.20368  -2.20321  -2.20164
  Beta  occ. eigenvalues --   -2.20113  -2.19763  -2.19752  -2.19365  -1.14085
  Beta  occ. eigenvalues --   -1.14078  -1.14036  -1.14000  -1.13988  -1.13968
  Beta  occ. eigenvalues --   -1.13940  -1.13851  -1.13814  -1.13778  -1.13749
  Beta  occ. eigenvalues --   -1.13691  -1.13443  -1.13433  -1.13424  -1.13417
  Beta  occ. eigenvalues --   -1.13416  -1.13358  -1.13036  -1.13029  -1.12993
  Beta  occ. eigenvalues --   -0.16496  -0.13835  -0.11907
  Beta virt. eigenvalues --   -0.07429  -0.06559  -0.05377  -0.03760  -0.03214
  Beta virt. eigenvalues --   -0.02546  -0.02418  -0.01621  -0.01587  -0.00851
  Beta virt. eigenvalues --   -0.00789   0.00007   0.00095   0.00213   0.00419

 Mulliken charges and spin densities:
               1          2
     1  Na   0.609791   0.197034
     2  Na   0.231593   0.204851
     3  Na   0.187530   0.170268
     4  Na   0.403956   0.241095
     5  Na  -1.729594   0.258689
     6  Na  -0.028536  -0.064223
     7  Na   0.325259  -0.007713
 Sum of Mulliken charges =  -0.00000   1.00000

 Dipole moment (field-independent basis, Debye):
    X=             -1.5073    Y=              0.3925    Z=             -0.4363  Tot=              1.6175
 Quadrupole moment (field-independent basis, Debye-Ang):
   XX=            -56.2347   YY=            -66.7289   ZZ=            -71.4763
   XY=              4.6555   XZ=              3.2892   YZ=             -0.5159

 Normal termination of Gaussian 16 at Tue Nov 28 23:38:34 2023.
