 Gaussian 16, Revision B.01,
 Gaussian 16:  ES64L-G16RevB.01 20-Dec-2017

 -------------------------
 #P B3LYP/6-311+g(d) force
 -------------------------

 -----
 DPGEN
 -----
 Symbolic Z-matrix:
 Charge =  0 Multiplicity = 2

                         Standard orientation:
 ---------------------------------------------------------------------
 Center     Atomic      Atomic             Coordinates (Angstroms)
 Number     Number       Type             X           Y           Z
 ---------------------------------------------------------------------
      1         11           0        2.692271   -0.464131    0.745324
      2         11           0        3.380548    2.973450   -0.292042
      3         11           0       -3.607817    0.341413    0.519707
      4         11           0        4.797674   -2.664002   -0.430924
      5         11           0       -6.481899   -0.676976   -0.459781
      6         11           0       -0.054945    1.756168   -0.174232
      7         11           0       -0.725832   -1.265922    0.091947
 ---------------------------------------------------------------------

 SCF Done:  E(UB3LYP) =  -1136.11319149     A.U. after   23 cycles

 The electronic state is 2-A.
 Alpha  occ. eigenvalues --  -38.45548 -38.45293 -38.44652 -38.44030 -38.43975
 Alpha  occ. eigenvalues --  -38.43275 -38.43159  -2.21423  -2.21091  -2.20458
 Alpha  occ. eigenvalues --   -2.19887  -2.19816  -2.19037  -2.19020  -1.15091
 Alpha  occ. eigenvalues --   -1.15071  -1.15035  -1.14737  -1.14724  -1.14697
 Alpha  occ. eigenvalues --   -1.14105  -1.14092  -1.14090  -1.13596  -1.13569
 Alpha  occ. eigenvalues --   -1.13509  -1.13502  -1.13493  -1.13447  -1.12740
 Alpha  occ. eigenvalues --   -1.12723  -1.12707  -1.12699  -1.12692  -1.12593
 Alpha  occ. eigenvalues --   -0.17196  -0.14287  -0.12052  -0.11401
 Alpha virt. eigenvalues --   -0.06336  -0.05622  -0.04808  -0.03601  -0.02883
 Alpha virt. eigenvalues --   -0.02641  -0.02283  -0.01463  -0.01030  -0.00855
 Alpha virt. eigenvalues --   -0.00628  -0.00204  -0.00097   0.00441   0.00655

  Beta  occ. eigenvalues --  -38.45487 -38.45195 -38.44574 -38.44030 -38.43977
  Beta  occ. eigenvalues --  -38.43295 -38.43149  -2.21311  -2.20909  -2.20313
  Beta  occ. eigenvalues --   -2.19893  -2.19826  -2.19074  -2.19004  -1.15020
  Beta  occ. eigenvalues --   -1.14995  -1.14954  -1.14613  -1.14597  -1.14577
  Beta  occ. eigenvalues --   -1.14008  -1.13994  -1.13993  -1.13596  -1.13578
  Beta  occ. eigenvalues --   -1.13521  -1.13506  -1.13475  -1.13407  -1.12755
  Beta  occ. eigenvalues --   -1.12732  -1.12726  -1.12695  -1.12677  -1.12599
  Beta  occ. eigenvalues --   -0.16581  -0.13508  -0.11113
  Beta virt. eigenvalues --   -0.08653  -0.06073  -0.05058  -0.04591  -0.03259
  Beta virt. eigenvalues --   -0.02555  -0.02345  -0.01818  -0.01292  -0.00806
  Beta virt. eigenvalues --   -0.00553  -0.00370  -0.00097   0.00000   0.00531

 Mulliken charges and spin densities:
               1          2
     1  Na  -0.245502   0.039806
     2  Na   0.915183   0.283923
     3  Na   0.062755   0.239799
     4  Na   0.134441  -0.112414
     5  Na   0.084789   0.237923
     6  Na  -0.777144   0.151161
     7  Na  -0.174521   0.159802
 Sum of Mulliken charges =  -0.00000   1.00000

 Dipole moment (field-independent basis, Debye):
    X=             -0.8552    Y=              0.8406    Z=             -0.5668  Tot=              1.3263
 Quadrupole moment (field-independent basis, Debye-Ang):
   XX=            -62.7448   YY=            -65.7120   ZZ=            -71.8453
   XY=              8.1303   XZ=             -0.8316   YZ=              1.6657

 Normal termination of Gaussian 16 at Wed Nov 29 00:25:45 2023.
