 Gaussian 16, Revision B.01,
 Gaussian 16:  ES64L-G16RevB.01 20-Dec-2017

 -------------------------
 #P B3LYP/6-311+g(d) force
 -------------------------

 -----
 DPGEN
 -----
 Symbolic Z-matrix:
 Charge =  0 Multiplicity = 2

                         Standard orientation:
 ---------------------------------------------------------------------
 Center     Atomic      Atomic             Coordinates (Angstroms)
 Number     Number       Type             X           Y           Z
 ---------------------------------------------------------------------
      1         11           0       -0.780577   -0.864121    1.885648
      2         11           0        0.590439    2.944671   -0.330852
      3         11           0        0.472765   -1.744596   -1.697389
      4         11           0        3.285851    1.226473   -0.606470
      5         11           0        2.294249   -2.056045    1.172496
      6         11           0       -2.707858    1.467517    0.976714
      7         11           0       -3.154869   -0.973899   -1.400147
 ---------------------------------------------------------------------

 SCF Done:  E(UB3LYP) =  -1136.12424272     A.U. after   20 cycles

 The electronic state is 2-A.
 Alpha  occ. eigenvalues --  -38.44786 -38.44610 -38.44254 -38.43972 -38.43930
 Alpha  occ. eigenvalues --  -38.43882 -38.43343  -2.20586  -2.20407  -2.20117
 Alpha  occ. eigenvalues --   -2.19814  -2.19725  -2.19711  -2.19122  -1.14249
 Alpha  occ. eigenvalues --   -1.14233  -1.14212  -1.14082  -1.14063  -1.14032
 Alpha  occ. eigenvalues --   -1.13800  -1.13773  -1.13755  -1.13494  -1.13457
 Alpha  occ. eigenvalues --   -1.13437  -1.13402  -1.13397  -1.13382  -1.13361
 Alpha  occ. eigenvalues --   -1.13357  -1.13339  -1.12797  -1.12794  -1.12760
 Alpha  occ. eigenvalues --   -0.17371  -0.13441  -0.12045  -0.11407
 Alpha virt. eigenvalues --   -0.06121  -0.05460  -0.05037  -0.03602  -0.03112
 Alpha virt. eigenvalues --   -0.02499  -0.01819  -0.01136  -0.00643  -0.00296
 Alpha virt. eigenvalues --   -0.00163   0.00206   0.00287   0.00380   0.00535

  Beta  occ. eigenvalues --  -38.44733 -38.44570 -38.44188 -38.43954 -38.43923
  Beta  occ. eigenvalues --  -38.43862 -38.43348  -2.20488  -2.20334  -2.19998
  Beta  occ. eigenvalues --   -2.19783  -2.19712  -2.19676  -2.19133  -1.14183
  Beta  occ. eigenvalues --   -1.14162  -1.14143  -1.14035  -1.14014  -1.13967
  Beta  occ. eigenvalues --   -1.13717  -1.13689  -1.13670  -1.13453  -1.13435
  Beta  occ. eigenvalues --   -1.13421  -1.13394  -1.13385  -1.13353  -1.13344
  Beta  occ. eigenvalues --   -1.13339  -1.13314  -1.12804  -1.12802  -1.12763
  Beta  occ. eigenvalues --   -0.16729  -0.13245  -0.11749
  Beta virt. eigenvalues --   -0.07670  -0.05946  -0.05245  -0.04425  -0.03395
  Beta virt. eigenvalues --   -0.02438  -0.01922  -0.01670  -0.00988  -0.00447
  Beta virt. eigenvalues --   -0.00191  -0.00067   0.00353   0.00430   0.00474

 Mulliken charges and spin densities:
               1          2
     1  Na  -0.443723   0.294593
     2  Na  -0.132467  -0.048160
     3  Na  -0.408700   0.327308
     4  Na   0.118996  -0.029708
     5  Na   0.562122   0.087204
     6  Na   0.057857   0.218945
     7  Na   0.245915   0.149818
 Sum of Mulliken charges =  -0.00000   1.00000

 Dipole moment (field-independent basis, Debye):
    X=             -0.3543    Y=             -0.6919    Z=             -0.1427  Tot=              0.7903
 Quadrupole moment (field-independent basis, Debye-Ang):
   XX=            -55.8585   YY=            -73.2498   ZZ=            -69.4287
   XY=             -4.8521   XZ=              1.7605   YZ=              1.0421

 Normal termination of Gaussian 16 at Sun Dec  3 20:43:13 2023.
