 Gaussian 16, Revision B.01,
 Gaussian 16:  ES64L-G16RevB.01 20-Dec-2017

 -------------------------
 #P B3LYP/6-311+g(d) force
 -------------------------

 -----
 DPGEN
 -----
 Symbolic Z-matrix:
 Charge =  0 Multiplicity = 2

                         Standard orientation:
 ---------------------------------------------------------------------
 Center     Atomic      Atomic             Coordinates (Angstroms)
 Number     Number       Type             X           Y           Z
 ---------------------------------------------------------------------
      1         11           0       -2.229526   -2.147125   -0.548302
      2         11           0       -2.557961    1.946804   -0.017648
      3         11           0        0.723830    2.511215    0.012570
      4         11           0        1.049790   -2.288520    0.227390
      5         11           0       -0.345185   -0.278314    2.270256
      6         11           0        0.493367    0.021906   -2.040159
      7         11           0        2.865685    0.234035    0.095893
 ---------------------------------------------------------------------

 SCF Done:  E(UB3LYP) =  -1136.13245288     A.U. after   18 cycles

 The electronic state is 2-A.
 Alpha  occ. eigenvalues --  -38.44399 -38.44101 -38.43851 -38.43706 -38.43340
 Alpha  occ. eigenvalues --  -38.43140 -38.43121  -2.20267  -2.20042  -2.19653
 Alpha  occ. eigenvalues --   -2.19495  -2.19280  -2.19078  -2.19055  -1.13946
 Alpha  occ. eigenvalues --   -1.13894  -1.13876  -1.13732  -1.13685  -1.13656
 Alpha  occ. eigenvalues --   -1.13324  -1.13311  -1.13295  -1.13167  -1.13165
 Alpha  occ. eigenvalues --   -1.13139  -1.12990  -1.12980  -1.12918  -1.12759
 Alpha  occ. eigenvalues --   -1.12742  -1.12739  -1.12712  -1.12683  -1.12663
 Alpha  occ. eigenvalues --   -0.18882  -0.12663  -0.12531  -0.11636
 Alpha virt. eigenvalues --   -0.05319  -0.05027  -0.04324  -0.03601  -0.03299
 Alpha virt. eigenvalues --   -0.03150  -0.01151  -0.00946  -0.00182  -0.00021
 Alpha virt. eigenvalues --    0.00161   0.00397   0.00799   0.00835   0.00926

  Beta  occ. eigenvalues --  -38.44307 -38.44025 -38.43841 -38.43709 -38.43334
  Beta  occ. eigenvalues --  -38.43133 -38.43108  -2.20098  -2.19902  -2.19637
  Beta  occ. eigenvalues --   -2.19503  -2.19273  -2.19060  -2.19047  -1.13833
  Beta  occ. eigenvalues --   -1.13774  -1.13754  -1.13643  -1.13583  -1.13553
  Beta  occ. eigenvalues --   -1.13308  -1.13294  -1.13285  -1.13174  -1.13158
  Beta  occ. eigenvalues --   -1.13146  -1.12990  -1.12979  -1.12880  -1.12748
  Beta  occ. eigenvalues --   -1.12729  -1.12692  -1.12688  -1.12672  -1.12659
  Beta  occ. eigenvalues --   -0.18066  -0.12429  -0.12334
  Beta virt. eigenvalues --   -0.07658  -0.05310  -0.04840  -0.04279  -0.02830
  Beta virt. eigenvalues --   -0.02507  -0.02180  -0.01062  -0.00886  -0.00074
  Beta virt. eigenvalues --    0.00025   0.00121   0.00419   0.00903   0.00935

 Mulliken charges and spin densities:
               1          2
     1  Na   0.004912  -0.036040
     2  Na  -0.056433  -0.105803
     3  Na   0.103384   0.037278
     4  Na   0.490145   0.160549
     5  Na  -0.585122   0.435010
     6  Na  -0.478310   0.459466
     7  Na   0.521423   0.049539
 Sum of Mulliken charges =   0.00000   1.00000

 Dipole moment (field-independent basis, Debye):
    X=             -0.3736    Y=             -0.0934    Z=              0.0385  Tot=              0.3870
 Quadrupole moment (field-independent basis, Debye-Ang):
   XX=            -61.1339   YY=            -67.3565   ZZ=            -68.0541
   XY=              0.7419   XZ=              1.6678   YZ=              0.7742

 Normal termination of Gaussian 16 at Thu Dec  7 11:40:06 2023.
