 Gaussian 16, Revision B.01,
 Gaussian 16:  ES64L-G16RevB.01 20-Dec-2017

 -------------------------
 #P B3LYP/6-311+g(d) force
 -------------------------

 -----
 DPGEN
 -----
 Symbolic Z-matrix:
 Charge =  0 Multiplicity = 2

                         Standard orientation:
 ---------------------------------------------------------------------
 Center     Atomic      Atomic             Coordinates (Angstroms)
 Number     Number       Type             X           Y           Z
 ---------------------------------------------------------------------
      1         11           0       -0.216159    0.086960   -1.254188
      2         11           0        0.163810    3.209792   -0.335638
      3         11           0       -3.076588    0.934336    0.232079
      4         11           0       -2.171408   -2.277261   -0.380081
      5         11           0        3.000189    0.802390    0.042048
      6         11           0        2.101971   -2.331343   -0.414780
      7         11           0        0.198185   -0.424875    2.110560
 ---------------------------------------------------------------------

 SCF Done:  E(UB3LYP) =  -1136.13415470     A.U. after   19 cycles

 The electronic state is 2-A.
 Alpha  occ. eigenvalues --  -38.44460 -38.44164 -38.43875 -38.43757 -38.43470
 Alpha  occ. eigenvalues --  -38.43307 -38.42794  -2.20278  -2.20001  -2.19715
 Alpha  occ. eigenvalues --   -2.19594  -2.19339  -2.19112  -2.18823  -1.13960
 Alpha  occ. eigenvalues --   -1.13940  -1.13911  -1.13682  -1.13669  -1.13638
 Alpha  occ. eigenvalues --   -1.13415  -1.13363  -1.13344  -1.13268  -1.13245
 Alpha  occ. eigenvalues --   -1.13236  -1.13014  -1.12961  -1.12944  -1.12810
 Alpha  occ. eigenvalues --   -1.12768  -1.12747  -1.12525  -1.12459  -1.12452
 Alpha  occ. eigenvalues --   -0.18386  -0.13314  -0.12163  -0.10316
 Alpha virt. eigenvalues --   -0.05859  -0.05473  -0.04799  -0.03189  -0.02480
 Alpha virt. eigenvalues --   -0.02256  -0.01731  -0.01308  -0.00636  -0.00627
 Alpha virt. eigenvalues --   -0.00003   0.00325   0.00753   0.00794   0.00824

  Beta  occ. eigenvalues --  -38.44457 -38.44160 -38.43866 -38.43748 -38.43366
  Beta  occ. eigenvalues --  -38.43304 -38.42752  -2.20275  -2.19997  -2.19702
  Beta  occ. eigenvalues --   -2.19580  -2.19146  -2.19110  -2.18749  -1.13956
  Beta  occ. eigenvalues --   -1.13922  -1.13914  -1.13678  -1.13650  -1.13635
  Beta  occ. eigenvalues --   -1.13401  -1.13341  -1.13336  -1.13254  -1.13230
  Beta  occ. eigenvalues --   -1.13218  -1.12885  -1.12827  -1.12807  -1.12802
  Beta  occ. eigenvalues --   -1.12759  -1.12747  -1.12458  -1.12407  -1.12396
  Beta  occ. eigenvalues --   -0.17698  -0.13119  -0.11943
  Beta virt. eigenvalues --   -0.06417  -0.05781  -0.05452  -0.04735  -0.02434
  Beta virt. eigenvalues --   -0.01851  -0.01638  -0.01242  -0.01185  -0.00679
  Beta virt. eigenvalues --   -0.00614   0.00173   0.00379   0.00802   0.00819

 Mulliken charges and spin densities:
               1          2
     1  Na  -0.416954   0.149001
     2  Na   0.092745   0.004722
     3  Na   0.163488   0.071506
     4  Na   0.220733  -0.006276
     5  Na   0.259350   0.064364
     6  Na   0.136712   0.015715
     7  Na  -0.456074   0.700968
 Sum of Mulliken charges =  -0.00000   1.00000

 Dipole moment (field-independent basis, Debye):
    X=             -0.2048    Y=             -0.1453    Z=              0.2125  Tot=              0.3290
 Quadrupole moment (field-independent basis, Debye-Ang):
   XX=            -53.6960   YY=            -61.0751   ZZ=            -76.9840
   XY=             -0.3206   XZ=             -0.9560   YZ=              1.5388

 Normal termination of Gaussian 16 at Thu Dec  7 21:54:22 2023.
