 Gaussian 16, Revision B.01,
 Gaussian 16:  ES64L-G16RevB.01 20-Dec-2017

 -------------------------
 #P B3LYP/6-311+g(d) force
 -------------------------

 -----
 DPGEN
 -----
 Symbolic Z-matrix:
 Charge =  0 Multiplicity = 2

                         Standard orientation:
 ---------------------------------------------------------------------
 Center     Atomic      Atomic             Coordinates (Angstroms)
 Number     Number       Type             X           Y           Z
 ---------------------------------------------------------------------
      1         11           0        1.632526   -2.603317   -0.283596
      2         11           0        3.543809    0.593150    0.361955
      3         11           0        0.642729   -0.145325   -1.549310
      4         11           0        0.256840    2.964854   -0.206667
      5         11           0       -3.340454    1.328040   -0.078730
      6         11           0       -2.949655   -2.014622    0.129608
      7         11           0        0.214204   -0.122781    1.626739
 ---------------------------------------------------------------------

 SCF Done:  E(UB3LYP) =  -1136.12191057     A.U. after   24 cycles

 The electronic state is 2-A.
 Alpha  occ. eigenvalues --  -38.45201 -38.44756 -38.44303 -38.44123 -38.43582
 Alpha  occ. eigenvalues --  -38.43022 -38.43021  -2.20997  -2.20521  -2.20070
 Alpha  occ. eigenvalues --   -2.20016  -2.19463  -2.19015  -2.18837  -1.14668
 Alpha  occ. eigenvalues --   -1.14635  -1.14633  -1.14205  -1.14182  -1.14157
 Alpha  occ. eigenvalues --   -1.13752  -1.13746  -1.13725  -1.13710  -1.13655
 Alpha  occ. eigenvalues --   -1.13613  -1.13235  -1.13107  -1.13069  -1.12701
 Alpha  occ. eigenvalues --   -1.12633  -1.12620  -1.12510  -1.12506  -1.12461
 Alpha  occ. eigenvalues --   -0.18126  -0.13405  -0.11928  -0.09950
 Alpha virt. eigenvalues --   -0.06824  -0.05698  -0.04472  -0.03049  -0.02557
 Alpha virt. eigenvalues --   -0.02366  -0.01848  -0.01457  -0.00908  -0.00657
 Alpha virt. eigenvalues --   -0.00108   0.00182   0.00613   0.00691   0.00703

  Beta  occ. eigenvalues --  -38.45171 -38.44760 -38.44301 -38.44076 -38.43563
  Beta  occ. eigenvalues --  -38.43014 -38.42947  -2.20943  -2.20528  -2.20069
  Beta  occ. eigenvalues --   -2.19931  -2.19433  -2.18878  -2.18825  -1.14609
  Beta  occ. eigenvalues --   -1.14601  -1.14599  -1.14209  -1.14184  -1.14159
  Beta  occ. eigenvalues --   -1.13741  -1.13722  -1.13709  -1.13685  -1.13601
  Beta  occ. eigenvalues --   -1.13543  -1.13198  -1.13073  -1.13044  -1.12609
  Beta  occ. eigenvalues --   -1.12547  -1.12531  -1.12497  -1.12470  -1.12451
  Beta  occ. eigenvalues --   -0.17496  -0.13197  -0.11640
  Beta virt. eigenvalues --   -0.06654  -0.06193  -0.05656  -0.04445  -0.02471
  Beta virt. eigenvalues --   -0.02344  -0.01731  -0.01404  -0.00976  -0.00897
  Beta virt. eigenvalues --   -0.00642   0.00088   0.00269   0.00711   0.00717

 Mulliken charges and spin densities:
               1          2
     1  Na   0.101123  -0.056776
     2  Na   0.115489   0.173571
     3  Na   0.185772   0.434214
     4  Na  -0.228795  -0.084162
     5  Na  -0.073909  -0.053001
     6  Na  -0.000210  -0.038783
     7  Na  -0.099469   0.624938
 Sum of Mulliken charges =  -0.00000   1.00000

 Dipole moment (field-independent basis, Debye):
    X=              0.1448    Y=             -0.0114    Z=              0.0383  Tot=              0.1502
 Quadrupole moment (field-independent basis, Debye-Ang):
   XX=            -50.3490   YY=            -64.0723   ZZ=            -77.6678
   XY=             -0.5729   XZ=              0.1374   YZ=             -0.4334

 Normal termination of Gaussian 16 at Thu Dec  7 14:12:24 2023.
