 Gaussian 16, Revision B.01,
 Gaussian 16:  ES64L-G16RevB.01 20-Dec-2017

 -------------------------
 #P B3LYP/6-311+g(d) force
 -------------------------

 -----
 DPGEN
 -----
 Symbolic Z-matrix:
 Charge =  0 Multiplicity = 2

                         Standard orientation:
 ---------------------------------------------------------------------
 Center     Atomic      Atomic             Coordinates (Angstroms)
 Number     Number       Type             X           Y           Z
 ---------------------------------------------------------------------
      1         11           0       -0.537674   -0.735629   -1.525441
      2         11           0        1.888694   -2.293265   -0.104002
      3         11           0       -2.072447   -2.413253    0.337951
      4         11           0        0.377079    0.426311    1.903960
      5         11           0        0.107129    3.064074   -0.390360
      6         11           0        3.140123    0.680318   -0.205900
      7         11           0       -2.902903    1.271444   -0.016208
 ---------------------------------------------------------------------

 SCF Done:  E(UB3LYP) =  -1136.13337651     A.U. after   19 cycles

 The electronic state is 2-A.
 Alpha  occ. eigenvalues --  -38.44232 -38.44101 -38.44062 -38.43795 -38.43675
 Alpha  occ. eigenvalues --  -38.43202 -38.43181  -2.20044  -2.19928  -2.19908
 Alpha  occ. eigenvalues --   -2.19660  -2.19484  -2.19174  -2.19071  -1.13727
 Alpha  occ. eigenvalues --   -1.13708  -1.13680  -1.13658  -1.13614  -1.13592
 Alpha  occ. eigenvalues --   -1.13575  -1.13548  -1.13524  -1.13360  -1.13313
 Alpha  occ. eigenvalues --   -1.13284  -1.13156  -1.13150  -1.13122  -1.12850
 Alpha  occ. eigenvalues --   -1.12811  -1.12792  -1.12743  -1.12697  -1.12691
 Alpha  occ. eigenvalues --   -0.18373  -0.13134  -0.12623  -0.10152
 Alpha virt. eigenvalues --   -0.05745  -0.05572  -0.04943  -0.03144  -0.02904
 Alpha virt. eigenvalues --   -0.02043  -0.01547  -0.01303  -0.00696  -0.00571
 Alpha virt. eigenvalues --    0.00015   0.00355   0.00775   0.00816   0.00845

  Beta  occ. eigenvalues --  -38.44228 -38.44097 -38.44056 -38.43787 -38.43668
  Beta  occ. eigenvalues --  -38.43154 -38.43095  -2.20040  -2.19924  -2.19899
  Beta  occ. eigenvalues --   -2.19649  -2.19471  -2.19087  -2.18914  -1.13718
  Beta  occ. eigenvalues --   -1.13692  -1.13679  -1.13648  -1.13613  -1.13575
  Beta  occ. eigenvalues --   -1.13567  -1.13525  -1.13521  -1.13348  -1.13284
  Beta  occ. eigenvalues --   -1.13278  -1.13144  -1.13129  -1.13114  -1.12784
  Beta  occ. eigenvalues --   -1.12750  -1.12727  -1.12637  -1.12583  -1.12579
  Beta  occ. eigenvalues --   -0.17691  -0.12920  -0.12408
  Beta virt. eigenvalues --   -0.06368  -0.05728  -0.05517  -0.04819  -0.02406
  Beta virt. eigenvalues --   -0.02179  -0.01463  -0.01232  -0.01091  -0.00724
  Beta virt. eigenvalues --   -0.00596   0.00174   0.00403   0.00802   0.00844

 Mulliken charges and spin densities:
               1          2
     1  Na  -0.020074   0.464213
     2  Na   0.201017  -0.034844
     3  Na   0.121769  -0.050271
     4  Na  -0.338093   0.728727
     5  Na  -0.079189  -0.042000
     6  Na   0.042249  -0.027935
     7  Na   0.072320  -0.037890
 Sum of Mulliken charges =  -0.00000   1.00000

 Dipole moment (field-independent basis, Debye):
    X=             -0.1472    Y=             -0.0030    Z=              0.0992  Tot=              0.1776
 Quadrupole moment (field-independent basis, Debye-Ang):
   XX=            -55.4716   YY=            -60.7295   ZZ=            -76.7050
   XY=              0.7834   XZ=             -2.0046   YZ=             -2.4556

 Normal termination of Gaussian 16 at Mon Dec  4 02:46:52 2023.
