 Gaussian 16, Revision B.01,
 Gaussian 16:  ES64L-G16RevB.01 20-Dec-2017

 -------------------------
 #P B3LYP/6-311+g(d) force
 -------------------------

 -----
 DPGEN
 -----
 Symbolic Z-matrix:
 Charge =  0 Multiplicity = 2

                         Standard orientation:
 ---------------------------------------------------------------------
 Center     Atomic      Atomic             Coordinates (Angstroms)
 Number     Number       Type             X           Y           Z
 ---------------------------------------------------------------------
      1         11           0        3.636113   -1.222515   -0.720166
      2         11           0       -1.474682   -2.226196    0.500625
      3         11           0        1.842315    2.539980   -0.039161
      4         11           0       -1.434345    1.390947    1.263609
      5         11           0        1.219213   -0.726239    1.575359
      6         11           0        0.085966    0.077984   -1.685798
      7         11           0       -3.874580    0.166040   -0.894468
 ---------------------------------------------------------------------

 SCF Done:  E(UB3LYP) =  -1136.12561038     A.U. after   24 cycles

 The electronic state is 2-A.
 Alpha  occ. eigenvalues --  -38.44832 -38.44793 -38.44590 -38.43451 -38.43351
 Alpha  occ. eigenvalues --  -38.43175 -38.43040  -2.20654  -2.20629  -2.20369
 Alpha  occ. eigenvalues --   -2.19306  -2.19237  -2.19122  -2.18852  -1.14366
 Alpha  occ. eigenvalues --   -1.14300  -1.14296  -1.14279  -1.14265  -1.14246
 Alpha  occ. eigenvalues --   -1.14048  -1.14011  -1.14001  -1.13023  -1.12980
 Alpha  occ. eigenvalues --   -1.12946  -1.12919  -1.12902  -1.12838  -1.12807
 Alpha  occ. eigenvalues --   -1.12759  -1.12730  -1.12538  -1.12511  -1.12484
 Alpha  occ. eigenvalues --   -0.18368  -0.13631  -0.11168  -0.11033
 Alpha virt. eigenvalues --   -0.06943  -0.05092  -0.04381  -0.03048  -0.02809
 Alpha virt. eigenvalues --   -0.02432  -0.02286  -0.01109  -0.00959  -0.00219
 Alpha virt. eigenvalues --    0.00089   0.00157   0.00314   0.00649   0.00777

  Beta  occ. eigenvalues --  -38.44796 -38.44760 -38.44569 -38.43431 -38.43317
  Beta  occ. eigenvalues --  -38.43120 -38.43042  -2.20594  -2.20561  -2.20331
  Beta  occ. eigenvalues --   -2.19275  -2.19179  -2.19025  -2.18858  -1.14318
  Beta  occ. eigenvalues --   -1.14261  -1.14249  -1.14231  -1.14218  -1.14202
  Beta  occ. eigenvalues --   -1.14022  -1.13985  -1.13972  -1.12994  -1.12938
  Beta  occ. eigenvalues --   -1.12900  -1.12893  -1.12839  -1.12805  -1.12746
  Beta  occ. eigenvalues --   -1.12671  -1.12658  -1.12537  -1.12517  -1.12480
  Beta  occ. eigenvalues --   -0.17644  -0.13303  -0.10900
  Beta virt. eigenvalues --   -0.07385  -0.06642  -0.05017  -0.03892  -0.02906
  Beta virt. eigenvalues --   -0.02410  -0.01849  -0.01594  -0.01028  -0.00653
  Beta virt. eigenvalues --   -0.00136   0.00131   0.00185   0.00426   0.00725

 Mulliken charges and spin densities:
               1          2
     1  Na  -0.077850   0.151722
     2  Na  -0.125972   0.127989
     3  Na  -0.130181   0.012854
     4  Na  -0.118557   0.121617
     5  Na   0.485858   0.020084
     6  Na  -0.222448   0.343214
     7  Na   0.189150   0.222519
 Sum of Mulliken charges =  -0.00000   1.00000

 Dipole moment (field-independent basis, Debye):
    X=             -0.3032    Y=             -0.0020    Z=             -0.4467  Tot=              0.5399
 Quadrupole moment (field-independent basis, Debye-Ang):
   XX=            -49.6443   YY=            -74.6195   ZZ=            -68.8103
   XY=              0.3701   XZ=              0.0285   YZ=              1.0389

 Normal termination of Gaussian 16 at Thu Dec  7 17:45:46 2023.
