 Gaussian 16, Revision B.01,
 Gaussian 16:  ES64L-G16RevB.01 20-Dec-2017

 -------------------------
 #P B3LYP/6-311+g(d) force
 -------------------------

 -----
 DPGEN
 -----
 Symbolic Z-matrix:
 Charge =  0 Multiplicity = 2

                         Standard orientation:
 ---------------------------------------------------------------------
 Center     Atomic      Atomic             Coordinates (Angstroms)
 Number     Number       Type             X           Y           Z
 ---------------------------------------------------------------------
      1         11           0        2.541992    0.130330    1.693559
      2         11           0       -3.297424    1.352909   -0.656509
      3         11           0        0.144367   -1.469996   -1.041142
      4         11           0       -2.531467   -2.311068    0.275735
      5         11           0       -0.697940    0.702638    1.906169
      6         11           0        3.058622   -0.994897   -1.136858
      7         11           0        0.781850    2.590085   -1.040955
 ---------------------------------------------------------------------

 SCF Done:  E(UB3LYP) =  -1136.11930627     A.U. after   23 cycles

 The electronic state is 2-A.
 Alpha  occ. eigenvalues --  -38.45335 -38.44324 -38.44190 -38.44138 -38.43807
 Alpha  occ. eigenvalues --  -38.43566 -38.43303  -2.21079  -2.20201  -2.20030
 Alpha  occ. eigenvalues --   -2.19952  -2.19666  -2.19388  -2.19221  -1.14764
 Alpha  occ. eigenvalues --   -1.14720  -1.14711  -1.13912  -1.13873  -1.13822
 Alpha  occ. eigenvalues --   -1.13760  -1.13651  -1.13633  -1.13626  -1.13601
 Alpha  occ. eigenvalues --   -1.13576  -1.13363  -1.13298  -1.13289  -1.13127
 Alpha  occ. eigenvalues --   -1.13046  -1.13012  -1.12881  -1.12859  -1.12853
 Alpha  occ. eigenvalues --   -0.17953  -0.13614  -0.11586  -0.11136
 Alpha virt. eigenvalues --   -0.06642  -0.05368  -0.04483  -0.03490  -0.02984
 Alpha virt. eigenvalues --   -0.02388  -0.02133  -0.00983  -0.00733  -0.00463
 Alpha virt. eigenvalues --    0.00112   0.00245   0.00327   0.00472   0.00721

  Beta  occ. eigenvalues --  -38.45322 -38.44274 -38.44155 -38.44116 -38.43751
  Beta  occ. eigenvalues --  -38.43567 -38.43285  -2.21055  -2.20111  -2.19992
  Beta  occ. eigenvalues --   -2.19887  -2.19567  -2.19391  -2.19192  -1.14746
  Beta  occ. eigenvalues --   -1.14706  -1.14692  -1.13846  -1.13805  -1.13764
  Beta  occ. eigenvalues --   -1.13725  -1.13612  -1.13599  -1.13583  -1.13556
  Beta  occ. eigenvalues --   -1.13531  -1.13299  -1.13222  -1.13204  -1.13125
  Beta  occ. eigenvalues --   -1.13041  -1.13015  -1.12856  -1.12837  -1.12827
  Beta  occ. eigenvalues --   -0.17285  -0.13469  -0.11231
  Beta virt. eigenvalues --   -0.07382  -0.06476  -0.05202  -0.03939  -0.03259
  Beta virt. eigenvalues --   -0.02356  -0.02048  -0.01655  -0.00876  -0.00395
  Beta virt. eigenvalues --   -0.00340   0.00136   0.00294   0.00403   0.00656

 Mulliken charges and spin densities:
               1          2
     1  Na  -0.009426   0.086331
     2  Na   0.112099   0.075697
     3  Na  -1.268835   0.264435
     4  Na   0.809975  -0.087548
     5  Na   0.079609   0.300659
     6  Na   0.652997   0.083460
     7  Na  -0.376418   0.276966
 Sum of Mulliken charges =  -0.00000   1.00000

 Dipole moment (field-independent basis, Debye):
    X=             -0.3759    Y=              0.4966    Z=             -0.0808  Tot=              0.6280
 Quadrupole moment (field-independent basis, Debye-Ang):
   XX=            -50.1545   YY=            -74.4449   ZZ=            -70.0318
   XY=             -0.3019   XZ=              0.3018   YZ=             -3.4240

 Normal termination of Gaussian 16 at Mon Dec  4 02:15:54 2023.
