 Gaussian 16, Revision B.01,
 Gaussian 16:  ES64L-G16RevB.01 20-Dec-2017

 -------------------------
 #P B3LYP/6-311+g(d) force
 -------------------------

 -----
 DPGEN
 -----
 Symbolic Z-matrix:
 Charge =  0 Multiplicity = 2

                         Standard orientation:
 ---------------------------------------------------------------------
 Center     Atomic      Atomic             Coordinates (Angstroms)
 Number     Number       Type             X           Y           Z
 ---------------------------------------------------------------------
      1         11           0       -0.244580   -0.080657    2.091751
      2         11           0        3.296629   -0.354810   -0.216246
      3         11           0       -2.485872    1.970327   -0.256511
      4         11           0        1.585619    2.424395    0.113128
      5         11           0        0.211867   -0.145963   -1.565046
      6         11           0       -2.839630   -1.221406   -0.246881
      7         11           0        0.475968   -2.591886    0.079805
 ---------------------------------------------------------------------

 SCF Done:  E(UB3LYP) =  -1136.13383679     A.U. after   20 cycles

 The electronic state is 2-A.
 Alpha  occ. eigenvalues --  -38.44479 -38.44072 -38.43754 -38.43585 -38.43390
 Alpha  occ. eigenvalues --  -38.43360 -38.42788  -2.20320  -2.19935  -2.19577
 Alpha  occ. eigenvalues --   -2.19485  -2.19399  -2.19206  -2.18711  -1.13994
 Alpha  occ. eigenvalues --   -1.13979  -1.13959  -1.13620  -1.13603  -1.13574
 Alpha  occ. eigenvalues --   -1.13244  -1.13239  -1.13216  -1.13166  -1.13126
 Alpha  occ. eigenvalues --   -1.13107  -1.13100  -1.13063  -1.13005  -1.12878
 Alpha  occ. eigenvalues --   -1.12870  -1.12837  -1.12413  -1.12371  -1.12308
 Alpha  occ. eigenvalues --   -0.18814  -0.13515  -0.12036  -0.10811
 Alpha virt. eigenvalues --   -0.06030  -0.05278  -0.04142  -0.03341  -0.02699
 Alpha virt. eigenvalues --   -0.02574  -0.01922  -0.01037  -0.00351  -0.00178
 Alpha virt. eigenvalues --   -0.00030   0.00327   0.00737   0.00881   0.00898

  Beta  occ. eigenvalues --  -38.44475 -38.44064 -38.43750 -38.43481 -38.43355
  Beta  occ. eigenvalues --  -38.43336 -38.42778  -2.20314  -2.19924  -2.19572
  Beta  occ. eigenvalues --   -2.19303  -2.19292  -2.19201  -2.18699  -1.13986
  Beta  occ. eigenvalues --   -1.13966  -1.13957  -1.13614  -1.13581  -1.13559
  Beta  occ. eigenvalues --   -1.13238  -1.13228  -1.13207  -1.13078  -1.13027
  Beta  occ. eigenvalues --   -1.12994  -1.12969  -1.12965  -1.12932  -1.12869
  Beta  occ. eigenvalues --   -1.12850  -1.12831  -1.12404  -1.12325  -1.12303
  Beta  occ. eigenvalues --   -0.18089  -0.13271  -0.11793
  Beta virt. eigenvalues --   -0.06873  -0.05948  -0.05287  -0.04121  -0.02589
  Beta virt. eigenvalues --   -0.01904  -0.01816  -0.01503  -0.00990  -0.00379
  Beta virt. eigenvalues --   -0.00210   0.00120   0.00365   0.00808   0.00877

 Mulliken charges and spin densities:
               1          2
     1  Na  -0.559582   0.733082
     2  Na   0.267277  -0.019039
     3  Na  -0.004218  -0.035300
     4  Na   0.050410  -0.045474
     5  Na  -0.450821   0.367719
     6  Na   0.315274   0.016787
     7  Na   0.381659  -0.017775
 Sum of Mulliken charges =  -0.00000   1.00000

 Dipole moment (field-independent basis, Debye):
    X=              0.1295    Y=              0.0075    Z=              0.1273  Tot=              0.1817
 Quadrupole moment (field-independent basis, Debye-Ang):
   XX=            -52.8535   YY=            -66.4928   ZZ=            -74.1045
   XY=             -0.2763   XZ=              0.6191   YZ=             -0.0458

 Normal termination of Gaussian 16 at Fri Dec  8 03:08:00 2023.
