 Gaussian 16, Revision B.01,
 Gaussian 16:  ES64L-G16RevB.01 20-Dec-2017

 -------------------------
 #P B3LYP/6-311+g(d) force
 -------------------------

 -----
 DPGEN
 -----
 Symbolic Z-matrix:
 Charge =  0 Multiplicity = 2

                         Standard orientation:
 ---------------------------------------------------------------------
 Center     Atomic      Atomic             Coordinates (Angstroms)
 Number     Number       Type             X           Y           Z
 ---------------------------------------------------------------------
      1         11           0       -2.914102    1.051340   -0.005608
      2         11           0        0.219222    3.127045   -0.148955
      3         11           0        3.087907    0.610795   -0.221014
      4         11           0       -2.055789   -1.969227   -0.291320
      5         11           0        1.370870   -2.509219    0.386331
      6         11           0        0.272366   -0.436315   -1.721243
      7         11           0        0.019526    0.125580    2.001810
 ---------------------------------------------------------------------

 SCF Done:  E(UB3LYP) =  -1136.13712136     A.U. after   19 cycles

 The electronic state is 2-A.
 Alpha  occ. eigenvalues --  -38.44062 -38.43803 -38.43724 -38.43580 -38.43443
 Alpha  occ. eigenvalues --  -38.43368 -38.43350  -2.19882  -2.19638  -2.19509
 Alpha  occ. eigenvalues --   -2.19478  -2.19345  -2.19337  -2.19259  -1.13571
 Alpha  occ. eigenvalues --   -1.13541  -1.13512  -1.13336  -1.13303  -1.13279
 Alpha  occ. eigenvalues --   -1.13190  -1.13175  -1.13165  -1.13146  -1.13112
 Alpha  occ. eigenvalues --   -1.13106  -1.13099  -1.13047  -1.12998  -1.12982
 Alpha  occ. eigenvalues --   -1.12959  -1.12923  -1.12901  -1.12892  -1.12873
 Alpha  occ. eigenvalues --   -0.18704  -0.12993  -0.12479  -0.10853
 Alpha virt. eigenvalues --   -0.05657  -0.04960  -0.04870  -0.03192  -0.02996
 Alpha virt. eigenvalues --   -0.02590  -0.01427  -0.01107  -0.00436  -0.00284
 Alpha virt. eigenvalues --   -0.00003   0.00367   0.00830   0.00881   0.00915

  Beta  occ. eigenvalues --  -38.44055 -38.43802 -38.43725 -38.43488 -38.43429
  Beta  occ. eigenvalues --  -38.43340 -38.43302  -2.19873  -2.19638  -2.19511
  Beta  occ. eigenvalues --   -2.19318  -2.19310  -2.19246  -2.19221  -1.13555
  Beta  occ. eigenvalues --   -1.13524  -1.13510  -1.13339  -1.13287  -1.13278
  Beta  occ. eigenvalues --   -1.13178  -1.13174  -1.13148  -1.13093  -1.13036
  Beta  occ. eigenvalues --   -1.13004  -1.12989  -1.12983  -1.12951  -1.12936
  Beta  occ. eigenvalues --   -1.12904  -1.12888  -1.12863  -1.12853  -1.12828
  Beta  occ. eigenvalues --   -0.17962  -0.12750  -0.12259
  Beta virt. eigenvalues --   -0.06915  -0.05655  -0.04938  -0.04788  -0.02411
  Beta virt. eigenvalues --   -0.02232  -0.01549  -0.01344  -0.01024  -0.00480
  Beta virt. eigenvalues --   -0.00324   0.00127   0.00398   0.00849   0.00900

 Mulliken charges and spin densities:
               1          2
     1  Na  -0.081875  -0.097284
     2  Na  -0.125825  -0.122106
     3  Na   0.040809  -0.106095
     4  Na   0.366242   0.030382
     5  Na   0.303366   0.024409
     6  Na  -0.148586   0.564527
     7  Na  -0.354131   0.706167
 Sum of Mulliken charges =  -0.00000   1.00000

 Dipole moment (field-independent basis, Debye):
    X=              0.2488    Y=              0.1817    Z=              0.0880  Tot=              0.3204
 Quadrupole moment (field-independent basis, Debye-Ang):
   XX=            -58.1223   YY=            -62.0644   ZZ=            -73.8380
   XY=             -0.3329   XZ=              0.3805   YZ=             -1.1867

 Normal termination of Gaussian 16 at Thu Dec  7 16:20:01 2023.
