 Gaussian 16, Revision B.01,
 Gaussian 16:  ES64L-G16RevB.01 20-Dec-2017

 -------------------------
 #P B3LYP/6-311+g(d) force
 -------------------------

 -----
 DPGEN
 -----
 Symbolic Z-matrix:
 Charge =  0 Multiplicity = 2

                         Standard orientation:
 ---------------------------------------------------------------------
 Center     Atomic      Atomic             Coordinates (Angstroms)
 Number     Number       Type             X           Y           Z
 ---------------------------------------------------------------------
      1         11           0        0.620726    0.029024   -1.591905
      2         11           0        0.623166    1.365789    0.820979
      3         11           0        3.027000   -0.000031   -0.001521
      4         11           0        0.623207   -1.393545    0.771251
      5         11           0       -1.632807    1.393653   -0.770410
      6         11           0       -1.630326   -0.029613    1.592342
      7         11           0       -1.630966   -1.365277   -0.820735
 ---------------------------------------------------------------------

 SCF Done:  E(UB3LYP) =  -1136.03911123     A.U. after   30 cycles

 The electronic state is 2-A.
 Alpha  occ. eigenvalues --  -38.45093 -38.44882 -38.44690 -38.43959 -38.43954
 Alpha  occ. eigenvalues --  -38.43596 -38.43596  -2.21364  -2.21267  -2.20718
 Alpha  occ. eigenvalues --   -2.20237  -2.20182  -2.19980  -2.19921  -1.15287
 Alpha  occ. eigenvalues --   -1.15146  -1.15086  -1.15072  -1.14987  -1.14892
 Alpha  occ. eigenvalues --   -1.14478  -1.14349  -1.14334  -1.14084  -1.14005
 Alpha  occ. eigenvalues --   -1.13971  -1.13869  -1.13814  -1.13787  -1.13600
 Alpha  occ. eigenvalues --   -1.13552  -1.13524  -1.13462  -1.13448  -1.13317
 Alpha  occ. eigenvalues --   -0.22393  -0.14580  -0.13325  -0.11868
 Alpha virt. eigenvalues --   -0.05942  -0.04270  -0.03911  -0.03631  -0.02792
 Alpha virt. eigenvalues --   -0.02534  -0.01446  -0.00405  -0.00162   0.00263
 Alpha virt. eigenvalues --    0.00696   0.00934   0.01044   0.01077   0.01113

  Beta  occ. eigenvalues --  -38.45019 -38.44797 -38.44688 -38.43926 -38.43921
  Beta  occ. eigenvalues --  -38.43557 -38.43557  -2.21233  -2.21118  -2.20717
  Beta  occ. eigenvalues --   -2.20185  -2.20131  -2.19917  -2.19858  -1.15212
  Beta  occ. eigenvalues --   -1.15055  -1.14972  -1.14956  -1.14895  -1.14787
  Beta  occ. eigenvalues --   -1.14464  -1.14337  -1.14324  -1.14041  -1.13971
  Beta  occ. eigenvalues --   -1.13941  -1.13817  -1.13731  -1.13702  -1.13566
  Beta  occ. eigenvalues --   -1.13454  -1.13445  -1.13420  -1.13411  -1.13260
  Beta  occ. eigenvalues --   -0.21492  -0.14352  -0.11588
  Beta virt. eigenvalues --   -0.08692  -0.05852  -0.03640  -0.03498  -0.03224
  Beta virt. eigenvalues --   -0.02013  -0.01838  -0.01391  -0.00153  -0.00116
  Beta virt. eigenvalues --    0.00301   0.00756   0.01100   0.01119   0.01123

 Mulliken charges and spin densities:
               1          2
     1  Na  -0.369826   0.154279
     2  Na  -0.494126   0.353230
     3  Na   0.951575  -0.036718
     4  Na  -0.495485   0.353264
     5  Na   0.102968   0.079597
     6  Na   0.200667   0.015872
     7  Na   0.104228   0.080477
 Sum of Mulliken charges =  -0.00000   1.00000

 Dipole moment (field-independent basis, Debye):
    X=              0.4715    Y=              0.0012    Z=              0.0187  Tot=              0.4719
 Quadrupole moment (field-independent basis, Debye-Ang):
   XX=            -54.9273   YY=            -78.1799   ZZ=            -64.0802
   XY=             -0.0038   XZ=              0.1073   YZ=             -0.2360

 Normal termination of Gaussian 16 at Fri Dec  8 19:13:00 2023.
