 Gaussian 16, Revision B.01,
 Gaussian 16:  ES64L-G16RevB.01 20-Dec-2017

 -------------------------
 #P B3LYP/6-311+g(d) force
 -------------------------

 -----
 DPGEN
 -----
 Symbolic Z-matrix:
 Charge =  0 Multiplicity = 2

                         Standard orientation:
 ---------------------------------------------------------------------
 Center     Atomic      Atomic             Coordinates (Angstroms)
 Number     Number       Type             X           Y           Z
 ---------------------------------------------------------------------
      1         11           0       -3.189435   -0.475110    0.179175
      2         11           0       -1.593740    2.677125   -0.514519
      3         11           0        0.356180    0.366155    2.314459
      4         11           0        2.627430    1.636242    0.246336
      5         11           0        2.368070   -1.817925   -0.383310
      6         11           0       -0.980773   -2.591900    0.038030
      7         11           0        0.412268    0.205414   -1.880170
 ---------------------------------------------------------------------

 SCF Done:  E(UB3LYP) =  -1136.13218195     A.U. after   20 cycles

 The electronic state is 2-A.
 Alpha  occ. eigenvalues --  -38.44557 -38.44108 -38.44058 -38.43834 -38.43668
 Alpha  occ. eigenvalues --  -38.43606 -38.42973  -2.20391  -2.19950  -2.19882
 Alpha  occ. eigenvalues --   -2.19757  -2.19533  -2.19400  -2.18840  -1.14046
 Alpha  occ. eigenvalues --   -1.14021  -1.14013  -1.13627  -1.13625  -1.13588
 Alpha  occ. eigenvalues --   -1.13581  -1.13542  -1.13512  -1.13444  -1.13404
 Alpha  occ. eigenvalues --   -1.13385  -1.13205  -1.13185  -1.13157  -1.13079
 Alpha  occ. eigenvalues --   -1.13052  -1.13035  -1.12522  -1.12497  -1.12484
 Alpha  occ. eigenvalues --   -0.18295  -0.13117  -0.12116  -0.11374
 Alpha virt. eigenvalues --   -0.05793  -0.05254  -0.04342  -0.03472  -0.03274
 Alpha virt. eigenvalues --   -0.02948  -0.01427  -0.01103  -0.00416  -0.00131
 Alpha virt. eigenvalues --   -0.00091   0.00367   0.00712   0.00754   0.00847

  Beta  occ. eigenvalues --  -38.44457 -38.44100 -38.44059 -38.43765 -38.43658
  Beta  occ. eigenvalues --  -38.43597 -38.42972  -2.20205  -2.19939  -2.19885
  Beta  occ. eigenvalues --   -2.19630  -2.19519  -2.19384  -2.18840  -1.13924
  Beta  occ. eigenvalues --   -1.13890  -1.13881  -1.13621  -1.13593  -1.13582
  Beta  occ. eigenvalues --   -1.13579  -1.13535  -1.13514  -1.13365  -1.13314
  Beta  occ. eigenvalues --   -1.13301  -1.13178  -1.13161  -1.13150  -1.13055
  Beta  occ. eigenvalues --   -1.13041  -1.13027  -1.12524  -1.12493  -1.12471
  Beta  occ. eigenvalues --   -0.17564  -0.12919  -0.11851
  Beta virt. eigenvalues --   -0.07448  -0.05697  -0.05188  -0.04244  -0.02739
  Beta virt. eigenvalues --   -0.02371  -0.02110  -0.01336  -0.01013  -0.00459
  Beta virt. eigenvalues --   -0.00149   0.00060   0.00409   0.00834   0.00885

 Mulliken charges and spin densities:
               1          2
     1  Na  -0.060907  -0.037313
     2  Na   0.039928  -0.054785
     3  Na  -0.422726   0.622487
     4  Na   0.235171  -0.025859
     5  Na   0.342680   0.067099
     6  Na  -0.117777   0.000179
     7  Na  -0.016370   0.428192
 Sum of Mulliken charges =  -0.00000   1.00000

 Dipole moment (field-independent basis, Debye):
    X=              0.3314    Y=              0.3328    Z=              0.2460  Tot=              0.5302
 Quadrupole moment (field-independent basis, Debye-Ang):
   XX=            -58.4635   YY=            -67.1655   ZZ=            -70.9617
   XY=             -0.3685   XZ=             -0.5265   YZ=             -0.2307

 Normal termination of Gaussian 16 at Fri Dec  8 05:58:39 2023.
