 Gaussian 16, Revision B.01,
 Gaussian 16:  ES64L-G16RevB.01 20-Dec-2017

 -------------------------
 #P B3LYP/6-311+g(d) force
 -------------------------

 -----
 DPGEN
 -----
 Symbolic Z-matrix:
 Charge =  0 Multiplicity = 2

                         Standard orientation:
 ---------------------------------------------------------------------
 Center     Atomic      Atomic             Coordinates (Angstroms)
 Number     Number       Type             X           Y           Z
 ---------------------------------------------------------------------
      1         11           0        0.306443    0.017967    2.023285
      2         11           0        2.441014    1.780835   -0.096823
      3         11           0        3.079783   -1.344718   -0.156365
      4         11           0       -0.890936   -2.474552   -0.093518
      5         11           0       -1.783351    2.596812   -0.018909
      6         11           0       -3.106989   -0.715041    0.031144
      7         11           0       -0.045962    0.138698   -1.688815
 ---------------------------------------------------------------------

 SCF Done:  E(UB3LYP) =  -1136.12884614     A.U. after   19 cycles

 The electronic state is 2-A.
 Alpha  occ. eigenvalues --  -38.44547 -38.44480 -38.44171 -38.43689 -38.43438
 Alpha  occ. eigenvalues --  -38.43242 -38.43007  -2.20434  -2.20298  -2.20030
 Alpha  occ. eigenvalues --   -2.19574  -2.19396  -2.19048  -2.18946  -1.14192
 Alpha  occ. eigenvalues --   -1.14075  -1.14051  -1.13990  -1.13959  -1.13938
 Alpha  occ. eigenvalues --   -1.13707  -1.13696  -1.13650  -1.13248  -1.13206
 Alpha  occ. eigenvalues --   -1.13182  -1.13097  -1.13048  -1.13006  -1.12720
 Alpha  occ. eigenvalues --   -1.12709  -1.12691  -1.12634  -1.12591  -1.12569
 Alpha  occ. eigenvalues --   -0.18718  -0.13726  -0.11831  -0.10737
 Alpha virt. eigenvalues --   -0.06145  -0.05584  -0.04010  -0.03571  -0.02575
 Alpha virt. eigenvalues --   -0.02531  -0.01939  -0.01277  -0.00407  -0.00139
 Alpha virt. eigenvalues --   -0.00047   0.00329   0.00677   0.00821   0.00895

  Beta  occ. eigenvalues --  -38.44546 -38.44477 -38.44163 -38.43593 -38.43371
  Beta  occ. eigenvalues --  -38.43242 -38.42999  -2.20436  -2.20296  -2.20020
  Beta  occ. eigenvalues --   -2.19398  -2.19274  -2.19051  -2.18935  -1.14197
  Beta  occ. eigenvalues --   -1.14056  -1.14053  -1.13992  -1.13939  -1.13935
  Beta  occ. eigenvalues --   -1.13700  -1.13663  -1.13648  -1.13132  -1.13079
  Beta  occ. eigenvalues --   -1.13058  -1.13014  -1.12960  -1.12918  -1.12715
  Beta  occ. eigenvalues --   -1.12704  -1.12693  -1.12629  -1.12581  -1.12530
  Beta  occ. eigenvalues --   -0.17971  -0.13509  -0.11611
  Beta virt. eigenvalues --   -0.06812  -0.06050  -0.05594  -0.04022  -0.02742
  Beta virt. eigenvalues --   -0.01827  -0.01817  -0.01499  -0.01209  -0.00452
  Beta virt. eigenvalues --   -0.00179   0.00113   0.00353   0.00748   0.00817

 Mulliken charges and spin densities:
               1          2
     1  Na  -0.499688   0.706537
     2  Na   0.202630  -0.058178
     3  Na   0.181120  -0.020388
     4  Na   0.265842  -0.007420
     5  Na   0.052827  -0.093079
     6  Na   0.094906  -0.020879
     7  Na  -0.297636   0.493407
 Sum of Mulliken charges =   0.00000   1.00000

 Dipole moment (field-independent basis, Debye):
    X=              0.4574    Y=              0.0549    Z=              0.1183  Tot=              0.4757
 Quadrupole moment (field-independent basis, Debye-Ang):
   XX=            -51.9911   YY=            -67.1681   ZZ=            -74.7383
   XY=             -0.8266   XZ=             -0.9237   YZ=              0.4200

 Normal termination of Gaussian 16 at Thu Dec  7 17:24:36 2023.
